                         Program Version 5.0.3 -  RELEASE  -
|  1> ! PBEh-3c def2/J TightSCF DefGrid3
|  2>
|  3> %maxcore 60000
|  4>
|  5> %pal
|  6> nprocs 4
|  7> end
|  8>
|  9> *xyzfile 0 1 13ts_7a.xyz
| 10>
| 11>                          ****END OF INPUT****

CARTESIAN COORDINATES (ANGSTROEM)
---------------------------------
  C     -1.118928   -0.393007    0.060459
  C     -1.069615    0.985692   -0.033342
  O      1.043519    1.356273   -0.214293
  N      1.478529    0.225737    0.229416
  C      0.957823   -0.898681   -0.272132
  H     -1.245945   -0.861330    1.030671
  H     -1.488017   -0.974148   -0.777213
  H     -1.094620    1.610148    0.849160
  H     -1.266449    1.488443   -0.970259
  H      1.753172    0.204284    1.214433
  H      0.820897   -0.920131   -1.343185
  H      1.229635   -1.823278    0.226284

 Total Charge           Charge          ....    0
 Multiplicity           Mult            ....    1
 Number of Electrons    NEL             ....   40
 Basis Dimension        Dim             ....   89

ORBITAL ENERGIES
----------------

  NO   OCC          E(Eh)            E(eV)
   0   2.0000     -19.484220      -530.1926
   1   2.0000     -14.731807      -400.8729
   2   2.0000     -10.492779      -285.5230
   3   2.0000     -10.444625      -284.2127
   4   2.0000     -10.432813      -283.8913
   5   2.0000      -1.192127       -32.4394
   6   2.0000      -0.924496       -25.1568
   7   2.0000      -0.838400       -22.8140
   8   2.0000      -0.727081       -19.7849
   9   2.0000      -0.650296       -17.6955
  10   2.0000      -0.600018       -16.3273
  11   2.0000      -0.537928       -14.6378
  12   2.0000      -0.514678       -14.0051
  13   2.0000      -0.493431       -13.4269
  14   2.0000      -0.467416       -12.7190
  15   2.0000      -0.459665       -12.5081
  16   2.0000      -0.400787       -10.9060
  17   2.0000      -0.321430        -8.7466
  18   2.0000      -0.294378        -8.0104
  19   2.0000      -0.258949        -7.0464
  20   0.0000       0.003960         0.1078
  21   0.0000       0.096181         2.6172
  22   0.0000       0.128140         3.4869
  23   0.0000       0.159721         4.3462
  24   0.0000       0.195369         5.3162

MULLIKEN ATOMIC CHARGES
-----------------------
   0 C :   -0.544045
   1 C :   -0.363336
   2 O :   -0.410608
   3 N :   -0.095025
   4 C :   -0.323430
   5 H :    0.219780
   6 H :    0.228031
   7 H :    0.228218
   8 H :    0.230636
   9 H :    0.343804
  10 H :    0.263483
  11 H :    0.222492
Sum of atomic charges:    0.0000000

LOEWDIN ATOMIC CHARGES
----------------------
   0 C :   -0.328628
   1 C :   -0.212733
   2 O :   -0.297940
   3 N :   -0.010662
   4 C :   -0.187608
   5 H :    0.127508
   6 H :    0.132855
   7 H :    0.132551
   8 H :    0.135664
   9 H :    0.232113
  10 H :    0.145389
  11 H :    0.131491

  Mayer bond orders larger than 0.100000
B(  0-C ,  1-C ) :   1.5151 B(  0-C ,  4-C ) :   0.4019 B(  0-C ,  5-H ) :   0.9261
B(  0-C ,  6-H ) :   0.9204 B(  1-C ,  2-O ) :   0.3770 B(  1-C ,  7-H ) :   0.9240
B(  1-C ,  8-H ) :   0.9246 B(  2-O ,  3-N ) :   1.2942 B(  2-O ,  4-C ) :   0.1870
B(  3-N ,  4-C ) :   1.3395 B(  3-N ,  9-H ) :   0.8093 B(  4-C , 10-H ) :   0.8990
B(  4-C , 11-H ) :   0.9069

Dispersion correction           -0.005122592
FINAL SINGLE POINT ENERGY      -247.811481421612

DIPOLE MOMENT
-------------
                                X             Y             Z
Electronic contribution:      3.23311       1.96975       0.01402
Nuclear contribution   :     -3.10944      -2.96921       0.47749
                        -----------------------------------------
Total Dipole Moment    :      0.12367      -0.99946       0.49151
                        -----------------------------------------
Magnitude (a.u.)       :      1.12062
Magnitude (Debye)      :      2.84840

Rotational constants in cm-1:     0.248775     0.164372     0.110692
Rotational constants in MHz :  7458.093360  4927.759651  3318.476681

                             ****ORCA TERMINATED NORMALLY****
TOTAL RUN TIME: 0 days 0 hours 1 minutes 40 seconds 67 msec
