                         Program Version 5.0.3 -  RELEASE  -
|  1> ! PBEh-3c def2/J TightSCF DefGrid3
|  2>
|  3> %maxcore 60000
|  4>
|  5> %pal
|  6> nprocs 4
|  7> end
|  8>
|  9> *xyzfile 0 1 37.xyz
| 10>
| 11>                          ****END OF INPUT****

CARTESIAN COORDINATES (ANGSTROEM)
---------------------------------
  C      0.797769   -1.023698   -2.743792
  H      0.851411   -1.123697   -3.829543
  H      1.489257   -1.745816   -2.311809
  C      1.114742    0.423306   -2.331867
  H      1.835997    0.888498   -3.001076
  H      1.553425    0.438178   -1.334445
  C     -0.246704    1.164043   -2.328552
  H     -0.260222    1.999217   -3.026206
  H     -0.450949    1.575349   -1.340545
  C     -1.300859    0.102166   -2.692220
  H     -1.475705    0.103597   -3.769534
  H     -2.258879    0.276395   -2.204370
  C     -0.649025   -1.221715   -2.295222
  H     -1.126584   -2.089273   -2.748536
  H     -0.688163   -1.346930   -1.211309
  C      0.047701    0.092561    2.184748
  C     -0.048643   -0.059525    3.700388
  H      0.943903   -0.074991    4.152746
  H     -0.607568    0.768360    4.138823
  H     -0.555808   -0.988191    3.965738
  C      0.761755    1.399466    1.849123
  H      0.843274    1.532965    0.769441
  H      0.218282    2.254155    2.254625
  H      1.769359    1.410117    2.267356
  C     -1.357310    0.112386    1.587429
  H     -1.320379    0.229576    0.503580
  H     -1.939610    0.939809    1.995775
  H     -1.887213   -0.815401    1.808758
  C      0.835601   -1.080924    1.607410
  H      0.340381   -2.027914    1.827653
  H      0.930444   -0.993741    0.524275
  H      1.840319   -1.118328    2.031158

 Total Charge           Charge          ....    0
 Multiplicity           Mult            ....    1
 Number of Electrons    NEL             ....   82
 Basis Dimension        Dim             ....  194

ORBITAL ENERGIES
----------------

  NO   OCC          E(Eh)            E(eV)
   0   2.0000     -10.446962      -284.2763
   1   2.0000     -10.425554      -283.6937
   2   2.0000     -10.425392      -283.6893
   3   2.0000     -10.425077      -283.6808
   4   2.0000     -10.425038      -283.6797
   5   2.0000     -10.424448      -283.6637
   6   2.0000     -10.418280      -283.4958
   7   2.0000     -10.418255      -283.4951
   8   2.0000     -10.418181      -283.4931
   9   2.0000     -10.417874      -283.4848
  10   2.0000      -0.925164       -25.1750
  11   2.0000      -0.914883       -24.8952
  12   2.0000      -0.787279       -21.4229
  13   2.0000      -0.786942       -21.4138
  14   2.0000      -0.763282       -20.7699
  15   2.0000      -0.763034       -20.7632
  16   2.0000      -0.762825       -20.7575
  17   2.0000      -0.637211       -17.3394
  18   2.0000      -0.628310       -17.0972
  19   2.0000      -0.597813       -16.2673
  20   2.0000      -0.541263       -14.7285
  21   2.0000      -0.536140       -14.5891
  22   2.0000      -0.506371       -13.7790
  23   2.0000      -0.506117       -13.7721
  24   2.0000      -0.504717       -13.7340
  25   2.0000      -0.470204       -12.7949
  26   2.0000      -0.468015       -12.7353
  27   2.0000      -0.452312       -12.3080
  28   2.0000      -0.451495       -12.2858
  29   2.0000      -0.412105       -11.2139
  30   2.0000      -0.411871       -11.2076
  31   2.0000      -0.411770       -11.2048
  32   2.0000      -0.385023       -10.4770
  33   2.0000      -0.384921       -10.4742
  34   2.0000      -0.380534       -10.3549
  35   2.0000      -0.376298       -10.2396
  36   2.0000      -0.373938       -10.1754
  37   2.0000      -0.365982        -9.9589
  38   2.0000      -0.365649        -9.9498
  39   2.0000      -0.359622        -9.7858
  40   2.0000      -0.359417        -9.7802
  41   0.0000       0.089815         2.4440
  42   0.0000       0.135101         3.6763
  43   0.0000       0.145482         3.9588
  44   0.0000       0.157585         4.2881
  45   0.0000       0.159165         4.3311

MULLIKEN ATOMIC CHARGES
-----------------------
   0 C :   -0.433760
   1 H :    0.211591
   2 H :    0.221139
   3 C :   -0.443587
   4 H :    0.223343
   5 H :    0.219448
   6 C :   -0.442623
   7 H :    0.223138
   8 H :    0.219831
   9 C :   -0.436135
  10 H :    0.213074
  11 H :    0.221384
  12 C :   -0.439744
  13 H :    0.221907
  14 H :    0.217143
  15 C :   -0.111178
  16 C :   -0.606850
  17 H :    0.211370
  18 H :    0.211388
  19 H :    0.211554
  20 C :   -0.615596
  21 H :    0.220229
  22 H :    0.211954
  23 H :    0.212012
  24 C :   -0.618611
  25 H :    0.224128
  26 H :    0.212484
  27 H :    0.211668
  28 C :   -0.618188
  29 H :    0.211685
  30 H :    0.223151
  31 H :    0.212651
Sum of atomic charges:   -0.0000000

LOEWDIN ATOMIC CHARGES
----------------------
   0 C :   -0.244724
   1 H :    0.121263
   2 H :    0.123971
   3 C :   -0.247507
   4 H :    0.125113
   5 H :    0.120700
   6 C :   -0.247884
   7 H :    0.125158
   8 H :    0.121130
   9 C :   -0.245232
  10 H :    0.121627
  11 H :    0.123944
  12 C :   -0.245546
  13 H :    0.124042
  14 H :    0.120234
  15 C :   -0.115332
  16 C :   -0.343229
  17 H :    0.124318
  18 H :    0.124319
  19 H :    0.124444
  20 C :   -0.343533
  21 H :    0.124069
  22 H :    0.124688
  23 H :    0.124695
  24 C :   -0.344159
  25 H :    0.124631
  26 H :    0.124704
  27 H :    0.124687
  28 C :   -0.344167
  29 H :    0.124694
  30 H :    0.124150
  31 H :    0.124732

  Mayer bond orders larger than 0.100000
B(  0-C ,  1-H ) :   0.9243 B(  0-C ,  2-H ) :   0.9302 B(  0-C ,  3-C ) :   0.9757
B(  0-C , 12-C ) :   0.9780 B(  3-C ,  4-H ) :   0.9323 B(  3-C ,  5-H ) :   0.9205
B(  3-C ,  6-C ) :   0.9608 B(  6-C ,  7-H ) :   0.9324 B(  6-C ,  8-H ) :   0.9220
B(  6-C ,  9-C ) :   0.9734 B(  9-C , 10-H ) :   0.9249 B(  9-C , 11-H ) :   0.9303
B(  9-C , 12-C ) :   0.9786 B( 12-C , 13-H ) :   0.9288 B( 12-C , 14-H ) :   0.9094
B( 15-C , 16-C ) :   0.9839 B( 15-C , 20-C ) :   0.9819 B( 15-C , 24-C ) :   0.9826
B( 15-C , 28-C ) :   0.9826 B( 16-C , 17-H ) :   0.9302 B( 16-C , 18-H ) :   0.9302
B( 16-C , 19-H ) :   0.9302 B( 20-C , 21-H ) :   0.9190 B( 20-C , 22-H ) :   0.9299
B( 20-C , 23-H ) :   0.9298 B( 24-C , 25-H ) :   0.9158 B( 24-C , 26-H ) :   0.9294
B( 24-C , 27-H ) :   0.9299 B( 28-C , 29-H ) :   0.9299 B( 28-C , 30-H ) :   0.9159
B( 28-C , 31-H ) :   0.9293

Dispersion correction           -0.017389937
FINAL SINGLE POINT ENERGY      -393.470863554803

DIPOLE MOMENT
-------------
                                X             Y             Z
Electronic contribution:     -0.11704      -0.23807      -3.70448
Nuclear contribution   :      0.11397       0.23298       3.70650
                        -----------------------------------------
Total Dipole Moment    :     -0.00307      -0.00509       0.00201
                        -----------------------------------------
Magnitude (a.u.)       :      0.00627
Magnitude (Debye)      :      0.01594

Rotational constants in cm-1:     0.068752     0.017465     0.017446
Rotational constants in MHz :  2061.124011   523.584446   523.032755

                             ****ORCA TERMINATED NORMALLY****
TOTAL RUN TIME: 0 days 0 hours 2 minutes 16 seconds 592 msec
