                         Program Version 5.0.3 -  RELEASE  -
|  1> ! PBEh-3c def2/J TightSCF DefGrid3
|  2>
|  3> %maxcore 60000
|  4>
|  5> %pal
|  6> nprocs 4
|  7> end
|  8>
|  9> *xyzfile 0 1 25B.xyz
| 10>
| 11>                          ****END OF INPUT****

CARTESIAN COORDINATES (ANGSTROEM)
---------------------------------
  N      0.000000    0.000000   -1.613077
  C      1.140717    0.000000   -0.910572
  H      2.054654    0.000000   -1.492372
  C      1.194036    0.000000    0.480472
  H      2.149994    0.000000    0.985318
  C      0.000000    0.000000    1.195724
  H      0.000000    0.000000    2.276926
  C     -1.194036    0.000000    0.480472
  H     -2.149994    0.000000    0.985318
  C     -1.140717    0.000000   -0.910572
  H     -2.054654    0.000000   -1.492372

 Total Charge           Charge          ....    0
 Multiplicity           Mult            ....    1
 Number of Electrons    NEL             ....   42
 Basis Dimension        Dim             ....  100

ORBITAL ENERGIES
----------------

  NO   OCC          E(Eh)            E(eV)
   0   2.0000     -14.640430      -398.3864
   1   2.0000     -10.483131      -285.2605
   2   2.0000     -10.483100      -285.2597
   3   2.0000     -10.471358      -284.9401
   4   2.0000     -10.459412      -284.6151
   5   2.0000     -10.459401      -284.6148
   6   2.0000      -1.046768       -28.4840
   7   2.0000      -0.902062       -24.5464
   8   2.0000      -0.854862       -23.2620
   9   2.0000      -0.710112       -19.3231
  10   2.0000      -0.709583       -19.3087
  11   2.0000      -0.601308       -16.3624
  12   2.0000      -0.547287       -14.8924
  13   2.0000      -0.537369       -14.6226
  14   2.0000      -0.492045       -13.3892
  15   2.0000      -0.468474       -12.7478
  16   2.0000      -0.456375       -12.4186
  17   2.0000      -0.421554       -11.4711
  18   2.0000      -0.333591        -9.0775
  19   2.0000      -0.314323        -8.5532
  20   2.0000      -0.306234        -8.3331
  21   0.0000      -0.004867        -0.1324
  22   0.0000       0.008971         0.2441
  23   0.0000       0.144745         3.9387
  24   0.0000       0.182143         4.9564
  25   0.0000       0.195816         5.3284

MULLIKEN ATOMIC CHARGES
-----------------------
   0 N :   -0.359485
   1 C :   -0.038378
   2 H :    0.233144
   3 C :   -0.297746
   4 H :    0.232137
   5 C :   -0.133978
   6 H :    0.235147
   7 C :   -0.297746
   8 H :    0.232137
   9 C :   -0.038378
  10 H :    0.233144
Sum of atomic charges:    0.0000000

LOEWDIN ATOMIC CHARGES
----------------------
   0 N :   -0.139490
   1 C :   -0.056650
   2 H :    0.130208
   3 C :   -0.164681
   4 H :    0.142041
   5 C :   -0.103451
   6 H :    0.141105
   7 C :   -0.164681
   8 H :    0.142041
   9 C :   -0.056650
  10 H :    0.130208

  Mayer bond orders larger than 0.100000
B(  0-N ,  1-C ) :   1.4982 B(  0-N ,  9-C ) :   1.4982 B(  1-C ,  2-H ) :   0.9173
B(  1-C ,  3-C ) :   1.3825 B(  3-C ,  4-H ) :   0.9130 B(  3-C ,  5-C ) :   1.4136
B(  5-C ,  6-H ) :   0.9182 B(  5-C ,  7-C ) :   1.4136 B(  7-C ,  8-H ) :   0.9130
B(  7-C ,  9-C ) :   1.3825 B(  9-C , 10-H ) :   0.9173

Dispersion correction           -0.005321850
FINAL SINGLE POINT ENERGY      -247.729368548300

DIPOLE MOMENT
-------------
                                X             Y             Z
Electronic contribution:      0.00000      -0.00000      -1.32678
Nuclear contribution   :      0.00000       0.00000       2.20248
                        -----------------------------------------
Total Dipole Moment    :      0.00000      -0.00000       0.87570
                        -----------------------------------------
Magnitude (a.u.)       :      0.87570
Magnitude (Debye)      :      2.22585

Rotational constants in cm-1:     0.202284     0.193820     0.098981
Rotational constants in MHz :  6064.314448  5810.583421  2967.369099

                             ****ORCA TERMINATED NORMALLY****
TOTAL RUN TIME: 0 days 0 hours 1 minutes 20 seconds 947 msec
