                         Program Version 5.0.3 -  RELEASE  -
|  1> ! PBEh-3c def2/J TightSCF DefGrid3
|  2>
|  3> %maxcore 60000
|  4>
|  5> %pal
|  6> nprocs 4
|  7> end
|  8>
|  9> *xyzfile 0 1 SER_b.xyz
| 10>
| 11>                          ****END OF INPUT****

CARTESIAN COORDINATES (ANGSTROEM)
---------------------------------
  H      6.492398   -1.961508   -0.267332
  C      6.483528   -0.883856   -0.445381
  H      6.445829   -0.697960   -1.521767
  H      7.419223   -0.480036   -0.048035
  C      5.325056   -0.272560    0.326562
  O      5.204484   -0.418317    1.537700
  N      4.446355    0.462771   -0.423067
  H      4.526356    0.477479   -1.430467
  C      3.249663    1.073009    0.143041
  H      3.260403    0.801393    1.201919
  C      3.254135    2.596463   -0.019424
  H      3.238397    2.863090   -1.079370
  H      2.371181    3.037970    0.453516
  H      4.147203    3.019886    0.446571
  C      2.037380    0.463040   -0.579728
  O      1.867940    0.646165   -1.781408
  N      1.227221   -0.321243    0.185026
  H      1.366228   -0.358500    1.186680
  C     -0.005789   -0.910528   -0.317171
  H     -0.092507   -0.614240   -1.365115
  C      0.033397   -2.435780   -0.213014
  H      0.866435   -2.814701   -0.822469
  H      0.214081   -2.707934    0.835838
  O     -1.227521   -2.910028   -0.666800
  H     -1.293653   -3.848531   -0.449593
  C     -1.160683   -0.357808    0.535629
  O     -1.200132   -0.594353    1.741518
  N     -2.035879    0.456454   -0.106466
  H     -2.006980    0.529104   -1.114435
  C     -3.190955    1.055799    0.560204
  H     -3.146227    0.703704    1.594311
  C     -3.134811    2.585104    0.512568
  H     -3.188533    2.929205   -0.522641
  H     -3.980318    3.017257    1.058118
  H     -2.206707    2.943812    0.966095
  C     -4.451383    0.545692   -0.158337
  O     -4.674833    0.864039   -1.323060
  N     -5.254679   -0.271952    0.573721
  H     -4.946745   -0.543442    1.495801
  C     -6.448921   -0.891251    0.023699
  H     -6.320803   -1.972947   -0.095103
  H     -7.315437   -0.705070    0.666616
  H     -6.623489   -0.447383   -0.956839

 Total Charge           Charge          ....    0
 Multiplicity           Mult            ....    1
 Number of Electrons    NEL             ....  162
 Basis Dimension        Dim             ....  359

ORBITAL ENERGIES
----------------

  NO   OCC          E(Eh)            E(eV)
   0   2.0000     -19.501422      -530.6607
   1   2.0000     -19.469481      -529.7915
   2   2.0000     -19.467566      -529.7394
   3   2.0000     -19.463373      -529.6253
   4   2.0000     -19.456101      -529.4274
   5   2.0000     -14.677966      -399.4077
   6   2.0000     -14.673609      -399.2892
   7   2.0000     -14.673182      -399.2776
   8   2.0000     -14.666634      -399.0994
   9   2.0000     -10.558308      -287.3062
  10   2.0000     -10.557744      -287.2908
  11   2.0000     -10.553137      -287.1654
  12   2.0000     -10.552822      -287.1569
  13   2.0000     -10.497385      -285.6484
  14   2.0000     -10.497354      -285.6475
  15   2.0000     -10.497077      -285.6400
  16   2.0000     -10.495426      -285.5950
  17   2.0000     -10.473822      -285.0072
  18   2.0000     -10.445724      -284.2426
  19   2.0000     -10.437568      -284.0207
  20   2.0000     -10.437381      -284.0156
  21   2.0000      -1.157846       -31.5066
  22   2.0000      -1.150942       -31.3187
  23   2.0000      -1.145053       -31.1585
  24   2.0000      -1.139498       -31.0073
  25   2.0000      -1.135243       -30.8915
  26   2.0000      -1.035972       -28.1902
  27   2.0000      -1.032505       -28.0959
  28   2.0000      -1.026091       -27.9214
  29   2.0000      -1.025004       -27.8918
  30   2.0000      -0.883912       -24.0525
  31   2.0000      -0.868547       -23.6344
  32   2.0000      -0.843984       -22.9660
  33   2.0000      -0.814671       -22.1683
  34   2.0000      -0.799349       -21.7514
  35   2.0000      -0.748696       -20.3731
  36   2.0000      -0.735848       -20.0234
  37   2.0000      -0.703591       -19.1457
  38   2.0000      -0.675185       -18.3727
  39   2.0000      -0.664588       -18.0844
  40   2.0000      -0.660136       -17.9632
  41   2.0000      -0.659294       -17.9403
  42   2.0000      -0.629827       -17.1385
  43   2.0000      -0.595897       -16.2152
  44   2.0000      -0.592082       -16.1114
  45   2.0000      -0.564494       -15.3607
  46   2.0000      -0.546757       -14.8780
  47   2.0000      -0.541683       -14.7399
  48   2.0000      -0.537703       -14.6317
  49   2.0000      -0.533842       -14.5266
  50   2.0000      -0.528811       -14.3897
  51   2.0000      -0.516052       -14.0425
  52   2.0000      -0.513519       -13.9736
  53   2.0000      -0.509361       -13.8604
  54   2.0000      -0.497667       -13.5422
  55   2.0000      -0.489754       -13.3269
  56   2.0000      -0.483607       -13.1596
  57   2.0000      -0.482092       -13.1184
  58   2.0000      -0.476136       -12.9563
  59   2.0000      -0.469768       -12.7830
  60   2.0000      -0.460679       -12.5357
  61   2.0000      -0.451723       -12.2920
  62   2.0000      -0.451045       -12.2736
  63   2.0000      -0.444132       -12.0854
  64   2.0000      -0.437422       -11.9029
  65   2.0000      -0.434499       -11.8233
  66   2.0000      -0.430063       -11.7026
  67   2.0000      -0.421254       -11.4629
  68   2.0000      -0.420574       -11.4444
  69   2.0000      -0.417535       -11.3617
  70   2.0000      -0.408454       -11.1146
  71   2.0000      -0.401098       -10.9144
  72   2.0000      -0.342223        -9.3124
  73   2.0000      -0.335626        -9.1328
  74   2.0000      -0.330139        -8.9835
  75   2.0000      -0.329252        -8.9594
  76   2.0000      -0.310131        -8.4391
  77   2.0000      -0.309844        -8.4313
  78   2.0000      -0.304102        -8.2750
  79   2.0000      -0.300451        -8.1757
  80   2.0000      -0.297711        -8.1011
  81   0.0000       0.032948         0.8966
  82   0.0000       0.043856         1.1934
  83   0.0000       0.061119         1.6631
  84   0.0000       0.073340         1.9957
  85   0.0000       0.116063         3.1582

MULLIKEN ATOMIC CHARGES
-----------------------
   0 H :    0.257092
   1 C :   -0.748268
   2 H :    0.214619
   3 H :    0.258859
   4 C :    0.526566
   5 O :   -0.431606
   6 N :   -0.628932
   7 H :    0.368696
   8 C :   -0.209479
   9 H :    0.268023
  10 C :   -0.629516
  11 H :    0.235961
  12 H :    0.221575
  13 H :    0.238064
  14 C :    0.565630
  15 O :   -0.438177
  16 N :   -0.644136
  17 H :    0.380240
  18 C :   -0.237947
  19 H :    0.279967
  20 C :   -0.131605
  21 H :    0.207796
  22 H :    0.200499
  23 O :   -0.628664
  24 H :    0.426589
  25 C :    0.582205
  26 O :   -0.451190
  27 N :   -0.630314
  28 H :    0.381726
  29 C :   -0.210940
  30 H :    0.260780
  31 C :   -0.627455
  32 H :    0.242417
  33 H :    0.222225
  34 H :    0.233191
  35 C :    0.564547
  36 O :   -0.437753
  37 N :   -0.636262
  38 H :    0.365483
  39 C :   -0.494398
  40 H :    0.224251
  41 H :    0.221157
  42 H :    0.268484
Sum of atomic charges:   -0.0000000

LOEWDIN ATOMIC CHARGES
----------------------
   0 H :    0.156111
   1 C :   -0.389524
   2 H :    0.128124
   3 H :    0.157650
   4 C :    0.112013
   5 O :   -0.285038
   6 N :   -0.227735
   7 H :    0.262183
   8 C :   -0.094117
   9 H :    0.147922
  10 C :   -0.353143
  11 H :    0.140198
  12 H :    0.133484
  13 H :    0.138135
  14 C :    0.114452
  15 O :   -0.285785
  16 N :   -0.212212
  17 H :    0.269250
  18 C :   -0.098513
  19 H :    0.153699
  20 C :   -0.087973
  21 H :    0.110906
  22 H :    0.112875
  23 O :   -0.408628
  24 H :    0.316833
  25 C :    0.117686
  26 O :   -0.295556
  27 N :   -0.207167
  28 H :    0.270797
  29 C :   -0.092785
  30 H :    0.144185
  31 C :   -0.352083
  32 H :    0.143464
  33 H :    0.134162
  34 H :    0.135935
  35 C :    0.112114
  36 O :   -0.287017
  37 N :   -0.241218
  38 H :    0.258599
  39 C :   -0.257070
  40 H :    0.124540
  41 H :    0.124291
  42 H :    0.155956

  Mayer bond orders larger than 0.100000
B(  0-H ,  1-C ) :   0.9106 B(  1-C ,  2-H ) :   0.9200 B(  1-C ,  3-H ) :   0.9094
B(  1-C ,  4-C ) :   0.9225 B(  4-C ,  5-O ) :   1.9838 B(  4-C ,  6-N ) :   1.1278
B(  6-N ,  7-H ) :   0.8108 B(  6-N ,  8-C ) :   0.9266 B(  8-C ,  9-H ) :   0.8741
B(  8-C , 10-C ) :   0.9876 B(  8-C , 14-C ) :   0.8747 B( 10-C , 11-H ) :   0.9136
B( 10-C , 12-H ) :   0.9211 B( 10-C , 13-H ) :   0.9207 B( 14-C , 15-O ) :   1.9625
B( 14-C , 16-N ) :   1.1316 B( 16-N , 17-H ) :   0.8018 B( 16-N , 18-C ) :   0.9165
B( 18-C , 19-H ) :   0.8673 B( 18-C , 20-C ) :   0.9775 B( 18-C , 25-C ) :   0.8675
B( 20-C , 21-H ) :   0.8980 B( 20-C , 22-H ) :   0.8929 B( 20-C , 23-O ) :   1.0232
B( 23-O , 24-H ) :   0.7858 B( 25-C , 26-O ) :   1.9427 B( 25-C , 27-N ) :   1.1489
B( 27-N , 28-H ) :   0.8035 B( 27-N , 29-C ) :   0.9232 B( 29-C , 30-H ) :   0.8791
B( 29-C , 31-C ) :   0.9887 B( 29-C , 35-C ) :   0.8775 B( 31-C , 32-H ) :   0.9108
B( 31-C , 33-H ) :   0.9209 B( 31-C , 34-H ) :   0.9218 B( 35-C , 36-O ) :   1.9665
B( 35-C , 37-N ) :   1.1379 B( 36-O , 37-N ) :   0.1016 B( 37-N , 38-H ) :   0.8218
B( 37-N , 39-C ) :   0.9470 B( 39-C , 40-H ) :   0.9181 B( 39-C , 41-H ) :   0.9212
B( 39-C , 42-H ) :   0.8980

Dispersion correction           -0.025796359
FINAL SINGLE POINT ENERGY     -1063.446287514388

DIPOLE MOMENT
-------------
                                X             Y             Z
Electronic contribution:      0.29830      -3.64169      -0.01511
Nuclear contribution   :     -0.73514       2.94065       0.21191
                        -----------------------------------------
Total Dipole Moment    :     -0.43684      -0.70104       0.19679
                        -----------------------------------------
Magnitude (a.u.)       :      0.84912
Magnitude (Debye)      :      2.15830

Rotational constants in cm-1:     0.021446     0.003821     0.003547
Rotational constants in MHz :   642.946101   114.540475   106.325770

                             ****ORCA TERMINATED NORMALLY****
TOTAL RUN TIME: 0 days 0 hours 5 minutes 46 seconds 709 msec
