                         Program Version 5.0.3 -  RELEASE  -
|  1> ! PBEh-3c def2/J TightSCF DefGrid3
|  2>
|  3> %maxcore 60000
|  4>
|  5> %pal
|  6> nprocs 4
|  7> end
|  8>
|  9> *xyzfile 0 1 17A.xyz
| 10>
| 11>                          ****END OF INPUT****

CARTESIAN COORDINATES (ANGSTROEM)
---------------------------------
  N      1.314053    0.054694    0.000000
  H      2.342475    0.105930    0.000000
  C      0.747228   -1.208501    0.000000
  O      1.449954   -2.221592    0.000000
  C     -0.699570   -1.230405    0.000000
  H     -1.205538   -2.179908    0.000000
  C     -1.377968   -0.063982    0.000000
  H     -2.456845   -0.017288    0.000000
  N     -0.730785    1.137336    0.000000
  H     -1.239786    2.005806    0.000000
  C      0.652574    1.268947    0.000000
  O      1.204209    2.348962    0.000000

 Total Charge           Charge          ....    0
 Multiplicity           Mult            ....    1
 Number of Electrons    NEL             ....   58
 Basis Dimension        Dim             ....  128

ORBITAL ENERGIES
----------------

  NO   OCC          E(Eh)            E(eV)
   0   2.0000     -19.486442      -530.2530
   1   2.0000     -19.471922      -529.8579
   2   2.0000     -14.718677      -400.5156
   3   2.0000     -14.703061      -400.0906
   4   2.0000     -10.612594      -288.7834
   5   2.0000     -10.571766      -287.6724
   6   2.0000     -10.537609      -286.7429
   7   2.0000     -10.466141      -284.7982
   8   2.0000      -1.199741       -32.6466
   9   2.0000      -1.151153       -31.3245
  10   2.0000      -1.094884       -29.7933
  11   2.0000      -1.037141       -28.2221
  12   2.0000      -0.898832       -24.4584
  13   2.0000      -0.780398       -21.2357
  14   2.0000      -0.752319       -20.4716
  15   2.0000      -0.678911       -18.4741
  16   2.0000      -0.637589       -17.3497
  17   2.0000      -0.596334       -16.2271
  18   2.0000      -0.554784       -15.0964
  19   2.0000      -0.543375       -14.7860
  20   2.0000      -0.523984       -14.2583
  21   2.0000      -0.491214       -13.3666
  22   2.0000      -0.481282       -13.0964
  23   2.0000      -0.466700       -12.6995
  24   2.0000      -0.432985       -11.7821
  25   2.0000      -0.362832        -9.8732
  26   2.0000      -0.341557        -9.2942
  27   2.0000      -0.325646        -8.8613
  28   2.0000      -0.298651        -8.1267
  29   0.0000      -0.021811        -0.5935
  30   0.0000       0.036715         0.9991
  31   0.0000       0.095142         2.5889
  32   0.0000       0.143794         3.9128
  33   0.0000       0.160298         4.3619

MULLIKEN ATOMIC CHARGES
-----------------------
   0 N :   -0.719558
   1 H :    0.402003
   2 C :    0.571188
   3 O :   -0.407967
   4 C :   -0.452930
   5 H :    0.268297
   6 C :    0.085329
   7 H :    0.272346
   8 N :   -0.681142
   9 H :    0.393649
  10 C :    0.678886
  11 O :   -0.410101
Sum of atomic charges:   -0.0000000

LOEWDIN ATOMIC CHARGES
----------------------
   0 N :   -0.197316
   1 H :    0.292031
   2 C :    0.121016
   3 O :   -0.259838
   4 C :   -0.237784
   5 H :    0.164971
   6 C :   -0.015984
   7 H :    0.149533
   8 N :   -0.190535
   9 H :    0.282387
  10 C :    0.148858
  11 O :   -0.257338

  Mayer bond orders larger than 0.100000
B(  0-N ,  1-H ) :   0.7952 B(  0-N ,  2-C ) :   0.9962 B(  0-N , 10-C ) :   1.0576
B(  2-C ,  3-O ) :   2.0145 B(  2-C ,  4-C ) :   1.0638 B(  4-C ,  5-H ) :   0.9066
B(  4-C ,  6-C ) :   1.6382 B(  6-C ,  7-H ) :   0.8987 B(  6-C ,  8-N ) :   1.0741
B(  8-N ,  9-H ) :   0.8077 B(  8-N , 10-C ) :   1.0229 B( 10-C , 11-O ) :   2.0519

Dispersion correction           -0.006238199
FINAL SINGLE POINT ENERGY      -413.937122026293

DIPOLE MOMENT
-------------
                                X             Y             Z
Electronic contribution:      2.04618       0.73903      -0.00000
Nuclear contribution   :     -3.70973      -0.20126       0.00000
                        -----------------------------------------
Total Dipole Moment    :     -1.66355       0.53776      -0.00000
                        -----------------------------------------
Magnitude (a.u.)       :      1.74831
Magnitude (Debye)      :      4.44386

Rotational constants in cm-1:     0.130703     0.067514     0.044518
Rotational constants in MHz :  3918.364041  2024.033257  1334.629567

                             ****ORCA TERMINATED NORMALLY****
TOTAL RUN TIME: 0 days 0 hours 1 minutes 50 seconds 19 msec
