                         Program Version 5.0.3 -  RELEASE  -
|  1> ! PBEh-3c def2/J TightSCF DefGrid3
|  2>
|  3> %maxcore 60000
|  4>
|  5> %pal
|  6> nprocs 4
|  7> end
|  8>
|  9> *xyzfile 0 1 34A.xyz
| 10>
| 11>                          ****END OF INPUT****

CARTESIAN COORDINATES (ANGSTROEM)
---------------------------------
  C     -0.141425   -0.266672   -2.533313
  H      0.331550   -1.248235   -2.563645
  H     -1.220256   -0.417815   -2.566952
  H      0.147813    0.272114   -3.434439
  C      0.260759    0.486054   -1.271901
  H     -0.196351    1.478560   -1.271029
  H      1.341403    0.646574   -1.266680
  C     -0.140088   -0.249036    0.000000
  H     -1.222691   -0.407038    0.000000
  H      0.314700   -1.244185    0.000000
  C      0.260759    0.486054    1.271901
  H     -0.196351    1.478560    1.271029
  H      1.341403    0.646574    1.266680
  C     -0.141425   -0.266672    2.533313
  H      0.331550   -1.248235    2.563645
  H      0.147813    0.272114    3.434439
  H     -1.220256   -0.417815    2.566952

 Total Charge           Charge          ....    0
 Multiplicity           Mult            ....    1
 Number of Electrons    NEL             ....   42
 Basis Dimension        Dim             ....   99

ORBITAL ENERGIES
----------------

  NO   OCC          E(Eh)            E(eV)
   0   2.0000     -10.426737      -283.7259
   1   2.0000     -10.426711      -283.7252
   2   2.0000     -10.424673      -283.6698
   3   2.0000     -10.418823      -283.5106
   4   2.0000     -10.418813      -283.5103
   5   2.0000      -0.893135       -24.3034
   6   2.0000      -0.836911       -22.7735
   7   2.0000      -0.754625       -20.5344
   8   2.0000      -0.670537       -18.2462
   9   2.0000      -0.644170       -17.5288
  10   2.0000      -0.536076       -14.5874
  11   2.0000      -0.494947       -13.4682
  12   2.0000      -0.488177       -13.2840
  13   2.0000      -0.457587       -12.4516
  14   2.0000      -0.447153       -12.1676
  15   2.0000      -0.428069       -11.6483
  16   2.0000      -0.402145       -10.9429
  17   2.0000      -0.382237       -10.4012
  18   2.0000      -0.373066       -10.1516
  19   2.0000      -0.366209        -9.9650
  20   2.0000      -0.361577        -9.8390
  21   0.0000       0.137428         3.7396
  22   0.0000       0.155150         4.2219
  23   0.0000       0.185410         5.0453
  24   0.0000       0.186646         5.0789
  25   0.0000       0.202709         5.5160

MULLIKEN ATOMIC CHARGES
-----------------------
   0 C :   -0.638573
   1 H :    0.208758
   2 H :    0.208828
   3 H :    0.218384
   4 C :   -0.410035
   5 H :    0.204425
   6 H :    0.204384
   7 C :   -0.390906
   8 H :    0.199418
   9 H :    0.199146
  10 C :   -0.410035
  11 H :    0.204425
  12 H :    0.204384
  13 C :   -0.638573
  14 H :    0.208758
  15 H :    0.218384
  16 H :    0.208828
Sum of atomic charges:   -0.0000000

LOEWDIN ATOMIC CHARGES
----------------------
   0 C :   -0.361918
   1 H :    0.123354
   2 H :    0.123317
   3 H :    0.125750
   4 C :   -0.246234
   5 H :    0.119209
   6 H :    0.119221
   7 C :   -0.241561
   8 H :    0.118131
   9 H :    0.118034
  10 C :   -0.246234
  11 H :    0.119209
  12 H :    0.119221
  13 C :   -0.361918
  14 H :    0.123354
  15 H :    0.125750
  16 H :    0.123317

  Mayer bond orders larger than 0.100000
B(  0-C ,  1-H ) :   0.9297 B(  0-C ,  2-H ) :   0.9296 B(  0-C ,  3-H ) :   0.9324
B(  0-C ,  4-C ) :   0.9986 B(  4-C ,  5-H ) :   0.9204 B(  4-C ,  6-H ) :   0.9204
B(  4-C ,  7-C ) :   0.9923 B(  7-C ,  8-H ) :   0.9182 B(  7-C ,  9-H ) :   0.9183
B(  7-C , 10-C ) :   0.9923 B( 10-C , 11-H ) :   0.9204 B( 10-C , 12-H ) :   0.9204
B( 10-C , 13-C ) :   0.9986 B( 13-C , 14-H ) :   0.9297 B( 13-C , 15-H ) :   0.9324
B( 13-C , 16-H ) :   0.9296

Dispersion correction           -0.006815986
FINAL SINGLE POINT ENERGY      -197.333893508456

DIPOLE MOMENT
-------------
                                X             Y             Z
Electronic contribution:      0.27210       0.52064       0.00000
Nuclear contribution   :     -0.26259      -0.50303      -0.00000
                        -----------------------------------------
Total Dipole Moment    :      0.00951       0.01761       0.00000
                        -----------------------------------------
Magnitude (a.u.)       :      0.02001
Magnitude (Debye)      :      0.05087

Rotational constants in cm-1:     0.569505     0.065446     0.062049
Rotational constants in MHz : 17073.333979  1962.029228  1860.181683

                             ****ORCA TERMINATED NORMALLY****
TOTAL RUN TIME: 0 days 0 hours 1 minutes 2 seconds 391 msec
