                         Program Version 5.0.3 -  RELEASE  -
|  1> ! PBEh-3c def2/J TightSCF DefGrid3
|  2>
|  3> %maxcore 60000
|  4>
|  5> %pal
|  6> nprocs 4
|  7> end
|  8>
|  9> *xyzfile 0 1 13r_5.xyz
| 10>
| 11>                          ****END OF INPUT****

CARTESIAN COORDINATES (ANGSTROEM)
---------------------------------
  C     -1.131778    0.157449   -0.205119
  H     -1.922656    0.169793    0.525650
  N      0.053501    0.122042   -0.082184
  N      1.286611    0.240304   -0.114460
  H      1.714322   -0.689589   -0.123887

 Total Charge           Charge          ....    0
 Multiplicity           Mult            ....    1
 Number of Electrons    NEL             ....   22
 Basis Dimension        Dim             ....   49

ORBITAL ENERGIES
----------------

  NO   OCC          E(Eh)            E(eV)
   0   2.0000     -14.772185      -401.9716
   1   2.0000     -14.666380      -399.0925
   2   2.0000     -10.493684      -285.5477
   3   2.0000      -1.167804       -31.7776
   4   2.0000      -0.955898       -26.0113
   5   2.0000      -0.665570       -18.1111
   6   2.0000      -0.609665       -16.5898
   7   2.0000      -0.519666       -14.1408
   8   2.0000      -0.505965       -13.7680
   9   2.0000      -0.328176        -8.9301
  10   2.0000      -0.280346        -7.6286
  11   0.0000       0.006858         0.1866
  12   0.0000       0.028440         0.7739
  13   0.0000       0.155717         4.2373
  14   0.0000       0.209962         5.7134
  15   0.0000       0.290752         7.9118

MULLIKEN ATOMIC CHARGES
-----------------------
   0 C :   -0.233199
   1 H :    0.265526
   2 N :    0.103927
   3 N :   -0.477065
   4 H :    0.340811
Sum of atomic charges:    0.0000000

LOEWDIN ATOMIC CHARGES
----------------------
   0 C :   -0.228645
   1 H :    0.164360
   2 N :    0.165507
   3 N :   -0.337224
   4 H :    0.236002

  Mayer bond orders larger than 0.100000
B(  0-C ,  1-H ) :   0.8632 B(  0-C ,  2-N ) :   2.2225 B(  0-C ,  3-N ) :   0.4113
B(  2-N ,  3-N ) :   1.5802 B(  3-N ,  4-H ) :   0.8193

Dispersion correction           -0.001195508
FINAL SINGLE POINT ENERGY      -148.358726588724

DIPOLE MOMENT
-------------
                                X             Y             Z
Electronic contribution:      0.05556       0.13728      -0.11141
Nuclear contribution   :     -0.41107      -0.77489       0.59192
                        -----------------------------------------
Total Dipole Moment    :     -0.35551      -0.63761       0.48051
                        -----------------------------------------
Magnitude (a.u.)       :      0.87397
Magnitude (Debye)      :      2.22146

Rotational constants in cm-1:    12.370229     0.372626     0.370091
Rotational constants in MHz : 370850.147691 11171.043197 11095.035513

                             ****ORCA TERMINATED NORMALLY****
TOTAL RUN TIME: 0 days 0 hours 1 minutes 12 seconds 77 msec
