                         Program Version 5.0.3 -  RELEASE  -
|  1> ! PBEh-3c def2/J TightSCF DefGrid3
|  2>
|  3> %maxcore 60000
|  4>
|  5> %pal
|  6> nprocs 4
|  7> end
|  8>
|  9> *xyzfile -1 1 1e.xyz
| 10>
| 11>                          ****END OF INPUT****

CARTESIAN COORDINATES (ANGSTROEM)
---------------------------------
  H      5.590407   -0.355879   -2.950188
  O      4.807633   -0.377020   -2.376698
  C      3.650100   -0.495901   -3.219186
  H      3.795999   -1.283961   -3.968080
  H      3.450019    0.449927   -3.740926
  C      2.439801   -0.824087   -2.376405
  H      1.553142   -0.815580   -3.021744
  O      2.584208   -2.162712   -1.805218
  C      2.018313   -2.208402   -0.509459
  H      1.325998   -3.046994   -0.424397
  N      3.101630   -2.440578    0.497606
  C      4.424962   -2.241167    0.204346
  H      4.621924   -1.907024   -0.809454
  C      5.409961   -2.437778    1.118172
  H      6.446851   -2.271967    0.857038
  C      5.083336   -2.870849    2.451447
  O      5.877897   -3.090514    3.375829
  N      3.705863   -3.035314    2.665697
  H      3.417735   -3.330036    3.595242
  C      2.681998   -2.841389    1.762240
  O      1.494700   -3.001264    2.044294
  C      2.192508    0.058026   -1.155200
  H      3.134746    0.285561   -0.645891
  C      1.324766   -0.862684   -0.274172
  H      1.326020   -0.575683    0.781076
  O      0.001497   -0.992443   -0.776818
  H     -0.481625   -0.151864   -0.613866
  O      1.554709    1.274768   -1.539910
  P      1.660972    2.564149   -0.518449
  O      1.209942    3.752368   -1.312051
  O      2.982719    2.519756    0.189209
  O      0.515596    2.160216    0.592042
  C     -0.709735    2.910181    0.665966
  H     -0.522321    3.978124    0.522563
  H     -1.104986    2.736418    1.671233
  C     -1.705461    2.446371   -0.376655
  H     -1.331709    2.669367   -1.381762
  O     -1.879101    1.003689   -0.262856
  C     -3.206662    0.618420   -0.587385
  H     -3.211730   -0.066864   -1.437480
  N     -3.776029   -0.110198    0.588579
  C     -3.069283   -0.292380    1.750489
  H     -2.070862    0.123677    1.740645
  C     -3.580698   -0.945417    2.823669
  H     -2.993675   -1.075377    3.722988
  C     -4.917902   -1.478924    2.774042
  O     -5.505725   -2.090100    3.674624
  N     -5.564086   -1.254131    1.548473
  H     -6.510793   -1.613998    1.455260
  C     -5.072368   -0.598745    0.440774
  O     -5.717425   -0.457158   -0.597294
  C     -3.117968    2.992739   -0.202902
  H     -3.381836    3.067834    0.857858
  C     -3.973455    1.913421   -0.898419
  H     -5.002644    1.884525   -0.533294
  O     -3.933679    2.112799   -2.310443
  H     -3.845966    3.081003   -2.431029
  O     -3.221137    4.262004   -0.847792
  H     -3.977091    4.739039   -0.465980

 Total Charge           Charge          ....   -1
 Multiplicity           Mult            ....    1
 Number of Electrons    NEL             ....  286
 Basis Dimension        Dim             ....  602

ORBITAL ENERGIES
----------------

  NO   OCC          E(Eh)            E(eV)
   0   2.0000     -77.708982     -2114.5689
   1   2.0000     -19.462847      -529.6110
   2   2.0000     -19.462521      -529.6021
   3   2.0000     -19.429069      -528.6918
   4   2.0000     -19.428923      -528.6879
   5   2.0000     -19.421728      -528.4921
   6   2.0000     -19.416394      -528.3469
   7   2.0000     -19.403330      -527.9915
   8   2.0000     -19.391134      -527.6596
   9   2.0000     -19.381968      -527.4102
  10   2.0000     -19.381064      -527.3856
  11   2.0000     -19.380634      -527.3739
  12   2.0000     -19.376752      -527.2682
  13   2.0000     -19.271061      -524.3922
  14   2.0000     -19.263864      -524.1964
  15   2.0000     -14.651166      -398.6785
  16   2.0000     -14.632718      -398.1765
  17   2.0000     -14.622640      -397.9023
  18   2.0000     -14.609081      -397.5333
  19   2.0000     -10.540975      -286.8345
  20   2.0000     -10.515164      -286.1322
  21   2.0000     -10.502350      -285.7835
  22   2.0000     -10.487446      -285.3779
  23   2.0000     -10.479758      -285.1687
  24   2.0000     -10.454828      -284.4903
  25   2.0000     -10.452187      -284.4185
  26   2.0000     -10.448722      -284.3242
  27   2.0000     -10.440021      -284.0874
  28   2.0000     -10.427635      -283.7504
  29   2.0000     -10.424360      -283.6613
  30   2.0000     -10.411179      -283.3026
  31   2.0000     -10.407151      -283.1930
  32   2.0000     -10.401660      -283.0436
  33   2.0000     -10.393641      -282.8253
  34   2.0000     -10.389134      -282.7027
  35   2.0000     -10.386441      -282.6294
  36   2.0000     -10.365112      -282.0490
  37   2.0000      -6.753426      -183.7701
  38   2.0000      -4.848367      -131.9308
  39   2.0000      -4.847343      -131.9029
  40   2.0000      -4.844997      -131.8391
  41   2.0000      -1.131336       -30.7852
  42   2.0000      -1.113928       -30.3115
  43   2.0000      -1.102743       -30.0072
  44   2.0000      -1.093056       -29.7436
  45   2.0000      -1.080999       -29.4155
  46   2.0000      -1.077895       -29.3310
  47   2.0000      -1.056389       -28.7458
  48   2.0000      -1.054483       -28.6939
  49   2.0000      -1.048764       -28.5383
  50   2.0000      -1.038847       -28.2685
  51   2.0000      -1.015600       -27.6359
  52   2.0000      -1.014245       -27.5990
  53   2.0000      -0.994180       -27.0530
  54   2.0000      -0.988645       -26.9024
  55   2.0000      -0.965834       -26.2817
  56   2.0000      -0.940880       -25.6026
  57   2.0000      -0.898871       -24.4595
  58   2.0000      -0.857176       -23.3250
  59   2.0000      -0.830229       -22.5917
  60   2.0000      -0.808466       -21.9995
  61   2.0000      -0.804136       -21.8817
  62   2.0000      -0.779690       -21.2165
  63   2.0000      -0.774369       -21.0717
  64   2.0000      -0.750942       -20.4342
  65   2.0000      -0.706636       -19.2286
  66   2.0000      -0.696226       -18.9453
  67   2.0000      -0.682878       -18.5821
  68   2.0000      -0.679714       -18.4960
  69   2.0000      -0.658800       -17.9269
  70   2.0000      -0.634651       -17.2697
  71   2.0000      -0.627547       -17.0764
  72   2.0000      -0.606520       -16.5043
  73   2.0000      -0.587319       -15.9818
  74   2.0000      -0.578981       -15.7549
  75   2.0000      -0.572197       -15.5703
  76   2.0000      -0.560031       -15.2392
  77   2.0000      -0.547503       -14.8983
  78   2.0000      -0.542418       -14.7600
  79   2.0000      -0.536405       -14.5963
  80   2.0000      -0.524723       -14.2784
  81   2.0000      -0.518953       -14.1214
  82   2.0000      -0.518065       -14.0973
  83   2.0000      -0.498471       -13.5641
  84   2.0000      -0.496793       -13.5184
  85   2.0000      -0.494694       -13.4613
  86   2.0000      -0.485325       -13.2064
  87   2.0000      -0.478899       -13.0315
  88   2.0000      -0.467441       -12.7197
  89   2.0000      -0.463047       -12.6002
  90   2.0000      -0.458247       -12.4695
  91   2.0000      -0.450395       -12.2559
  92   2.0000      -0.447993       -12.1905
  93   2.0000      -0.445510       -12.1230
  94   2.0000      -0.441379       -12.0105
  95   2.0000      -0.436621       -11.8811
  96   2.0000      -0.429901       -11.6982
  97   2.0000      -0.426453       -11.6044
  98   2.0000      -0.421590       -11.4720
  99   2.0000      -0.412723       -11.2308
 100   2.0000      -0.410499       -11.1703
 101   2.0000      -0.407051       -11.0764
 102   2.0000      -0.401051       -10.9131
 103   2.0000      -0.398352       -10.8397
 104   2.0000      -0.391390       -10.6503
 105   2.0000      -0.389061       -10.5869
 106   2.0000      -0.385734       -10.4964
 107   2.0000      -0.382250       -10.4015
 108   2.0000      -0.376595       -10.2477
 109   2.0000      -0.371014       -10.0958
 110   2.0000      -0.365321        -9.9409
 111   2.0000      -0.357888        -9.7386
 112   2.0000      -0.353073        -9.6076
 113   2.0000      -0.342638        -9.3237
 114   2.0000      -0.339347        -9.2341
 115   2.0000      -0.335010        -9.1161
 116   2.0000      -0.331773        -9.0280
 117   2.0000      -0.323473        -8.8021
 118   2.0000      -0.321378        -8.7451
 119   2.0000      -0.304161        -8.2766
 120   2.0000      -0.295568        -8.0428
 121   2.0000      -0.289286        -7.8719
 122   2.0000      -0.287291        -7.8176
 123   2.0000      -0.282650        -7.6913
 124   2.0000      -0.274395        -7.4667
 125   2.0000      -0.271030        -7.3751
 126   2.0000      -0.269780        -7.3411
 127   2.0000      -0.263819        -7.1789
 128   2.0000      -0.258216        -7.0264
 129   2.0000      -0.256714        -6.9855
 130   2.0000      -0.253491        -6.8978
 131   2.0000      -0.249954        -6.8016
 132   2.0000      -0.247309        -6.7296
 133   2.0000      -0.243051        -6.6138
 134   2.0000      -0.232574        -6.3287
 135   2.0000      -0.229534        -6.2459
 136   2.0000      -0.217922        -5.9300
 137   2.0000      -0.210813        -5.7365
 138   2.0000      -0.195380        -5.3166
 139   2.0000      -0.191957        -5.2234
 140   2.0000      -0.180586        -4.9140
 141   2.0000      -0.159438        -4.3385
 142   2.0000      -0.147860        -4.0235
 143   0.0000       0.051849         1.4109
 144   0.0000       0.076666         2.0862
 145   0.0000       0.102362         2.7854
 146   0.0000       0.127739         3.4759
 147   0.0000       0.144996         3.9455

MULLIKEN ATOMIC CHARGES
-----------------------
   0 H :    0.418227
   1 O :   -0.626571
   2 C :   -0.178484
   3 H :    0.188381
   4 H :    0.219801
   5 C :    0.034880
   6 H :    0.236244
   7 O :   -0.509314
   8 C :    0.203764
   9 H :    0.266120
  10 N :   -0.571713
  11 C :    0.085025
  12 H :    0.325028
  13 C :   -0.480897
  14 H :    0.240105
  15 C :    0.559975
  16 O :   -0.440116
  17 N :   -0.732300
  18 H :    0.385114
  19 C :    0.717665
  20 O :   -0.449190
  21 C :   -0.008766
  22 H :    0.268288
  23 C :   -0.053052
  24 H :    0.254073
  25 O :   -0.685114
  26 H :    0.464785
  27 O :   -0.619349
  28 P :    1.366298
  29 O :   -0.739559
  30 O :   -0.726259
  31 O :   -0.615972
  32 C :   -0.139047
  33 H :    0.242227
  34 H :    0.172713
  35 C :    0.012422
  36 H :    0.292435
  37 O :   -0.541806
  38 C :    0.252086
  39 H :    0.289756
  40 N :   -0.587978
  41 C :    0.078733
  42 H :    0.323125
  43 C :   -0.467139
  44 H :    0.263045
  45 C :    0.558239
  46 O :   -0.426738
  47 N :   -0.732486
  48 H :    0.389462
  49 C :    0.718555
  50 O :   -0.444147
  51 C :   -0.053679
  52 H :    0.208805
  53 C :   -0.040232
  54 H :    0.238261
  55 O :   -0.632965
  56 H :    0.427758
  57 O :   -0.621161
  58 H :    0.422639
Sum of atomic charges:   -1.0000000

LOEWDIN ATOMIC CHARGES
----------------------
   0 H :    0.310648
   1 O :   -0.408004
   2 C :   -0.094255
   3 H :    0.105499
   4 H :    0.123847
   5 C :   -0.011086
   6 H :    0.131829
   7 O :   -0.244026
   8 C :    0.084628
   9 H :    0.140550
  10 N :   -0.090822
  11 C :    0.001159
  12 H :    0.169907
  13 C :   -0.262064
  14 H :    0.154083
  15 C :    0.126057
  16 O :   -0.292358
  17 N :   -0.200321
  18 H :    0.280531
  19 C :    0.158638
  20 O :   -0.286763
  21 C :   -0.039435
  22 H :    0.146476
  23 C :   -0.039099
  24 H :    0.128877
  25 O :   -0.418324
  26 H :    0.313386
  27 O :   -0.342655
  28 P :    0.811146
  29 O :   -0.609226
  30 O :   -0.603060
  31 O :   -0.362083
  32 C :   -0.088119
  33 H :    0.139855
  34 H :    0.104707
  35 C :   -0.021023
  36 H :    0.156173
  37 O :   -0.225407
  38 C :    0.095943
  39 H :    0.149910
  40 N :   -0.096589
  41 C :   -0.000026
  42 H :    0.172266
  43 C :   -0.250416
  44 H :    0.163664
  45 C :    0.126108
  46 O :   -0.279289
  47 N :   -0.199241
  48 H :    0.283112
  49 C :    0.157314
  50 O :   -0.282185
  51 C :   -0.041092
  52 H :    0.114327
  53 C :   -0.042430
  54 H :    0.120361
  55 O :   -0.392281
  56 H :    0.314347
  57 O :   -0.381919
  58 H :    0.318252

  Mayer bond orders larger than 0.100000
B(  0-H ,  1-O ) :   0.7907 B(  1-O ,  2-C ) :   0.9896 B(  2-C ,  3-H ) :   0.9063
B(  2-C ,  4-H ) :   0.8913 B(  2-C ,  5-C ) :   0.9726 B(  5-C ,  6-H ) :   0.8859
B(  5-C ,  7-O ) :   0.8942 B(  5-C , 21-C ) :   0.9178 B(  7-O ,  8-C ) :   1.0158
B(  8-C ,  9-H ) :   0.8826 B(  8-C , 10-N ) :   0.8301 B(  8-C , 23-C ) :   0.9280
B( 10-N , 11-C ) :   1.0966 B( 10-N , 19-C ) :   1.0374 B( 11-C , 12-H ) :   0.8241
B( 11-C , 13-C ) :   1.5778 B( 13-C , 14-H ) :   0.9212 B( 13-C , 15-C ) :   1.0889
B( 15-C , 16-O ) :   1.9916 B( 15-C , 17-N ) :   0.9842 B( 17-N , 18-H ) :   0.8062
B( 17-N , 19-C ) :   1.0633 B( 19-C , 20-O ) :   1.9578 B( 21-C , 22-H ) :   0.8400
B( 21-C , 23-C ) :   0.9114 B( 21-C , 27-O ) :   0.9563 B( 23-C , 24-H ) :   0.8930
B( 23-C , 25-O ) :   1.0249 B( 25-O , 26-H ) :   0.6838 B( 27-O , 28-P ) :   0.8558
B( 28-P , 29-O ) :   1.7076 B( 28-P , 30-O ) :   1.7341 B( 28-P , 31-O ) :   0.8406
B( 31-O , 32-C ) :   0.9795 B( 32-C , 33-H ) :   0.8758 B( 32-C , 34-H ) :   0.9126
B( 32-C , 35-C ) :   0.9765 B( 35-C , 36-H ) :   0.8515 B( 35-C , 37-O ) :   0.8370
B( 35-C , 51-C ) :   0.9150 B( 37-O , 38-C ) :   0.9692 B( 38-C , 39-H ) :   0.8751
B( 38-C , 40-N ) :   0.8261 B( 38-C , 53-C ) :   0.9214 B( 40-N , 41-C ) :   1.0912
B( 40-N , 49-C ) :   1.0306 B( 41-C , 42-H ) :   0.8601 B( 41-C , 43-C ) :   1.5902
B( 43-C , 44-H ) :   0.9112 B( 43-C , 45-C ) :   1.0796 B( 45-C , 46-O ) :   2.0025
B( 45-C , 47-N ) :   0.9799 B( 47-N , 48-H ) :   0.8036 B( 47-N , 49-C ) :   1.0691
B( 49-C , 50-O ) :   1.9520 B( 51-C , 52-H ) :   0.8869 B( 51-C , 53-C ) :   0.9317
B( 51-C , 57-O ) :   1.0050 B( 53-C , 54-H ) :   0.8947 B( 53-C , 55-O ) :   1.0144
B( 55-O , 56-H ) :   0.7473 B( 57-O , 58-H ) :   0.7858

Dispersion correction           -0.047157571
FINAL SINGLE POINT ENERGY     -2308.296137989272

DIPOLE MOMENT
-------------
                                X             Y             Z
Electronic contribution:     -0.68348      -5.00859       7.82323
Nuclear contribution   :     -2.25539       4.48553      -8.94294
                        -----------------------------------------
Total Dipole Moment    :     -2.93887      -0.52306      -1.11970
                        -----------------------------------------
Magnitude (a.u.)       :      3.18814
Magnitude (Debye)      :      8.10362

Rotational constants in cm-1:     0.004388     0.002111     0.001665
Rotational constants in MHz :   131.539644    63.273877    49.913587

                             ****ORCA TERMINATED NORMALLY****
TOTAL RUN TIME: 0 days 0 hours 15 minutes 51 seconds 696 msec
