                         Program Version 5.0.3 -  RELEASE  -
|  1> ! PBEh-3c def2/J TightSCF DefGrid3
|  2>
|  3> %maxcore 60000
|  4>
|  5> %pal
|  6> nprocs 4
|  7> end
|  8>
|  9> *xyzfile 0 1 ASP_xaz.xyz
| 10>
| 11>                          ****END OF INPUT****

CARTESIAN COORDINATES (ANGSTROEM)
---------------------------------
  N     -1.148061   -1.122672    0.070938
  H     -0.960920   -2.112707    0.152303
  C      0.000776   -0.277523   -0.107619
  H     -0.062158    0.180484   -1.099597
  C      0.073747    0.847412    0.953130
  C      1.246238   -1.160270   -0.096477
  H      0.866284    0.660395    1.671588
  H     -0.878165    0.903723    1.473197
  C      0.351225    2.138037    0.222395
  O      1.155585   -2.383835   -0.042633
  O     -0.704834    2.658535   -0.409192
  O      1.461300    2.621592    0.135320
  N      2.400758   -0.469102   -0.166098
  C      3.692507   -1.125299   -0.180868
  H      2.362446    0.542066   -0.157291
  H      3.518061   -2.195950   -0.202267
  H      4.257678   -0.834395   -1.063290
  H      4.266461   -0.873829    0.708713
  C     -2.382132   -0.611984   -0.097412
  C     -3.532180   -1.573960    0.003746
  O     -2.562654    0.593746   -0.318209
  H     -4.043637   -1.601860   -0.955843
  H     -4.236438   -1.199629    0.742167
  H     -3.217521   -2.577939    0.274562
  H     -1.453875    2.022632   -0.340675

 Total Charge           Charge          ....    0
 Multiplicity           Mult            ....    1
 Number of Electrons    NEL             ....  100
 Basis Dimension        Dim             ....  219

ORBITAL ENERGIES
----------------

  NO   OCC          E(Eh)            E(eV)
   0   2.0000     -19.527754      -531.3772
   1   2.0000     -19.491864      -530.4006
   2   2.0000     -19.483794      -530.1810
   3   2.0000     -19.483782      -530.1807
   4   2.0000     -14.687925      -399.6788
   5   2.0000     -14.678960      -399.4348
   6   2.0000     -10.583761      -287.9988
   7   2.0000     -10.579289      -287.8771
   8   2.0000     -10.570862      -287.6478
   9   2.0000     -10.520255      -286.2707
  10   2.0000     -10.476608      -285.0830
  11   2.0000     -10.470913      -284.9280
  12   2.0000     -10.461240      -284.6648
  13   2.0000      -1.210479       -32.9388
  14   2.0000      -1.176261       -32.0077
  15   2.0000      -1.165272       -31.7087
  16   2.0000      -1.123347       -30.5678
  17   2.0000      -1.054296       -28.6889
  18   2.0000      -1.042119       -28.3575
  19   2.0000      -0.909608       -24.7517
  20   2.0000      -0.848746       -23.0955
  21   2.0000      -0.817377       -22.2420
  22   2.0000      -0.766786       -20.8653
  23   2.0000      -0.689369       -18.7587
  24   2.0000      -0.681297       -18.5390
  25   2.0000      -0.669261       -18.2115
  26   2.0000      -0.630661       -17.1612
  27   2.0000      -0.617318       -16.7981
  28   2.0000      -0.567380       -15.4392
  29   2.0000      -0.558742       -15.2042
  30   2.0000      -0.542284       -14.7563
  31   2.0000      -0.541013       -14.7217
  32   2.0000      -0.533900       -14.5282
  33   2.0000      -0.525727       -14.3057
  34   2.0000      -0.509280       -13.8582
  35   2.0000      -0.499884       -13.6025
  36   2.0000      -0.490233       -13.3399
  37   2.0000      -0.481694       -13.1076
  38   2.0000      -0.473139       -12.8748
  39   2.0000      -0.465188       -12.6584
  40   2.0000      -0.457039       -12.4367
  41   2.0000      -0.446113       -12.1394
  42   2.0000      -0.425653       -11.5826
  43   2.0000      -0.423607       -11.5269
  44   2.0000      -0.370418       -10.0796
  45   2.0000      -0.348794        -9.4912
  46   2.0000      -0.342366        -9.3162
  47   2.0000      -0.334986        -9.1154
  48   2.0000      -0.329292        -8.9605
  49   2.0000      -0.317538        -8.6406
  50   0.0000       0.022732         0.6186
  51   0.0000       0.039200         1.0667
  52   0.0000       0.049750         1.3538
  53   0.0000       0.121493         3.3060
  54   0.0000       0.128891         3.5073

MULLIKEN ATOMIC CHARGES
-----------------------
   0 N :   -0.635826
   1 H :    0.395514
   2 C :   -0.183552
   3 H :    0.294230
   4 C :   -0.632916
   5 C :    0.535852
   6 H :    0.280902
   7 H :    0.290852
   8 C :    0.533706
   9 O :   -0.439801
  10 O :   -0.582866
  11 O :   -0.403241
  12 N :   -0.648708
  13 C :   -0.494765
  14 H :    0.397706
  15 H :    0.263840
  16 H :    0.231619
  17 H :    0.229513
  18 C :    0.562716
  19 C :   -0.744588
  20 O :   -0.490850
  21 H :    0.266002
  22 H :    0.264783
  23 H :    0.229561
  24 H :    0.480316
Sum of atomic charges:   -0.0000000

LOEWDIN ATOMIC CHARGES
----------------------
   0 N :   -0.209429
   1 H :    0.276414
   2 C :   -0.088489
   3 H :    0.153122
   4 C :   -0.285485
   5 C :    0.111268
   6 H :    0.153637
   7 H :    0.159750
   8 C :    0.126963
   9 O :   -0.286292
  10 O :   -0.289633
  11 O :   -0.239460
  12 N :   -0.234837
  13 C :   -0.252823
  14 H :    0.269816
  15 H :    0.153104
  16 H :    0.129139
  17 H :    0.127427
  18 C :    0.126532
  19 C :   -0.379497
  20 O :   -0.311071
  21 H :    0.162756
  22 H :    0.161303
  23 H :    0.136726
  24 H :    0.329057

  Mayer bond orders larger than 0.100000
B(  0-N ,  1-H ) :   0.7671 B(  0-N ,  2-C ) :   0.9340 B(  0-N , 18-C ) :   1.2099
B(  2-C ,  3-H ) :   0.8708 B(  2-C ,  4-C ) :   0.8858 B(  2-C ,  5-C ) :   0.9216
B(  4-C ,  6-H ) :   0.8948 B(  4-C ,  7-H ) :   0.8867 B(  4-C ,  8-C ) :   0.9225
B(  5-C ,  9-O ) :   1.9633 B(  5-C , 12-N ) :   1.1824 B(  8-C , 10-O ) :   1.2106
B(  8-C , 11-O ) :   1.9904 B(  9-O , 12-N ) :   0.1042 B( 10-O , 24-H ) :   0.6460
B( 12-N , 13-C ) :   0.9479 B( 12-N , 14-H ) :   0.7592 B( 13-C , 15-H ) :   0.9017
B( 13-C , 16-H ) :   0.9185 B( 13-C , 17-H ) :   0.9181 B( 18-C , 19-C ) :   0.9396
B( 18-C , 20-O ) :   1.8034 B( 19-C , 21-H ) :   0.9034 B( 19-C , 22-H ) :   0.9058
B( 19-C , 23-H ) :   0.9183 B( 20-O , 24-H ) :   0.1228

Dispersion correction           -0.014959962
FINAL SINGLE POINT ENERGY      -682.976254652125

DIPOLE MOMENT
-------------
                                X             Y             Z
Electronic contribution:     -0.66476       5.43708      -0.79605
Nuclear contribution   :      0.33213      -6.91995       1.23387
                        -----------------------------------------
Total Dipole Moment    :     -0.33262      -1.48287       0.43782
                        -----------------------------------------
Magnitude (a.u.)       :      1.58153
Magnitude (Debye)      :      4.01992

Rotational constants in cm-1:     0.032145     0.021050     0.013255
Rotational constants in MHz :   963.685635   631.051778   397.368894

                             ****ORCA TERMINATED NORMALLY****
TOTAL RUN TIME: 0 days 0 hours 2 minutes 46 seconds 660 msec
