                         Program Version 5.0.3 -  RELEASE  -
|  1> ! PBEh-3c def2/J TightSCF DefGrid3
|  2>
|  3> %maxcore 60000
|  4>
|  5> %pal
|  6> nprocs 4
|  7> end
|  8>
|  9> *xyzfile 0 1 10B.xyz
| 10>
| 11>                          ****END OF INPUT****

CARTESIAN COORDINATES (ANGSTROEM)
---------------------------------
  O     -1.231110    0.097904   -0.053724
  H     -0.117738    0.033669   -0.065283
  H     -1.468970   -0.655920    0.493103

 Total Charge           Charge          ....    0
 Multiplicity           Mult            ....    1
 Number of Electrons    NEL             ....   10
 Basis Dimension        Dim             ....   19

ORBITAL ENERGIES
----------------

  NO   OCC          E(Eh)            E(eV)
   0   2.0000     -19.487800      -530.2900
   1   2.0000      -1.076110       -29.2824
   2   2.0000      -0.546779       -14.8786
   3   2.0000      -0.430467       -11.7136
   4   2.0000      -0.351877        -9.5751
   5   0.0000       0.092455         2.5158
   6   0.0000       0.186944         5.0870
   7   0.0000       0.833039        22.6681
   8   0.0000       0.942117        25.6363
   9   0.0000       0.992095        26.9963

MULLIKEN ATOMIC CHARGES
-----------------------
   0 O :   -0.781296
   1 H :    0.371375
   2 H :    0.409921
Sum of atomic charges:   -0.0000000

LOEWDIN ATOMIC CHARGES
----------------------
   0 O :   -0.592885
   1 H :    0.299508
   2 H :    0.293376

  Mayer bond orders larger than 0.100000
B(  0-O ,  1-H ) :   0.8482 B(  0-O ,  2-H ) :   0.8110

Dispersion correction           -0.000210999
FINAL SINGLE POINT ENERGY       -76.240128106212

DIPOLE MOMENT
-------------
                                X             Y             Z
Electronic contribution:     -0.18609       0.10284      -0.06339
Nuclear contribution   :      0.72874      -0.68092       0.44554
                        -----------------------------------------
Total Dipole Moment    :      0.54265      -0.57808       0.38214
                        -----------------------------------------
Magnitude (a.u.)       :      0.88016
Magnitude (Debye)      :      2.23718

Rotational constants in cm-1:    23.047513    12.427498     8.073935
Rotational constants in MHz : 690947.061972 372567.006649 242050.468562

                             ****ORCA TERMINATED NORMALLY****
TOTAL RUN TIME: 0 days 0 hours 0 minutes 49 seconds 456 msec
