                         Program Version 5.0.3 -  RELEASE  -
|  1> ! PBEh-3c def2/J TightSCF DefGrid3
|  2>
|  3> %maxcore 60000
|  4>
|  5> %pal
|  6> nprocs 4
|  7> end
|  8>
|  9> *xyzfile 0 1 acetic.xyz
| 10>
| 11>                          ****END OF INPUT****

CARTESIAN COORDINATES (ANGSTROEM)
---------------------------------
  C      0.039252   -0.101127    0.000000
  C     -1.455064    0.045237    0.000000
  O      0.650894   -1.138578    0.000000
  O      0.654189    1.105121    0.000000
  H      1.601719    0.918803    0.000000
  H     -1.914671   -0.937682    0.000000
  H     -1.765939    0.608009    0.879585
  H     -1.765939    0.608009   -0.879585

 Total Charge           Charge          ....    0
 Multiplicity           Mult            ....    1
 Number of Electrons    NEL             ....   32
 Basis Dimension        Dim             ....   68

ORBITAL ENERGIES
----------------

  NO   OCC          E(Eh)            E(eV)
   0   2.0000     -19.542016      -531.7653
   1   2.0000     -19.486476      -530.2540
   2   2.0000     -10.585338      -288.0417
   3   2.0000     -10.450266      -284.3662
   4   2.0000      -1.222361       -33.2621
   5   2.0000      -1.126284       -30.6477
   6   2.0000      -0.849783       -23.1238
   7   2.0000      -0.685206       -18.6454
   8   2.0000      -0.561239       -15.2721
   9   2.0000      -0.549271       -14.9464
  10   2.0000      -0.534962       -14.5571
  11   2.0000      -0.471176       -12.8214
  12   2.0000      -0.458608       -12.4794
  13   2.0000      -0.452497       -12.3131
  14   2.0000      -0.378290       -10.2938
  15   2.0000      -0.337389        -9.1808
  16   0.0000       0.045721         1.2441
  17   0.0000       0.130146         3.5415
  18   0.0000       0.166439         4.5290
  19   0.0000       0.205510         5.5922
  20   0.0000       0.219352         5.9689

MULLIKEN ATOMIC CHARGES
-----------------------
   0 C :    0.504599
   1 C :   -0.739891
   2 O :   -0.386634
   3 O :   -0.586077
   4 H :    0.441750
   5 H :    0.258217
   6 H :    0.254018
   7 H :    0.254018
Sum of atomic charges:   -0.0000000

LOEWDIN ATOMIC CHARGES
----------------------
   0 C :    0.128457
   1 C :   -0.391050
   2 O :   -0.226905
   3 O :   -0.308560
   4 H :    0.331228
   5 H :    0.152822
   6 H :    0.157005
   7 H :    0.157005

  Mayer bond orders larger than 0.100000
B(  0-C ,  1-C ) :   0.9367 B(  0-C ,  2-O ) :   2.0764 B(  0-C ,  3-O ) :   1.1367
B(  1-C ,  5-H ) :   0.9173 B(  1-C ,  6-H ) :   0.9051 B(  1-C ,  7-H ) :   0.9051
B(  3-O ,  4-H ) :   0.7617

Dispersion correction           -0.002314561
FINAL SINGLE POINT ENERGY      -228.602238122680

DIPOLE MOMENT
-------------
                                X             Y             Z
Electronic contribution:      3.32231      -0.53445       0.00000
Nuclear contribution   :     -3.58777       1.12262       0.00000
                        -----------------------------------------
Total Dipole Moment    :     -0.26546       0.58817       0.00000
                        -----------------------------------------
Magnitude (a.u.)       :      0.64530
Magnitude (Debye)      :      1.64022

Rotational constants in cm-1:     0.379083     0.316864     0.178290
Rotational constants in MHz : 11364.617032  9499.345384  5345.010949

                             ****ORCA TERMINATED NORMALLY****
TOTAL RUN TIME: 0 days 0 hours 0 minutes 35 seconds 399 msec
