                         Program Version 5.0.3 -  RELEASE  -
|  1> ! PBEh-3c def2/J TightSCF DefGrid3
|  2>
|  3> %maxcore 60000
|  4>
|  5> %pal
|  6> nprocs 4
|  7> end
|  8>
|  9> *xyzfile 0 1 NMe3.xyz
| 10>
| 11>                          ****END OF INPUT****

CARTESIAN COORDINATES (ANGSTROEM)
---------------------------------
  N      0.385134    0.184868   -0.037907
  C      0.197715    0.094406    1.397728
  C      1.635128   -0.432714   -0.440944
  C      0.303283    1.562005   -0.489080
  H     -0.785594    0.479407    1.673912
  H      0.264489   -0.945953    1.718833
  H      0.956126    0.670601    1.956075
  H      1.751883   -0.360991   -1.522669
  H      2.514598    0.038790    0.031488
  H      1.632475   -1.488187   -0.164162
  H      0.443611    1.608800   -1.569595
  H     -0.679032    1.973009   -0.249855
  H      1.066145    2.208144   -0.020799

 Total Charge           Charge          ....    0
 Multiplicity           Mult            ....    1
 Number of Electrons    NEL             ....   34
 Basis Dimension        Dim             ....   78

ORBITAL ENERGIES
----------------

  NO   OCC          E(Eh)            E(eV)
   0   2.0000     -14.622880      -397.9088
   1   2.0000     -10.447455      -284.2897
   2   2.0000     -10.447403      -284.2883
   3   2.0000     -10.447341      -284.2866
   4   2.0000      -1.016238       -27.6532
   5   2.0000      -0.783077       -21.3086
   6   2.0000      -0.782630       -21.2964
   7   2.0000      -0.659561       -17.9476
   8   2.0000      -0.524080       -14.2609
   9   2.0000      -0.522723       -14.2240
  10   2.0000      -0.522474       -14.2172
  11   2.0000      -0.443438       -12.0666
  12   2.0000      -0.441880       -12.0242
  13   2.0000      -0.418380       -11.3847
  14   2.0000      -0.408063       -11.1039
  15   2.0000      -0.407985       -11.1018
  16   2.0000      -0.257340        -7.0026
  17   0.0000       0.126216         3.4345
  18   0.0000       0.194718         5.2985
  19   0.0000       0.196474         5.3463
  20   0.0000       0.206156         5.6098
  21   0.0000       0.210808         5.7364

MULLIKEN ATOMIC CHARGES
-----------------------
   0 N :   -0.371882
   1 C :   -0.488502
   2 C :   -0.488628
   3 C :   -0.488424
   4 H :    0.219137
   5 H :    0.217633
   6 H :    0.175834
   7 H :    0.217443
   8 H :    0.176126
   9 H :    0.218723
  10 H :    0.217586
  11 H :    0.218927
  12 H :    0.176028
Sum of atomic charges:    0.0000000

LOEWDIN ATOMIC CHARGES
----------------------
   0 N :   -0.234020
   1 C :   -0.258298
   2 C :   -0.258482
   3 C :   -0.258367
   4 H :    0.121652
   5 H :    0.121844
   6 H :    0.092926
   7 H :    0.121661
   8 H :    0.093062
   9 H :    0.121525
  10 H :    0.121648
  11 H :    0.121837
  12 H :    0.093012

  Mayer bond orders larger than 0.100000
B(  0-N ,  1-C ) :   0.9980 B(  0-N ,  2-C ) :   0.9989 B(  0-N ,  3-C ) :   0.9986
B(  1-C ,  4-H ) :   0.9275 B(  1-C ,  5-H ) :   0.9284 B(  1-C ,  6-H ) :   0.9057
B(  2-C ,  7-H ) :   0.9286 B(  2-C ,  8-H ) :   0.9058 B(  2-C ,  9-H ) :   0.9276
B(  3-C , 10-H ) :   0.9286 B(  3-C , 11-H ) :   0.9275 B(  3-C , 12-H ) :   0.9056

Dispersion correction           -0.004861440
FINAL SINGLE POINT ENERGY      -174.087228690039

DIPOLE MOMENT
-------------
                                X             Y             Z
Electronic contribution:     -1.04693      -0.71556      -0.62885
Nuclear contribution   :      1.25329       0.85230       0.74439
                        -----------------------------------------
Total Dipole Moment    :      0.20636       0.13674       0.11553
                        -----------------------------------------
Magnitude (a.u.)       :      0.27319
Magnitude (Debye)      :      0.69439

Rotational constants in cm-1:     0.292682     0.290986     0.165404
Rotational constants in MHz :  8774.397894  8723.536024  4958.680264

                             ****ORCA TERMINATED NORMALLY****
TOTAL RUN TIME: 0 days 0 hours 0 minutes 41 seconds 990 msec
