                         Program Version 5.0.3 -  RELEASE  -
|  1> ! PBEh-3c def2/J TightSCF DefGrid3
|  2>
|  3> %maxcore 60000
|  4>
|  5> %pal
|  6> nprocs 4
|  7> end
|  8>
|  9> *xyzfile 0 1 bifuran_anti.xyz
| 10>
| 11>                          ****END OF INPUT****

CARTESIAN COORDINATES (ANGSTROEM)
---------------------------------
  C     -1.365693   -1.351263    0.000000
  C     -2.748409   -1.022442    0.000000
  C     -2.815651    0.324964    0.000000
  O     -1.575116    0.861120    0.000000
  C     -0.695462   -0.169446    0.000000
  C      0.695462    0.169446    0.000000
  O      1.575116   -0.861120    0.000000
  C      2.815651   -0.324964    0.000000
  C      2.748409    1.022442    0.000000
  C      1.365693    1.351263    0.000000
  H     -0.920672   -2.326990    0.000000
  H     -3.579053   -1.701325    0.000000
  H     -3.627976    1.023672    0.000000
  H      3.627976   -1.023672    0.000000
  H      3.579053    1.701325    0.000000
  H      0.920672    2.326990    0.000000

 Total Charge           Charge          ....    0
 Multiplicity           Mult            ....    1
 Number of Electrons    NEL             ....   70
 Basis Dimension        Dim             ....  162

ORBITAL ENERGIES
----------------

  NO   OCC          E(Eh)            E(eV)
   0   2.0000     -19.571076      -532.5560
   1   2.0000     -19.571048      -532.5553
   2   2.0000     -10.508677      -285.9556
   3   2.0000     -10.508294      -285.9452
   4   2.0000     -10.497427      -285.6495
   5   2.0000     -10.497407      -285.6490
   6   2.0000     -10.445473      -284.2358
   7   2.0000     -10.445454      -284.2352
   8   2.0000     -10.444857      -284.2190
   9   2.0000     -10.444831      -284.2183
  10   2.0000      -1.241888       -33.7935
  11   2.0000      -1.234695       -33.5978
  12   2.0000      -0.906074       -24.6555
  13   2.0000      -0.904446       -24.6112
  14   2.0000      -0.885845       -24.1051
  15   2.0000      -0.811370       -22.0785
  16   2.0000      -0.697986       -18.9932
  17   2.0000      -0.687795       -18.7159
  18   2.0000      -0.660440       -17.9715
  19   2.0000      -0.627888       -17.0857
  20   2.0000      -0.625489       -17.0204
  21   2.0000      -0.572332       -15.5739
  22   2.0000      -0.542702       -14.7677
  23   2.0000      -0.515719       -14.0334
  24   2.0000      -0.508027       -13.8241
  25   2.0000      -0.492517       -13.4021
  26   2.0000      -0.470527       -12.8037
  27   2.0000      -0.469043       -12.7633
  28   2.0000      -0.456099       -12.4111
  29   2.0000      -0.445350       -12.1186
  30   2.0000      -0.433064       -11.7843
  31   2.0000      -0.337222        -9.1763
  32   2.0000      -0.334458        -9.1011
  33   2.0000      -0.318085        -8.6555
  34   2.0000      -0.236554        -6.4370
  35   0.0000      -0.003941        -0.1072
  36   0.0000       0.067732         1.8431
  37   0.0000       0.094257         2.5649
  38   0.0000       0.154123         4.1939
  39   0.0000       0.158850         4.3225

MULLIKEN ATOMIC CHARGES
-----------------------
   0 C :   -0.334487
   1 C :   -0.293529
   2 C :    0.020431
   3 O :   -0.408993
   4 C :    0.320210
   5 C :    0.320211
   6 O :   -0.408993
   7 C :    0.020430
   8 C :   -0.293525
   9 C :   -0.334490
  10 H :    0.233081
  11 H :    0.228135
  12 H :    0.235153
  13 H :    0.235152
  14 H :    0.228134
  15 H :    0.233080
Sum of atomic charges:    0.0000000

LOEWDIN ATOMIC CHARGES
----------------------
   0 C :   -0.178118
   1 C :   -0.187737
   2 C :   -0.037920
   3 O :   -0.066774
   4 C :    0.036335
   5 C :    0.036335
   6 O :   -0.066774
   7 C :   -0.037920
   8 C :   -0.187737
   9 C :   -0.178118
  10 H :    0.150490
  11 H :    0.145083
  12 H :    0.138641
  13 H :    0.138641
  14 H :    0.145083
  15 H :    0.150490

  Mayer bond orders larger than 0.100000
B(  0-C ,  1-C ) :   1.2881 B(  0-C ,  4-C ) :   1.4970 B(  0-C , 10-H ) :   0.9256
B(  1-C ,  2-C ) :   1.6264 B(  1-C , 11-H ) :   0.9214 B(  2-C ,  3-O ) :   1.0982
B(  2-C , 12-H ) :   0.9166 B(  3-O ,  4-C ) :   1.0779 B(  4-C ,  5-C ) :   1.0238
B(  5-C ,  6-O ) :   1.0779 B(  5-C ,  9-C ) :   1.4970 B(  6-O ,  7-C ) :   1.0982
B(  7-C ,  8-C ) :   1.6264 B(  7-C , 13-H ) :   0.9166 B(  8-C ,  9-C ) :   1.2881
B(  8-C , 14-H ) :   0.9214 B(  9-C , 15-H ) :   0.9256

Dispersion correction           -0.008358916
FINAL SINGLE POINT ENERGY      -457.869575057614

DIPOLE MOMENT
-------------
                                X             Y             Z
Electronic contribution:      0.00000      -0.00000       0.00000
Nuclear contribution   :      0.00000       0.00000       0.00000
                        -----------------------------------------
Total Dipole Moment    :      0.00000      -0.00000       0.00000
                        -----------------------------------------
Magnitude (a.u.)       :      0.00000
Magnitude (Debye)      :      0.00000

Rotational constants in cm-1:     0.157122     0.029612     0.024916
Rotational constants in MHz :  4710.389775   887.752905   746.973138

                             ****ORCA TERMINATED NORMALLY****
TOTAL RUN TIME: 0 days 0 hours 2 minutes 0 seconds 375 msec
