                         Program Version 5.0.3 -  RELEASE  -
|  1> ! PBEh-3c def2/J TightSCF DefGrid3
|  2>
|  3> %maxcore 60000
|  4>
|  5> %pal
|  6> nprocs 4
|  7> end
|  8>
|  9> *xyzfile 0 1 R40.xyz
| 10>
| 11>                          ****END OF INPUT****

CARTESIAN COORDINATES (ANGSTROEM)
---------------------------------
  C     -1.686087   -1.277942   -0.054852
  C     -1.679406    0.119681    0.493257
  C     -0.520098   -0.712777    0.021802
  C     -2.195005    1.298870   -0.309248
  C      0.895845   -0.720490   -0.169741
  C      1.677033    0.318779    0.144218
  H     -3.270636    1.431251   -0.169404
  H     -2.009137    1.151657   -1.374219
  H     -1.709182    2.229676   -0.006621
  H      1.335269   -1.620120   -0.590149
  H      1.205106    1.203273    0.559883
  H     -2.289215   -2.126473   -0.321544
  C      3.156836    0.362375   -0.032738
  H      3.660311    0.539426    0.921631
  H      3.539499   -0.566936   -0.453895
  H      3.448428    1.184064   -0.692670
  H     -1.805159    0.243200    1.570801

 Total Charge           Charge          ....    0
 Multiplicity           Mult            ....    1
 Number of Electrons    NEL             ....   52
 Basis Dimension        Dim             ....  125

ORBITAL ENERGIES
----------------

  NO   OCC          E(Eh)            E(eV)
   0   2.0000     -10.457034      -284.5504
   1   2.0000     -10.453975      -284.4671
   2   2.0000     -10.450318      -284.3676
   3   2.0000     -10.449928      -284.3570
   4   2.0000     -10.445085      -284.2252
   5   2.0000     -10.438942      -284.0580
   6   2.0000     -10.413887      -283.3763
   7   2.0000      -0.971556       -26.4374
   8   2.0000      -0.892424       -24.2841
   9   2.0000      -0.800359       -21.7789
  10   2.0000      -0.780553       -21.2399
  11   2.0000      -0.661456       -17.9991
  12   2.0000      -0.630146       -17.1472
  13   2.0000      -0.594227       -16.1697
  14   2.0000      -0.558118       -15.1872
  15   2.0000      -0.502127       -13.6636
  16   2.0000      -0.486045       -13.2260
  17   2.0000      -0.474777       -12.9194
  18   2.0000      -0.458959       -12.4889
  19   2.0000      -0.446600       -12.1526
  20   2.0000      -0.425181       -11.5698
  21   2.0000      -0.416794       -11.3415
  22   2.0000      -0.372072       -10.1246
  23   2.0000      -0.346958        -9.4412
  24   2.0000      -0.316960        -8.6249
  25   2.0000      -0.256980        -6.9928
  26   0.0000      -0.003208        -0.0873
  27   0.0000       0.121906         3.3172
  28   0.0000       0.154148         4.1946
  29   0.0000       0.159379         4.3369
  30   0.0000       0.176463         4.8018

MULLIKEN ATOMIC CHARGES
-----------------------
   0 C :   -0.298063
   1 C :   -0.240269
   2 C :    0.196883
   3 C :   -0.643302
   4 C :   -0.324919
   5 C :   -0.185454
   6 H :    0.213729
   7 H :    0.214564
   8 H :    0.207177
   9 H :    0.218226
  10 H :    0.228973
  11 H :    0.206074
  12 C :   -0.690510
  13 H :    0.231904
  14 H :    0.228427
  15 H :    0.231771
  16 H :    0.204789
Sum of atomic charges:   -0.0000000

LOEWDIN ATOMIC CHARGES
----------------------
   0 C :   -0.140647
   1 C :   -0.145876
   2 C :   -0.027287
   3 C :   -0.366710
   4 C :   -0.163553
   5 C :   -0.113149
   6 H :    0.125957
   7 H :    0.128461
   8 H :    0.123387
   9 H :    0.137735
  10 H :    0.136782
  11 H :    0.141039
  12 C :   -0.358596
  13 H :    0.139606
  14 H :    0.134432
  15 H :    0.139493
  16 H :    0.108926

  Mayer bond orders larger than 0.100000
B(  0-C ,  1-C ) :   0.9682 B(  0-C ,  2-C ) :   1.6901 B(  0-C ,  5-C ) :   0.1120
B(  0-C , 11-H ) :   0.9331 B(  1-C ,  2-C ) :   0.9150 B(  1-C ,  3-C ) :   0.9708
B(  1-C , 16-H ) :   0.9049 B(  2-C ,  4-C ) :   1.1073 B(  3-C ,  6-H ) :   0.9283
B(  3-C ,  7-H ) :   0.9320 B(  3-C ,  8-H ) :   0.9292 B(  4-C ,  5-C ) :   1.7958
B(  4-C ,  9-H ) :   0.9179 B(  5-C , 10-H ) :   0.9179 B(  5-C , 12-C ) :   0.9962
B( 12-C , 13-H ) :   0.9122 B( 12-C , 14-H ) :   0.9290 B( 12-C , 15-H ) :   0.9123

Dispersion correction           -0.007570676
FINAL SINGLE POINT ENERGY      -272.055437844512

DIPOLE MOMENT
-------------
                                X             Y             Z
Electronic contribution:     -1.77201      -3.76143       0.52162
Nuclear contribution   :      2.18361       3.80551      -0.57688
                        -----------------------------------------
Total Dipole Moment    :      0.41160       0.04408      -0.05525
                        -----------------------------------------
Magnitude (a.u.)       :      0.41762
Magnitude (Debye)      :      1.06151

Rotational constants in cm-1:     0.196850     0.045385     0.038827
Rotational constants in MHz :  5901.412874  1360.621832  1163.997104

                             ****ORCA TERMINATED NORMALLY****
TOTAL RUN TIME: 0 days 0 hours 1 minutes 22 seconds 341 msec
