                         Program Version 5.0.3 -  RELEASE  -
|  1> ! PBEh-3c def2/J TightSCF DefGrid3
|  2>
|  3> %maxcore 60000
|  4>
|  5> %pal
|  6> nprocs 4
|  7> end
|  8>
|  9> *xyzfile 0 3 37.xyz
| 10>
| 11>                          ****END OF INPUT****

CARTESIAN COORDINATES (ANGSTROEM)
---------------------------------
  O      0.000000    0.000000    0.604527
  O      0.000000    0.000000   -0.604527

 Total Charge           Charge          ....    0
 Multiplicity           Mult            ....    3
 Number of Electrons    NEL             ....   16
 Basis Dimension        Dim             ....   30

ORBITAL ENERGIES
----------------
                 SPIN UP ORBITALS
  NO   OCC          E(Eh)            E(eV)
   0   1.0000     -19.657706      -534.9134
   1   1.0000     -19.657694      -534.9131
   2   1.0000      -1.430902       -38.9368
   3   1.0000      -0.942824       -25.6555
   4   1.0000      -0.646823       -17.6009
   5   1.0000      -0.646823       -17.6009
   6   1.0000      -0.616309       -16.7706
   7   1.0000      -0.379026       -10.3138
   8   1.0000      -0.379026       -10.3138
   9   0.0000       0.256431         6.9778
  10   0.0000       0.772077        21.0093
  11   0.0000       0.866352        23.5746
  12   0.0000       0.866352        23.5746
  13   0.0000       0.938855        25.5476

                 SPIN DOWN ORBITALS
  NO   OCC          E(Eh)            E(eV)
   0   1.0000     -19.622675      -533.9601
   1   1.0000     -19.622418      -533.9531
   2   1.0000      -1.357620       -36.9427
   3   1.0000      -0.826902       -22.5011
   4   1.0000      -0.568834       -15.4788
   5   1.0000      -0.506105       -13.7718
   6   1.0000      -0.506105       -13.7718
   7   0.0000      -0.059511        -1.6194
   8   0.0000      -0.059511        -1.6194
   9   0.0000       0.308971         8.4075
  10   0.0000       0.793345        21.5880
  11   0.0000       0.936420        25.4813

MULLIKEN ATOMIC CHARGES AND SPIN POPULATIONS
--------------------------------------------
   0 O :   -0.000000    1.000000
   1 O :    0.000000    1.000000
Sum of atomic charges         :   -0.0000000

LOEWDIN ATOMIC CHARGES AND SPIN POPULATIONS
-------------------------------------------
   0 O :   -0.000000    1.000000
   1 O :    0.000000    1.000000

  Mayer bond orders larger than 0.100000
B(  0-O ,  1-O ) :   1.9665

Dispersion correction           -0.000143541
FINAL SINGLE POINT ENERGY      -150.012882031777

DIPOLE MOMENT
-------------
                                X             Y             Z
Electronic contribution:      0.00000       0.00000      -0.00000
Nuclear contribution   :      0.00000       0.00000       0.00000
                        -----------------------------------------
Total Dipole Moment    :      0.00000       0.00000      -0.00000
                        -----------------------------------------
Magnitude (a.u.)       :      0.00000
Magnitude (Debye)      :      0.00000

Rotational constants in cm-1:     0.000000     1.441594     1.441594
Rotational constants in MHz :     0.000000 43217.899195 43217.899195

                             ****ORCA TERMINATED NORMALLY****
TOTAL RUN TIME: 0 days 0 hours 0 minutes 6 seconds 871 msec
