                         Program Version 5.0.3 -  RELEASE  -
|  1> ! PBEh-3c def2/J TightSCF DefGrid3
|  2>
|  3> %maxcore 60000
|  4>
|  5> %pal
|  6> nprocs 4
|  7> end
|  8>
|  9> *xyzfile 0 1 ASN_xaj.xyz
| 10>
| 11>                          ****END OF INPUT****

CARTESIAN COORDINATES (ANGSTROEM)
---------------------------------
  N     -1.234168   -1.061834    0.089500
  C     -0.055462   -0.261949   -0.105411
  C      1.149078   -1.204919   -0.109460
  O      0.992996   -2.425094   -0.098380
  C      0.069353    0.856407    0.953968
  C      0.558068    2.100480    0.254518
  O      1.755692    2.325907    0.077563
  N     -0.435394    2.887427   -0.216598
  H     -1.075672   -2.058191    0.153390
  H     -0.114690    0.206811   -1.092966
  H      0.773968    0.577636    1.733404
  H     -0.909009    1.026765    1.391855
  H     -0.180496    3.622358   -0.854312
  H     -1.365178    2.493800   -0.267809
  N      2.337286   -0.575236   -0.138762
  H      2.349627    0.440481   -0.090334
  C      3.588900   -1.303022   -0.152352
  H      4.183124   -1.025166   -1.020223
  H      4.164367   -1.101960    0.749339
  H      3.357832   -2.362213   -0.199362
  C     -2.454999   -0.522206   -0.118426
  O     -2.602723    0.677724   -0.368286
  C     -3.624794   -1.464706   -0.011924
  H     -4.317540   -1.077640    0.731120
  H     -4.142347   -1.482066   -0.968336
  H     -3.330445   -2.475255    0.257983

 Total Charge           Charge          ....    0
 Multiplicity           Mult            ....    1
 Number of Electrons    NEL             ....  100
 Basis Dimension        Dim             ....  221

ORBITAL ENERGIES
----------------

  NO   OCC          E(Eh)            E(eV)
   0   2.0000     -19.471963      -529.8590
   1   2.0000     -19.471456      -529.8452
   2   2.0000     -19.469420      -529.7899
   3   2.0000     -14.670322      -399.1997
   4   2.0000     -14.661571      -398.9616
   5   2.0000     -14.656653      -398.8278
   6   2.0000     -10.561663      -287.3975
   7   2.0000     -10.559730      -287.3449
   8   2.0000     -10.555962      -287.2423
   9   2.0000     -10.505043      -285.8567
  10   2.0000     -10.465358      -284.7769
  11   2.0000     -10.456873      -284.5460
  12   2.0000     -10.449598      -284.3480
  13   2.0000      -1.160085       -31.5675
  14   2.0000      -1.151522       -31.3345
  15   2.0000      -1.148712       -31.2580
  16   2.0000      -1.036849       -28.2141
  17   2.0000      -1.026502       -27.9325
  18   2.0000      -1.011049       -27.5120
  19   2.0000      -0.892834       -24.2953
  20   2.0000      -0.834867       -22.7179
  21   2.0000      -0.804287       -21.8857
  22   2.0000      -0.753321       -20.4989
  23   2.0000      -0.672089       -18.2885
  24   2.0000      -0.666862       -18.1462
  25   2.0000      -0.650188       -17.6925
  26   2.0000      -0.616660       -16.7802
  27   2.0000      -0.611462       -16.6387
  28   2.0000      -0.567123       -15.4322
  29   2.0000      -0.550272       -14.9737
  30   2.0000      -0.540417       -14.7055
  31   2.0000      -0.528354       -14.3773
  32   2.0000      -0.520727       -14.1697
  33   2.0000      -0.516248       -14.0478
  34   2.0000      -0.493513       -13.4292
  35   2.0000      -0.491529       -13.3752
  36   2.0000      -0.480398       -13.0723
  37   2.0000      -0.468219       -12.7409
  38   2.0000      -0.462831       -12.5943
  39   2.0000      -0.451613       -12.2890
  40   2.0000      -0.447400       -12.1744
  41   2.0000      -0.432666       -11.7734
  42   2.0000      -0.428479       -11.6595
  43   2.0000      -0.408187       -11.1073
  44   2.0000      -0.337678        -9.1887
  45   2.0000      -0.327243        -8.9047
  46   2.0000      -0.325259        -8.8507
  47   2.0000      -0.319372        -8.6906
  48   2.0000      -0.315066        -8.5734
  49   2.0000      -0.302307        -8.2262
  50   0.0000       0.037541         1.0215
  51   0.0000       0.052136         1.4187
  52   0.0000       0.061335         1.6690
  53   0.0000       0.133841         3.6420
  54   0.0000       0.142005         3.8641

MULLIKEN ATOMIC CHARGES
-----------------------
   0 N :   -0.641591
   1 C :   -0.158732
   2 C :    0.530770
   3 O :   -0.449460
   4 C :   -0.594658
   5 C :    0.504293
   6 O :   -0.445946
   7 N :   -0.786672
   8 H :    0.391178
   9 H :    0.280179
  10 H :    0.274928
  11 H :    0.284146
  12 H :    0.367739
  13 H :    0.410548
  14 N :   -0.659711
  15 H :    0.412481
  16 C :   -0.494231
  17 H :    0.226039
  18 H :    0.224701
  19 H :    0.260175
  20 C :    0.541251
  21 O :   -0.475881
  22 C :   -0.745903
  23 H :    0.258931
  24 H :    0.259222
  25 H :    0.226203
Sum of atomic charges:   -0.0000000

LOEWDIN ATOMIC CHARGES
----------------------
   0 N :   -0.218174
   1 C :   -0.083162
   2 C :    0.109416
   3 O :   -0.295756
   4 C :   -0.268170
   5 C :    0.107395
   6 O :   -0.298960
   7 N :   -0.356644
   8 H :    0.273320
   9 H :    0.148537
  10 H :    0.151089
  11 H :    0.156592
  12 H :    0.257505
  13 H :    0.269974
  14 N :   -0.240455
  15 H :    0.270539
  16 C :   -0.253361
  17 H :    0.126116
  18 H :    0.125014
  19 H :    0.150787
  20 C :    0.115471
  21 O :   -0.314516
  22 C :   -0.383387
  23 H :    0.157919
  24 H :    0.158488
  25 H :    0.134423

  Mayer bond orders larger than 0.100000
B(  0-N ,  1-C ) :   0.9397 B(  0-N ,  8-H ) :   0.7668 B(  0-N , 20-C ) :   1.1898
B(  1-C ,  2-C ) :   0.9160 B(  1-C ,  4-C ) :   0.8935 B(  1-C ,  9-H ) :   0.8766
B(  2-C ,  3-O ) :   1.9482 B(  2-C , 14-N ) :   1.2006 B(  3-O , 14-N ) :   0.1051
B(  4-C ,  5-C ) :   0.9068 B(  4-C , 10-H ) :   0.9025 B(  4-C , 11-H ) :   0.8926
B(  5-C ,  6-O ) :   1.9135 B(  5-C ,  7-N ) :   1.2216 B(  6-O , 15-H ) :   0.1069
B(  7-N , 12-H ) :   0.8280 B(  7-N , 13-H ) :   0.7606 B( 14-N , 15-H ) :   0.7129
B( 14-N , 16-C ) :   0.9560 B( 16-C , 17-H ) :   0.9202 B( 16-C , 18-H ) :   0.9197
B( 16-C , 19-H ) :   0.9030 B( 20-C , 21-O ) :   1.8752 B( 20-C , 22-C ) :   0.9337
B( 22-C , 23-H ) :   0.9091 B( 22-C , 24-H ) :   0.9078 B( 22-C , 25-H ) :   0.9191

Dispersion correction           -0.015619790
FINAL SINGLE POINT ENERGY      -663.148708263747

DIPOLE MOMENT
-------------
                                X             Y             Z
Electronic contribution:      0.17174       2.97815      -0.55231
Nuclear contribution   :     -0.68296      -3.12556       0.54193
                        -----------------------------------------
Total Dipole Moment    :     -0.51121      -0.14741      -0.01038
                        -----------------------------------------
Magnitude (a.u.)       :      0.53214
Magnitude (Debye)      :      1.35260

Rotational constants in cm-1:     0.032198     0.020860     0.013165
Rotational constants in MHz :   965.281326   625.354505   394.684092

                             ****ORCA TERMINATED NORMALLY****
TOTAL RUN TIME: 0 days 0 hours 3 minutes 37 seconds 255 msec
