                         Program Version 5.0.3 -  RELEASE  -
|  1> ! PBEh-3c def2/J TightSCF DefGrid3
|  2>
|  3> %maxcore 60000
|  4>
|  5> %pal
|  6> nprocs 4
|  7> end
|  8>
|  9> *xyzfile 0 1 15A.xyz
| 10>
| 11>                          ****END OF INPUT****

CARTESIAN COORDINATES (ANGSTROEM)
---------------------------------
  C      0.311429   -0.178415    1.855018
  H     -0.170364    0.507860    2.547007
  H      1.362493    0.081891    1.755966
  H      0.218875   -1.179393    2.272172
  C     -0.435615   -0.132664    0.539949
  O     -1.647518   -0.316267    0.482479
  N      0.342875    0.118129   -0.542090
  H      1.339607    0.234776   -0.410274
  C     -0.214123    0.202006   -1.871834
  H     -1.279092    0.005711   -1.792744
  H     -0.064870    1.192153   -2.300410
  H      0.236303   -0.535787   -2.535239

 Total Charge           Charge          ....    0
 Multiplicity           Mult            ....    1
 Number of Electrons    NEL             ....   40
 Basis Dimension        Dim             ....   89

ORBITAL ENERGIES
----------------

  NO   OCC          E(Eh)            E(eV)
   0   2.0000     -19.446599      -529.1689
   1   2.0000     -14.663027      -399.0012
   2   2.0000     -10.542900      -286.8869
   3   2.0000     -10.464101      -284.7427
   4   2.0000     -10.439227      -284.0658
   5   2.0000      -1.132589       -30.8193
   6   2.0000      -1.019338       -27.7376
   7   2.0000      -0.840185       -22.8626
   8   2.0000      -0.768186       -20.9034
   9   2.0000      -0.655205       -17.8290
  10   2.0000      -0.569036       -15.4843
  11   2.0000      -0.529605       -14.4113
  12   2.0000      -0.520668       -14.1681
  13   2.0000      -0.481963       -13.1149
  14   2.0000      -0.461488       -12.5577
  15   2.0000      -0.451073       -12.2743
  16   2.0000      -0.441929       -12.0255
  17   2.0000      -0.403626       -10.9832
  18   2.0000      -0.301832        -8.2133
  19   2.0000      -0.299310        -8.1446
  20   0.0000       0.070531         1.9192
  21   0.0000       0.117186         3.1888
  22   0.0000       0.176841         4.8121
  23   0.0000       0.188588         5.1318
  24   0.0000       0.201664         5.4876

MULLIKEN ATOMIC CHARGES
-----------------------
   0 C :   -0.746800
   1 H :    0.259463
   2 H :    0.203236
   3 H :    0.256755
   4 C :    0.522076
   5 O :   -0.433681
   6 N :   -0.625474
   7 H :    0.353596
   8 C :   -0.495152
   9 H :    0.271054
  10 H :    0.218015
  11 H :    0.216913
Sum of atomic charges:   -0.0000000

LOEWDIN ATOMIC CHARGES
----------------------
   0 C :   -0.389941
   1 H :    0.156563
   2 H :    0.122487
   3 H :    0.155907
   4 C :    0.104036
   5 O :   -0.289314
   6 N :   -0.249747
   7 H :    0.252308
   8 C :   -0.260882
   9 H :    0.157148
  10 H :    0.120699
  11 H :    0.120734

  Mayer bond orders larger than 0.100000
B(  0-C ,  1-H ) :   0.9112 B(  0-C ,  2-H ) :   0.9231 B(  0-C ,  3-H ) :   0.9102
B(  0-C ,  4-C ) :   0.9239 B(  4-C ,  5-O ) :   1.9925 B(  4-C ,  6-N ) :   1.1381
B(  6-N ,  7-H ) :   0.8280 B(  6-N ,  8-C ) :   0.9495 B(  8-C ,  9-H ) :   0.8943
B(  8-C , 10-H ) :   0.9219 B(  8-C , 11-H ) :   0.9227

Dispersion correction           -0.004437710
FINAL SINGLE POINT ENERGY      -247.988774931677

DIPOLE MOMENT
-------------
                                X             Y             Z
Electronic contribution:     -2.22300      -0.43467       0.67196
Nuclear contribution   :      3.67854       0.68125      -0.96625
                        -----------------------------------------
Total Dipole Moment    :      1.45554       0.24658      -0.29429
                        -----------------------------------------
Magnitude (a.u.)       :      1.50533
Magnitude (Debye)      :      3.82624

Rotational constants in cm-1:     0.331775     0.130270     0.096907
Rotational constants in MHz :  9946.358887  3905.384431  2905.184267

                             ****ORCA TERMINATED NORMALLY****
TOTAL RUN TIME: 0 days 0 hours 1 minutes 38 seconds 226 msec
