                         Program Version 5.0.3 -  RELEASE  -
|  1> ! PBEh-3c def2/J TightSCF DefGrid3
|  2>
|  3> %maxcore 60000
|  4>
|  5> %pal
|  6> nprocs 4
|  7> end
|  8>
|  9> *xyzfile 1 1 T3.xyz
| 10>
| 11>                          ****END OF INPUT****

CARTESIAN COORDINATES (ANGSTROEM)
---------------------------------
  N     -0.407045    1.537415    0.000000
  N      1.573085    0.418961    0.000000
  C     -0.493307   -0.853590    0.000000
  C      0.971840   -0.880002    0.000000
  C     -1.111578    0.331314    0.000000
  C      0.915372    1.562632    0.000000
  C     -1.207306   -2.160409    0.000000
  O      1.668572   -1.843053    0.000000
  O      1.628588    2.644253    0.000000
  H     -0.935966    2.399627    0.000000
  H      2.591102    0.442386    0.000000
  H     -2.187312    0.439785    0.000000
  H     -0.934061   -2.748539   -0.876964
  H     -0.934061   -2.748539    0.876964
  H     -2.287294   -2.024976    0.000000
  H      1.149371    3.482735    0.000000

 Total Charge           Charge          ....    1
 Multiplicity           Mult            ....    1
 Number of Electrons    NEL             ....   66
 Basis Dimension        Dim             ....  149

ORBITAL ENERGIES
----------------

  NO   OCC          E(Eh)            E(eV)
   0   2.0000     -19.783268      -538.3301
   1   2.0000     -19.657354      -534.9038
   2   2.0000     -14.929102      -406.2415
   3   2.0000     -14.903938      -405.5568
   4   2.0000     -10.844856      -295.1035
   5   2.0000     -10.748444      -292.4800
   6   2.0000     -10.695274      -291.0332
   7   2.0000     -10.651176      -289.8332
   8   2.0000     -10.582586      -287.9668
   9   2.0000      -1.468433       -39.9581
  10   2.0000      -1.361026       -37.0354
  11   2.0000      -1.321871       -35.9699
  12   2.0000      -1.247331       -33.9416
  13   2.0000      -1.100226       -29.9387
  14   2.0000      -1.000922       -27.2365
  15   2.0000      -0.971280       -26.4299
  16   2.0000      -0.941310       -25.6143
  17   2.0000      -0.895205       -24.3598
  18   2.0000      -0.843056       -22.9407
  19   2.0000      -0.811668       -22.0866
  20   2.0000      -0.781279       -21.2597
  21   2.0000      -0.778327       -21.1793
  22   2.0000      -0.722025       -19.6473
  23   2.0000      -0.697913       -18.9912
  24   2.0000      -0.675112       -18.3707
  25   2.0000      -0.662885       -18.0380
  26   2.0000      -0.638330       -17.3698
  27   2.0000      -0.624415       -16.9912
  28   2.0000      -0.614800       -16.7296
  29   2.0000      -0.590468       -16.0674
  30   2.0000      -0.556548       -15.1445
  31   2.0000      -0.509698       -13.8696
  32   2.0000      -0.474284       -12.9059
  33   0.0000      -0.194663        -5.2971
  34   0.0000      -0.174926        -4.7600
  35   0.0000      -0.103614        -2.8195
  36   0.0000      -0.072367        -1.9692
  37   0.0000      -0.021532        -0.5859

MULLIKEN ATOMIC CHARGES
-----------------------
   0 N :   -0.674407
   1 N :   -0.694056
   2 C :   -0.124300
   3 C :    0.588528
   4 C :    0.022724
   5 C :    0.837713
   6 C :   -0.683070
   7 O :   -0.281023
   8 O :   -0.512424
   9 H :    0.427626
  10 H :    0.450237
  11 H :    0.323955
  12 H :    0.284567
  13 H :    0.284567
  14 H :    0.253511
  15 H :    0.495853
Sum of atomic charges:    1.0000000

LOEWDIN ATOMIC CHARGES
----------------------
   0 N :   -0.136805
   1 N :   -0.137813
   2 C :   -0.084131
   3 C :    0.143064
   4 C :   -0.027074
   5 C :    0.229460
   6 C :   -0.330014
   7 O :   -0.131453
   8 O :   -0.195702
   9 H :    0.303343
  10 H :    0.320274
  11 H :    0.176278
  12 H :    0.171447
  13 H :    0.171447
  14 H :    0.152783
  15 H :    0.374897

  Mayer bond orders larger than 0.100000
B(  0-N ,  4-C ) :   0.9483 B(  0-N ,  5-C ) :   1.2546 B(  0-N ,  9-H ) :   0.7842
B(  1-N ,  3-C ) :   0.8668 B(  1-N ,  5-C ) :   1.2819 B(  1-N , 10-H ) :   0.7601
B(  2-C ,  3-C ) :   0.9997 B(  2-C ,  4-C ) :   1.6956 B(  2-C ,  6-C ) :   0.9851
B(  3-C ,  7-O ) :   2.1536 B(  4-C , 11-H ) :   0.8736 B(  5-C ,  8-O ) :   1.2863
B(  6-C , 12-H ) :   0.8882 B(  6-C , 13-H ) :   0.8882 B(  6-C , 14-H ) :   0.9131
B(  8-O , 15-H ) :   0.7149

Dispersion correction           -0.008541677
FINAL SINGLE POINT ENERGY      -453.499731332670

DIPOLE MOMENT
-------------
                                X             Y             Z
Electronic contribution:      4.94970       4.42445      -0.00000
Nuclear contribution   :     -6.09238      -1.49038       0.00000
                        -----------------------------------------
Total Dipole Moment    :     -1.14268       2.93407      -0.00000
                        -----------------------------------------
Magnitude (a.u.)       :      3.14873
Magnitude (Debye)      :      8.00343

Rotational constants in cm-1:     0.106959     0.046042     0.032379
Rotational constants in MHz :  3206.553917  1380.317037   970.688324

                             ****ORCA TERMINATED NORMALLY****
TOTAL RUN TIME: 0 days 0 hours 1 minutes 29 seconds 802 msec
