                         Program Version 5.0.3 -  RELEASE  -
|  1> ! PBEh-3c def2/J TightSCF DefGrid3
|  2>
|  3> %maxcore 60000
|  4>
|  5> %pal
|  6> nprocs 4
|  7> end
|  8>
|  9> *xyzfile 0 1 10.xyz
| 10>
| 11>                          ****END OF INPUT****

CARTESIAN COORDINATES (ANGSTROEM)
---------------------------------
  C      1.393218    0.036291   -1.093768
  C      0.728037   -1.188402   -1.093789
  C     -0.665180   -1.224708   -1.093768
  C     -1.393204   -0.036297   -1.093789
  C     -0.728038    1.188417   -1.093768
  C      0.665168    1.224699   -1.093789
  C      0.000000    0.000000    2.622133
  H      1.292959   -2.110542   -1.092228
  H     -1.181323   -2.175009   -1.092211
  H     -2.474262   -0.064465   -1.092228
  H     -1.292951    2.110560   -1.092211
  H      1.181303    2.175006   -1.092228
  H      2.474274    0.064449   -1.092211
  H      0.586878    0.838174    2.985891
  H     -1.019319    0.089164    2.985891
  H      0.000000    0.000000    1.536183
  H      0.432441   -0.927338    2.985891

 Total Charge           Charge          ....    0
 Multiplicity           Mult            ....    1
 Number of Electrons    NEL             ....   52
 Basis Dimension        Dim             ....  125

ORBITAL ENERGIES
----------------

  NO   OCC          E(Eh)            E(eV)
   0   2.0000     -10.450319      -284.3676
   1   2.0000     -10.450071      -284.3609
   2   2.0000     -10.450069      -284.3608
   3   2.0000     -10.449455      -284.3441
   4   2.0000     -10.449453      -284.3441
   5   2.0000     -10.449225      -284.3379
   6   2.0000     -10.399727      -282.9910
   7   2.0000      -0.954095       -25.9622
   8   2.0000      -0.837063       -22.7776
   9   2.0000      -0.837062       -22.7776
  10   2.0000      -0.762319       -20.7438
  11   2.0000      -0.680380       -18.5141
  12   2.0000      -0.680380       -18.5141
  13   2.0000      -0.593545       -16.1512
  14   2.0000      -0.527059       -14.3420
  15   2.0000      -0.509959       -13.8767
  16   2.0000      -0.483153       -13.1473
  17   2.0000      -0.483150       -13.1472
  18   2.0000      -0.442511       -12.0413
  19   2.0000      -0.433322       -11.7913
  20   2.0000      -0.433321       -11.7913
  21   2.0000      -0.410449       -11.1689
  22   2.0000      -0.399606       -10.8738
  23   2.0000      -0.399604       -10.8738
  24   2.0000      -0.294417        -8.0115
  25   2.0000      -0.294413        -8.0114
  26   0.0000       0.017515         0.4766
  27   0.0000       0.017516         0.4766
  28   0.0000       0.139418         3.7938
  29   0.0000       0.185011         5.0344
  30   0.0000       0.195022         5.3068

MULLIKEN ATOMIC CHARGES
-----------------------
   0 C :   -0.221405
   1 C :   -0.221342
   2 C :   -0.221404
   3 C :   -0.221361
   4 C :   -0.221390
   5 C :   -0.221356
   6 C :   -0.887710
   7 H :    0.221229
   8 H :    0.221309
   9 H :    0.221246
  10 H :    0.221302
  11 H :    0.221237
  12 H :    0.221318
  13 H :    0.211880
  14 H :    0.211885
  15 H :    0.252671
  16 H :    0.211892
Sum of atomic charges:    0.0000000

LOEWDIN ATOMIC CHARGES
----------------------
   0 C :   -0.136376
   1 C :   -0.136293
   2 C :   -0.136372
   3 C :   -0.136299
   4 C :   -0.136369
   5 C :   -0.136295
   6 C :   -0.522777
   7 H :    0.136398
   8 H :    0.136449
   9 H :    0.136399
  10 H :    0.136446
  11 H :    0.136400
  12 H :    0.136447
  13 H :    0.126481
  14 H :    0.126483
  15 H :    0.142792
  16 H :    0.126486

  Mayer bond orders larger than 0.100000
B(  0-C ,  1-C ) :   1.4256 B(  0-C ,  5-C ) :   1.4255 B(  0-C , 12-H ) :   0.9198
B(  1-C ,  2-C ) :   1.4255 B(  1-C ,  7-H ) :   0.9198 B(  2-C ,  3-C ) :   1.4257
B(  2-C ,  8-H ) :   0.9198 B(  3-C ,  4-C ) :   1.4255 B(  3-C ,  9-H ) :   0.9198
B(  4-C ,  5-C ) :   1.4257 B(  4-C , 10-H ) :   0.9198 B(  5-C , 11-H ) :   0.9198
B(  6-C , 13-H ) :   0.9396 B(  6-C , 14-H ) :   0.9396 B(  6-C , 15-H ) :   0.9198
B(  6-C , 16-H ) :   0.9396

Dispersion correction           -0.008079379
FINAL SINGLE POINT ENERGY      -272.154764579624

DIPOLE MOMENT
-------------
                                X             Y             Z
Electronic contribution:     -0.00000      -0.00001      -8.08436
Nuclear contribution   :     -0.00000      -0.00000       8.01707
                        -----------------------------------------
Total Dipole Moment    :     -0.00000      -0.00001      -0.06729
                        -----------------------------------------
Magnitude (a.u.)       :      0.06729
Magnitude (Debye)      :      0.17104

Rotational constants in cm-1:     0.093552     0.061193     0.061193
Rotational constants in MHz :  2804.628861  1834.508138  1834.508121

                             ****ORCA TERMINATED NORMALLY****
TOTAL RUN TIME: 0 days 0 hours 1 minutes 24 seconds 990 msec
