                         Program Version 5.0.3 -  RELEASE  -
|  1> ! PBEh-3c def2/J TightSCF DefGrid3
|  2>
|  3> %maxcore 60000
|  4>
|  5> %pal
|  6> nprocs 4
|  7> end
|  8>
|  9> *xyzfile 0 1 li8.xyz
| 10>
| 11>                          ****END OF INPUT****

CARTESIAN COORDINATES (ANGSTROEM)
---------------------------------
  Li     1.822359   -1.822359    1.822359
  Li    -1.822359    1.822359    1.822359
  Li     1.822359    1.822359   -1.822359
  Li    -1.822359   -1.822359   -1.822359
  Li     1.041578    1.041578    1.041578
  Li    -1.041578    1.041578   -1.041578
  Li    -1.041578   -1.041578    1.041578
  Li     1.041578   -1.041578   -1.041578

 Total Charge           Charge          ....    0
 Multiplicity           Mult            ....    1
 Number of Electrons    NEL             ....   24
 Basis Dimension        Dim             ....   72

ORBITAL ENERGIES
----------------

  NO   OCC          E(Eh)            E(eV)
   0   2.0000      -2.105055       -57.2815
   1   2.0000      -2.105055       -57.2815
   2   2.0000      -2.105055       -57.2815
   3   2.0000      -2.105046       -57.2812
   4   2.0000      -2.073578       -56.4249
   5   2.0000      -2.073117       -56.4124
   6   2.0000      -2.073117       -56.4124
   7   2.0000      -2.073117       -56.4124
   8   2.0000      -0.221751        -6.0342
   9   2.0000      -0.145903        -3.9702
  10   2.0000      -0.145903        -3.9702
  11   2.0000      -0.145903        -3.9702
  12   0.0000      -0.045171        -1.2292
  13   0.0000      -0.028955        -0.7879
  14   0.0000      -0.028955        -0.7879
  15   0.0000      -0.028955        -0.7879
  16   0.0000      -0.016532        -0.4499

MULLIKEN ATOMIC CHARGES
-----------------------
   0 Li:    0.008922
   1 Li:    0.008923
   2 Li:    0.008922
   3 Li:    0.008922
   4 Li:   -0.008923
   5 Li:   -0.008922
   6 Li:   -0.008922
   7 Li:   -0.008922
Sum of atomic charges:    0.0000000

LOEWDIN ATOMIC CHARGES
----------------------
   0 Li:    0.121336
   1 Li:    0.121336
   2 Li:    0.121336
   3 Li:    0.121336
   4 Li:   -0.121336
   5 Li:   -0.121336
   6 Li:   -0.121336
   7 Li:   -0.121336

  Mayer bond orders larger than 0.100000
B(  0-Li,  4-Li) :   0.3042 B(  0-Li,  6-Li) :   0.3042 B(  0-Li,  7-Li) :   0.3042
B(  1-Li,  4-Li) :   0.3042 B(  1-Li,  5-Li) :   0.3042 B(  1-Li,  6-Li) :   0.3042
B(  2-Li,  4-Li) :   0.3042 B(  2-Li,  5-Li) :   0.3042 B(  2-Li,  7-Li) :   0.3042
B(  3-Li,  5-Li) :   0.3042 B(  3-Li,  6-Li) :   0.3042 B(  3-Li,  7-Li) :   0.3042
B(  4-Li,  5-Li) :   0.1935 B(  4-Li,  6-Li) :   0.1935 B(  4-Li,  7-Li) :   0.1935
B(  5-Li,  6-Li) :   0.1935 B(  5-Li,  7-Li) :   0.1935 B(  6-Li,  7-Li) :   0.1935

Dispersion correction           -0.003915756
FINAL SINGLE POINT ENERGY       -59.883655322487

DIPOLE MOMENT
-------------
                                X             Y             Z
Electronic contribution:      0.00000      -0.00000       0.00000
Nuclear contribution   :      0.00000       0.00000       0.00000
                        -----------------------------------------
Total Dipole Moment    :      0.00000      -0.00000       0.00000
                        -----------------------------------------
Magnitude (a.u.)       :      0.00000
Magnitude (Debye)      :      0.00000

Rotational constants in cm-1:     0.068905     0.068905     0.068905
Rotational constants in MHz :  2065.727539  2065.727539  2065.727539

                             ****ORCA TERMINATED NORMALLY****
TOTAL RUN TIME: 0 days 0 hours 1 minutes 19 seconds 408 msec
