                         Program Version 5.0.3 -  RELEASE  -
|  1> ! PBEh-3c def2/J TightSCF DefGrid3
|  2>
|  3> %maxcore 60000
|  4>
|  5> %pal
|  6> nprocs 4
|  7> end
|  8>
|  9> *xyzfile 0 1 15a.xyz
| 10>
| 11>                          ****END OF INPUT****

CARTESIAN COORDINATES (ANGSTROEM)
---------------------------------
  N      0.000000    0.691283    0.000000
  F      0.756395    1.890287    0.000000
  H      0.376422    0.189509    0.800592
  H      0.376422    0.189509   -0.800592

 Total Charge           Charge          ....    0
 Multiplicity           Mult            ....    1
 Number of Electrons    NEL             ....   18
 Basis Dimension        Dim             ....   34

ORBITAL ENERGIES
----------------

  NO   OCC          E(Eh)            E(eV)
   0   2.0000     -25.087843      -682.6749
   1   2.0000     -14.706653      -400.1884
   2   2.0000      -1.316253       -35.8171
   3   2.0000      -0.932794       -25.3826
   4   2.0000      -0.596569       -16.2335
   5   2.0000      -0.570208       -15.5161
   6   2.0000      -0.503565       -13.7027
   7   2.0000      -0.433652       -11.8003
   8   2.0000      -0.332687        -9.0529
   9   0.0000       0.102321         2.7843
  10   0.0000       0.132938         3.6174
  11   0.0000       0.190131         5.1737
  12   0.0000       0.632611        17.2142
  13   0.0000       0.765085        20.8190

MULLIKEN ATOMIC CHARGES
-----------------------
   0 N :   -0.341222
   1 F :   -0.326737
   2 H :    0.333980
   3 H :    0.333980
Sum of atomic charges:   -0.0000000

LOEWDIN ATOMIC CHARGES
----------------------
   0 N :   -0.183774
   1 F :   -0.258069
   2 H :    0.220922
   3 H :    0.220922

  Mayer bond orders larger than 0.100000
B(  0-N ,  1-F ) :   0.9274 B(  0-N ,  2-H ) :   0.8527 B(  0-N ,  3-H ) :   0.8527

Dispersion correction           -0.000489651
FINAL SINGLE POINT ENERGY      -155.395745148254

DIPOLE MOMENT
-------------
                                X             Y             Z
Electronic contribution:      0.74662       1.73042      -0.00000
Nuclear contribution   :     -0.40722      -2.64620       0.00000
                        -----------------------------------------
Total Dipole Moment    :      0.33940      -0.91578      -0.00000
                        -----------------------------------------
Magnitude (a.u.)       :      0.97665
Magnitude (Debye)      :      2.48245

Rotational constants in cm-1:     9.019656     0.891488     0.858994
Rotational constants in MHz : 270402.469758 26726.134975 25751.989048

                             ****ORCA TERMINATED NORMALLY****
TOTAL RUN TIME: 0 days 0 hours 0 minutes 37 seconds 764 msec
