                         Program Version 5.0.3 -  RELEASE  -
|  1> ! PBEh-3c def2/J TightSCF DefGrid3
|  2>
|  3> %maxcore 60000
|  4>
|  5> %pal
|  6> nprocs 4
|  7> end
|  8>
|  9> *xyzfile 0 1 cao.xyz
| 10>
| 11>                          ****END OF INPUT****

CARTESIAN COORDINATES (ANGSTROEM)
---------------------------------
  Ca     0.000000    0.000000   -0.898729
  O      0.000000    0.000000    0.898729

 Total Charge           Charge          ....    0
 Multiplicity           Mult            ....    1
 Number of Electrons    NEL             ....   28
 Basis Dimension        Dim             ....   39

ORBITAL ENERGIES
----------------

  NO   OCC          E(Eh)            E(eV)
   0   2.0000    -146.187848     -3977.9736
   1   2.0000     -19.316666      -525.6332
   2   2.0000     -15.660608      -426.1468
   3   2.0000     -12.707890      -345.7993
   4   2.0000     -12.706281      -345.7555
   5   2.0000     -12.706281      -345.7555
   6   2.0000      -1.817026       -49.4438
   7   2.0000      -1.079555       -29.3762
   8   2.0000      -1.055545       -28.7228
   9   2.0000      -1.055545       -28.7228
  10   2.0000      -0.773382       -21.0448
  11   2.0000      -0.207666        -5.6509
  12   2.0000      -0.207666        -5.6509
  13   2.0000      -0.197477        -5.3736
  14   0.0000      -0.048116        -1.3093
  15   0.0000       0.048693         1.3250
  16   0.0000       0.048693         1.3250
  17   0.0000       0.057092         1.5535
  18   0.0000       0.074973         2.0401

MULLIKEN ATOMIC CHARGES
-----------------------
   0 Ca:    0.674661
   1 O :   -0.674661
Sum of atomic charges:   -0.0000000

LOEWDIN ATOMIC CHARGES
----------------------
   0 Ca:    0.564633
   1 O :   -0.564633

  Mayer bond orders larger than 0.100000
B(  0-Ca,  1-O ) :   2.1241

Dispersion correction           -0.000334511
FINAL SINGLE POINT ENERGY      -752.087810678715

DIPOLE MOMENT
-------------
                                X             Y             Z
Electronic contribution:      0.00000       0.00000      -3.56694
Nuclear contribution   :      0.00000       0.00000       0.03998
                        -----------------------------------------
Total Dipole Moment    :      0.00000       0.00000      -3.52696
                        -----------------------------------------
Magnitude (a.u.)       :      3.52696
Magnitude (Debye)      :      8.96483

Rotational constants in cm-1:     0.000000     0.456309     0.456309
Rotational constants in MHz :     0.000000 13679.801977 13679.801977

                             ****ORCA TERMINATED NORMALLY****
TOTAL RUN TIME: 0 days 0 hours 0 minutes 27 seconds 998 msec
