                         Program Version 5.0.3 -  RELEASE  -
|  1> ! PBEh-3c def2/J TightSCF DefGrid3
|  2>
|  3> %maxcore 60000
|  4>
|  5> %pal
|  6> nprocs 4
|  7> end
|  8>
|  9> *xyzfile -1 3 EA_8.xyz
| 10>
| 11>                          ****END OF INPUT****

CARTESIAN COORDINATES (ANGSTROEM)
---------------------------------
  C      0.000000    0.000000    0.571464
  H      0.000000    0.000000   -0.571464

 Total Charge           Charge          ....   -1
 Multiplicity           Mult            ....    3
 Number of Electrons    NEL             ....    8
 Basis Dimension        Dim             ....   17

ORBITAL ENERGIES
----------------
                 SPIN UP ORBITALS
  NO   OCC          E(Eh)            E(eV)
   0   1.0000     -10.116387      -275.2809
   1   1.0000      -0.362190        -9.8557
   2   1.0000      -0.012327        -0.3354
   3   1.0000       0.062933         1.7125
   4   1.0000       0.062933         1.7125
   5   0.0000       0.464846        12.6491
   6   0.0000       0.842095        22.9146
   7   0.0000       0.842095        22.9146
   8   0.0000       0.849369        23.1125
   9   0.0000       1.036281        28.1986

                 SPIN DOWN ORBITALS
  NO   OCC          E(Eh)            E(eV)
   0   1.0000     -10.091694      -274.6090
   1   1.0000      -0.266862        -7.2617
   2   1.0000       0.035483         0.9655
   3   0.0000       0.329004         8.9527
   4   0.0000       0.329004         8.9527
   5   0.0000       0.488914        13.3040
   6   0.0000       0.875470        23.8228
   7   0.0000       0.947848        25.7923

MULLIKEN ATOMIC CHARGES AND SPIN POPULATIONS
--------------------------------------------
   0 C :   -0.941658    2.093219
   1 H :   -0.058342   -0.093219
Sum of atomic charges         :   -1.0000000

LOEWDIN ATOMIC CHARGES AND SPIN POPULATIONS
-------------------------------------------
   0 C :   -0.969035    2.045575
   1 H :   -0.030965   -0.045575

  Mayer bond orders larger than 0.100000
B(  0-C ,  1-H ) :   0.9240

Dispersion correction           -0.000139000
FINAL SINGLE POINT ENERGY       -38.403541188785

DIPOLE MOMENT
-------------
                                X             Y             Z
Electronic contribution:      0.00000      -0.00000       0.49499
Nuclear contribution   :      0.00000       0.00000      -0.98925
                        -----------------------------------------
Total Dipole Moment    :      0.00000      -0.00000      -0.49426
                        -----------------------------------------
Magnitude (a.u.)       :      0.49426
Magnitude (Debye)      :      1.25631

Rotational constants in cm-1:     0.000000    13.877062    13.877062
Rotational constants in MHz :     0.000000 416023.863681 416023.863681

                             ****ORCA TERMINATED NORMALLY****
TOTAL RUN TIME: 0 days 0 hours 0 minutes 19 seconds 219 msec
