                         Program Version 5.0.3 -  RELEASE  -
|  1> ! PBEh-3c def2/J TightSCF DefGrid3
|  2>
|  3> %maxcore 60000
|  4>
|  5> %pal
|  6> nprocs 4
|  7> end
|  8>
|  9> *xyzfile 0 1 pf3.xyz
| 10>
| 11>                          ****END OF INPUT****

CARTESIAN COORDINATES (ANGSTROEM)
---------------------------------
  P      0.000000    0.000000    0.505338
  F      0.000000    1.372920   -0.280743
  F     -1.188984   -0.686460   -0.280743
  F      1.188984   -0.686460   -0.280743

 Total Charge           Charge          ....    0
 Multiplicity           Mult            ....    1
 Number of Electrons    NEL             ....   42
 Basis Dimension        Dim             ....   63

ORBITAL ENERGIES
----------------

  NO   OCC          E(Eh)            E(eV)
   0   2.0000     -77.926049     -2120.4756
   1   2.0000     -25.130877      -683.8459
   2   2.0000     -25.130827      -683.8446
   3   2.0000     -25.130810      -683.8441
   4   2.0000      -6.973958      -189.7711
   5   2.0000      -5.065749      -137.8460
   6   2.0000      -5.065748      -137.8460
   7   2.0000      -5.061610      -137.7334
   8   2.0000      -1.397737       -38.0344
   9   2.0000      -1.344402       -36.5830
  10   2.0000      -1.344392       -36.5828
  11   2.0000      -0.748646       -20.3717
  12   2.0000      -0.628394       -17.0995
  13   2.0000      -0.628389       -17.0993
  14   2.0000      -0.597670       -16.2634
  15   2.0000      -0.554628       -15.0922
  16   2.0000      -0.554622       -15.0920
  17   2.0000      -0.514405       -13.9977
  18   2.0000      -0.514396       -13.9974
  19   2.0000      -0.501106       -13.6358
  20   2.0000      -0.371353       -10.1050
  21   0.0000       0.038506         1.0478
  22   0.0000       0.038507         1.0478
  23   0.0000       0.174265         4.7420
  24   0.0000       0.275625         7.5001
  25   0.0000       0.474284        12.9059

MULLIKEN ATOMIC CHARGES
-----------------------
   0 P :    1.269402
   1 F :   -0.423137
   2 F :   -0.423133
   3 F :   -0.423133
Sum of atomic charges:   -0.0000000

LOEWDIN ATOMIC CHARGES
----------------------
   0 P :    0.849286
   1 F :   -0.283097
   2 F :   -0.283094
   3 F :   -0.283094

  Mayer bond orders larger than 0.100000
B(  0-P ,  1-F ) :   0.9134 B(  0-P ,  2-F ) :   0.9134 B(  0-P ,  3-F ) :   0.9134

Dispersion correction           -0.000872771
FINAL SINGLE POINT ENERGY      -640.008083081458

DIPOLE MOMENT
-------------
                                X             Y             Z
Electronic contribution:      0.00000       0.00003       0.12075
Nuclear contribution   :      0.00000       0.00000       0.31429
                        -----------------------------------------
Total Dipole Moment    :      0.00000       0.00003       0.43504
                        -----------------------------------------
Magnitude (a.u.)       :      0.43504
Magnitude (Debye)      :      1.10578

Rotational constants in cm-1:     0.254976     0.254976     0.156920
Rotational constants in MHz :  7643.983596  7643.979831  4704.331452

                             ****ORCA TERMINATED NORMALLY****
TOTAL RUN TIME: 0 days 0 hours 0 minutes 58 seconds 352 msec
