                         Program Version 5.0.3 -  RELEASE  -
|  1> ! PBEh-3c def2/J TightSCF DefGrid3
|  2>
|  3> %maxcore 60000
|  4>
|  5> %pal
|  6> nprocs 4
|  7> end
|  8>
|  9> *xyzfile 0 3 si.xyz
| 10>
| 11>                          ****END OF INPUT****

CARTESIAN COORDINATES (ANGSTROEM)
---------------------------------
  Si     0.000000    0.000000    0.000000

 Total Charge           Charge          ....    0
 Multiplicity           Mult            ....    3
 Number of Electrons    NEL             ....   14
 Basis Dimension        Dim             ....   18

ORBITAL ENERGIES
----------------
                 SPIN UP ORBITALS
  NO   OCC          E(Eh)            E(eV)
   0   1.0000     -66.775996     -1817.0672
   1   1.0000      -5.550411      -151.0344
   2   1.0000      -3.841135      -104.5226
   3   1.0000      -3.841135      -104.5226
   4   1.0000      -3.841063      -104.5206
   5   1.0000      -0.507321       -13.8049
   6   1.0000      -0.231415        -6.2971
   7   1.0000      -0.231415        -6.2971
   8   0.0000      -0.101435        -2.7602
   9   0.0000       0.178940         4.8692
  10   0.0000       0.427186        11.6243
  11   0.0000       0.427186        11.6243
  12   0.0000       0.441801        12.0220

                 SPIN DOWN ORBITALS
  NO   OCC          E(Eh)            E(eV)
   0   1.0000     -66.769090     -1816.8793
   1   1.0000      -5.542807      -150.8274
   2   1.0000      -3.837300      -104.4182
   3   1.0000      -3.824513      -104.0703
   4   1.0000      -3.824513      -104.0703
   5   1.0000      -0.417366       -11.3571
   6   0.0000      -0.078230        -2.1287
   7   0.0000      -0.041758        -1.1363
   8   0.0000      -0.041758        -1.1363
   9   0.0000       0.209056         5.6887
  10   0.0000       0.455339        12.3904

MULLIKEN ATOMIC CHARGES AND SPIN POPULATIONS
--------------------------------------------
   0 Si:   -0.000000    2.000000
Sum of atomic charges         :   -0.0000000

LOEWDIN ATOMIC CHARGES AND SPIN POPULATIONS
-------------------------------------------
   0 Si:   -0.000000    2.000000

Dispersion correction            0.000000000
FINAL SINGLE POINT ENERGY      -289.000080393246

DIPOLE MOMENT
-------------
                                X             Y             Z
Electronic contribution:     -0.00000      -0.00001       0.00001
Nuclear contribution   :      0.00000       0.00000       0.00000
                        -----------------------------------------
Total Dipole Moment    :     -0.00000      -0.00001       0.00001
                        -----------------------------------------
Magnitude (a.u.)       :      0.00001
Magnitude (Debye)      :      0.00003

Rotational constants in cm-1:     0.000000     0.000000     0.000000
Rotational constants in MHz :     0.000000     0.000000     0.000000

                             ****ORCA TERMINATED NORMALLY****
TOTAL RUN TIME: 0 days 0 hours 0 minutes 38 seconds 327 msec
