                         Program Version 5.0.3 -  RELEASE  -
|  1> ! PBEh-3c def2/J TightSCF DefGrid3
|  2>
|  3> %maxcore 60000
|  4>
|  5> %pal
|  6> nprocs 4
|  7> end
|  8>
|  9> *xyzfile 0 1 C3.xyz
| 10>
| 11>                          ****END OF INPUT****

CARTESIAN COORDINATES (ANGSTROEM)
---------------------------------
  C      2.813172   -0.364426    0.600595
  C      1.546687   -0.527837   -0.231925
  C      0.276465   -0.330178    0.594429
  C     -1.022963   -0.299144   -0.246753
  C     -1.435181    1.195128   -0.204579
  O     -0.876042    1.936042   -1.276572
  C     -0.895928    1.613147    1.163304
  O      3.909604   -0.498536   -0.318092
  O     -1.970084   -1.146676    0.397811
  O      1.551840    0.411303   -1.312459
  O      0.353539    0.919634    1.296719
  C     -3.080268   -1.498898   -0.416095
  H      2.813960    0.622880    1.073910
  H      2.855853   -1.142324    1.374974
  H      1.527523   -1.549217   -0.644102
  H      0.195595   -1.155757    1.315071
  H     -0.861844   -0.627830   -1.281576
  H     -2.519237    1.316993   -0.273060
  H      0.056958    1.673175   -1.380559
  H     -0.696722    2.685209    1.227859
  H     -1.585632    1.311228    1.965122
  H      4.718006   -0.169704    0.093222
  H      2.456549    0.440274   -1.660042
  H     -3.676077   -0.623468   -0.708404
  H     -2.751770   -2.020902   -1.326898
  H     -3.704000   -2.170118    0.178105

 Total Charge           Charge          ....    0
 Multiplicity           Mult            ....    1
 Number of Electrons    NEL             ....   96
 Basis Dimension        Dim             ....  208

ORBITAL ENERGIES
----------------

  NO   OCC          E(Eh)            E(eV)
   0   2.0000     -19.507694      -530.8314
   1   2.0000     -19.502629      -530.6935
   2   2.0000     -19.501201      -530.6547
   3   2.0000     -19.493760      -530.4522
   4   2.0000     -19.468233      -529.7575
   5   2.0000     -10.500609      -285.7361
   6   2.0000     -10.495075      -285.5855
   7   2.0000     -10.493646      -285.5466
   8   2.0000     -10.493350      -285.5386
   9   2.0000     -10.484020      -285.2847
  10   2.0000     -10.481905      -285.2271
  11   2.0000     -10.474391      -285.0227
  12   2.0000      -1.160107       -31.5681
  13   2.0000      -1.147058       -31.2130
  14   2.0000      -1.132296       -30.8113
  15   2.0000      -1.120553       -30.4918
  16   2.0000      -1.102074       -29.9890
  17   2.0000      -0.874281       -23.7904
  18   2.0000      -0.846605       -23.0373
  19   2.0000      -0.801208       -21.8020
  20   2.0000      -0.757310       -20.6075
  21   2.0000      -0.705805       -19.2059
  22   2.0000      -0.665859       -18.1189
  23   2.0000      -0.650888       -17.7116
  24   2.0000      -0.609341       -16.5810
  25   2.0000      -0.592613       -16.1258
  26   2.0000      -0.563100       -15.3227
  27   2.0000      -0.558664       -15.2020
  28   2.0000      -0.544205       -14.8086
  29   2.0000      -0.538341       -14.6490
  30   2.0000      -0.518776       -14.1166
  31   2.0000      -0.507841       -13.8190
  32   2.0000      -0.487439       -13.2639
  33   2.0000      -0.479500       -13.0479
  34   2.0000      -0.472820       -12.8661
  35   2.0000      -0.457632       -12.4528
  36   2.0000      -0.440422       -11.9845
  37   2.0000      -0.428977       -11.6730
  38   2.0000      -0.420540       -11.4435
  39   2.0000      -0.401322       -10.9205
  40   2.0000      -0.398910       -10.8549
  41   2.0000      -0.374795       -10.1987
  42   2.0000      -0.365856        -9.9555
  43   2.0000      -0.348500        -9.4832
  44   2.0000      -0.339538        -9.2393
  45   2.0000      -0.335486        -9.1290
  46   2.0000      -0.309613        -8.4250
  47   2.0000      -0.291228        -7.9247
  48   0.0000       0.101459         2.7609
  49   0.0000       0.125569         3.4169
  50   0.0000       0.131713         3.5841
  51   0.0000       0.155921         4.2428
  52   0.0000       0.162560         4.4235

MULLIKEN ATOMIC CHARGES
-----------------------
   0 C :   -0.179568
   1 C :    0.022347
   2 C :    0.022646
   3 C :   -0.036099
   4 C :   -0.003589
   5 O :   -0.649797
   6 C :   -0.166685
   7 O :   -0.653194
   8 O :   -0.481791
   9 O :   -0.672724
  10 O :   -0.494708
  11 C :   -0.373831
  12 H :    0.227634
  13 H :    0.191383
  14 H :    0.208899
  15 H :    0.232396
  16 H :    0.235012
  17 H :    0.224006
  18 H :    0.438738
  19 H :    0.230892
  20 H :    0.196388
  21 H :    0.428383
  22 H :    0.442618
  23 H :    0.193633
  24 H :    0.192281
  25 H :    0.224729
Sum of atomic charges:    0.0000000

LOEWDIN ATOMIC CHARGES
----------------------
   0 C :   -0.103864
   1 C :   -0.032998
   2 C :   -0.014279
   3 C :   -0.028761
   4 C :   -0.042004
   5 O :   -0.405474
   6 C :   -0.089969
   7 O :   -0.425055
   8 O :   -0.257771
   9 O :   -0.403564
  10 O :   -0.265491
  11 C :   -0.183637
  12 H :    0.123383
  13 H :    0.110854
  14 H :    0.115516
  15 H :    0.130393
  16 H :    0.124298
  17 H :    0.123929
  18 H :    0.309528
  19 H :    0.130266
  20 H :    0.110946
  21 H :    0.316347
  22 H :    0.322184
  23 H :    0.104060
  24 H :    0.105229
  25 H :    0.125934

  Mayer bond orders larger than 0.100000
B(  0-C ,  1-C ) :   0.9738 B(  0-C ,  7-O ) :   0.9930 B(  0-C , 12-H ) :   0.8888
B(  0-C , 13-H ) :   0.8978 B(  1-C ,  2-C ) :   0.9161 B(  1-C ,  9-O ) :   0.9555
B(  1-C , 14-H ) :   0.8929 B(  2-C ,  3-C ) :   0.9404 B(  2-C , 10-O ) :   0.9582
B(  2-C , 15-H ) :   0.8907 B(  3-C ,  4-C ) :   0.9140 B(  3-C ,  8-O ) :   0.9267
B(  3-C , 16-H ) :   0.8896 B(  4-C ,  5-O ) :   1.0466 B(  4-C ,  6-C ) :   0.9300
B(  4-C , 17-H ) :   0.9066 B(  5-O , 18-H ) :   0.7187 B(  6-C , 10-O ) :   0.9573
B(  6-C , 19-H ) :   0.9157 B(  6-C , 20-H ) :   0.8967 B(  7-O , 21-H ) :   0.7843
B(  8-O , 11-C ) :   0.9689 B(  9-O , 22-H ) :   0.7482 B( 11-C , 23-H ) :   0.9081
B( 11-C , 24-H ) :   0.9133 B( 11-C , 25-H ) :   0.9285

Dispersion correction           -0.014359072
FINAL SINGLE POINT ENERGY      -649.851107543503

DIPOLE MOMENT
-------------
                                X             Y             Z
Electronic contribution:      3.51809       2.36324       0.02084
Nuclear contribution   :     -2.88718      -2.92754       0.25919
                        -----------------------------------------
Total Dipole Moment    :      0.63091      -0.56430       0.28003
                        -----------------------------------------
Magnitude (a.u.)       :      0.89157
Magnitude (Debye)      :      2.26619

Rotational constants in cm-1:     0.049179     0.019453     0.017849
Rotational constants in MHz :  1474.353317   583.172252   535.103697

                             ****ORCA TERMINATED NORMALLY****
TOTAL RUN TIME: 0 days 0 hours 2 minutes 48 seconds 460 msec
