                         Program Version 5.0.3 -  RELEASE  -
|  1> ! PBEh-3c def2/J TightSCF DefGrid3
|  2>
|  3> %maxcore 60000
|  4>
|  5> %pal
|  6> nprocs 4
|  7> end
|  8>
|  9> *xyzfile 0 1 17a.xyz
| 10>
| 11>                          ****END OF INPUT****

CARTESIAN COORDINATES (ANGSTROEM)
---------------------------------
  N      0.873758   -2.118284    0.000000
  H      0.209450   -2.880727    0.000000
  H      1.463126   -2.221816    0.815071
  H      1.463126   -2.221816   -0.815071

 Total Charge           Charge          ....    0
 Multiplicity           Mult            ....    1
 Number of Electrons    NEL             ....   10
 Basis Dimension        Dim             ....   21

ORBITAL ENERGIES
----------------

  NO   OCC          E(Eh)            E(eV)
   0   2.0000     -14.594933      -397.1483
   1   2.0000      -0.933552       -25.4032
   2   2.0000      -0.512650       -13.9499
   3   2.0000      -0.511698       -13.9240
   4   2.0000      -0.303589        -8.2611
   5   0.0000       0.142737         3.8841
   6   0.0000       0.226729         6.1696
   7   0.0000       0.226895         6.1741
   8   0.0000       0.763636        20.7796
   9   0.0000       0.765073        20.8187

MULLIKEN ATOMIC CHARGES
-----------------------
   0 N :   -0.947131
   1 H :    0.315905
   2 H :    0.315613
   3 H :    0.315613
Sum of atomic charges:    0.0000000

LOEWDIN ATOMIC CHARGES
----------------------
   0 N :   -0.650808
   1 H :    0.217054
   2 H :    0.216877
   3 H :    0.216877

  Mayer bond orders larger than 0.100000
B(  0-N ,  1-H ) :   0.8792 B(  0-N ,  2-H ) :   0.8795 B(  0-N ,  3-H ) :   0.8795

Dispersion correction           -0.000444462
FINAL SINGLE POINT ENERGY       -56.428087368596

DIPOLE MOMENT
-------------
                                X             Y             Z
Electronic contribution:     -0.05584       0.10237       0.00000
Nuclear contribution   :      0.39676      -0.74775       0.00000
                        -----------------------------------------
Total Dipole Moment    :      0.34092      -0.64538       0.00000
                        -----------------------------------------
Magnitude (a.u.)       :      0.72989
Magnitude (Debye)      :      1.85523

Rotational constants in cm-1:    10.081250    10.029436     6.273171
Rotational constants in MHz : 302228.257809 300674.935044 188064.936993

                             ****ORCA TERMINATED NORMALLY****
TOTAL RUN TIME: 0 days 0 hours 0 minutes 28 seconds 189 msec
