                         Program Version 5.0.3 -  RELEASE  -
|  1> ! PBEh-3c def2/J TightSCF DefGrid3
|  2>
|  3> %maxcore 60000
|  4>
|  5> %pal
|  6> nprocs 4
|  7> end
|  8>
|  9> *xyzfile 0 1 SER_aR.xyz
| 10>
| 11>                          ****END OF INPUT****

CARTESIAN COORDINATES (ANGSTROEM)
---------------------------------
  H     -1.710273   -2.524007    3.114406
  C     -2.319685   -2.827711    2.261804
  H     -3.373843   -2.641295    2.483232
  H     -2.174458   -3.904315    2.123376
  C     -1.822006   -2.106629    1.022299
  O     -0.623210   -2.002469    0.767043
  N     -2.782353   -1.559933    0.217194
  H     -3.746514   -1.794766    0.412489
  C     -2.479365   -1.083916   -1.136349
  H     -2.060611   -1.902996   -1.731274
  C     -3.752492   -0.559802   -1.806171
  H     -4.190004    0.273670   -1.246217
  H     -3.519819   -0.209378   -2.814107
  H     -4.503117   -1.353355   -1.890583
  C     -1.365939   -0.018439   -1.137857
  O     -0.454216   -0.069084   -1.952860
  N     -1.492359    0.977436   -0.219985
  H     -2.353553    1.052291    0.305457
  C     -0.592668    2.125728   -0.190836
  H     -0.650266    2.692986   -1.124351
  C     -0.973738    3.033775    0.974056
  H     -0.971214    2.455762    1.911210
  H     -0.211140    3.819294    1.055459
  O     -2.259641    3.578660    0.691366
  H     -2.491012    4.188802    1.402442
  C      0.889537    1.705037   -0.046137
  O      1.767500    2.306737   -0.642761
  N      1.128098    0.772515    0.927168
  H      0.353835    0.159371    1.162186
  C      2.471350    0.224978    1.135113
  H      3.140580    1.061870    1.345500
  C      2.453689   -0.746052    2.318846
  H      1.766367   -1.578056    2.132413
  H      3.455897   -1.153424    2.474307
  H      2.143839   -0.231263    3.234739
  C      3.100041   -0.442605   -0.111530
  O      4.290079   -0.280487   -0.356337
  N      2.289926   -1.305844   -0.785853
  H      1.296176   -1.275399   -0.604454
  C      2.714724   -1.940498   -2.021215
  H      3.785183   -1.764906   -2.133487
  H      2.528088   -3.019911   -1.986284
  H      2.185027   -1.518493   -2.882271

 Total Charge           Charge          ....    0
 Multiplicity           Mult            ....    1
 Number of Electrons    NEL             ....  162
 Basis Dimension        Dim             ....  359

ORBITAL ENERGIES
----------------

  NO   OCC          E(Eh)            E(eV)
   0   2.0000     -19.512837      -530.9713
   1   2.0000     -19.494408      -530.4698
   2   2.0000     -19.473950      -529.9131
   3   2.0000     -19.452037      -529.3168
   4   2.0000     -19.424780      -528.5751
   5   2.0000     -14.699248      -399.9869
   6   2.0000     -14.677858      -399.4048
   7   2.0000     -14.651590      -398.6900
   8   2.0000     -14.626875      -398.0175
   9   2.0000     -10.585298      -288.0406
  10   2.0000     -10.563925      -287.4590
  11   2.0000     -10.541532      -286.8497
  12   2.0000     -10.517787      -286.2035
  13   2.0000     -10.515162      -286.1321
  14   2.0000     -10.509125      -285.9678
  15   2.0000     -10.495155      -285.5877
  16   2.0000     -10.472610      -284.9742
  17   2.0000     -10.471406      -284.9415
  18   2.0000     -10.470252      -284.9100
  19   2.0000     -10.435884      -283.9748
  20   2.0000     -10.427242      -283.7397
  21   2.0000      -1.176525       -32.0149
  22   2.0000      -1.158296       -31.5188
  23   2.0000      -1.147735       -31.2315
  24   2.0000      -1.134444       -30.8698
  25   2.0000      -1.106858       -30.1191
  26   2.0000      -1.058335       -28.7988
  27   2.0000      -1.036803       -28.2128
  28   2.0000      -1.011355       -27.5204
  29   2.0000      -0.981322       -26.7031
  30   2.0000      -0.902220       -24.5507
  31   2.0000      -0.866674       -23.5834
  32   2.0000      -0.843794       -22.9608
  33   2.0000      -0.836628       -22.7658
  34   2.0000      -0.760712       -20.7000
  35   2.0000      -0.760397       -20.6915
  36   2.0000      -0.730345       -19.8737
  37   2.0000      -0.702316       -19.1110
  38   2.0000      -0.694678       -18.9031
  39   2.0000      -0.674165       -18.3450
  40   2.0000      -0.646492       -17.5920
  41   2.0000      -0.617436       -16.8013
  42   2.0000      -0.609865       -16.5953
  43   2.0000      -0.603820       -16.4308
  44   2.0000      -0.596248       -16.2247
  45   2.0000      -0.581308       -15.8182
  46   2.0000      -0.571092       -15.5402
  47   2.0000      -0.553362       -15.0577
  48   2.0000      -0.538427       -14.6514
  49   2.0000      -0.530775       -14.4431
  50   2.0000      -0.519097       -14.1253
  51   2.0000      -0.516401       -14.0520
  52   2.0000      -0.503865       -13.7109
  53   2.0000      -0.497962       -13.5502
  54   2.0000      -0.494138       -13.4462
  55   2.0000      -0.490476       -13.3465
  56   2.0000      -0.484697       -13.1893
  57   2.0000      -0.476114       -12.9557
  58   2.0000      -0.471787       -12.8380
  59   2.0000      -0.467661       -12.7257
  60   2.0000      -0.462995       -12.5987
  61   2.0000      -0.461497       -12.5580
  62   2.0000      -0.453836       -12.3495
  63   2.0000      -0.448975       -12.2172
  64   2.0000      -0.436832       -11.8868
  65   2.0000      -0.431007       -11.7283
  66   2.0000      -0.426371       -11.6022
  67   2.0000      -0.422722       -11.5028
  68   2.0000      -0.412295       -11.2191
  69   2.0000      -0.406339       -11.0571
  70   2.0000      -0.395271       -10.7559
  71   2.0000      -0.382431       -10.4065
  72   2.0000      -0.353918        -9.6306
  73   2.0000      -0.350842        -9.5469
  74   2.0000      -0.341855        -9.3024
  75   2.0000      -0.329594        -8.9687
  76   2.0000      -0.317392        -8.6367
  77   2.0000      -0.313087        -8.5195
  78   2.0000      -0.294160        -8.0045
  79   2.0000      -0.268010        -7.2929
  80   2.0000      -0.266681        -7.2567
  81   0.0000       0.020111         0.5473
  82   0.0000       0.038632         1.0512
  83   0.0000       0.056989         1.5507
  84   0.0000       0.087586         2.3833
  85   0.0000       0.090420         2.4605

MULLIKEN ATOMIC CHARGES
-----------------------
   0 H :    0.268408
   1 C :   -0.751543
   2 H :    0.219934
   3 H :    0.266759
   4 C :    0.545790
   5 O :   -0.444608
   6 N :   -0.644854
   7 H :    0.362954
   8 C :   -0.183606
   9 H :    0.281339
  10 C :   -0.677254
  11 H :    0.225109
  12 H :    0.269049
  13 H :    0.230943
  14 C :    0.550955
  15 O :   -0.411800
  16 N :   -0.658406
  17 H :    0.370005
  18 C :   -0.173963
  19 H :    0.290942
  20 C :   -0.181567
  21 H :    0.189327
  22 H :    0.233053
  23 O :   -0.633560
  24 H :    0.426021
  25 C :    0.525004
  26 O :   -0.395391
  27 N :   -0.659549
  28 H :    0.377017
  29 C :   -0.173459
  30 H :    0.275550
  31 C :   -0.678166
  32 H :    0.235952
  33 H :    0.249442
  34 H :    0.219674
  35 C :    0.535778
  36 O :   -0.431463
  37 N :   -0.637450
  38 H :    0.390574
  39 C :   -0.491665
  40 H :    0.255011
  41 H :    0.203770
  42 H :    0.229943
Sum of atomic charges:    0.0000000

LOEWDIN ATOMIC CHARGES
----------------------
   0 H :    0.161278
   1 C :   -0.388710
   2 H :    0.131831
   3 H :    0.163090
   4 C :    0.121166
   5 O :   -0.280905
   6 N :   -0.244049
   7 H :    0.257115
   8 C :   -0.088414
   9 H :    0.148894
  10 C :   -0.355823
  11 H :    0.132588
  12 H :    0.155881
  13 H :    0.133422
  14 C :    0.106765
  15 O :   -0.251470
  16 N :   -0.233084
  17 H :    0.259810
  18 C :   -0.089467
  19 H :    0.155453
  20 C :   -0.090885
  21 H :    0.104389
  22 H :    0.125906
  23 O :   -0.416566
  24 H :    0.315979
  25 C :    0.108596
  26 O :   -0.241125
  27 N :   -0.246958
  28 H :    0.256109
  29 C :   -0.089478
  30 H :    0.151511
  31 C :   -0.358103
  32 H :    0.136353
  33 H :    0.145882
  34 H :    0.127761
  35 C :    0.109326
  36 O :   -0.280105
  37 N :   -0.246442
  38 H :    0.257982
  39 C :   -0.255397
  40 H :    0.148286
  41 H :    0.115072
  42 H :    0.126533

  Mayer bond orders larger than 0.100000
B(  0-H ,  1-C ) :   0.9068 B(  1-C ,  2-H ) :   0.9194 B(  1-C ,  3-H ) :   0.9019
B(  1-C ,  4-C ) :   0.9287 B(  4-C ,  5-O ) :   1.9115 B(  4-C ,  6-N ) :   1.1416
B(  6-N ,  7-H ) :   0.8199 B(  6-N ,  8-C ) :   0.9025 B(  8-C ,  9-H ) :   0.8844
B(  8-C , 10-C ) :   0.9827 B(  8-C , 14-C ) :   0.8994 B( 10-C , 11-H ) :   0.9154
B( 10-C , 12-H ) :   0.9093 B( 10-C , 13-H ) :   0.9173 B( 14-C , 15-O ) :   1.9761
B( 14-C , 16-N ) :   1.1111 B( 16-N , 17-H ) :   0.8073 B( 16-N , 18-C ) :   0.8945
B( 18-C , 19-H ) :   0.8759 B( 18-C , 20-C ) :   0.9716 B( 18-C , 25-C ) :   0.8948
B( 20-C , 21-H ) :   0.8921 B( 20-C , 22-H ) :   0.8934 B( 20-C , 23-O ) :   1.0155
B( 23-O , 24-H ) :   0.7849 B( 25-C , 26-O ) :   2.0085 B( 25-C , 27-N ) :   1.0962
B( 27-N , 28-H ) :   0.7824 B( 27-N , 29-C ) :   0.9152 B( 29-C , 30-H ) :   0.8886
B( 29-C , 31-C ) :   0.9820 B( 29-C , 35-C ) :   0.8993 B( 31-C , 32-H ) :   0.9069
B( 31-C , 33-H ) :   0.9165 B( 31-C , 34-H ) :   0.9244 B( 35-C , 36-O ) :   1.9815
B( 35-C , 37-N ) :   1.1347 B( 37-N , 38-H ) :   0.7730 B( 37-N , 39-C ) :   0.9638
B( 39-C , 40-H ) :   0.9033 B( 39-C , 41-H ) :   0.9263 B( 39-C , 42-H ) :   0.9160

Dispersion correction           -0.029540517
FINAL SINGLE POINT ENERGY     -1063.448181924664

DIPOLE MOMENT
-------------
                                X             Y             Z
Electronic contribution:      5.72561       7.57213      -4.28448
Nuclear contribution   :    -10.56649      -8.55445       6.30582
                        -----------------------------------------
Total Dipole Moment    :     -4.84088      -0.98232       2.02135
                        -----------------------------------------
Magnitude (a.u.)       :      5.33712
Magnitude (Debye)      :     13.56589

Rotational constants in cm-1:     0.011675     0.008220     0.006655
Rotational constants in MHz :   349.995122   246.419328   199.522934

                             ****ORCA TERMINATED NORMALLY****
TOTAL RUN TIME: 0 days 0 hours 6 minutes 42 seconds 815 msec
