                         Program Version 5.0.3 -  RELEASE  -
|  1> ! PBEh-3c def2/J TightSCF DefGrid3
|  2>
|  3> %maxcore 60000
|  4>
|  5> %pal
|  6> nprocs 4
|  7> end
|  8>
|  9> *xyzfile 0 1 16b.xyz
| 10>
| 11>                          ****END OF INPUT****

CARTESIAN COORDINATES (ANGSTROEM)
---------------------------------
  C      0.000000    0.000000    0.604247
  C      0.000000    0.000000   -0.604247
  H      0.000000    0.000000   -1.668904
  H      0.000000    0.000000    1.668904

 Total Charge           Charge          ....    0
 Multiplicity           Mult            ....    1
 Number of Electrons    NEL             ....   14
 Basis Dimension        Dim             ....   34

ORBITAL ENERGIES
----------------

  NO   OCC          E(Eh)            E(eV)
   0   2.0000     -10.458255      -284.5836
   1   2.0000     -10.455829      -284.5176
   2   2.0000      -0.840631       -22.8747
   3   2.0000      -0.638285       -17.3686
   4   2.0000      -0.559573       -15.2267
   5   2.0000      -0.338364        -9.2073
   6   2.0000      -0.338364        -9.2073
   7   0.0000       0.069365         1.8875
   8   0.0000       0.069365         1.8875
   9   0.0000       0.160565         4.3692
  10   0.0000       0.208052         5.6614
  11   0.0000       0.424334        11.5467

MULLIKEN ATOMIC CHARGES
-----------------------
   0 C :   -0.237603
   1 C :   -0.237603
   2 H :    0.237603
   3 H :    0.237603
Sum of atomic charges:   -0.0000000

LOEWDIN ATOMIC CHARGES
----------------------
   0 C :   -0.163367
   1 C :   -0.163367
   2 H :    0.163367
   3 H :    0.163367

  Mayer bond orders larger than 0.100000
B(  0-C ,  1-C ) :   2.8357 B(  0-C ,  3-H ) :   0.9281 B(  1-C ,  2-H ) :   0.9281

Dispersion correction           -0.000698038
FINAL SINGLE POINT ENERGY       -77.142314761684

DIPOLE MOMENT
-------------
                                X             Y             Z
Electronic contribution:      0.00000      -0.00000      -0.00000
Nuclear contribution   :      0.00000       0.00000       0.00000
                        -----------------------------------------
Total Dipole Moment    :      0.00000      -0.00000      -0.00000
                        -----------------------------------------
Magnitude (a.u.)       :      0.00000
Magnitude (Debye)      :      0.00000

Rotational constants in cm-1:     0.000000     1.171823     1.171823
Rotational constants in MHz :     0.000000 35130.358770 35130.358770

                             ****ORCA TERMINATED NORMALLY****
TOTAL RUN TIME: 0 days 0 hours 0 minutes 42 seconds 863 msec
