                         Program Version 5.0.3 -  RELEASE  -
|  1> ! PBEh-3c def2/J TightSCF DefGrid3
|  2>
|  3> %maxcore 60000
|  4>
|  5> %pal
|  6> nprocs 4
|  7> end
|  8>
|  9> *xyzfile 0 1 AD7.xyz
| 10>
| 11>                          ****END OF INPUT****

CARTESIAN COORDINATES (ANGSTROEM)
---------------------------------
  C     -1.909877    0.090593    0.000000
  C     -1.909877   -0.749523    1.275258
  C     -1.909877   -0.749523   -1.275258
  C     -1.909877    0.089113    2.551380
  C     -1.909877    0.089113   -2.551380
  C     -1.909877   -0.761592    3.818785
  C     -1.909877   -0.761592   -3.818785
  H     -1.031014    0.749629    0.000000
  H     -2.788742    0.749629    0.000000
  H     -1.031086   -1.408761    1.275653
  H     -2.788670   -1.408761    1.275653
  H     -1.031086   -1.408761   -1.275653
  H     -2.788670   -1.408761   -1.275653
  H     -1.031854    0.747185    2.549277
  H     -2.787902    0.747185    2.549277
  H     -1.031854    0.747185   -2.549277
  H     -2.787902    0.747185   -2.549277
  H     -1.025826   -1.405785    3.855216
  H     -2.793930   -1.405785    3.855216
  H     -1.909877   -0.139913    4.719020
  H     -1.025826   -1.405785   -3.855216
  H     -2.793930   -1.405785   -3.855216
  H     -1.909877   -0.139913   -4.719020
  C      1.909877   -0.090593    0.000000
  C      1.909877    0.749523   -1.275258
  C      1.909877    0.749523    1.275258
  C      1.909877   -0.089113   -2.551380
  C      1.909877   -0.089113    2.551380
  C      1.909877    0.761592   -3.818785
  C      1.909877    0.761592    3.818785
  H      2.788742   -0.749629    0.000000
  H      1.031014   -0.749629    0.000000
  H      2.788670    1.408761   -1.275653
  H      1.031086    1.408761   -1.275653
  H      2.788670    1.408761    1.275653
  H      1.031086    1.408761    1.275653
  H      2.787902   -0.747185   -2.549277
  H      1.031854   -0.747185   -2.549277
  H      2.787902   -0.747185    2.549277
  H      1.031854   -0.747185    2.549277
  H      2.793930    1.405785   -3.855216
  H      1.025826    1.405785   -3.855216
  H      1.909877    0.139913   -4.719020
  H      2.793930    1.405785    3.855216
  H      1.025826    1.405785    3.855216
  H      1.909877    0.139913    4.719020

 Total Charge           Charge          ....    0
 Multiplicity           Mult            ....    1
 Number of Electrons    NEL             ....  116
 Basis Dimension        Dim             ....  274

ORBITAL ENERGIES
----------------

  NO   OCC          E(Eh)            E(eV)
   0   2.0000     -10.429219      -283.7935
   1   2.0000     -10.429212      -283.7933
   2   2.0000     -10.429211      -283.7933
   3   2.0000     -10.429199      -283.7929
   4   2.0000     -10.427802      -283.7549
   5   2.0000     -10.427796      -283.7547
   6   2.0000     -10.427692      -283.7519
   7   2.0000     -10.427687      -283.7518
   8   2.0000     -10.427484      -283.7463
   9   2.0000     -10.427477      -283.7461
  10   2.0000     -10.421137      -283.5736
  11   2.0000     -10.421132      -283.5734
  12   2.0000     -10.421132      -283.5734
  13   2.0000     -10.421126      -283.5733
  14   2.0000      -0.902169       -24.5493
  15   2.0000      -0.897926       -24.4338
  16   2.0000      -0.869647       -23.6643
  17   2.0000      -0.865666       -23.5560
  18   2.0000      -0.817943       -22.2574
  19   2.0000      -0.814414       -22.1613
  20   2.0000      -0.752150       -20.4671
  21   2.0000      -0.750258       -20.4156
  22   2.0000      -0.684534       -18.6271
  23   2.0000      -0.683030       -18.5862
  24   2.0000      -0.646919       -17.6036
  25   2.0000      -0.644447       -17.5363
  26   2.0000      -0.642108       -17.4726
  27   2.0000      -0.642023       -17.4703
  28   2.0000      -0.554630       -15.0922
  29   2.0000      -0.530798       -14.4437
  30   2.0000      -0.524766       -14.2796
  31   2.0000      -0.503240       -13.6939
  32   2.0000      -0.491153       -13.3649
  33   2.0000      -0.488237       -13.2856
  34   2.0000      -0.482107       -13.1188
  35   2.0000      -0.481466       -13.1014
  36   2.0000      -0.480149       -13.0655
  37   2.0000      -0.463148       -12.6029
  38   2.0000      -0.454648       -12.3716
  39   2.0000      -0.452802       -12.3214
  40   2.0000      -0.428698       -11.6655
  41   2.0000      -0.423149       -11.5145
  42   2.0000      -0.421484       -11.4692
  43   2.0000      -0.420789       -11.4503
  44   2.0000      -0.408915       -11.1272
  45   2.0000      -0.407954       -11.1010
  46   2.0000      -0.389568       -10.6007
  47   2.0000      -0.387683       -10.5494
  48   2.0000      -0.385731       -10.4963
  49   2.0000      -0.380503       -10.3540
  50   2.0000      -0.374258       -10.1841
  51   2.0000      -0.373841       -10.1727
  52   2.0000      -0.373811       -10.1719
  53   2.0000      -0.364739        -9.9250
  54   2.0000      -0.364504        -9.9187
  55   2.0000      -0.356685        -9.7059
  56   2.0000      -0.350608        -9.5405
  57   2.0000      -0.349747        -9.5171
  58   0.0000       0.086615         2.3569
  59   0.0000       0.104146         2.8340
  60   0.0000       0.130078         3.5396
  61   0.0000       0.136154         3.7049
  62   0.0000       0.157198         4.2776

MULLIKEN ATOMIC CHARGES
-----------------------
   0 C :   -0.413025
   1 C :   -0.399928
   2 C :   -0.399928
   3 C :   -0.422874
   4 C :   -0.422874
   5 C :   -0.638759
   6 C :   -0.638759
   7 H :    0.210431
   8 H :    0.204035
   9 H :    0.200466
  10 H :    0.202486
  11 H :    0.200466
  12 H :    0.202486
  13 H :    0.212992
  14 H :    0.208166
  15 H :    0.212992
  16 H :    0.208166
  17 H :    0.209371
  18 H :    0.209423
  19 H :    0.217936
  20 H :    0.209371
  21 H :    0.209423
  22 H :    0.217936
  23 C :   -0.413025
  24 C :   -0.399928
  25 C :   -0.399928
  26 C :   -0.422875
  27 C :   -0.422874
  28 C :   -0.638759
  29 C :   -0.638759
  30 H :    0.204035
  31 H :    0.210431
  32 H :    0.202486
  33 H :    0.200466
  34 H :    0.202486
  35 H :    0.200466
  36 H :    0.208166
  37 H :    0.212993
  38 H :    0.208166
  39 H :    0.212993
  40 H :    0.209423
  41 H :    0.209371
  42 H :    0.217936
  43 H :    0.209423
  44 H :    0.209371
  45 H :    0.217936
Sum of atomic charges:    0.0000000

LOEWDIN ATOMIC CHARGES
----------------------
   0 C :   -0.238449
   1 C :   -0.238704
   2 C :   -0.238704
   3 C :   -0.245958
   4 C :   -0.245958
   5 C :   -0.361069
   6 C :   -0.361069
   7 H :    0.118990
   8 H :    0.119553
   9 H :    0.116153
  10 H :    0.118903
  11 H :    0.116153
  12 H :    0.118903
  13 H :    0.118722
  14 H :    0.119863
  15 H :    0.118722
  16 H :    0.119863
  17 H :    0.122348
  18 H :    0.123382
  19 H :    0.126313
  20 H :    0.122348
  21 H :    0.123382
  22 H :    0.126313
  23 C :   -0.238449
  24 C :   -0.238704
  25 C :   -0.238704
  26 C :   -0.245958
  27 C :   -0.245958
  28 C :   -0.361069
  29 C :   -0.361069
  30 H :    0.119553
  31 H :    0.118990
  32 H :    0.118903
  33 H :    0.116153
  34 H :    0.118903
  35 H :    0.116153
  36 H :    0.119863
  37 H :    0.118722
  38 H :    0.119863
  39 H :    0.118722
  40 H :    0.123382
  41 H :    0.122348
  42 H :    0.126313
  43 H :    0.123382
  44 H :    0.122348
  45 H :    0.126313

  Mayer bond orders larger than 0.100000
B(  0-C ,  1-C ) :   0.9919 B(  0-C ,  2-C ) :   0.9919 B(  0-C ,  7-H ) :   0.9063
B(  0-C ,  8-H ) :   0.9177 B(  1-C ,  3-C ) :   0.9873 B(  1-C ,  9-H ) :   0.9130
B(  1-C , 10-H ) :   0.9176 B(  2-C ,  4-C ) :   0.9873 B(  2-C , 11-H ) :   0.9130
B(  2-C , 12-H ) :   0.9176 B(  3-C ,  5-C ) :   0.9956 B(  3-C , 13-H ) :   0.9085
B(  3-C , 14-H ) :   0.9197 B(  4-C ,  6-C ) :   0.9956 B(  4-C , 15-H ) :   0.9085
B(  4-C , 16-H ) :   0.9197 B(  5-C , 17-H ) :   0.9264 B(  5-C , 18-H ) :   0.9286
B(  5-C , 19-H ) :   0.9322 B(  6-C , 20-H ) :   0.9264 B(  6-C , 21-H ) :   0.9286
B(  6-C , 22-H ) :   0.9322 B( 23-C , 24-C ) :   0.9919 B( 23-C , 25-C ) :   0.9919
B( 23-C , 30-H ) :   0.9177 B( 23-C , 31-H ) :   0.9063 B( 24-C , 26-C ) :   0.9873
B( 24-C , 32-H ) :   0.9176 B( 24-C , 33-H ) :   0.9130 B( 25-C , 27-C ) :   0.9873
B( 25-C , 34-H ) :   0.9176 B( 25-C , 35-H ) :   0.9130 B( 26-C , 28-C ) :   0.9956
B( 26-C , 36-H ) :   0.9197 B( 26-C , 37-H ) :   0.9085 B( 27-C , 29-C ) :   0.9956
B( 27-C , 38-H ) :   0.9197 B( 27-C , 39-H ) :   0.9085 B( 28-C , 40-H ) :   0.9286
B( 28-C , 41-H ) :   0.9264 B( 28-C , 42-H ) :   0.9322 B( 29-C , 43-H ) :   0.9286
B( 29-C , 44-H ) :   0.9264 B( 29-C , 45-H ) :   0.9322

Dispersion correction           -0.026640370
FINAL SINGLE POINT ENERGY      -551.586839906410

DIPOLE MOMENT
-------------
                                X             Y             Z
Electronic contribution:     -0.00000       0.00000      -0.00000
Nuclear contribution   :     -0.00000      -0.00000       0.00000
                        -----------------------------------------
Total Dipole Moment    :     -0.00000       0.00000      -0.00000
                        -----------------------------------------
Magnitude (a.u.)       :      0.00000
Magnitude (Debye)      :      0.00000

Rotational constants in cm-1:     0.019900     0.011814     0.007828
Rotational constants in MHz :   596.595534   354.180203   234.671014

                             ****ORCA TERMINATED NORMALLY****
TOTAL RUN TIME: 0 days 0 hours 3 minutes 10 seconds 202 msec
