                         Program Version 5.0.3 -  RELEASE  -
|  1> ! PBEh-3c def2/J TightSCF DefGrid3
|  2>
|  3> %maxcore 60000
|  4>
|  5> %pal
|  6> nprocs 4
|  7> end
|  8>
|  9> *xyzfile 1 1 phosphapyrrolp.xyz
| 10>
| 11>                          ****END OF INPUT****

CARTESIAN COORDINATES (ANGSTROEM)
---------------------------------
  P     -0.077061    0.468990   -1.486255
  C     -1.339510    0.176831   -0.319725
  C     -0.851402    0.106628    0.984203
  C      0.522041    0.047812    1.028367
  C      1.205884   -0.030454   -0.261116
  H     -0.252424   -0.554019   -2.423798
  H     -2.396274    0.150151   -0.558695
  H     -1.482769    0.100540    1.862253
  H      1.085286    0.095006    1.953218
  H      2.146582    0.519103   -0.288467
  H      1.439649   -1.080587   -0.489984

 Total Charge           Charge          ....    1
 Multiplicity           Mult            ....    1
 Number of Electrons    NEL             ....   44
 Basis Dimension        Dim             ....   90

ORBITAL ENERGIES
----------------

  NO   OCC          E(Eh)            E(eV)
   0   2.0000     -77.968897     -2121.6415
   1   2.0000     -10.712111      -291.4914
   2   2.0000     -10.711105      -291.4640
   3   2.0000     -10.672950      -290.4257
   4   2.0000     -10.672919      -290.4249
   5   2.0000      -7.046688      -191.7501
   6   2.0000      -5.136964      -139.7839
   7   2.0000      -5.136830      -139.7802
   8   2.0000      -5.135832      -139.7531
   9   2.0000      -1.178439       -32.0669
  10   2.0000      -1.036668       -28.2092
  11   2.0000      -0.996057       -27.1041
  12   2.0000      -0.856694       -23.3118
  13   2.0000      -0.823482       -22.4081
  14   2.0000      -0.792516       -21.5654
  15   2.0000      -0.721214       -19.6252
  16   2.0000      -0.679318       -18.4852
  17   2.0000      -0.665860       -18.1190
  18   2.0000      -0.647449       -17.6180
  19   2.0000      -0.621900       -16.9228
  20   2.0000      -0.573222       -15.5982
  21   2.0000      -0.510684       -13.8964
  22   0.0000      -0.300278        -8.1710
  23   0.0000      -0.167472        -4.5571
  24   0.0000      -0.120408        -3.2765
  25   0.0000      -0.106023        -2.8850
  26   0.0000      -0.036129        -0.9831

MULLIKEN ATOMIC CHARGES
-----------------------
   0 P :    0.441069
   1 C :   -0.386630
   2 C :   -0.136815
   3 C :   -0.099024
   4 C :   -0.744528
   5 H :    0.200560
   6 H :    0.343933
   7 H :    0.325621
   8 H :    0.339025
   9 H :    0.348574
  10 H :    0.368214
Sum of atomic charges:    1.0000000

LOEWDIN ATOMIC CHARGES
----------------------
   0 P :    0.483402
   1 C :   -0.114730
   2 C :   -0.135040
   3 C :    0.038595
   4 C :   -0.365757
   5 H :    0.105897
   6 H :    0.192106
   7 H :    0.184866
   8 H :    0.187939
   9 H :    0.197382
  10 H :    0.225341

  Mayer bond orders larger than 0.100000
B(  0-P ,  1-C ) :   1.2940 B(  0-P ,  3-C ) :   0.1142 B(  0-P ,  4-C ) :   0.9403
B(  0-P ,  5-H ) :   0.8957 B(  1-C ,  2-C ) :   1.3131 B(  1-C ,  6-H ) :   0.8645
B(  2-C ,  3-C ) :   1.4660 B(  2-C ,  7-H ) :   0.8772 B(  3-C ,  4-C ) :   1.0354
B(  3-C ,  8-H ) :   0.8686 B(  4-C ,  9-H ) :   0.8497 B(  4-C , 10-H ) :   0.7981

Dispersion correction           -0.005353722
FINAL SINGLE POINT ENERGY      -496.317379992260

DIPOLE MOMENT
-------------
                                X             Y             Z
Electronic contribution:     -0.89069       1.64369      -2.67444
Nuclear contribution   :      0.98766      -2.10787       2.98149
                        -----------------------------------------
Total Dipole Moment    :      0.09697      -0.46419       0.30705
                        -----------------------------------------
Magnitude (a.u.)       :      0.56494
Magnitude (Debye)      :      1.43595

Rotational constants in cm-1:     0.239085     0.161667     0.100677
Rotational constants in MHz :  7167.592818  4846.641498  3018.219191

                             ****ORCA TERMINATED NORMALLY****
TOTAL RUN TIME: 0 days 0 hours 1 minutes 24 seconds 561 msec
