                         Program Version 5.0.3 -  RELEASE  -
|  1> ! PBEh-3c def2/J TightSCF DefGrid3
|  2>
|  3> %maxcore 60000
|  4>
|  5> %pal
|  6> nprocs 4
|  7> end
|  8>
|  9> *xyzfile 0 1 E7.xyz
| 10>
| 11>                          ****END OF INPUT****

CARTESIAN COORDINATES (ANGSTROEM)
---------------------------------
  C     -1.842696   -0.118216    0.000000
  C     -0.609894    0.395847    0.000000
  C      0.609894   -0.395847    0.000000
  C      1.842696    0.118216    0.000000
  H     -2.010117   -1.190088    0.000000
  H     -2.721880    0.513480    0.000000
  H     -0.483382    1.476035    0.000000
  H      0.483382   -1.476035    0.000000
  H      2.010117    1.190088    0.000000
  H      2.721880   -0.513480    0.000000

 Total Charge           Charge          ....    0
 Multiplicity           Mult            ....    1
 Number of Electrons    NEL             ....   30
 Basis Dimension        Dim             ....   72

ORBITAL ENERGIES
----------------

  NO   OCC          E(Eh)            E(eV)
   0   2.0000     -10.451788      -284.4076
   1   2.0000     -10.451461      -284.3987
   2   2.0000     -10.441698      -284.1331
   3   2.0000     -10.441682      -284.1326
   4   2.0000      -0.901426       -24.5290
   5   2.0000      -0.823280       -22.4026
   6   2.0000      -0.681844       -18.5539
   7   2.0000      -0.623203       -16.9582
   8   2.0000      -0.531335       -14.4584
   9   2.0000      -0.526049       -14.3145
  10   2.0000      -0.452913       -12.3244
  11   2.0000      -0.443242       -12.0612
  12   2.0000      -0.398698       -10.8491
  13   2.0000      -0.375581       -10.2201
  14   2.0000      -0.274520        -7.4701
  15   0.0000      -0.003609        -0.0982
  16   0.0000       0.108111         2.9418
  17   0.0000       0.169895         4.6231
  18   0.0000       0.174552         4.7498
  19   0.0000       0.174747         4.7551

MULLIKEN ATOMIC CHARGES
-----------------------
   0 C :   -0.494669
   1 C :   -0.159954
   2 C :   -0.159954
   3 C :   -0.494670
   4 H :    0.216897
   5 H :    0.221840
   6 H :    0.215886
   7 H :    0.215886
   8 H :    0.216897
   9 H :    0.221840
Sum of atomic charges:   -0.0000000

LOEWDIN ATOMIC CHARGES
----------------------
   0 C :   -0.259114
   1 C :   -0.140338
   2 C :   -0.140338
   3 C :   -0.259114
   4 H :    0.131196
   5 H :    0.135177
   6 H :    0.133079
   7 H :    0.133079
   8 H :    0.131196
   9 H :    0.135177

  Mayer bond orders larger than 0.100000
B(  0-C ,  1-C ) :   1.8423 B(  0-C ,  3-C ) :   0.1175 B(  0-C ,  4-H ) :   0.9294
B(  0-C ,  5-H ) :   0.9283 B(  1-C ,  2-C ) :   1.0972 B(  1-C ,  6-H ) :   0.9200
B(  2-C ,  3-C ) :   1.8423 B(  2-C ,  7-H ) :   0.9200 B(  3-C ,  8-H ) :   0.9294
B(  3-C ,  9-H ) :   0.9283

Dispersion correction           -0.003520011
FINAL SINGLE POINT ENERGY      -155.634189671886

DIPOLE MOMENT
-------------
                                X             Y             Z
Electronic contribution:     -0.00000      -0.00000       0.00000
Nuclear contribution   :      0.00000      -0.00000       0.00000
                        -----------------------------------------
Total Dipole Moment    :     -0.00000      -0.00000       0.00000
                        -----------------------------------------
Magnitude (a.u.)       :      0.00000
Magnitude (Debye)      :      0.00000

Rotational constants in cm-1:     1.419128     0.147802     0.133861
Rotational constants in MHz : 42544.395320  4430.994517  4013.037104

                             ****ORCA TERMINATED NORMALLY****
TOTAL RUN TIME: 0 days 0 hours 0 minutes 56 seconds 48 msec
