                         Program Version 5.0.3 -  RELEASE  -
|  1> ! PBEh-3c def2/J TightSCF DefGrid3
|  2>
|  3> %maxcore 60000
|  4>
|  5> %pal
|  6> nprocs 4
|  7> end
|  8>
|  9> *xyzfile 0 2 RKT15.xyz
| 10>
| 11>                          ****END OF INPUT****

CARTESIAN COORDINATES (ANGSTROEM)
---------------------------------
  H     -1.810536   -0.356317    0.000415
  N     -0.937436    0.190224   -0.000118
  N     -0.005939   -0.606495    0.000007
  H      0.937720   -0.007234   -0.000851
  H      1.816191    0.779824    0.000548

 Total Charge           Charge          ....    0
 Multiplicity           Mult            ....    2
 Number of Electrons    NEL             ....   17
 Basis Dimension        Dim             ....   36

ORBITAL ENERGIES
----------------
                 SPIN UP ORBITALS
  NO   OCC          E(Eh)            E(eV)
   0   1.0000     -14.720780      -400.5728
   1   1.0000     -14.709940      -400.2778
   2   1.0000      -1.167532       -31.7702
   3   1.0000      -0.789861       -21.4932
   4   1.0000      -0.577202       -15.7065
   5   1.0000      -0.542347       -14.7580
   6   1.0000      -0.466181       -12.6854
   7   1.0000      -0.373496       -10.1634
   8   1.0000      -0.284498        -7.7416
   9   0.0000      -0.024345        -0.6625
  10   0.0000       0.142239         3.8705
  11   0.0000       0.249328         6.7846
  12   0.0000       0.381689        10.3863
  13   0.0000       0.683068        18.5872

                 SPIN DOWN ORBITALS
  NO   OCC          E(Eh)            E(eV)
   0   1.0000     -14.711059      -400.3083
   1   1.0000     -14.710107      -400.2824
   2   1.0000      -1.155060       -31.4308
   3   1.0000      -0.771502       -20.9936
   4   1.0000      -0.562180       -15.2977
   5   1.0000      -0.514042       -13.9878
   6   1.0000      -0.461676       -12.5629
   7   1.0000      -0.306603        -8.3431
   8   0.0000      -0.072437        -1.9711
   9   0.0000      -0.019007        -0.5172
  10   0.0000       0.146305         3.9812
  11   0.0000       0.286728         7.8023
  12   0.0000       0.388762        10.5787

MULLIKEN ATOMIC CHARGES AND SPIN POPULATIONS
--------------------------------------------
   0 H :    0.343158    0.036995
   1 N :   -0.291845   -0.016585
   2 N :   -0.223573    0.361756
   3 H :    0.216638   -0.101970
   4 H :   -0.044378    0.719803
Sum of atomic charges         :   -0.0000000

LOEWDIN ATOMIC CHARGES AND SPIN POPULATIONS
-------------------------------------------
   0 H :    0.225878    0.030597
   1 N :   -0.181454    0.001446
   2 N :   -0.151438    0.333128
   3 H :    0.162148   -0.039747
   4 H :   -0.055134    0.674576

  Mayer bond orders larger than 0.100000
B(  0-H ,  1-N ) :   0.8165 B(  1-N ,  2-N ) :   2.0394 B(  2-N ,  3-H ) :   0.6234
B(  2-N ,  4-H ) :   0.1155 B(  3-H ,  4-H ) :   0.2964

Dispersion correction           -0.001036417
FINAL SINGLE POINT ENERGY      -110.888979581100

DIPOLE MOMENT
-------------
                                X             Y             Z
Electronic contribution:     -2.47693      -1.08258      -0.00025
Nuclear contribution   :      1.99621       0.88084       0.00024
                        -----------------------------------------
Total Dipole Moment    :     -0.48072      -0.20174      -0.00001
                        -----------------------------------------
Magnitude (a.u.)       :      0.52133
Magnitude (Debye)      :      1.32513

Rotational constants in cm-1:     3.487433     1.080400     0.824860
Rotational constants in MHz : 104550.601552 32389.580420 24728.684467

                             ****ORCA TERMINATED NORMALLY****
TOTAL RUN TIME: 0 days 0 hours 2 minutes 39 seconds 200 msec
