                         Program Version 5.0.3 -  RELEASE  -
|  1> ! PBEh-3c def2/J TightSCF DefGrid3
|  2>
|  3> %maxcore 60000
|  4>
|  5> %pal
|  6> nprocs 4
|  7> end
|  8>
|  9> *xyzfile 0 2 137.xyz
| 10>
| 11>                          ****END OF INPUT****

CARTESIAN COORDINATES (ANGSTROEM)
---------------------------------
  S      0.000000    0.000000   -0.674872
  H      0.000000    0.000000    0.674872

 Total Charge           Charge          ....    0
 Multiplicity           Mult            ....    2
 Number of Electrons    NEL             ....   17
 Basis Dimension        Dim             ....   20

ORBITAL ENERGIES
----------------
                 SPIN UP ORBITALS
  NO   OCC          E(Eh)            E(eV)
   0   1.0000     -89.609098     -2438.3875
   1   1.0000      -8.248981      -224.4662
   2   1.0000      -6.148788      -167.3170
   3   1.0000      -6.136034      -166.9700
   4   1.0000      -6.128090      -166.7538
   5   1.0000      -0.815133       -22.1809
   6   1.0000      -0.459955       -12.5160
   7   1.0000      -0.369021       -10.0416
   8   1.0000      -0.316111        -8.6018
   9   0.0000       0.074126         2.0171
  10   0.0000       0.372384        10.1331
  11   0.0000       0.577240        15.7075
  12   0.0000       0.658341        17.9144
  13   0.0000       0.690276        18.7834

                 SPIN DOWN ORBITALS
  NO   OCC          E(Eh)            E(eV)
   0   1.0000     -89.602819     -2438.2167
   1   1.0000      -8.242611      -224.2928
   2   1.0000      -6.132258      -166.8672
   3   1.0000      -6.125456      -166.6821
   4   1.0000      -6.124433      -166.6543
   5   1.0000      -0.761685       -20.7265
   6   1.0000      -0.443741       -12.0748
   7   1.0000      -0.299054        -8.1377
   8   0.0000      -0.130081        -3.5397
   9   0.0000       0.087090         2.3698
  10   0.0000       0.392823        10.6893
  11   0.0000       0.593054        16.1378
  12   0.0000       0.708939        19.2912

MULLIKEN ATOMIC CHARGES AND SPIN POPULATIONS
--------------------------------------------
   0 S :   -0.175723    1.032752
   1 H :    0.175723   -0.032752
Sum of atomic charges         :   -0.0000000

LOEWDIN ATOMIC CHARGES AND SPIN POPULATIONS
-------------------------------------------
   0 S :   -0.102330    1.020320
   1 H :    0.102330   -0.020320

  Mayer bond orders larger than 0.100000
B(  0-S ,  1-H ) :   0.9363

Dispersion correction           -0.000186058
FINAL SINGLE POINT ENERGY      -398.286783748703

DIPOLE MOMENT
-------------
                                X             Y             Z
Electronic contribution:     -0.00000       0.00000      -0.78872
Nuclear contribution   :      0.00000       0.00000       1.22889
                        -----------------------------------------
Total Dipole Moment    :     -0.00000       0.00000       0.44017
                        -----------------------------------------
Magnitude (a.u.)       :      0.44017
Magnitude (Debye)      :      1.11883

Rotational constants in cm-1:     0.000000     9.468421     9.468421
Rotational constants in MHz :     0.000000 283856.135262 283856.135262

                             ****ORCA TERMINATED NORMALLY****
TOTAL RUN TIME: 0 days 0 hours 0 minutes 5 seconds 608 msec
