                         Program Version 5.0.3 -  RELEASE  -
|  1> ! PBEh-3c def2/J TightSCF DefGrid3
|  2>
|  3> %maxcore 60000
|  4>
|  5> %pal
|  6> nprocs 4
|  7> end
|  8>
|  9> *xyzfile 0 1 ethylthiourea_TS1.xyz
| 10>
| 11>                          ****END OF INPUT****

CARTESIAN COORDINATES (ANGSTROEM)
---------------------------------
  S      0.987799    1.690862   -0.050664
  N     -1.610206    1.298416   -0.151106
  N     -0.459377   -0.564341    0.462477
  C     -0.391878    0.811463    0.083122
  H     -2.399447    0.686037   -0.074692
  H     -1.717327    2.249683   -0.447377
  H     -0.093553   -0.624312    1.404850
  C      0.358530   -1.435281   -0.386524
  C      0.175764   -2.878231    0.017898
  H      0.026387   -1.291253   -1.412400
  H      1.410010   -1.145710   -0.341478
  H     -0.860567   -3.183908   -0.098621
  H      0.793994   -3.526477   -0.595740
  H      0.469671   -3.033947    1.055286

 Total Charge           Charge          ....    0
 Multiplicity           Mult            ....    1
 Number of Electrons    NEL             ....   56
 Basis Dimension        Dim             ....  109

ORBITAL ENERGIES
----------------

  NO   OCC          E(Eh)            E(eV)
   0   2.0000     -89.523792     -2436.0662
   1   2.0000     -14.676545      -399.3691
   2   2.0000     -14.639450      -398.3597
   3   2.0000     -10.560255      -287.3592
   4   2.0000     -10.464377      -284.7502
   5   2.0000     -10.428868      -283.7839
   6   2.0000      -8.164954      -222.1797
   7   2.0000      -6.056009      -164.7924
   8   2.0000      -6.052311      -164.6918
   9   2.0000      -6.047919      -164.5723
  10   2.0000      -1.083272       -29.4773
  11   2.0000      -0.996351       -27.1121
  12   2.0000      -0.846119       -23.0241
  13   2.0000      -0.803620       -21.8676
  14   2.0000      -0.703138       -19.1334
  15   2.0000      -0.669847       -18.2275
  16   2.0000      -0.621239       -16.9048
  17   2.0000      -0.557536       -15.1713
  18   2.0000      -0.544344       -14.8123
  19   2.0000      -0.504304       -13.7228
  20   2.0000      -0.449301       -12.2261
  21   2.0000      -0.435026       -11.8377
  22   2.0000      -0.426240       -11.5986
  23   2.0000      -0.412542       -11.2258
  24   2.0000      -0.404640       -11.0108
  25   2.0000      -0.310375        -8.4457
  26   2.0000      -0.270316        -7.3557
  27   2.0000      -0.249165        -6.7801
  28   0.0000       0.005122         0.1394
  29   0.0000       0.124246         3.3809
  30   0.0000       0.146122         3.9762
  31   0.0000       0.158196         4.3047
  32   0.0000       0.181152         4.9294

MULLIKEN ATOMIC CHARGES
-----------------------
   0 S :   -0.229075
   1 N :   -0.701001
   2 N :   -0.614858
   3 C :    0.258085
   4 H :    0.379053
   5 H :    0.382283
   6 H :    0.347609
   7 C :   -0.279634
   8 C :   -0.651118
   9 H :    0.223928
  10 H :    0.227679
  11 H :    0.224210
  12 H :    0.223734
  13 H :    0.209106
Sum of atomic charges:   -0.0000000

LOEWDIN ATOMIC CHARGES
----------------------
   0 S :   -0.167320
   1 N :   -0.315327
   2 N :   -0.336077
   3 C :   -0.056280
   4 H :    0.261924
   5 H :    0.262475
   6 H :    0.250549
   7 C :   -0.159838
   8 C :   -0.368089
   9 H :    0.123752
  10 H :    0.116122
  11 H :    0.131082
  12 H :    0.132636
  13 H :    0.124392

  Mayer bond orders larger than 0.100000
B(  0-S ,  1-N ) :   0.1211 B(  0-S ,  3-C ) :   1.6711 B(  1-N ,  3-C ) :   1.2592
B(  1-N ,  4-H ) :   0.8119 B(  1-N ,  5-H ) :   0.8166 B(  2-N ,  3-C ) :   1.0312
B(  2-N ,  6-H ) :   0.8312 B(  2-N ,  7-C ) :   0.9542 B(  7-C ,  8-C ) :   0.9927
B(  7-C ,  9-H ) :   0.9137 B(  7-C , 10-H ) :   0.8937 B(  8-C , 11-H ) :   0.9235
B(  8-C , 12-H ) :   0.9253 B(  8-C , 13-H ) :   0.9291

Dispersion correction           -0.006663609
FINAL SINGLE POINT ENERGY      -625.880966932348

DIPOLE MOMENT
-------------
                                X             Y             Z
Electronic contribution:      1.16988       9.61358       0.41611
Nuclear contribution   :     -2.40807     -10.20157      -0.38874
                        -----------------------------------------
Total Dipole Moment    :     -1.23819      -0.58799       0.02737
                        -----------------------------------------
Magnitude (a.u.)       :      1.37099
Magnitude (Debye)      :      3.48477

Rotational constants in cm-1:     0.172575     0.055742     0.044574
Rotational constants in MHz :  5173.663804  1671.099622  1336.300661

                             ****ORCA TERMINATED NORMALLY****
TOTAL RUN TIME: 0 days 0 hours 1 minutes 27 seconds 752 msec
