                         Program Version 5.0.3 -  RELEASE  -
|  1> ! PBEh-3c def2/J TightSCF DefGrid3
|  2>
|  3> %maxcore 60000
|  4>
|  5> %pal
|  6> nprocs 4
|  7> end
|  8>
|  9> *xyzfile 0 1 Cyclohexene.xyz
| 10>
| 11>                          ****END OF INPUT****

CARTESIAN COORDINATES (ANGSTROEM)
---------------------------------
  C     -0.318563   -0.698255   -1.091238
  C      0.318563    0.698255   -1.091238
  C     -0.110725    1.498944    0.149011
  C      0.110725   -1.498944    0.149011
  C     -0.056999    0.666078    1.407170
  C      0.056999   -0.666078    1.407170
  H     -1.412587   -0.593439   -1.091909
  H      1.412587    0.593439   -1.091909
  H     -0.053601   -1.244612   -2.004810
  H      0.053601    1.244612   -2.004810
  H      0.526617    2.386747    0.264921
  H     -0.526617   -2.386747    0.264921
  H     -1.132133    1.888891    0.011100
  H      1.132133   -1.888891    0.011100
  H     -0.112069    1.199545    2.355755
  H      0.112069   -1.199545    2.355755

 Total Charge           Charge          ....    0
 Multiplicity           Mult            ....    1
 Number of Electrons    NEL             ....   46
 Basis Dimension        Dim             ....  110

ORBITAL ENERGIES
----------------

  NO   OCC          E(Eh)            E(eV)
   0   2.0000     -10.435401      -283.9617
   1   2.0000     -10.435314      -283.9593
   2   2.0000     -10.435184      -283.9558
   3   2.0000     -10.434376      -283.9338
   4   2.0000     -10.431982      -283.8687
   5   2.0000     -10.431762      -283.8627
   6   2.0000      -0.921061       -25.0633
   7   2.0000      -0.822970       -22.3941
   8   2.0000      -0.822705       -22.3870
   9   2.0000      -0.691462       -18.8156
  10   2.0000      -0.668201       -18.1827
  11   2.0000      -0.571355       -15.5474
  12   2.0000      -0.551691       -15.0123
  13   2.0000      -0.502473       -13.6730
  14   2.0000      -0.478608       -13.0236
  15   2.0000      -0.461135       -12.5481
  16   2.0000      -0.439783       -11.9671
  17   2.0000      -0.429781       -11.6949
  18   2.0000      -0.428143       -11.6504
  19   2.0000      -0.372095       -10.1252
  20   2.0000      -0.362588        -9.8665
  21   2.0000      -0.349784        -9.5181
  22   2.0000      -0.279569        -7.6075
  23   0.0000       0.056726         1.5436
  24   0.0000       0.141475         3.8497
  25   0.0000       0.179160         4.8752
  26   0.0000       0.184947         5.0327
  27   0.0000       0.194061         5.2807

MULLIKEN ATOMIC CHARGES
-----------------------
   0 C :   -0.429490
   1 C :   -0.429490
   2 C :   -0.457907
   3 C :   -0.457907
   4 C :   -0.195923
   5 C :   -0.195923
   6 H :    0.212911
   7 H :    0.212911
   8 H :    0.218485
   9 H :    0.218485
  10 H :    0.222635
  11 H :    0.222635
  12 H :    0.219517
  13 H :    0.219517
  14 H :    0.209771
  15 H :    0.209771
Sum of atomic charges:    0.0000000

LOEWDIN ATOMIC CHARGES
----------------------
   0 C :   -0.237085
   1 C :   -0.237085
   2 C :   -0.242149
   3 C :   -0.242149
   4 C :   -0.156787
   5 C :   -0.156787
   6 H :    0.123378
   7 H :    0.123378
   8 H :    0.123935
   9 H :    0.123935
  10 H :    0.130353
  11 H :    0.130353
  12 H :    0.129586
  13 H :    0.129586
  14 H :    0.128769
  15 H :    0.128769

  Mayer bond orders larger than 0.100000
B(  0-C ,  1-C ) :   0.9787 B(  0-C ,  3-C ) :   0.9849 B(  0-C ,  6-H ) :   0.9190
B(  0-C ,  8-H ) :   0.9260 B(  1-C ,  2-C ) :   0.9849 B(  1-C ,  7-H ) :   0.9190
B(  1-C ,  9-H ) :   0.9260 B(  2-C ,  4-C ) :   0.9883 B(  2-C , 10-H ) :   0.9176
B(  2-C , 12-H ) :   0.9082 B(  3-C ,  5-C ) :   0.9883 B(  3-C , 11-H ) :   0.9176
B(  3-C , 13-H ) :   0.9082 B(  4-C ,  5-C ) :   1.9084 B(  4-C , 14-H ) :   0.9235
B(  5-C , 15-H ) :   0.9235

Dispersion correction           -0.007757993
FINAL SINGLE POINT ENERGY      -234.129716678998

DIPOLE MOMENT
-------------
                                X             Y             Z
Electronic contribution:     -0.00000       0.00000       1.93079
Nuclear contribution   :      0.00000       0.00000      -2.04092
                        -----------------------------------------
Total Dipole Moment    :     -0.00000       0.00000      -0.11014
                        -----------------------------------------
Magnitude (a.u.)       :      0.11014
Magnitude (Debye)      :      0.27994

Rotational constants in cm-1:     0.157146     0.150836     0.084702
Rotational constants in MHz :  4711.113012  4521.950749  2539.316797

                             ****ORCA TERMINATED NORMALLY****
TOTAL RUN TIME: 0 days 0 hours 1 minutes 31 seconds 836 msec
