                         Program Version 5.0.3 -  RELEASE  -
|  1> ! PBEh-3c def2/J TightSCF DefGrid3
|  2>
|  3> %maxcore 60000
|  4>
|  5> %pal
|  6> nprocs 4
|  7> end
|  8>
|  9> *xyzfile 1 1 cysp.xyz
| 10>
| 11>                          ****END OF INPUT****

CARTESIAN COORDINATES (ANGSTROEM)
---------------------------------
  C      0.278014    0.320012    0.458330
  H      0.762140    0.533377    1.415895
  C      1.117563   -0.703723   -0.287081
  O      1.767037   -0.439084   -1.260241
  H      1.220940    1.853447   -0.617460
  O      1.036979   -1.878934    0.289674
  N      0.282945    1.575966   -0.320452
  H     -0.291601    1.496501   -1.166682
  H     -0.091177    2.352902    0.227118
  C     -1.154643   -0.131068    0.715004
  H     -1.162658   -1.006747    1.360047
  H     -1.692580    0.654387    1.247110
  S     -2.089208   -0.444113   -0.810069
  H     -1.576661   -1.646987   -1.095029
  H      1.592910   -2.535938   -0.156163

 Total Charge           Charge          ....    1
 Multiplicity           Mult            ....    1
 Number of Electrons    NEL             ....   64
 Basis Dimension        Dim             ....  124

ORBITAL ENERGIES
----------------

  NO   OCC          E(Eh)            E(eV)
   0   2.0000     -89.750254     -2442.2286
   1   2.0000     -19.724245      -536.7240
   2   2.0000     -19.671748      -535.2955
   3   2.0000     -14.964060      -407.1928
   4   2.0000     -10.772224      -293.1271
   5   2.0000     -10.717618      -291.6412
   6   2.0000     -10.663449      -290.1672
   7   2.0000      -8.391193      -228.3360
   8   2.0000      -6.282257      -170.9489
   9   2.0000      -6.278713      -170.8525
  10   2.0000      -6.273464      -170.7096
  11   2.0000      -1.414823       -38.4993
  12   2.0000      -1.328161       -36.1411
  13   2.0000      -1.307895       -35.5896
  14   2.0000      -1.097864       -29.8744
  15   2.0000      -1.007941       -27.4275
  16   2.0000      -0.918853       -25.0033
  17   2.0000      -0.882760       -24.0211
  18   2.0000      -0.863086       -23.4858
  19   2.0000      -0.849334       -23.1115
  20   2.0000      -0.767481       -20.8842
  21   2.0000      -0.739445       -20.1213
  22   2.0000      -0.732826       -19.9412
  23   2.0000      -0.710750       -19.3405
  24   2.0000      -0.674582       -18.3563
  25   2.0000      -0.659536       -17.9469
  26   2.0000      -0.635135       -17.2829
  27   2.0000      -0.612383       -16.6638
  28   2.0000      -0.559650       -15.2289
  29   2.0000      -0.545307       -14.8386
  30   2.0000      -0.524262       -14.2659
  31   2.0000      -0.459349       -12.4995
  32   0.0000      -0.144003        -3.9185
  33   0.0000      -0.104134        -2.8336
  34   0.0000      -0.092259        -2.5105
  35   0.0000      -0.062645        -1.7047
  36   0.0000      -0.050346        -1.3700

MULLIKEN ATOMIC CHARGES
-----------------------
   0 C :   -0.255202
   1 H :    0.347341
   2 C :    0.562244
   3 O :   -0.352790
   4 H :    0.468985
   5 O :   -0.554174
   6 N :   -0.779856
   7 H :    0.459282
   8 H :    0.453605
   9 C :   -0.594672
  10 H :    0.344450
  11 H :    0.303294
  12 S :   -0.121222
  13 H :    0.229564
  14 H :    0.489150
Sum of atomic charges:    1.0000000

LOEWDIN ATOMIC CHARGES
----------------------
   0 C :   -0.125182
   1 H :    0.183404
   2 C :    0.109152
   3 O :   -0.191702
   4 H :    0.316747
   5 O :   -0.242897
   6 N :   -0.193360
   7 H :    0.306780
   8 H :    0.308302
   9 C :   -0.349877
  10 H :    0.182773
  11 H :    0.161102
  12 S :    0.038644
  13 H :    0.129408
  14 H :    0.366708

  Mayer bond orders larger than 0.100000
B(  0-C ,  1-H ) :   0.8416 B(  0-C ,  2-C ) :   0.8933 B(  0-C ,  6-N ) :   0.8447
B(  0-C ,  9-C ) :   0.9175 B(  2-C ,  3-O ) :   2.0740 B(  2-C ,  5-O ) :   1.2088
B(  4-H ,  6-N ) :   0.7516 B(  5-O , 14-H ) :   0.7222 B(  6-N ,  7-H ) :   0.7294
B(  6-N ,  8-H ) :   0.7751 B(  9-C , 10-H ) :   0.8492 B(  9-C , 11-H ) :   0.8694
B(  9-C , 12-S ) :   1.0582 B( 12-S , 13-H ) :   0.8995

Dispersion correction           -0.008081182
FINAL SINGLE POINT ENERGY      -721.158873658408

DIPOLE MOMENT
-------------
                                X             Y             Z
Electronic contribution:      0.67506      -1.84736      -2.30386
Nuclear contribution   :     -0.04342       3.65631       3.24493
                        -----------------------------------------
Total Dipole Moment    :      0.63164       1.80895       0.94108
                        -----------------------------------------
Magnitude (a.u.)       :      2.13469
Magnitude (Debye)      :      5.42595

Rotational constants in cm-1:     0.095625     0.054425     0.045495
Rotational constants in MHz :  2866.755365  1631.613543  1363.898016

                             ****ORCA TERMINATED NORMALLY****
TOTAL RUN TIME: 0 days 0 hours 1 minutes 43 seconds 146 msec
