                         Program Version 5.0.3 -  RELEASE  -
|  1> ! PBEh-3c def2/J TightSCF DefGrid3
|  2>
|  3> %maxcore 60000
|  4>
|  5> %pal
|  6> nprocs 4
|  7> end
|  8>
|  9> *xyzfile 0 1 C4H9CHO.xyz
| 10>
| 11>                          ****END OF INPUT****

CARTESIAN COORDINATES (ANGSTROEM)
---------------------------------
  C     -1.758234   -0.904607   -1.405470
  H     -1.345310   -1.919717   -1.505098
  H     -1.496230   -0.350537   -2.319294
  H     -2.853343   -0.991517   -1.369725
  C     -1.210289   -0.205310   -0.159194
  H     -1.670582    0.793391   -0.064746
  H     -1.515403   -0.765506    0.741420
  C      0.315378   -0.061453   -0.176201
  H      0.628647    0.503733   -1.068462
  H      0.784337   -1.053578   -0.276293
  C      0.866109    0.627288    1.069305
  H      0.598334    0.078060    1.992545
  H      0.416355    1.629279    1.213099
  C      2.362456    0.819080    1.094248
  H      2.752165    1.315212    2.023350
  O      3.125610    0.486182    0.210515

 Total Charge           Charge          ....    0
 Multiplicity           Mult            ....    1
 Number of Electrons    NEL             ....   48
 Basis Dimension        Dim             ....  110

ORBITAL ENERGIES
----------------

  NO   OCC          E(Eh)            E(eV)
   0   2.0000     -19.496954      -530.5391
   1   2.0000     -10.538017      -286.7540
   2   2.0000     -10.455916      -284.5199
   3   2.0000     -10.441439      -284.1260
   4   2.0000     -10.441183      -284.1190
   5   2.0000     -10.429248      -283.7943
   6   2.0000      -1.153978       -31.4013
   7   2.0000      -0.899532       -24.4775
   8   2.0000      -0.837388       -22.7865
   9   2.0000      -0.746728       -20.3195
  10   2.0000      -0.665079       -18.0977
  11   2.0000      -0.626725       -17.0541
  12   2.0000      -0.544233       -14.8093
  13   2.0000      -0.542584       -14.7645
  14   2.0000      -0.504320       -13.7232
  15   2.0000      -0.492424       -13.3995
  16   2.0000      -0.480382       -13.0718
  17   2.0000      -0.436599       -11.8805
  18   2.0000      -0.432251       -11.7622
  19   2.0000      -0.401363       -10.9216
  20   2.0000      -0.396423       -10.7872
  21   2.0000      -0.387018       -10.5313
  22   2.0000      -0.376794       -10.2531
  23   2.0000      -0.310386        -8.4460
  24   0.0000       0.013422         0.3652
  25   0.0000       0.128720         3.5027
  26   0.0000       0.153491         4.1767
  27   0.0000       0.173583         4.7234
  28   0.0000       0.176083         4.7915

MULLIKEN ATOMIC CHARGES
-----------------------
   0 C :   -0.635580
   1 H :    0.211816
   2 H :    0.212028
   3 H :    0.219095
   4 C :   -0.408424
   5 H :    0.203578
   6 H :    0.203387
   7 C :   -0.398418
   8 H :    0.225179
   9 H :    0.223584
  10 C :   -0.539015
  11 H :    0.237606
  12 H :    0.237982
  13 C :    0.170311
  14 H :    0.160732
  15 O :   -0.323861
Sum of atomic charges:   -0.0000000

LOEWDIN ATOMIC CHARGES
----------------------
   0 C :   -0.360881
   1 H :    0.125319
   2 H :    0.125420
   3 H :    0.127353
   4 C :   -0.245260
   5 H :    0.119042
   6 H :    0.118947
   7 C :   -0.238207
   8 H :    0.132427
   9 H :    0.131748
  10 C :   -0.291824
  11 H :    0.144780
  12 H :    0.145373
  13 C :    0.069498
  14 H :    0.084476
  15 O :   -0.188211

  Mayer bond orders larger than 0.100000
B(  0-C ,  1-H ) :   0.9282 B(  0-C ,  2-H ) :   0.9281 B(  0-C ,  3-H ) :   0.9310
B(  0-C ,  4-C ) :   0.9970 B(  4-C ,  5-H ) :   0.9199 B(  4-C ,  6-H ) :   0.9199
B(  4-C ,  7-C ) :   0.9789 B(  7-C ,  8-H ) :   0.9145 B(  7-C ,  9-H ) :   0.9153
B(  7-C , 10-C ) :   0.9668 B( 10-C , 11-H ) :   0.8983 B( 10-C , 12-H ) :   0.8976
B( 10-C , 13-C ) :   0.9188 B( 13-C , 14-H ) :   0.8750 B( 13-C , 15-O ) :   2.1246

Dispersion correction           -0.006661913
FINAL SINGLE POINT ENERGY      -271.179538384323

DIPOLE MOMENT
-------------
                                X             Y             Z
Electronic contribution:      8.37287       2.02489       2.05391
Nuclear contribution   :     -9.22832      -1.83212      -1.44259
                        -----------------------------------------
Total Dipole Moment    :     -0.85545       0.19277       0.61132
                        -----------------------------------------
Magnitude (a.u.)       :      1.06896
Magnitude (Debye)      :      2.71708

Rotational constants in cm-1:     0.347359     0.048052     0.043575
Rotational constants in MHz : 10413.552880  1440.555633  1306.348427

                             ****ORCA TERMINATED NORMALLY****
TOTAL RUN TIME: 0 days 0 hours 1 minutes 45 seconds 865 msec
