                         Program Version 5.0.3 -  RELEASE  -
|  1> ! PBEh-3c def2/J TightSCF DefGrid3
|  2>
|  3> %maxcore 60000
|  4>
|  5> %pal
|  6> nprocs 4
|  7> end
|  8>
|  9> *xyzfile 0 1 61.xyz
| 10>
| 11>                          ****END OF INPUT****

CARTESIAN COORDINATES (ANGSTROEM)
---------------------------------
  C      0.000000    0.000000    0.000000
  F      0.766564   -0.766564    0.766564
  F     -0.766564    0.766564    0.766564
  F     -0.766564   -0.766564   -0.766564
  F      0.766564    0.766564   -0.766564

 Total Charge           Charge          ....    0
 Multiplicity           Mult            ....    1
 Number of Electrons    NEL             ....   42
 Basis Dimension        Dim             ....   75

ORBITAL ENERGIES
----------------

  NO   OCC          E(Eh)            E(eV)
   0   2.0000     -25.165249      -684.7812
   1   2.0000     -25.165110      -684.7775
   2   2.0000     -25.165110      -684.7775
   3   2.0000     -25.165110      -684.7775
   4   2.0000     -10.797613      -293.8180
   5   2.0000      -1.508513       -41.0487
   6   2.0000      -1.389784       -37.8179
   7   2.0000      -1.389784       -37.8179
   8   2.0000      -1.389784       -37.8179
   9   2.0000      -0.821150       -22.3446
  10   2.0000      -0.720636       -19.6095
  11   2.0000      -0.720636       -19.6095
  12   2.0000      -0.720636       -19.6095
  13   2.0000      -0.587262       -15.9802
  14   2.0000      -0.587262       -15.9802
  15   2.0000      -0.554060       -15.0767
  16   2.0000      -0.554060       -15.0767
  17   2.0000      -0.554060       -15.0767
  18   2.0000      -0.514024       -13.9873
  19   2.0000      -0.514024       -13.9873
  20   2.0000      -0.514024       -13.9873
  21   0.0000       0.222796         6.0626
  22   0.0000       0.227034         6.1779
  23   0.0000       0.227034         6.1779
  24   0.0000       0.227034         6.1779
  25   0.0000       0.438799        11.9403

MULLIKEN ATOMIC CHARGES
-----------------------
   0 C :    1.092733
   1 F :   -0.273183
   2 F :   -0.273183
   3 F :   -0.273183
   4 F :   -0.273183
Sum of atomic charges:   -0.0000000

LOEWDIN ATOMIC CHARGES
----------------------
   0 C :    0.366863
   1 F :   -0.091716
   2 F :   -0.091716
   3 F :   -0.091716
   4 F :   -0.091716

  Mayer bond orders larger than 0.100000
B(  0-C ,  1-F ) :   1.0568 B(  0-C ,  2-F ) :   1.0568 B(  0-C ,  3-F ) :   1.0568
B(  0-C ,  4-F ) :   1.0568

Dispersion correction           -0.000976985
FINAL SINGLE POINT ENERGY      -436.655625913782

DIPOLE MOMENT
-------------
                                X             Y             Z
Electronic contribution:     -0.00000      -0.00000       0.00000
Nuclear contribution   :      0.00000       0.00000       0.00000
                        -----------------------------------------
Total Dipole Moment    :     -0.00000      -0.00000       0.00000
                        -----------------------------------------
Magnitude (a.u.)       :      0.00000
Magnitude (Debye)      :      0.00000

Rotational constants in cm-1:     0.188757     0.188757     0.188757
Rotational constants in MHz :  5658.781098  5658.781098  5658.781098

                             ****ORCA TERMINATED NORMALLY****
TOTAL RUN TIME: 0 days 0 hours 0 minutes 23 seconds 14 msec
