                         Program Version 5.0.3 -  RELEASE  -
|  1> ! PBEh-3c def2/J TightSCF DefGrid3
|  2>
|  3> %maxcore 60000
|  4>
|  5> %pal
|  6> nprocs 4
|  7> end
|  8>
|  9> *xyzfile -1 1 OHmH2O.xyz
| 10>
| 11>                          ****END OF INPUT****

CARTESIAN COORDINATES (ANGSTROEM)
---------------------------------
  H     -0.091388   -0.244813    0.013083
  H      1.527273    0.338312    0.652554
  O     -1.220838   -0.235618    0.061315
  O      1.246213   -0.220611   -0.077138
  H     -1.461260    0.362730   -0.649814

 Total Charge           Charge          ....   -1
 Multiplicity           Mult            ....    1
 Number of Electrons    NEL             ....   20
 Basis Dimension        Dim             ....   36

ORBITAL ENERGIES
----------------

  NO   OCC          E(Eh)            E(eV)
   0   2.0000     -19.166312      -521.5419
   1   2.0000     -19.118667      -520.2454
   2   2.0000      -0.780705       -21.2441
   3   2.0000      -0.707611       -19.2551
   4   2.0000      -0.266636        -7.2555
   5   2.0000      -0.179593        -4.8870
   6   2.0000      -0.131385        -3.5752
   7   2.0000      -0.060668        -1.6508
   8   2.0000      -0.012377        -0.3368
   9   2.0000      -0.007439        -0.2024
  10   0.0000       0.385078        10.4785
  11   0.0000       0.425997        11.5920
  12   0.0000       0.642391        17.4804
  13   0.0000       1.105027        30.0693
  14   0.0000       1.184529        32.2327

MULLIKEN ATOMIC CHARGES
-----------------------
   0 H :    0.409908
   1 H :    0.278727
   2 O :   -0.976204
   3 O :   -1.021815
   4 H :    0.309385
Sum of atomic charges:   -1.0000000

LOEWDIN ATOMIC CHARGES
----------------------
   0 H :    0.305383
   1 H :    0.202622
   2 O :   -0.815304
   3 O :   -0.921765
   4 H :    0.229063

  Mayer bond orders larger than 0.100000
B(  0-H ,  2-O ) :   0.4700 B(  0-H ,  3-O ) :   0.3867 B(  1-H ,  3-O ) :   0.8871
B(  2-O ,  4-H ) :   0.8741

Dispersion correction           -0.000695657
FINAL SINGLE POINT ENERGY      -151.893931881507

DIPOLE MOMENT
-------------
                                X             Y             Z
Electronic contribution:     -0.26844      -0.30580      -0.03386
Nuclear contribution   :     -0.05432       0.97669       0.03387
                        -----------------------------------------
Total Dipole Moment    :     -0.32276       0.67089       0.00001
                        -----------------------------------------
Magnitude (a.u.)       :      0.74450
Magnitude (Debye)      :      1.89236

Rotational constants in cm-1:    10.307851     0.313044     0.310957
Rotational constants in MHz : 309021.604308  9384.817386  9322.265111

                             ****ORCA TERMINATED NORMALLY****
TOTAL RUN TIME: 0 days 0 hours 0 minutes 48 seconds 953 msec
