                         Program Version 5.0.3 -  RELEASE  -
|  1> ! PBEh-3c def2/J TightSCF DefGrid3
|  2>
|  3> %maxcore 60000
|  4>
|  5> %pal
|  6> nprocs 4
|  7> end
|  8>
|  9> *xyzfile 0 1 r12.xyz
| 10>
| 11>                          ****END OF INPUT****

CARTESIAN COORDINATES (ANGSTROEM)
---------------------------------
  C      0.161704    0.691135   -0.781417
  C      0.161704    0.691135    0.781417
  C     -0.147931   -0.626196    1.482748
  C     -1.573595   -1.143986    1.288586
  C     -1.790684   -1.929242    0.000000
  C     -1.573595   -1.143986   -1.288586
  C     -0.147931   -0.626196   -1.482748
  C      1.544395    1.236561   -1.180431
  C      1.968334    2.103302    0.000000
  C      1.544395    1.236561    1.180431
  H     -0.591444    1.411317   -1.113934
  H     -0.591444    1.411317    1.113934
  H      0.027850   -0.467807    2.550229
  H      0.568784   -1.392366    1.171373
  H     -1.832701   -1.793112    2.127496
  H     -2.269056   -0.299808    1.327518
  H     -2.805382   -2.333631    0.000000
  H     -1.115732   -2.790628    0.000000
  H     -1.832701   -1.793112   -2.127496
  H     -2.269056   -0.299808   -1.327518
  H      0.568784   -1.392366   -1.171373
  H      0.027850   -0.467807   -2.550229
  H      2.244782    0.402013   -1.280448
  H      1.522137    1.762794   -2.134514
  H      1.404320    3.038897    0.000000
  H      3.029296    2.350213    0.000000
  H      1.522137    1.762794    2.134514
  H      2.244782    0.402013    1.280448

 Total Charge           Charge          ....    0
 Multiplicity           Mult            ....    1
 Number of Electrons    NEL             ....   78
 Basis Dimension        Dim             ....  186

ORBITAL ENERGIES
----------------

  NO   OCC          E(Eh)            E(eV)
   0   2.0000     -10.429614      -283.8042
   1   2.0000     -10.429457      -283.7999
   2   2.0000     -10.423914      -283.6491
   3   2.0000     -10.423812      -283.6463
   4   2.0000     -10.423633      -283.6415
   5   2.0000     -10.423420      -283.6357
   6   2.0000     -10.423335      -283.6334
   7   2.0000     -10.423192      -283.6295
   8   2.0000     -10.422015      -283.5974
   9   2.0000     -10.421942      -283.5955
  10   2.0000      -0.940947       -25.6045
  11   2.0000      -0.888952       -24.1896
  12   2.0000      -0.851445       -23.1690
  13   2.0000      -0.809282       -22.0217
  14   2.0000      -0.776645       -21.1336
  15   2.0000      -0.714228       -19.4351
  16   2.0000      -0.684717       -18.6321
  17   2.0000      -0.644502       -17.5378
  18   2.0000      -0.623645       -16.9702
  19   2.0000      -0.587930       -15.9984
  20   2.0000      -0.551267       -15.0007
  21   2.0000      -0.532959       -14.5026
  22   2.0000      -0.510299       -13.8859
  23   2.0000      -0.487996       -13.2790
  24   2.0000      -0.479211       -13.0400
  25   2.0000      -0.460115       -12.5204
  26   2.0000      -0.456843       -12.4313
  27   2.0000      -0.450067       -12.2469
  28   2.0000      -0.422127       -11.4866
  29   2.0000      -0.402601       -10.9553
  30   2.0000      -0.397239       -10.8094
  31   2.0000      -0.382836       -10.4175
  32   2.0000      -0.371163       -10.0999
  33   2.0000      -0.365781        -9.9534
  34   2.0000      -0.364220        -9.9109
  35   2.0000      -0.353010        -9.6059
  36   2.0000      -0.343377        -9.3438
  37   2.0000      -0.339191        -9.2299
  38   2.0000      -0.332013        -9.0345
  39   0.0000       0.124597         3.3905
  40   0.0000       0.133024         3.6198
  41   0.0000       0.143290         3.8991
  42   0.0000       0.166387         4.5276
  43   0.0000       0.181561         4.9405

MULLIKEN ATOMIC CHARGES
-----------------------
   0 C :   -0.209818
   1 C :   -0.209818
   2 C :   -0.424588
   3 C :   -0.412827
   4 C :   -0.418875
   5 C :   -0.412828
   6 C :   -0.424587
   7 C :   -0.419776
   8 C :   -0.430113
   9 C :   -0.419776
  10 H :    0.210392
  11 H :    0.210392
  12 H :    0.219618
  13 H :    0.201334
  14 H :    0.215587
  15 H :    0.201759
  16 H :    0.213880
  17 H :    0.200655
  18 H :    0.215587
  19 H :    0.201759
  20 H :    0.201334
  21 H :    0.219618
  22 H :    0.204148
  23 H :    0.219080
  24 H :    0.205928
  25 H :    0.218706
  26 H :    0.219080
  27 H :    0.204148
Sum of atomic charges:   -0.0000000

LOEWDIN ATOMIC CHARGES
----------------------
   0 C :   -0.145420
   1 C :   -0.145420
   2 C :   -0.234781
   3 C :   -0.238373
   4 C :   -0.239616
   5 C :   -0.238373
   6 C :   -0.234781
   7 C :   -0.231962
   8 C :   -0.240091
   9 C :   -0.231962
  10 H :    0.120095
  11 H :    0.120095
  12 H :    0.126080
  13 H :    0.117661
  14 H :    0.123646
  15 H :    0.118413
  16 H :    0.122364
  17 H :    0.116981
  18 H :    0.123646
  19 H :    0.118413
  20 H :    0.117661
  21 H :    0.126080
  22 H :    0.119986
  23 H :    0.123001
  24 H :    0.120505
  25 H :    0.123161
  26 H :    0.123001
  27 H :    0.119986

  Mayer bond orders larger than 0.100000
B(  0-C ,  1-C ) :   0.9496 B(  0-C ,  6-C ) :   0.9872 B(  0-C ,  7-C ) :   0.9758
B(  0-C , 10-H ) :   0.9175 B(  1-C ,  2-C ) :   0.9872 B(  1-C ,  9-C ) :   0.9758
B(  1-C , 11-H ) :   0.9175 B(  2-C ,  3-C ) :   0.9732 B(  2-C , 12-H ) :   0.9241
B(  2-C , 13-H ) :   0.9169 B(  3-C ,  4-C ) :   0.9941 B(  3-C , 14-H ) :   0.9274
B(  3-C , 15-H ) :   0.9198 B(  4-C ,  5-C ) :   0.9941 B(  4-C , 16-H ) :   0.9243
B(  4-C , 17-H ) :   0.9181 B(  5-C ,  6-C ) :   0.9732 B(  5-C , 18-H ) :   0.9274
B(  5-C , 19-H ) :   0.9198 B(  6-C , 20-H ) :   0.9169 B(  6-C , 21-H ) :   0.9241
B(  7-C ,  8-C ) :   0.9816 B(  7-C , 22-H ) :   0.9208 B(  7-C , 23-H ) :   0.9284
B(  8-C ,  9-C ) :   0.9816 B(  8-C , 24-H ) :   0.9201 B(  8-C , 25-H ) :   0.9299
B(  9-C , 26-H ) :   0.9284 B(  9-C , 27-H ) :   0.9208

Dispersion correction           -0.017212523
FINAL SINGLE POINT ENERGY      -391.066811628642

DIPOLE MOMENT
-------------
                                X             Y             Z
Electronic contribution:      0.30373       1.12579       0.00000
Nuclear contribution   :     -0.33501      -1.11617       0.00000
                        -----------------------------------------
Total Dipole Moment    :     -0.03128       0.00962       0.00000
                        -----------------------------------------
Magnitude (a.u.)       :      0.03273
Magnitude (Debye)      :      0.08319

Rotational constants in cm-1:     0.079344     0.034176     0.025952
Rotational constants in MHz :  2378.677111  1024.577240   778.019102

                             ****ORCA TERMINATED NORMALLY****
TOTAL RUN TIME: 0 days 0 hours 2 minutes 22 seconds 885 msec
