                         Program Version 5.0.3 -  RELEASE  -
|  1> ! PBEh-3c def2/J TightSCF DefGrid3
|  2>
|  3> %maxcore 60000
|  4>
|  5> %pal
|  6> nprocs 4
|  7> end
|  8>
|  9> *xyzfile 0 2 cch.xyz
| 10>
| 11>                          ****END OF INPUT****

CARTESIAN COORDINATES (ANGSTROEM)
---------------------------------
  C      0.672913    0.000000    0.000000
  C     -0.538403    0.000000    0.000000
  H     -1.602931    0.000000    0.000000

 Total Charge           Charge          ....    0
 Multiplicity           Mult            ....    2
 Number of Electrons    NEL             ....   13
 Basis Dimension        Dim             ....   32

ORBITAL ENERGIES
----------------
                 SPIN UP ORBITALS
  NO   OCC          E(Eh)            E(eV)
   0   1.0000     -10.521182      -286.2959
   1   1.0000     -10.474080      -285.0142
   2   1.0000      -0.864736       -23.5307
   3   1.0000      -0.623357       -16.9624
   4   1.0000      -0.469075       -12.7642
   5   1.0000      -0.363034        -9.8787
   6   1.0000      -0.363034        -9.8787
   7   0.0000       0.052721         1.4346
   8   0.0000       0.052721         1.4346
   9   0.0000       0.175942         4.7876
  10   0.0000       0.320637         8.7250
  11   0.0000       0.503340        13.6966

                 SPIN DOWN ORBITALS
  NO   OCC          E(Eh)            E(eV)
   0   1.0000     -10.494126      -285.5597
   1   1.0000     -10.475493      -285.0527
   2   1.0000      -0.839459       -22.8428
   3   1.0000      -0.610820       -16.6213
   4   1.0000      -0.345898        -9.4124
   5   1.0000      -0.345898        -9.4124
   6   0.0000      -0.140865        -3.8331
   7   0.0000       0.083202         2.2640
   8   0.0000       0.083202         2.2640
   9   0.0000       0.177116         4.8196
  10   0.0000       0.370443        10.0803

MULLIKEN ATOMIC CHARGES AND SPIN POPULATIONS
--------------------------------------------
   0 C :   -0.121023    1.328552
   1 C :   -0.151321   -0.369039
   2 H :    0.272344    0.040488
Sum of atomic charges         :   -0.0000000

LOEWDIN ATOMIC CHARGES AND SPIN POPULATIONS
-------------------------------------------
   0 C :    0.030802    1.206899
   1 C :   -0.202228   -0.237077
   2 H :    0.171426    0.030177

  Mayer bond orders larger than 0.100000
B(  0-C ,  1-C ) :   2.8530 B(  1-C ,  2-H ) :   0.8901

Dispersion correction           -0.000518161
FINAL SINGLE POINT ENERGY       -76.421957705806

DIPOLE MOMENT
-------------
                                X             Y             Z
Electronic contribution:      1.19942       0.00000       0.00000
Nuclear contribution   :     -1.50383       0.00000       0.00000
                        -----------------------------------------
Total Dipole Moment    :     -0.30440       0.00000       0.00000
                        -----------------------------------------
Magnitude (a.u.)       :      0.30440
Magnitude (Debye)      :      0.77373

Rotational constants in cm-1:     0.000000     1.464559     1.464559
Rotational constants in MHz :     0.000000 43906.385118 43906.385118

                             ****ORCA TERMINATED NORMALLY****
TOTAL RUN TIME: 0 days 0 hours 0 minutes 37 seconds 276 msec
