                         Program Version 5.0.3 -  RELEASE  -
|  1> ! PBEh-3c def2/J TightSCF DefGrid3
|  2>
|  3> %maxcore 60000
|  4>
|  5> %pal
|  6> nprocs 4
|  7> end
|  8>
|  9> *xyzfile 1 2 IP_64.xyz
| 10>
| 11>                          ****END OF INPUT****

CARTESIAN COORDINATES (ANGSTROEM)
---------------------------------
  Si    -0.000612   -0.678539   -0.325964
  H      0.003704    1.164225   -0.613296
  H     -0.000284    1.197080    0.172070
  H      1.288334   -0.844679    0.384509
  H     -1.291143   -0.838087    0.382681

 Total Charge           Charge          ....    1
 Multiplicity           Mult            ....    2
 Number of Electrons    NEL             ....   17
 Basis Dimension        Dim             ....   26

ORBITAL ENERGIES
----------------
                 SPIN UP ORBITALS
  NO   OCC          E(Eh)            E(eV)
   0   1.0000     -67.064267     -1824.9115
   1   1.0000      -5.843713      -159.0155
   2   1.0000      -4.137798      -112.5952
   3   1.0000      -4.135726      -112.5388
   4   1.0000      -4.126897      -112.2986
   5   1.0000      -0.925435       -25.1824
   6   1.0000      -0.777645       -21.1608
   7   1.0000      -0.685559       -18.6550
   8   1.0000      -0.559976       -15.2377
   9   0.0000      -0.288971        -7.8633
  10   0.0000      -0.182776        -4.9736
  11   0.0000      -0.152621        -4.1530
  12   0.0000      -0.126759        -3.4493
  13   0.0000      -0.027113        -0.7378

                 SPIN DOWN ORBITALS
  NO   OCC          E(Eh)            E(eV)
   0   1.0000     -67.059523     -1824.7824
   1   1.0000      -5.837160      -158.8372
   2   1.0000      -4.133477      -112.4776
   3   1.0000      -4.123544      -112.2073
   4   1.0000      -4.121983      -112.1649
   5   1.0000      -0.903309       -24.5803
   6   1.0000      -0.762223       -20.7412
   7   1.0000      -0.672608       -18.3026
   8   0.0000      -0.361617        -9.8401
   9   0.0000      -0.265604        -7.2274
  10   0.0000      -0.166757        -4.5377
  11   0.0000      -0.116651        -3.1742
  12   0.0000      -0.110397        -3.0040

MULLIKEN ATOMIC CHARGES AND SPIN POPULATIONS
--------------------------------------------
   0 Si:    0.454213    0.876972
   1 H :    0.129557   -0.020316
   2 H :    0.162746    0.052166
   3 H :    0.126814    0.045726
   4 H :    0.126669    0.045452
Sum of atomic charges         :    1.0000000

LOEWDIN ATOMIC CHARGES AND SPIN POPULATIONS
-------------------------------------------
   0 Si:    0.520162    0.894634
   1 H :    0.149581   -0.009982
   2 H :    0.172041    0.041695
   3 H :    0.079171    0.036937
   4 H :    0.079044    0.036716

  Mayer bond orders larger than 0.100000
B(  0-Si,  1-H ) :   0.2774 B(  0-Si,  2-H ) :   0.2722 B(  0-Si,  3-H ) :   0.9404
B(  0-Si,  4-H ) :   0.9404 B(  1-H ,  2-H ) :   0.6834

Dispersion correction           -0.001042765
FINAL SINGLE POINT ENERGY      -291.094303501759

DIPOLE MOMENT
-------------
                                X             Y             Z
Electronic contribution:     -0.00147      -2.17508      -1.27294
Nuclear contribution   :      0.00252       2.78943       1.34002
                        -----------------------------------------
Total Dipole Moment    :      0.00105       0.61435       0.06707
                        -----------------------------------------
Magnitude (a.u.)       :      0.61800
Magnitude (Debye)      :      1.57084

Rotational constants in cm-1:     3.650661     2.127793     1.683767
Rotational constants in MHz : 109444.065780 63789.640930 50478.052660

                             ****ORCA TERMINATED NORMALLY****
TOTAL RUN TIME: 0 days 0 hours 0 minutes 11 seconds 401 msec
