                         Program Version 5.0.3 -  RELEASE  -
|  1> ! PBEh-3c def2/J TightSCF DefGrid3
|  2>
|  3> %maxcore 60000
|  4>
|  5> %pal
|  6> nprocs 4
|  7> end
|  8>
|  9> *xyzfile 0 1 1-hexene.xyz
| 10>
| 11>                          ****END OF INPUT****

CARTESIAN COORDINATES (ANGSTROEM)
---------------------------------
  C     -2.009475   -0.905581   -1.841364
  H     -1.660288   -1.943252   -1.954517
  H     -1.602465   -0.326525   -2.684100
  H     -3.104530   -0.910437   -1.938629
  C     -1.568013   -0.315995   -0.499598
  H     -1.963790    0.709176   -0.398880
  H     -2.016770   -0.896283    0.324610
  C     -0.046331   -0.287565   -0.323531
  H      0.410263    0.299512   -1.138126
  H      0.353013   -1.312129   -0.425560
  C      0.398649    0.297421    1.029038
  H     -0.076740   -0.291263    1.835316
  H      0.023456    1.329153    1.132020
  C      1.887121    0.280221    1.219519
  H      2.363922   -0.705896    1.160801
  C      2.653385    1.352910    1.437758
  H      3.733782    1.270355    1.562811
  H      2.224813    2.356175    1.502431

 Total Charge           Charge          ....    0
 Multiplicity           Mult            ....    1
 Number of Electrons    NEL             ....   48
 Basis Dimension        Dim             ....  114

ORBITAL ENERGIES
----------------

  NO   OCC          E(Eh)            E(eV)
   0   2.0000     -10.445401      -284.2338
   1   2.0000     -10.438970      -284.0588
   2   2.0000     -10.435369      -283.9608
   3   2.0000     -10.435106      -283.9537
   4   2.0000     -10.432194      -283.8744
   5   2.0000     -10.426018      -283.7064
   6   2.0000      -0.899664       -24.4811
   7   2.0000      -0.857213       -23.3260
   8   2.0000      -0.792896       -21.5758
   9   2.0000      -0.711469       -19.3601
  10   2.0000      -0.649079       -17.6623
  11   2.0000      -0.618595       -16.8328
  12   2.0000      -0.537997       -14.6396
  13   2.0000      -0.512250       -13.9390
  14   2.0000      -0.488677       -13.2976
  15   2.0000      -0.479445       -13.0464
  16   2.0000      -0.452374       -12.3097
  17   2.0000      -0.436604       -11.8806
  18   2.0000      -0.410291       -11.1646
  19   2.0000      -0.393443       -10.7061
  20   2.0000      -0.385155       -10.4806
  21   2.0000      -0.372259       -10.1297
  22   2.0000      -0.369615       -10.0577
  23   2.0000      -0.295826        -8.0498
  24   0.0000       0.047736         1.2989
  25   0.0000       0.136803         3.7226
  26   0.0000       0.160187         4.3589
  27   0.0000       0.172195         4.6857
  28   0.0000       0.183150         4.9838

MULLIKEN ATOMIC CHARGES
-----------------------
   0 C :   -0.635669
   1 H :    0.208316
   2 H :    0.209555
   3 H :    0.218108
   4 C :   -0.407510
   5 H :    0.204942
   6 H :    0.203855
   7 C :   -0.398044
   8 H :    0.214757
   9 H :    0.200860
  10 C :   -0.466533
  11 H :    0.215553
  12 H :    0.213357
  13 C :   -0.119550
  14 H :    0.208734
  15 C :   -0.490110
  16 H :    0.212605
  17 H :    0.206774
Sum of atomic charges:    0.0000000

LOEWDIN ATOMIC CHARGES
----------------------
   0 C :   -0.361346
   1 H :    0.123410
   2 H :    0.124016
   3 H :    0.126700
   4 C :   -0.245449
   5 H :    0.119913
   6 H :    0.119190
   7 C :   -0.237101
   8 H :    0.124353
   9 H :    0.119200
  10 C :   -0.236958
  11 H :    0.129469
  12 H :    0.126306
  13 C :   -0.137673
  14 H :    0.126902
  15 C :   -0.279225
  16 H :    0.131177
  17 H :    0.127116

  Mayer bond orders larger than 0.100000
B(  0-C ,  1-H ) :   0.9293 B(  0-C ,  2-H ) :   0.9289 B(  0-C ,  3-H ) :   0.9315
B(  0-C ,  4-C ) :   0.9942 B(  4-C ,  5-H ) :   0.9200 B(  4-C ,  6-H ) :   0.9204
B(  4-C ,  7-C ) :   0.9831 B(  7-C ,  8-H ) :   0.9161 B(  7-C ,  9-H ) :   0.9198
B(  7-C , 10-C ) :   0.9663 B( 10-C , 11-H ) :   0.9096 B( 10-C , 12-H ) :   0.9213
B( 10-C , 13-C ) :   1.0018 B( 13-C , 14-H ) :   0.9176 B( 13-C , 15-C ) :   1.9352
B( 15-C , 16-H ) :   0.9297 B( 15-C , 17-H ) :   0.9305

Dispersion correction           -0.007656575
FINAL SINGLE POINT ENERGY      -235.321496993062

DIPOLE MOMENT
-------------
                                X             Y             Z
Electronic contribution:      3.03561       0.94108       2.40857
Nuclear contribution   :     -3.16998      -1.01561      -2.46261
                        -----------------------------------------
Total Dipole Moment    :     -0.13437      -0.07454      -0.05404
                        -----------------------------------------
Magnitude (a.u.)       :      0.16288
Magnitude (Debye)      :      0.41401

Rotational constants in cm-1:     0.455291     0.041102     0.040356
Rotational constants in MHz : 13649.268584  1232.201041  1209.839004

                             ****ORCA TERMINATED NORMALLY****
TOTAL RUN TIME: 0 days 0 hours 1 minutes 19 seconds 168 msec
