                         Program Version 5.0.3 -  RELEASE  -
|  1> ! PBEh-3c def2/J TightSCF DefGrid3
|  2>
|  3> %maxcore 60000
|  4>
|  5> %pal
|  6> nprocs 4
|  7> end
|  8>
|  9> *xyzfile 0 1 Hexahelicene.xyz
| 10>
| 11>                          ****END OF INPUT****

CARTESIAN COORDINATES (ANGSTROEM)
---------------------------------
  C      2.777240   -0.480893   -2.080023
  C      3.356801   -0.302194   -0.864567
  C      2.560700   -0.189738    0.304899
  C      1.141700   -0.237100    0.211291
  C      0.578385   -0.764219   -1.013734
  C      1.387576   -0.753489   -2.175426
  C      0.825600   -1.059422   -3.450179
  C     -0.468019   -1.440525   -3.573286
  C     -1.264518   -1.661244   -2.413471
  C     -0.726618   -1.390040   -1.122762
  C      3.187495   -0.033563    1.569158
  C      2.443990    0.081694    2.700481
  C      1.037671    0.254727    2.615199
  C      0.394370    0.240318    1.355430
  C      0.282361    0.488100    3.803029
  C     -1.039070    0.783872    3.748969
  C     -1.674889    0.998251    2.491752
  C     -0.942688    0.795825    1.287583
  C     -1.478853   -1.816955   -0.007358
  C     -2.730732   -2.365229   -0.149290
  C     -3.297019   -2.530004   -1.422625
  C     -2.561210   -2.203331   -2.534147
  H      3.371871   -0.493136   -2.984359
  H      4.430565   -0.205178   -0.769090
  H      1.461559   -0.972466   -4.321506
  H     -0.896177   -1.645963   -4.545833
  H      4.268836   -0.049796    1.613259
  H      2.914103    0.118625    3.674876
  H      0.793685    0.416736    4.754415
  H     -1.612311    0.931357    4.655133
  C     -3.002035    1.472019    2.432074
  C     -1.543747    1.220007    0.083348
  H     -1.063180   -1.719337    0.981367
  H     -3.279251   -2.676715    0.729493
  H     -4.290886   -2.944647   -1.525570
  H     -2.957628   -2.380387   -3.526261
  C     -3.582143    1.800415    1.232079
  C     -2.828434    1.705208    0.052103
  H     -3.547056    1.600484    3.359218
  H     -4.599381    2.167099    1.198868
  H     -3.258717    2.020885   -0.888891
  H     -0.981607    1.171238   -0.834393

 Total Charge           Charge          ....    0
 Multiplicity           Mult            ....    1
 Number of Electrons    NEL             ....  172
 Basis Dimension        Dim             ....  422

ORBITAL ENERGIES
----------------

  NO   OCC          E(Eh)            E(eV)
   0   2.0000     -10.473021      -284.9854
   1   2.0000     -10.470840      -284.9260
   2   2.0000     -10.470323      -284.9120
   3   2.0000     -10.464841      -284.7628
   4   2.0000     -10.464105      -284.7428
   5   2.0000     -10.463965      -284.7390
   6   2.0000     -10.462730      -284.7054
   7   2.0000     -10.462470      -284.6983
   8   2.0000     -10.459393      -284.6145
   9   2.0000     -10.459280      -284.6115
  10   2.0000     -10.453691      -284.4594
  11   2.0000     -10.453536      -284.4552
  12   2.0000     -10.452886      -284.4375
  13   2.0000     -10.452688      -284.4321
  14   2.0000     -10.452398      -284.4242
  15   2.0000     -10.451942      -284.4118
  16   2.0000     -10.451619      -284.4030
  17   2.0000     -10.451161      -284.3906
  18   2.0000     -10.448107      -284.3074
  19   2.0000     -10.447865      -284.3009
  20   2.0000     -10.446870      -284.2738
  21   2.0000     -10.446675      -284.2685
  22   2.0000     -10.444543      -284.2105
  23   2.0000     -10.444315      -284.2043
  24   2.0000     -10.443762      -284.1892
  25   2.0000     -10.443510      -284.1824
  26   2.0000      -1.000899       -27.2359
  27   2.0000      -0.979625       -26.6570
  28   2.0000      -0.961349       -26.1596
  29   2.0000      -0.937678       -25.5155
  30   2.0000      -0.913794       -24.8656
  31   2.0000      -0.888889       -24.1879
  32   2.0000      -0.888686       -24.1824
  33   2.0000      -0.855354       -23.2754
  34   2.0000      -0.850317       -23.1383
  35   2.0000      -0.826398       -22.4874
  36   2.0000      -0.826264       -22.4838
  37   2.0000      -0.802634       -21.8408
  38   2.0000      -0.800821       -21.7915
  39   2.0000      -0.727797       -19.8044
  40   2.0000      -0.722259       -19.6537
  41   2.0000      -0.699638       -19.0381
  42   2.0000      -0.694514       -18.8987
  43   2.0000      -0.693580       -18.8733
  44   2.0000      -0.677088       -18.4245
  45   2.0000      -0.650694       -17.7063
  46   2.0000      -0.632106       -17.2005
  47   2.0000      -0.609502       -16.5854
  48   2.0000      -0.598082       -16.2746
  49   2.0000      -0.581793       -15.8314
  50   2.0000      -0.579728       -15.7752
  51   2.0000      -0.562861       -15.3162
  52   2.0000      -0.552499       -15.0343
  53   2.0000      -0.543855       -14.7990
  54   2.0000      -0.528492       -14.3810
  55   2.0000      -0.515319       -14.0225
  56   2.0000      -0.513217       -13.9653
  57   2.0000      -0.498133       -13.5549
  58   2.0000      -0.493816       -13.4374
  59   2.0000      -0.491027       -13.3615
  60   2.0000      -0.486909       -13.2495
  61   2.0000      -0.482692       -13.1347
  62   2.0000      -0.480510       -13.0753
  63   2.0000      -0.466570       -12.6960
  64   2.0000      -0.463555       -12.6140
  65   2.0000      -0.458917       -12.4878
  66   2.0000      -0.453666       -12.3449
  67   2.0000      -0.444174       -12.0866
  68   2.0000      -0.428590       -11.6625
  69   2.0000      -0.426383       -11.6025
  70   2.0000      -0.420908       -11.4535
  71   2.0000      -0.412583       -11.2269
  72   2.0000      -0.406664       -11.0659
  73   2.0000      -0.398497       -10.8436
  74   2.0000      -0.393005       -10.6942
  75   2.0000      -0.377839       -10.2815
  76   2.0000      -0.376445       -10.2436
  77   2.0000      -0.366335        -9.9685
  78   2.0000      -0.346499        -9.4287
  79   2.0000      -0.335180        -9.1207
  80   2.0000      -0.323307        -8.7976
  81   2.0000      -0.301552        -8.2057
  82   2.0000      -0.269353        -7.3295
  83   2.0000      -0.263697        -7.1756
  84   2.0000      -0.242317        -6.5938
  85   2.0000      -0.240552        -6.5457
  86   0.0000      -0.045219        -1.2305
  87   0.0000      -0.037587        -1.0228
  88   0.0000      -0.007738        -0.2105
  89   0.0000      -0.005805        -0.1580
  90   0.0000       0.034443         0.9373

MULLIKEN ATOMIC CHARGES
-----------------------
   0 C :   -0.284526
   1 C :   -0.278484
   2 C :    0.095464
   3 C :    0.082142
   4 C :    0.042540
   5 C :    0.094253
   6 C :   -0.277551
   7 C :   -0.298227
   8 C :    0.122794
   9 C :    0.045231
  10 C :   -0.276761
  11 C :   -0.285414
  12 C :    0.096685
  13 C :    0.030452
  14 C :   -0.278203
  15 C :   -0.296581
  16 C :    0.124344
  17 C :    0.042628
  18 C :   -0.300832
  19 C :   -0.205435
  20 C :   -0.228308
  21 C :   -0.279360
  22 H :    0.215138
  23 H :    0.215143
  24 H :    0.214014
  25 H :    0.213805
  26 H :    0.215212
  27 H :    0.215234
  28 H :    0.214327
  29 H :    0.214079
  30 C :   -0.279928
  31 C :   -0.297667
  32 H :    0.252556
  33 H :    0.221410
  34 H :    0.218145
  35 H :    0.212001
  36 C :   -0.227756
  37 C :   -0.205590
  38 H :    0.212033
  39 H :    0.218256
  40 H :    0.221468
  41 H :    0.251266
Sum of atomic charges:   -0.0000000

LOEWDIN ATOMIC CHARGES
----------------------
   0 C :   -0.122391
   1 C :   -0.121377
   2 C :   -0.028504
   3 C :   -0.008098
   4 C :   -0.018904
   5 C :   -0.032204
   6 C :   -0.127082
   7 C :   -0.120121
   8 C :   -0.034248
   9 C :   -0.025593
  10 C :   -0.121324
  11 C :   -0.122361
  12 C :   -0.032473
  13 C :   -0.018941
  14 C :   -0.126879
  15 C :   -0.120501
  16 C :   -0.034931
  17 C :   -0.026149
  18 C :   -0.107593
  19 C :   -0.130192
  20 C :   -0.132414
  21 C :   -0.126813
  22 H :    0.139074
  23 H :    0.139514
  24 H :    0.138615
  25 H :    0.138564
  26 H :    0.139534
  27 H :    0.139183
  28 H :    0.138745
  29 H :    0.138650
  30 C :   -0.126802
  31 C :   -0.107440
  32 H :    0.151083
  33 H :    0.138409
  34 H :    0.136559
  35 H :    0.136082
  36 C :   -0.132390
  37 C :   -0.130068
  38 H :    0.136063
  39 H :    0.136583
  40 H :    0.138452
  41 H :    0.150681

  Mayer bond orders larger than 0.100000
B(  0-C ,  1-C ) :   1.5734 B(  0-C ,  5-C ) :   1.2025 B(  0-C , 22-H ) :   0.9245
B(  1-C ,  2-C ) :   1.2026 B(  1-C , 23-H ) :   0.9244 B(  2-C ,  3-C ) :   1.3382
B(  2-C , 10-C ) :   1.2021 B(  3-C ,  4-C ) :   1.1397 B(  3-C , 13-C ) :   1.1372
B(  4-C ,  5-C ) :   1.3424 B(  4-C ,  9-C ) :   1.1278 B(  5-C ,  6-C ) :   1.1734
B(  6-C ,  7-C ) :   1.6117 B(  6-C , 24-H ) :   0.9244 B(  7-C ,  8-C ) :   1.1739
B(  7-C , 25-H ) :   0.9247 B(  8-C ,  9-C ) :   1.2827 B(  8-C , 21-C ) :   1.2556
B(  9-C , 18-C ) :   1.3044 B( 10-C , 11-C ) :   1.5741 B( 10-C , 26-H ) :   0.9244
B( 11-C , 12-C ) :   1.2021 B( 11-C , 27-H ) :   0.9245 B( 12-C , 13-C ) :   1.3470
B( 12-C , 14-C ) :   1.1730 B( 13-C , 17-C ) :   1.1326 B( 14-C , 15-C ) :   1.6127
B( 14-C , 28-H ) :   0.9243 B( 15-C , 16-C ) :   1.1732 B( 15-C , 29-H ) :   0.9245
B( 16-C , 17-C ) :   1.2818 B( 16-C , 30-C ) :   1.2564 B( 17-C , 31-C ) :   1.3080
B( 18-C , 19-C ) :   1.5143 B( 18-C , 32-H ) :   0.9059 B( 19-C , 20-C ) :   1.3262
B( 19-C , 33-H ) :   0.9188 B( 20-C , 21-C ) :   1.5103 B( 20-C , 34-H ) :   0.9193
B( 21-C , 35-H ) :   0.9261 B( 30-C , 36-C ) :   1.5103 B( 30-C , 38-H ) :   0.9260
B( 31-C , 37-C ) :   1.5135 B( 31-C , 41-H ) :   0.9065 B( 36-C , 37-C ) :   1.3265
B( 36-C , 39-H ) :   0.9193 B( 37-C , 40-H ) :   0.9188

Dispersion correction           -0.039365953
FINAL SINGLE POINT ENERGY      -998.234591424689

DIPOLE MOMENT
-------------
                                X             Y             Z
Electronic contribution:      4.23702       0.10541       0.28454
Nuclear contribution   :     -4.31393      -0.10263      -0.28992
                        -----------------------------------------
Total Dipole Moment    :     -0.07691       0.00278      -0.00538
                        -----------------------------------------
Magnitude (a.u.)       :      0.07715
Magnitude (Debye)      :      0.19610

Rotational constants in cm-1:     0.009631     0.008340     0.005201
Rotational constants in MHz :   288.735620   250.030012   155.919501

                             ****ORCA TERMINATED NORMALLY****
TOTAL RUN TIME: 0 days 0 hours 8 minutes 0 seconds 162 msec
