                         Program Version 5.0.3 -  RELEASE  -
|  1> ! PBEh-3c def2/J TightSCF DefGrid3
|  2>
|  3> %maxcore 60000
|  4>
|  5> %pal
|  6> nprocs 4
|  7> end
|  8>
|  9> *xyzfile 0 1 ARG_xby.xyz
| 10>
| 11>                          ****END OF INPUT****

CARTESIAN COORDINATES (ANGSTROEM)
---------------------------------
  N     -2.355396   -0.845305   -0.548518
  H     -2.356278   -1.487880   -1.327924
  C     -1.221943   -0.876912    0.351720
  H     -1.508854   -1.211445    1.350565
  C     -0.188205   -1.853883   -0.223495
  C     -0.563089    0.487269    0.536690
  H     -0.690836   -2.813527   -0.357271
  H      0.083916   -1.486171   -1.215973
  C      1.075340   -2.017174    0.631241
  O      0.040867    0.753446    1.579439
  H      1.150873   -3.040576    1.000521
  H      1.019206   -1.372882    1.506070
  C      2.345908   -1.695617   -0.150850
  H      2.449827   -2.413305   -0.965875
  H      3.215321   -1.805046    0.498248
  N      2.323405   -0.360342   -0.752718
  H      2.527610   -0.355276   -1.741470
  C      3.034268    0.685175   -0.171243
  N      3.674056    1.491279   -0.943149
  N      2.959049    0.700770    1.215133
  H      4.036701    2.271240   -0.401227
  H      2.005102    0.608672    1.554086
  H      3.402760    1.515622    1.610006
  N     -0.663058    1.323235   -0.508759
  C      0.078761    2.565745   -0.576996
  H     -1.166316    0.985081   -1.312609
  H      0.223035    2.927756    0.436794
  H     -0.489734    3.298153   -1.143470
  H      1.054804    2.419815   -1.040469
  C     -3.603387   -0.332971   -0.263967
  C     -3.711536    0.468544    1.007888
  O     -4.542171   -0.514950   -1.022925
  H     -4.735509    0.811032    1.104695
  H     -3.446122   -0.134444    1.875218
  H     -3.038320    1.323982    0.985011

 Total Charge           Charge          ....    0
 Multiplicity           Mult            ....    1
 Number of Electrons    NEL             ....  124
 Basis Dimension        Dim             ....  278

ORBITAL ENERGIES
----------------

  NO   OCC          E(Eh)            E(eV)
   0   2.0000     -19.474136      -529.9182
   1   2.0000     -19.464910      -529.6671
   2   2.0000     -14.675216      -399.3329
   3   2.0000     -14.672421      -399.2569
   4   2.0000     -14.640414      -398.3859
   5   2.0000     -14.630788      -398.1240
   6   2.0000     -14.579753      -396.7352
   7   2.0000     -10.559559      -287.3402
   8   2.0000     -10.558005      -287.2979
   9   2.0000     -10.531487      -286.5763
  10   2.0000     -10.505979      -285.8822
  11   2.0000     -10.473816      -285.0070
  12   2.0000     -10.470787      -284.9246
  13   2.0000     -10.462552      -284.7005
  14   2.0000     -10.444532      -284.2102
  15   2.0000     -10.442386      -284.1518
  16   2.0000      -1.158452       -31.5231
  17   2.0000      -1.149542       -31.2806
  18   2.0000      -1.074527       -29.2394
  19   2.0000      -1.048849       -28.5406
  20   2.0000      -1.026248       -27.9256
  21   2.0000      -0.977412       -26.5967
  22   2.0000      -0.931442       -25.3458
  23   2.0000      -0.898791       -24.4573
  24   2.0000      -0.840249       -22.8643
  25   2.0000      -0.831197       -22.6180
  26   2.0000      -0.796681       -21.6788
  27   2.0000      -0.740702       -20.1555
  28   2.0000      -0.696571       -18.9547
  29   2.0000      -0.668186       -18.1823
  30   2.0000      -0.662584       -18.0298
  31   2.0000      -0.643444       -17.5090
  32   2.0000      -0.608076       -16.5466
  33   2.0000      -0.587822       -15.9955
  34   2.0000      -0.585752       -15.9391
  35   2.0000      -0.568576       -15.4717
  36   2.0000      -0.552322       -15.0294
  37   2.0000      -0.537057       -14.6141
  38   2.0000      -0.528380       -14.3780
  39   2.0000      -0.523041       -14.2327
  40   2.0000      -0.514716       -14.0061
  41   2.0000      -0.512245       -13.9389
  42   2.0000      -0.494712       -13.4618
  43   2.0000      -0.485775       -13.2186
  44   2.0000      -0.470700       -12.8084
  45   2.0000      -0.469029       -12.7629
  46   2.0000      -0.463882       -12.6229
  47   2.0000      -0.456996       -12.4355
  48   2.0000      -0.452070       -12.3014
  49   2.0000      -0.442499       -12.0410
  50   2.0000      -0.428679       -11.6650
  51   2.0000      -0.424299       -11.5458
  52   2.0000      -0.412000       -11.2111
  53   2.0000      -0.400868       -10.9082
  54   2.0000      -0.397004       -10.8030
  55   2.0000      -0.339239        -9.2312
  56   2.0000      -0.322959        -8.7882
  57   2.0000      -0.317228        -8.6322
  58   2.0000      -0.314551        -8.5594
  59   2.0000      -0.307294        -8.3619
  60   2.0000      -0.301621        -8.2075
  61   2.0000      -0.267333        -7.2745
  62   0.0000       0.038769         1.0549
  63   0.0000       0.050328         1.3695
  64   0.0000       0.090680         2.4675
  65   0.0000       0.112292         3.0556
  66   0.0000       0.119310         3.2466

MULLIKEN ATOMIC CHARGES
-----------------------
   0 N :   -0.653072
   1 H :    0.368552
   2 C :   -0.162427
   3 H :    0.262429
   4 C :   -0.451933
   5 C :    0.565711
   6 H :    0.239926
   7 H :    0.228188
   8 C :   -0.453004
   9 O :   -0.476876
  10 H :    0.227712
  11 H :    0.257857
  12 C :   -0.308018
  13 H :    0.218996
  14 H :    0.250884
  15 N :   -0.613492
  16 H :    0.356115
  17 C :    0.472656
  18 N :   -0.611268
  19 N :   -0.808232
  20 H :    0.278768
  21 H :    0.407114
  22 H :    0.337515
  23 N :   -0.606265
  24 C :   -0.517798
  25 H :    0.374121
  26 H :    0.246865
  27 H :    0.227101
  28 H :    0.263452
  29 C :    0.489700
  30 C :   -0.784657
  31 O :   -0.404186
  32 H :    0.275472
  33 H :    0.243495
  34 H :    0.258599
Sum of atomic charges:   -0.0000000

LOEWDIN ATOMIC CHARGES
----------------------
   0 N :   -0.254237
   1 H :    0.261194
   2 C :   -0.090892
   3 H :    0.138813
   4 C :   -0.230890
   5 C :    0.105087
   6 H :    0.131678
   7 H :    0.129762
   8 C :   -0.256211
   9 O :   -0.307117
  10 H :    0.130405
  11 H :    0.141674
  12 C :   -0.150092
  13 H :    0.120436
  14 H :    0.132487
  15 N :   -0.279703
  16 H :    0.254320
  17 C :    0.069867
  18 N :   -0.440521
  19 N :   -0.423751
  20 H :    0.210554
  21 H :    0.258227
  22 H :    0.239695
  23 N :   -0.218573
  24 C :   -0.261054
  25 H :    0.261308
  26 H :    0.144306
  27 H :    0.127665
  28 H :    0.140133
  29 C :    0.110543
  30 C :   -0.396708
  31 O :   -0.259822
  32 H :    0.157825
  33 H :    0.148653
  34 H :    0.154937

  Mayer bond orders larger than 0.100000
B(  0-N ,  1-H ) :   0.8128 B(  0-N ,  2-C ) :   0.9061 B(  0-N , 29-C ) :   1.1164
B(  2-C ,  3-H ) :   0.8817 B(  2-C ,  4-C ) :   0.9743 B(  2-C ,  5-C ) :   0.9093
B(  4-C ,  6-H ) :   0.9146 B(  4-C ,  7-H ) :   0.9043 B(  4-C ,  8-C ) :   0.9385
B(  5-C ,  9-O ) :   1.8413 B(  5-C , 23-N ) :   1.1876 B(  8-C , 10-H ) :   0.9199
B(  8-C , 11-H ) :   0.8948 B(  8-C , 12-C ) :   0.9691 B( 12-C , 13-H ) :   0.9231
B( 12-C , 14-H ) :   0.9058 B( 12-C , 15-N ) :   0.9484 B( 15-N , 16-H ) :   0.8322
B( 15-N , 17-C ) :   1.0640 B( 17-C , 18-N ) :   1.9451 B( 17-C , 19-N ) :   1.1266
B( 18-N , 20-H ) :   0.8593 B( 19-N , 21-H ) :   0.7384 B( 19-N , 22-H ) :   0.8521
B( 23-N , 24-C ) :   0.9419 B( 23-N , 25-H ) :   0.8024 B( 24-C , 26-H ) :   0.9101
B( 24-C , 27-H ) :   0.9233 B( 24-C , 28-H ) :   0.8858 B( 29-C , 30-C ) :   0.9377
B( 29-C , 31-O ) :   2.0571 B( 30-C , 32-H ) :   0.9143 B( 30-C , 33-H ) :   0.9033
B( 30-C , 34-H ) :   0.8930

Dispersion correction           -0.024142692
FINAL SINGLE POINT ENERGY      -776.968142776683

DIPOLE MOMENT
-------------
                                X             Y             Z
Electronic contribution:     -4.58169       0.09594      -1.69028
Nuclear contribution   :      4.88797      -0.36209       1.99246
                        -----------------------------------------
Total Dipole Moment    :      0.30629      -0.26616       0.30218
                        -----------------------------------------
Magnitude (a.u.)       :      0.50593
Magnitude (Debye)      :      1.28597

Rotational constants in cm-1:     0.031523     0.010414     0.009205
Rotational constants in MHz :   945.036359   312.196383   275.962441

                             ****ORCA TERMINATED NORMALLY****
TOTAL RUN TIME: 0 days 0 hours 5 minutes 36 seconds 86 msec
