                         Program Version 5.0.3 -  RELEASE  -
|  1> ! PBEh-3c def2/J TightSCF DefGrid3
|  2>
|  3> %maxcore 60000
|  4>
|  5> %pal
|  6> nprocs 4
|  7> end
|  8>
|  9> *xyzfile 0 1 14.xyz
| 10>
| 11>                          ****END OF INPUT****

CARTESIAN COORDINATES (ANGSTROEM)
---------------------------------
  P      0.000000    1.046315    0.000000
  P     -0.233372   -2.146790    0.000000
  F      0.370350    2.631529    0.000000
  H      0.554010   -3.323495    0.000000
  H      0.896532    0.647206    1.028172
  H     -1.089819   -2.573778    1.041690
  H      0.896532    0.647206   -1.028172
  H     -1.089819   -2.573778   -1.041690

 Total Charge           Charge          ....    0
 Multiplicity           Mult            ....    1
 Number of Electrons    NEL             ....   44
 Basis Dimension        Dim             ....   61

ORBITAL ENERGIES
----------------

  NO   OCC          E(Eh)            E(eV)
   0   2.0000     -77.783923     -2116.6081
   1   2.0000     -77.748023     -2115.6313
   2   2.0000     -25.066667      -682.0987
   3   2.0000      -6.851043      -186.4264
   4   2.0000      -6.828043      -185.8005
   5   2.0000      -4.943130      -134.5094
   6   2.0000      -4.940788      -134.4457
   7   2.0000      -4.939117      -134.4002
   8   2.0000      -4.918341      -133.8349
   9   2.0000      -4.918322      -133.8343
  10   2.0000      -4.916426      -133.7827
  11   2.0000      -1.288916       -35.0732
  12   2.0000      -0.736431       -20.0393
  13   2.0000      -0.704981       -19.1835
  14   2.0000      -0.527863       -14.3639
  15   2.0000      -0.510135       -13.8815
  16   2.0000      -0.486480       -13.2378
  17   2.0000      -0.453984       -12.3535
  18   2.0000      -0.453830       -12.3493
  19   2.0000      -0.400081       -10.8868
  20   2.0000      -0.338064        -9.1992
  21   2.0000      -0.299169        -8.1408
  22   0.0000       0.028489         0.7752
  23   0.0000       0.055275         1.5041
  24   0.0000       0.079964         2.1759
  25   0.0000       0.083914         2.2834
  26   0.0000       0.145207         3.9513

MULLIKEN ATOMIC CHARGES
-----------------------
   0 P :    0.334455
   1 P :   -0.278709
   2 F :   -0.469437
   3 H :    0.101924
   4 H :    0.052104
   5 H :    0.103779
   6 H :    0.052104
   7 H :    0.103779
Sum of atomic charges:    0.0000000

LOEWDIN ATOMIC CHARGES
----------------------
   0 P :    0.287511
   1 P :   -0.067381
   2 F :   -0.363447
   3 H :    0.037709
   4 H :    0.010661
   5 H :    0.042144
   6 H :    0.010661
   7 H :    0.042144

  Mayer bond orders larger than 0.100000
B(  0-P ,  2-F ) :   0.8353 B(  0-P ,  4-H ) :   0.9448 B(  0-P ,  6-H ) :   0.9448
B(  1-P ,  3-H ) :   0.9544 B(  1-P ,  5-H ) :   0.9596 B(  1-P ,  7-H ) :   0.9596

Dispersion correction           -0.002505360
FINAL SINGLE POINT ENERGY      -784.539409019821

DIPOLE MOMENT
-------------
                                X             Y             Z
Electronic contribution:     -0.02468       7.13777       0.00000
Nuclear contribution   :      0.02301      -8.38735       0.00000
                        -----------------------------------------
Total Dipole Moment    :     -0.00167      -1.24957       0.00000
                        -----------------------------------------
Magnitude (a.u.)       :      1.24957
Magnitude (Debye)      :      3.17617

Rotational constants in cm-1:     2.029283     0.049393     0.049345
Rotational constants in MHz : 60836.376837  1480.771158  1479.339117

                             ****ORCA TERMINATED NORMALLY****
TOTAL RUN TIME: 0 days 0 hours 0 minutes 41 seconds 734 msec
