                         Program Version 5.0.3 -  RELEASE  -
|  1> ! PBEh-3c def2/J TightSCF DefGrid3
|  2>
|  3> %maxcore 60000
|  4>
|  5> %pal
|  6> nprocs 4
|  7> end
|  8>
|  9> *xyzfile 0 1 ts1h2o.xyz
| 10>
| 11>                          ****END OF INPUT****

CARTESIAN COORDINATES (ANGSTROEM)
---------------------------------
  C      0.009609    1.083889    0.000000
  H      0.008064    2.178559    0.000000
  H      0.012015   -0.765088    0.779563
  H      0.012015   -0.765088   -0.779563
  O      0.062036   -1.614422    0.000000
  H     -0.739782   -2.148850    0.000000
  O      0.009609    0.494532    1.119376
  O      0.009609    0.494532   -1.119376

 Total Charge           Charge          ....    0
 Multiplicity           Mult            ....    1
 Number of Electrons    NEL             ....   34
 Basis Dimension        Dim             ....   68

ORBITAL ENERGIES
----------------

  NO   OCC          E(Eh)            E(eV)
   0   2.0000     -19.534036      -531.5481
   1   2.0000     -19.506575      -530.8009
   2   2.0000     -19.506571      -530.8008
   3   2.0000     -10.582750      -287.9713
   4   2.0000      -1.221505       -33.2388
   5   2.0000      -1.145896       -31.1814
   6   2.0000      -1.111344       -30.2412
   7   2.0000      -0.716960       -19.5095
   8   2.0000      -0.620403       -16.8820
   9   2.0000      -0.613711       -16.6999
  10   2.0000      -0.564052       -15.3486
  11   2.0000      -0.507006       -13.7963
  12   2.0000      -0.484940       -13.1959
  13   2.0000      -0.468900       -12.7594
  14   2.0000      -0.367598       -10.0029
  15   2.0000      -0.366659        -9.9773
  16   2.0000      -0.358547        -9.7566
  17   0.0000       0.040194         1.0937
  18   0.0000       0.116054         3.1580
  19   0.0000       0.192202         5.2301
  20   0.0000       0.238239         6.4828
  21   0.0000       0.278306         7.5731

MULLIKEN ATOMIC CHARGES
-----------------------
   0 C :    0.323090
   1 H :    0.215671
   2 H :    0.482380
   3 H :    0.482380
   4 O :   -0.851575
   5 H :    0.444416
   6 O :   -0.548181
   7 O :   -0.548181
Sum of atomic charges:    0.0000000

LOEWDIN ATOMIC CHARGES
----------------------
   0 C :    0.094595
   1 H :    0.108579
   2 H :    0.363976
   3 H :    0.363976
   4 O :   -0.573089
   5 H :    0.323098
   6 O :   -0.340568
   7 O :   -0.340568

  Mayer bond orders larger than 0.100000
B(  0-C ,  1-H ) :   0.8812 B(  0-C ,  6-O ) :   1.5648 B(  0-C ,  7-O ) :   1.5648
B(  2-H ,  4-O ) :   0.4337 B(  2-H ,  6-O ) :   0.3258 B(  3-H ,  4-O ) :   0.4337
B(  3-H ,  7-O ) :   0.3258 B(  4-O ,  5-H ) :   0.7766 B(  6-O ,  7-O ) :   0.1179

Dispersion correction           -0.002258886
FINAL SINGLE POINT ENERGY      -265.611792646319

DIPOLE MOMENT
-------------
                                X             Y             Z
Electronic contribution:      0.06519       1.15362       0.00000
Nuclear contribution   :     -0.70436      -1.50595       0.00000
                        -----------------------------------------
Total Dipole Moment    :     -0.63917      -0.35233       0.00000
                        -----------------------------------------
Magnitude (a.u.)       :      0.72985
Magnitude (Debye)      :      1.85512

Rotational constants in cm-1:     0.402064     0.225283     0.145905
Rotational constants in MHz : 12053.573544  6753.812823  4374.122949

                             ****ORCA TERMINATED NORMALLY****
TOTAL RUN TIME: 0 days 0 hours 0 minutes 38 seconds 487 msec
