                         Program Version 5.0.3 -  RELEASE  -
|  1> ! PBEh-3c def2/J TightSCF DefGrid3
|  2>
|  3> %maxcore 60000
|  4>
|  5> %pal
|  6> nprocs 4
|  7> end
|  8>
|  9> *xyzfile 0 1 E7.xyz
| 10>
| 11>                          ****END OF INPUT****

CARTESIAN COORDINATES (ANGSTROEM)
---------------------------------
  C      0.000000    0.000000   -0.805220
  C      0.000000    0.000000    0.698340
  F      0.628028   -1.087776    1.201952
  F      0.628028    1.087776    1.201952
  F     -1.256055    0.000000    1.201952
  H      1.027378    0.000000   -1.166326
  H     -0.513689   -0.889736   -1.166326
  H     -0.513689    0.889736   -1.166326

 Total Charge           Charge          ....    0
 Multiplicity           Mult            ....    1
 Number of Electrons    NEL             ....   42
 Basis Dimension        Dim             ....   81

ORBITAL ENERGIES
----------------

  NO   OCC          E(Eh)            E(eV)
   0   2.0000     -25.123620      -683.6484
   1   2.0000     -25.123504      -683.6453
   2   2.0000     -25.123503      -683.6453
   3   2.0000     -10.697829      -291.1027
   4   2.0000     -10.463256      -284.7197
   5   2.0000      -1.430631       -38.9294
   6   2.0000      -1.339387       -36.4466
   7   2.0000      -1.339385       -36.4465
   8   2.0000      -0.881092       -23.9757
   9   2.0000      -0.748362       -20.3640
  10   2.0000      -0.659836       -17.9550
  11   2.0000      -0.659835       -17.9550
  12   2.0000      -0.619027       -16.8446
  13   2.0000      -0.538456       -14.6521
  14   2.0000      -0.538453       -14.6521
  15   2.0000      -0.508422       -13.8349
  16   2.0000      -0.508421       -13.8348
  17   2.0000      -0.475304       -12.9337
  18   2.0000      -0.471555       -12.8317
  19   2.0000      -0.471553       -12.8316
  20   2.0000      -0.443422       -12.0661
  21   0.0000       0.155527         4.2321
  22   0.0000       0.162625         4.4253
  23   0.0000       0.162626         4.4253
  24   0.0000       0.222983         6.0677
  25   0.0000       0.250779         6.8241

MULLIKEN ATOMIC CHARGES
-----------------------
   0 C :   -0.790289
   1 C :    0.966801
   2 F :   -0.311530
   3 F :   -0.311530
   4 F :   -0.311525
   5 H :    0.252692
   6 H :    0.252690
   7 H :    0.252690
Sum of atomic charges:    0.0000000

LOEWDIN ATOMIC CHARGES
----------------------
   0 C :   -0.381204
   1 C :    0.350102
   2 F :   -0.145231
   3 F :   -0.145231
   4 F :   -0.145228
   5 H :    0.155597
   6 H :    0.155597
   7 H :    0.155597

  Mayer bond orders larger than 0.100000
B(  0-C ,  1-C ) :   0.9763 B(  0-C ,  5-H ) :   0.9053 B(  0-C ,  6-H ) :   0.9053
B(  0-C ,  7-H ) :   0.9053 B(  1-C ,  2-F ) :   1.0112 B(  1-C ,  3-F ) :   1.0112
B(  1-C ,  4-F ) :   1.0112

Dispersion correction           -0.002161517
FINAL SINGLE POINT ENERGY      -376.828586311194

DIPOLE MOMENT
-------------
                                X             Y             Z
Electronic contribution:     -0.00003      -0.00000       5.76533
Nuclear contribution   :      0.00000       0.00000      -6.65008
                        -----------------------------------------
Total Dipole Moment    :     -0.00003      -0.00000      -0.88475
                        -----------------------------------------
Magnitude (a.u.)       :      0.88475
Magnitude (Debye)      :      2.24885

Rotational constants in cm-1:     0.181051     0.171353     0.171353
Rotational constants in MHz :  5427.774736  5137.036664  5137.036408

                             ****ORCA TERMINATED NORMALLY****
TOTAL RUN TIME: 0 days 0 hours 1 minutes 10 seconds 154 msec
