                         Program Version 5.0.3 -  RELEASE  -
|  1> ! PBEh-3c def2/J TightSCF DefGrid3
|  2>
|  3> %maxcore 60000
|  4>
|  5> %pal
|  6> nprocs 4
|  7> end
|  8>
|  9> *xyzfile 0 1 C2.xyz
| 10>
| 11>                          ****END OF INPUT****

CARTESIAN COORDINATES (ANGSTROEM)
---------------------------------
  C     -2.583998   -1.051049   -0.100932
  C     -1.290812   -0.676631    0.644141
  C     -0.134369   -0.362491   -0.316407
  C      1.178632    0.131677    0.346597
  C      1.167569    1.650648    0.076627
  O      0.496836    2.369364    1.096612
  C      0.456599    1.715293   -1.275904
  O     -3.223721    0.114002   -0.616163
  O      2.327594   -0.414091   -0.293046
  O     -1.563012    0.429705    1.514333
  O     -0.550080    0.682494   -1.222758
  C      2.669175   -1.722901    0.135529
  H     -2.368264   -1.779421   -0.894783
  H     -3.297085   -1.501394    0.595407
  H     -0.984147   -1.522254    1.274169
  H      0.079776   -1.268298   -0.901971
  H      1.211016   -0.073031    1.425049
  H      2.188314    2.035577    0.024073
  H     -0.279606    1.850508    1.381047
  H     -0.046457    2.670775   -1.439766
  H      1.153301    1.508610   -2.099001
  H     -2.587415    0.545618   -1.213310
  H     -2.346108    0.872410    1.140530
  H      2.856440   -1.748033    1.219213
  H      1.886500   -2.457375   -0.105803
  H      3.583326   -1.999717   -0.393487

 Total Charge           Charge          ....    0
 Multiplicity           Mult            ....    1
 Number of Electrons    NEL             ....   96
 Basis Dimension        Dim             ....  208

ORBITAL ENERGIES
----------------

  NO   OCC          E(Eh)            E(eV)
   0   2.0000     -19.514073      -531.0049
   1   2.0000     -19.512288      -530.9563
   2   2.0000     -19.509517      -530.8809
   3   2.0000     -19.499999      -530.6220
   4   2.0000     -19.474974      -529.9410
   5   2.0000     -10.509723      -285.9841
   6   2.0000     -10.505766      -285.8764
   7   2.0000     -10.504208      -285.8340
   8   2.0000     -10.499362      -285.7022
   9   2.0000     -10.492678      -285.5203
  10   2.0000     -10.491853      -285.4978
  11   2.0000     -10.486450      -285.3508
  12   2.0000      -1.172628       -31.9088
  13   2.0000      -1.153188       -31.3798
  14   2.0000      -1.139240       -31.0003
  15   2.0000      -1.122968       -30.5575
  16   2.0000      -1.109981       -30.2041
  17   2.0000      -0.879186       -23.9239
  18   2.0000      -0.858205       -23.3529
  19   2.0000      -0.806747       -21.9527
  20   2.0000      -0.767186       -20.8762
  21   2.0000      -0.713399       -19.4126
  22   2.0000      -0.680972       -18.5302
  23   2.0000      -0.665843       -18.1185
  24   2.0000      -0.606046       -16.4914
  25   2.0000      -0.585351       -15.9282
  26   2.0000      -0.579538       -15.7700
  27   2.0000      -0.564174       -15.3520
  28   2.0000      -0.559880       -15.2351
  29   2.0000      -0.541430       -14.7330
  30   2.0000      -0.520296       -14.1580
  31   2.0000      -0.518769       -14.1164
  32   2.0000      -0.499561       -13.5937
  33   2.0000      -0.496938       -13.5224
  34   2.0000      -0.478003       -13.0071
  35   2.0000      -0.463622       -12.6158
  36   2.0000      -0.457228       -12.4418
  37   2.0000      -0.431827       -11.7506
  38   2.0000      -0.424651       -11.5553
  39   2.0000      -0.419993       -11.4286
  40   2.0000      -0.397468       -10.8156
  41   2.0000      -0.385031       -10.4772
  42   2.0000      -0.377240       -10.2652
  43   2.0000      -0.359356        -9.7786
  44   2.0000      -0.347131        -9.4459
  45   2.0000      -0.338891        -9.2217
  46   2.0000      -0.315917        -8.5965
  47   2.0000      -0.304611        -8.2889
  48   0.0000       0.101887         2.7725
  49   0.0000       0.108994         2.9659
  50   0.0000       0.132773         3.6129
  51   0.0000       0.144699         3.9375
  52   0.0000       0.162551         4.4232

MULLIKEN ATOMIC CHARGES
-----------------------
   0 C :   -0.197978
   1 C :   -0.004935
   2 C :    0.026308
   3 C :   -0.037795
   4 C :    0.002862
   5 O :   -0.652278
   6 C :   -0.166535
   7 O :   -0.645504
   8 O :   -0.477175
   9 O :   -0.658257
  10 O :   -0.526870
  11 C :   -0.375239
  12 H :    0.200087
  13 H :    0.233512
  14 H :    0.216466
  15 H :    0.218276
  16 H :    0.232643
  17 H :    0.244496
  18 H :    0.433800
  19 H :    0.232929
  20 H :    0.209188
  21 H :    0.441213
  22 H :    0.440977
  23 H :    0.195801
  24 H :    0.182830
  25 H :    0.231179
Sum of atomic charges:    0.0000000

LOEWDIN ATOMIC CHARGES
----------------------
   0 C :   -0.101703
   1 C :   -0.049991
   2 C :   -0.031339
   3 C :   -0.028217
   4 C :   -0.031361
   5 O :   -0.405924
   6 C :   -0.088271
   7 O :   -0.416483
   8 O :   -0.254156
   9 O :   -0.397973
  10 O :   -0.277947
  11 C :   -0.184531
  12 H :    0.112147
  13 H :    0.128371
  14 H :    0.123609
  15 H :    0.123341
  16 H :    0.124077
  17 H :    0.134504
  18 H :    0.304680
  19 H :    0.131398
  20 H :    0.117437
  21 H :    0.314245
  22 H :    0.320095
  23 H :    0.106605
  24 H :    0.098231
  25 H :    0.129157

  Mayer bond orders larger than 0.100000
B(  0-C ,  1-C ) :   0.9438 B(  0-C ,  7-O ) :   1.0228 B(  0-C , 12-H ) :   0.9019
B(  0-C , 13-H ) :   0.9100 B(  1-C ,  2-C ) :   0.8998 B(  1-C ,  9-O ) :   0.9766
B(  1-C , 14-H ) :   0.8980 B(  2-C ,  3-C ) :   0.9173 B(  2-C , 10-O ) :   0.9336
B(  2-C , 15-H ) :   0.8936 B(  3-C ,  4-C ) :   0.9468 B(  3-C ,  8-O ) :   0.9234
B(  3-C , 16-H ) :   0.8939 B(  4-C ,  5-O ) :   1.0466 B(  4-C ,  6-C ) :   0.9286
B(  4-C , 17-H ) :   0.9008 B(  5-O , 18-H ) :   0.7100 B(  6-C , 10-O ) :   0.9295
B(  6-C , 19-H ) :   0.9138 B(  6-C , 20-H ) :   0.8968 B(  7-O , 21-H ) :   0.7316
B(  8-O , 11-C ) :   0.9719 B(  9-O , 18-H ) :   0.1004 B(  9-O , 22-H ) :   0.7348
B( 11-C , 23-H ) :   0.9118 B( 11-C , 24-H ) :   0.9089 B( 11-C , 25-H ) :   0.9275

Dispersion correction           -0.014887357
FINAL SINGLE POINT ENERGY      -649.854394480830

DIPOLE MOMENT
-------------
                                X             Y             Z
Electronic contribution:     -2.23183       4.69600      -0.12870
Nuclear contribution   :      2.54634      -5.91991      -0.11457
                        -----------------------------------------
Total Dipole Moment    :      0.31451      -1.22391      -0.24327
                        -----------------------------------------
Magnitude (a.u.)       :      1.28687
Magnitude (Debye)      :      3.27097

Rotational constants in cm-1:     0.043151     0.023559     0.020079
Rotational constants in MHz :  1293.643972   706.286722   601.964398

                             ****ORCA TERMINATED NORMALLY****
TOTAL RUN TIME: 0 days 0 hours 2 minutes 46 seconds 140 msec
