                         Program Version 5.0.3 -  RELEASE  -
|  1> ! PBEh-3c def2/J TightSCF DefGrid3
|  2>
|  3> %maxcore 60000
|  4>
|  5> %pal
|  6> nprocs 4
|  7> end
|  8>
|  9> *xyzfile 0 1 63.xyz
| 10>
| 11>                          ****END OF INPUT****

CARTESIAN COORDINATES (ANGSTROEM)
---------------------------------
  C      0.773848    1.212298   -1.431974
  H      1.413561    2.084140   -1.418056
  C      1.285148   -0.030875   -1.063292
  H      2.317121   -0.122011   -0.754650
  C      0.459965   -1.154211   -1.079301
  H      0.855560   -2.119085   -0.793031
  C     -0.875768   -1.034835   -1.460219
  H     -1.515646   -1.906612   -1.469060
  C     -1.386525    0.209225   -1.828352
  H     -2.422172    0.302165   -2.125755
  C     -0.560978    1.332719   -1.815257
  H     -0.956561    2.297534   -2.102270
  C      0.586050   -0.389803    2.276568
  O      1.781543   -0.225852    2.353084
  O      0.006548   -1.601208    2.476006
  H      0.740999   -2.202316    2.669044
  C     -0.435834    0.654129    1.955887
  H      0.042460    1.625075    1.909064
  H     -0.888634    0.420932    0.993179
  H     -1.220685    0.648592    2.708386

 Total Charge           Charge          ....    0
 Multiplicity           Mult            ....    1
 Number of Electrons    NEL             ....   74
 Basis Dimension        Dim             ....  170

ORBITAL ENERGIES
----------------

  NO   OCC          E(Eh)            E(eV)
   0   2.0000     -19.535788      -531.5958
   1   2.0000     -19.479153      -530.0547
   2   2.0000     -10.577866      -287.8384
   3   2.0000     -10.453413      -284.4518
   4   2.0000     -10.452970      -284.4398
   5   2.0000     -10.452615      -284.4301
   6   2.0000     -10.451850      -284.4093
   7   2.0000     -10.451524      -284.4004
   8   2.0000     -10.450471      -284.3718
   9   2.0000     -10.436179      -283.9829
  10   2.0000      -1.213346       -33.0168
  11   2.0000      -1.116810       -30.3899
  12   2.0000      -0.956666       -26.0322
  13   2.0000      -0.840100       -22.8603
  14   2.0000      -0.839417       -22.8417
  15   2.0000      -0.838646       -22.8207
  16   2.0000      -0.682598       -18.5744
  17   2.0000      -0.682254       -18.5651
  18   2.0000      -0.674343       -18.3498
  19   2.0000      -0.595433       -16.2026
  20   2.0000      -0.553799       -15.0696
  21   2.0000      -0.539946       -14.6927
  22   2.0000      -0.528680       -14.3861
  23   2.0000      -0.526689       -14.3319
  24   2.0000      -0.512067       -13.9341
  25   2.0000      -0.485326       -13.2064
  26   2.0000      -0.484737       -13.1904
  27   2.0000      -0.459370       -12.5001
  28   2.0000      -0.451427       -12.2839
  29   2.0000      -0.445430       -12.1208
  30   2.0000      -0.418606       -11.3909
  31   2.0000      -0.401650       -10.9294
  32   2.0000      -0.401304       -10.9200
  33   2.0000      -0.370943       -10.0939
  34   2.0000      -0.329931        -8.9779
  35   2.0000      -0.297264        -8.0890
  36   2.0000      -0.296585        -8.0705
  37   0.0000       0.013609         0.3703
  38   0.0000       0.014901         0.4055
  39   0.0000       0.053484         1.4554
  40   0.0000       0.131103         3.5675
  41   0.0000       0.140623         3.8266

MULLIKEN ATOMIC CHARGES
-----------------------
   0 C :   -0.223021
   1 H :    0.225260
   2 C :   -0.221204
   3 H :    0.238584
   4 C :   -0.229901
   5 H :    0.223407
   6 C :   -0.226248
   7 H :    0.223733
   8 C :   -0.230115
   9 H :    0.222758
  10 C :   -0.225442
  11 H :    0.222512
  12 C :    0.514992
  13 O :   -0.400287
  14 O :   -0.587338
  15 H :    0.436281
  16 C :   -0.742812
  17 H :    0.250939
  18 H :    0.280675
  19 H :    0.247226
Sum of atomic charges:    0.0000000

LOEWDIN ATOMIC CHARGES
----------------------
   0 C :   -0.136214
   1 H :    0.138027
   2 C :   -0.130548
   3 H :    0.144043
   4 C :   -0.139198
   5 H :    0.136928
   6 C :   -0.138850
   7 H :    0.137497
   8 C :   -0.142544
   9 H :    0.136661
  10 C :   -0.138843
  11 H :    0.136631
  12 C :    0.134778
  13 O :   -0.238370
  14 O :   -0.309746
  15 H :    0.328480
  16 C :   -0.389699
  17 H :    0.150448
  18 H :    0.169345
  19 H :    0.151173

  Mayer bond orders larger than 0.100000
B(  0-C ,  1-H ) :   0.9186 B(  0-C ,  2-C ) :   1.4239 B(  0-C , 10-C ) :   1.4236
B(  2-C ,  3-H ) :   0.9128 B(  2-C ,  4-C ) :   1.4248 B(  4-C ,  5-H ) :   0.9189
B(  4-C ,  6-C ) :   1.4236 B(  6-C ,  7-H ) :   0.9195 B(  6-C ,  8-C ) :   1.4236
B(  8-C ,  9-H ) :   0.9197 B(  8-C , 10-C ) :   1.4231 B( 10-C , 11-H ) :   0.9197
B( 12-C , 13-O ) :   2.0592 B( 12-C , 14-O ) :   1.1290 B( 12-C , 16-C ) :   0.9444
B( 14-O , 15-H ) :   0.7658 B( 16-C , 17-H ) :   0.9202 B( 16-C , 18-H ) :   0.8855
B( 16-C , 19-H ) :   0.9063

Dispersion correction           -0.011194903
FINAL SINGLE POINT ENERGY      -460.333948937651

DIPOLE MOMENT
-------------
                                X             Y             Z
Electronic contribution:      2.63628      -2.34129       1.75553
Nuclear contribution   :     -3.21691       2.20491      -1.88702
                        -----------------------------------------
Total Dipole Moment    :     -0.58063      -0.13638      -0.13149
                        -----------------------------------------
Magnitude (a.u.)       :      0.61075
Magnitude (Debye)      :      1.55241

Rotational constants in cm-1:     0.071818     0.026756     0.025622
Rotational constants in MHz :  2153.039679   802.111984   768.132891

                             ****ORCA TERMINATED NORMALLY****
TOTAL RUN TIME: 0 days 0 hours 2 minutes 8 seconds 926 msec
