                         Program Version 5.0.3 -  RELEASE  -
|  1> ! PBEh-3c def2/J TightSCF DefGrid3
|  2>
|  3> %maxcore 60000
|  4>
|  5> %pal
|  6> nprocs 4
|  7> end
|  8>
|  9> *xyzfile 0 1 o3_c2h4_add.xyz
| 10>
| 11>                          ****END OF INPUT****

CARTESIAN COORDINATES (ANGSTROEM)
---------------------------------
  O     -0.601558   -1.625900    0.000000
  O      0.071608   -1.060945    1.090104
  O      0.071608   -1.060945   -1.090104
  C      0.071608    0.318054    0.770642
  C      0.071608    0.318054   -0.770642
  H     -0.815193    0.815433    1.167661
  H     -0.815193    0.815433   -1.167661
  H      0.972756    0.740409    1.209386
  H      0.972756    0.740409   -1.209386

 Total Charge           Charge          ....    0
 Multiplicity           Mult            ....    1
 Number of Electrons    NEL             ....   40
 Basis Dimension        Dim             ....   83

ORBITAL ENERGIES
----------------

  NO   OCC          E(Eh)            E(eV)
   0   2.0000     -19.613489      -533.7102
   1   2.0000     -19.569156      -532.5038
   2   2.0000     -19.569011      -532.4999
   3   2.0000     -10.511379      -286.0292
   4   2.0000     -10.511194      -286.0241
   5   2.0000      -1.337329       -36.3906
   6   2.0000      -1.143593       -31.1187
   7   2.0000      -0.988150       -26.8889
   8   2.0000      -0.798780       -21.7359
   9   2.0000      -0.740161       -20.1408
  10   2.0000      -0.607180       -16.5222
  11   2.0000      -0.600498       -16.3404
  12   2.0000      -0.574252       -15.6262
  13   2.0000      -0.538075       -14.6418
  14   2.0000      -0.494373       -13.4526
  15   2.0000      -0.443989       -12.0816
  16   2.0000      -0.442268       -12.0347
  17   2.0000      -0.419017       -11.4020
  18   2.0000      -0.358073        -9.7437
  19   2.0000      -0.315585        -8.5875
  20   0.0000       0.090312         2.4575
  21   0.0000       0.100454         2.7335
  22   0.0000       0.109177         2.9709
  23   0.0000       0.160421         4.3653
  24   0.0000       0.170546         4.6408

MULLIKEN ATOMIC CHARGES
-----------------------
   0 O :   -0.052601
   1 O :   -0.241251
   2 O :   -0.241251
   3 C :   -0.185972
   4 C :   -0.185972
   5 H :    0.219643
   6 H :    0.219643
   7 H :    0.233880
   8 H :    0.233880
Sum of atomic charges:   -0.0000000

LOEWDIN ATOMIC CHARGES
----------------------
   0 O :   -0.009147
   1 O :   -0.125692
   2 O :   -0.125692
   3 C :   -0.120819
   4 C :   -0.120819
   5 H :    0.117829
   6 H :    0.117829
   7 H :    0.133255
   8 H :    0.133255

  Mayer bond orders larger than 0.100000
B(  0-O ,  1-O ) :   0.9649 B(  0-O ,  2-O ) :   0.9649 B(  1-O ,  3-C ) :   0.9626
B(  2-O ,  4-C ) :   0.9626 B(  3-C ,  4-C ) :   0.9295 B(  3-C ,  5-H ) :   0.9036
B(  3-C ,  7-H ) :   0.9108 B(  4-C ,  6-H ) :   0.9036 B(  4-C ,  8-H ) :   0.9108

Dispersion correction           -0.002906106
FINAL SINGLE POINT ENERGY      -303.446654055840

DIPOLE MOMENT
-------------
                                X             Y             Z
Electronic contribution:     -0.43271      -3.92850      -0.00000
Nuclear contribution   :      0.55324       5.31954       0.00000
                        -----------------------------------------
Total Dipole Moment    :      0.12054       1.39104      -0.00000
                        -----------------------------------------
Magnitude (a.u.)       :      1.39625
Magnitude (Debye)      :      3.54899

Rotational constants in cm-1:     0.279406     0.261326     0.150782
Rotational constants in MHz :  8376.366705  7834.360412  4520.332259

                             ****ORCA TERMINATED NORMALLY****
TOTAL RUN TIME: 0 days 0 hours 0 minutes 52 seconds 417 msec
