                         Program Version 5.0.3 -  RELEASE  -
|  1> ! PBEh-3c def2/J TightSCF DefGrid3
|  2>
|  3> %maxcore 60000
|  4>
|  5> %pal
|  6> nprocs 4
|  7> end
|  8>
|  9> *xyzfile 0 1 GLY_aR.xyz
| 10>
| 11>                          ****END OF INPUT****

CARTESIAN COORDINATES (ANGSTROEM)
---------------------------------
  H      1.986271   -3.306158   -1.718023
  C      2.693863   -3.013766   -0.937954
  H      3.686719   -2.888548   -1.377238
  H      2.730123   -3.829590   -0.209491
  C      2.173353   -1.768115   -0.246853
  O      0.995392   -1.657352    0.092285
  N      3.082272   -0.767311   -0.040952
  H      4.053679   -0.976946   -0.226555
  C      2.812455    0.368228    0.850346
  H      2.593553   -0.000702    1.858665
  C      4.029062    1.296292    0.895548
  H      4.263599    1.696743   -0.095510
  H      3.823607    2.135376    1.564519
  H      4.909285    0.768179    1.278689
  C      1.541114    1.142338    0.451950
  O      0.756466    1.533461    1.303081
  N      1.422321    1.446727   -0.869563
  H      2.062800    1.012561   -1.517982
  C      0.273268    2.184893   -1.380756
  H      0.234530    3.181232   -0.934931
  H      0.392344    2.289333   -2.462654
  C     -1.100440    1.545508   -1.089665
  O     -2.056783    2.244556   -0.800171
  N     -1.191151    0.204899   -1.354033
  H     -0.327431   -0.324498   -1.314193
  C     -2.410478   -0.539352   -1.021468
  H     -3.240289   -0.060973   -1.544842
  C     -2.270047   -1.993447   -1.477058
  H     -1.428144   -2.481775   -0.976130
  H     -3.182891   -2.544167   -1.232339
  H     -2.115029   -2.044688   -2.559338
  C     -2.823190   -0.464818    0.468610
  O     -4.004396   -0.338647    0.772350
  N     -1.821056   -0.681935    1.364532
  H     -0.865418   -0.686751    1.035143
  C     -2.033452   -0.558466    2.795142
  H     -3.103907   -0.428316    2.960707
  H     -1.696413   -1.459442    3.321382
  H     -1.496588    0.307645    3.197495

 Total Charge           Charge          ....    0
 Multiplicity           Mult            ....    1
 Number of Electrons    NEL             ....  146
 Basis Dimension        Dim             ....  325

ORBITAL ENERGIES
----------------

  NO   OCC          E(Eh)            E(eV)
   0   2.0000     -19.502202      -530.6819
   1   2.0000     -19.476422      -529.9804
   2   2.0000     -19.451264      -529.2958
   3   2.0000     -19.425110      -528.5841
   4   2.0000     -14.706374      -400.1808
   5   2.0000     -14.684150      -399.5760
   6   2.0000     -14.650793      -398.6683
   7   2.0000     -14.628549      -398.0630
   8   2.0000     -10.592786      -288.2444
   9   2.0000     -10.566588      -287.5315
  10   2.0000     -10.540603      -286.8244
  11   2.0000     -10.522159      -286.3225
  12   2.0000     -10.515843      -286.1506
  13   2.0000     -10.491155      -285.4788
  14   2.0000     -10.477920      -285.1187
  15   2.0000     -10.473183      -284.9898
  16   2.0000     -10.471383      -284.9408
  17   2.0000     -10.437578      -284.0209
  18   2.0000     -10.428220      -283.7663
  19   2.0000      -1.183602       -32.2074
  20   2.0000      -1.160698       -31.5842
  21   2.0000      -1.134546       -30.8726
  22   2.0000      -1.107092       -30.1255
  23   2.0000      -1.064567       -28.9683
  24   2.0000      -1.039000       -28.2726
  25   2.0000      -1.011625       -27.5277
  26   2.0000      -0.982646       -26.7392
  27   2.0000      -0.904995       -24.6262
  28   2.0000      -0.854240       -23.2451
  29   2.0000      -0.848348       -23.0847
  30   2.0000      -0.815373       -22.1874
  31   2.0000      -0.762269       -20.7424
  32   2.0000      -0.754183       -20.5224
  33   2.0000      -0.706116       -19.2144
  34   2.0000      -0.701328       -19.0841
  35   2.0000      -0.675929       -18.3930
  36   2.0000      -0.648069       -17.6348
  37   2.0000      -0.619662       -16.8619
  38   2.0000      -0.615651       -16.7527
  39   2.0000      -0.604600       -16.4520
  40   2.0000      -0.585872       -15.9424
  41   2.0000      -0.577659       -15.7189
  42   2.0000      -0.552166       -15.0252
  43   2.0000      -0.539742       -14.6871
  44   2.0000      -0.534083       -14.5331
  45   2.0000      -0.521138       -14.1809
  46   2.0000      -0.512595       -13.9484
  47   2.0000      -0.508741       -13.8435
  48   2.0000      -0.499302       -13.5867
  49   2.0000      -0.491461       -13.3733
  50   2.0000      -0.489224       -13.3125
  51   2.0000      -0.478403       -13.0180
  52   2.0000      -0.473740       -12.8911
  53   2.0000      -0.471324       -12.8254
  54   2.0000      -0.466814       -12.7027
  55   2.0000      -0.462959       -12.5977
  56   2.0000      -0.457066       -12.4374
  57   2.0000      -0.449253       -12.2248
  58   2.0000      -0.439820       -11.9681
  59   2.0000      -0.432250       -11.7621
  60   2.0000      -0.426963       -11.6183
  61   2.0000      -0.418481       -11.3874
  62   2.0000      -0.410200       -11.1621
  63   2.0000      -0.396069       -10.7776
  64   2.0000      -0.382943       -10.4204
  65   2.0000      -0.358146        -9.7457
  66   2.0000      -0.349208        -9.5024
  67   2.0000      -0.336649        -9.1607
  68   2.0000      -0.321481        -8.7479
  69   2.0000      -0.313901        -8.5417
  70   2.0000      -0.292132        -7.9493
  71   2.0000      -0.268570        -7.3082
  72   2.0000      -0.267191        -7.2706
  73   0.0000       0.012791         0.3480
  74   0.0000       0.036363         0.9895
  75   0.0000       0.058297         1.5863
  76   0.0000       0.081609         2.2207
  77   0.0000       0.090499         2.4626

MULLIKEN ATOMIC CHARGES
-----------------------
   0 H :    0.269836
   1 C :   -0.751500
   2 H :    0.221375
   3 H :    0.270230
   4 C :    0.542559
   5 O :   -0.445999
   6 N :   -0.650281
   7 H :    0.365392
   8 C :   -0.179250
   9 H :    0.282031
  10 C :   -0.674180
  11 H :    0.224625
  12 H :    0.270222
  13 H :    0.230505
  14 C :    0.542184
  15 O :   -0.401937
  16 N :   -0.644079
  17 H :    0.360584
  18 C :   -0.383761
  19 H :    0.281828
  20 H :    0.247098
  21 C :    0.522653
  22 O :   -0.395447
  23 N :   -0.651464
  24 H :    0.367200
  25 C :   -0.177113
  26 H :    0.279352
  27 C :   -0.677098
  28 H :    0.230176
  29 H :    0.249481
  30 H :    0.222256
  31 C :    0.536734
  32 O :   -0.430878
  33 N :   -0.641277
  34 H :    0.390323
  35 C :   -0.492078
  36 H :    0.256688
  37 H :    0.202833
  38 H :    0.230178
Sum of atomic charges:    0.0000000

LOEWDIN ATOMIC CHARGES
----------------------
   0 H :    0.162469
   1 C :   -0.388352
   2 H :    0.132612
   3 H :    0.164940
   4 C :    0.120640
   5 O :   -0.281480
   6 N :   -0.245329
   7 H :    0.258348
   8 C :   -0.088697
   9 H :    0.149448
  10 C :   -0.354670
  11 H :    0.132696
  12 H :    0.156756
  13 H :    0.133130
  14 C :    0.103206
  15 O :   -0.246910
  16 N :   -0.244892
  17 H :    0.254521
  18 C :   -0.168878
  19 H :    0.156304
  20 H :    0.145426
  21 C :    0.103133
  22 O :   -0.239665
  23 N :   -0.251069
  24 H :    0.250688
  25 C :   -0.089675
  26 H :    0.153212
  27 C :   -0.358426
  28 H :    0.133607
  29 H :    0.146012
  30 H :    0.128855
  31 C :    0.108996
  32 O :   -0.280188
  33 N :   -0.247465
  34 H :    0.256132
  35 C :   -0.255790
  36 H :    0.149323
  37 H :    0.114310
  38 H :    0.126720

  Mayer bond orders larger than 0.100000
B(  0-H ,  1-C ) :   0.9054 B(  1-C ,  2-H ) :   0.9188 B(  1-C ,  3-H ) :   0.9002
B(  1-C ,  4-C ) :   0.9297 B(  4-C ,  5-O ) :   1.8998 B(  4-C ,  6-N ) :   1.1438
B(  6-N ,  7-H ) :   0.8187 B(  6-N ,  8-C ) :   0.8939 B(  8-C ,  9-H ) :   0.8839
B(  8-C , 10-C ) :   0.9823 B(  8-C , 14-C ) :   0.9002 B( 10-C , 11-H ) :   0.9163
B( 10-C , 12-H ) :   0.9088 B( 10-C , 13-H ) :   0.9175 B( 14-C , 15-O ) :   1.9977
B( 14-C , 16-N ) :   1.1025 B( 16-N , 17-H ) :   0.8189 B( 16-N , 18-C ) :   0.9305
B( 18-C , 19-H ) :   0.8943 B( 18-C , 20-H ) :   0.9089 B( 18-C , 21-C ) :   0.8982
B( 21-C , 22-O ) :   2.0159 B( 21-C , 23-N ) :   1.1124 B( 23-N , 24-H ) :   0.7891
B( 23-N , 25-C ) :   0.9159 B( 25-C , 26-H ) :   0.8870 B( 25-C , 27-C ) :   0.9817
B( 25-C , 31-C ) :   0.8979 B( 27-C , 28-H ) :   0.9089 B( 27-C , 29-H ) :   0.9167
B( 27-C , 30-H ) :   0.9238 B( 31-C , 32-O ) :   1.9833 B( 31-C , 33-N ) :   1.1349
B( 32-O , 33-N ) :   0.1001 B( 33-N , 34-H ) :   0.7704 B( 33-N , 35-C ) :   0.9633
B( 35-C , 36-H ) :   0.9026 B( 35-C , 37-H ) :   0.9259 B( 35-C , 38-H ) :   0.9159

Dispersion correction           -0.026330022
FINAL SINGLE POINT ENERGY      -949.163308548417

DIPOLE MOMENT
-------------
                                X             Y             Z
Electronic contribution:     -7.30180       7.48218      -0.45048
Nuclear contribution   :     12.40360      -9.01783      -0.87840
                        -----------------------------------------
Total Dipole Moment    :      5.10180      -1.53565      -1.32888
                        -----------------------------------------
Magnitude (a.u.)       :      5.49113
Magnitude (Debye)      :     13.95734

Rotational constants in cm-1:     0.016916     0.009035     0.008022
Rotational constants in MHz :   507.136776   270.867858   240.483387

                             ****ORCA TERMINATED NORMALLY****
TOTAL RUN TIME: 0 days 0 hours 5 minutes 43 seconds 175 msec
