                         Program Version 5.0.3 -  RELEASE  -
|  1> ! PBEh-3c def2/J TightSCF DefGrid3
|  2>
|  3> %maxcore 60000
|  4>
|  5> %pal
|  6> nprocs 4
|  7> end
|  8>
|  9> *xyzfile 0 1 B39.xyz
| 10>
| 11>                          ****END OF INPUT****

CARTESIAN COORDINATES (ANGSTROEM)
---------------------------------
  C     -1.397008   -0.048950    0.485780
  H     -1.586351    0.704003    1.251552
  O     -2.682405   -0.424030   -0.004304
  C     -0.508624    0.529414   -0.608179
  H     -0.310133   -0.246312   -1.351055
  H     -1.063670    1.324296   -1.108944
  C      0.820427    1.081849   -0.087554
  H      0.635153    1.876862    0.641125
  H      1.363702    1.544963   -0.916412
  H     -2.547897   -1.135172   -0.636611
  H     -0.909796   -0.900188    0.968367
  C      1.719687    0.035068    0.564858
  H      2.660852    0.498949    0.874434
  H      1.252176   -0.374478    1.458330
  O      1.964141   -1.089096   -0.278454
  H      2.445186   -0.772201   -1.048154

 Total Charge           Charge          ....    0
 Multiplicity           Mult            ....    1
 Number of Electrons    NEL             ....   50
 Basis Dimension        Dim             ....  110

ORBITAL ENERGIES
----------------

  NO   OCC          E(Eh)            E(eV)
   0   2.0000     -19.490201      -530.3553
   1   2.0000     -19.479869      -530.0742
   2   2.0000     -10.484672      -285.3024
   3   2.0000     -10.475780      -285.0605
   4   2.0000     -10.441023      -284.1147
   5   2.0000     -10.431527      -283.8563
   6   2.0000      -1.125960       -30.6389
   7   2.0000      -1.116247       -30.3746
   8   2.0000      -0.884171       -24.0595
   9   2.0000      -0.792710       -21.5707
  10   2.0000      -0.720585       -19.6081
  11   2.0000      -0.658164       -17.9096
  12   2.0000      -0.568788       -15.4775
  13   2.0000      -0.561315       -15.2741
  14   2.0000      -0.536483       -14.5984
  15   2.0000      -0.504379       -13.7249
  16   2.0000      -0.488053       -13.2806
  17   2.0000      -0.474483       -12.9113
  18   2.0000      -0.428720       -11.6661
  19   2.0000      -0.420110       -11.4318
  20   2.0000      -0.403652       -10.9839
  21   2.0000      -0.378647       -10.3035
  22   2.0000      -0.370298       -10.0763
  23   2.0000      -0.329239        -8.9591
  24   2.0000      -0.317280        -8.6336
  25   0.0000       0.114225         3.1082
  26   0.0000       0.130583         3.5533
  27   0.0000       0.170667         4.6441
  28   0.0000       0.172424         4.6919
  29   0.0000       0.185243         5.0407

MULLIKEN ATOMIC CHARGES
-----------------------
   0 C :   -0.142405
   1 H :    0.201959
   2 O :   -0.624622
   3 C :   -0.451668
   4 H :    0.208054
   5 H :    0.230854
   6 C :   -0.477859
   7 H :    0.214615
   8 H :    0.212219
   9 H :    0.409237
  10 H :    0.189269
  11 C :   -0.165671
  12 H :    0.197219
  13 H :    0.211831
  14 O :   -0.622887
  15 H :    0.409855
Sum of atomic charges:   -0.0000000

LOEWDIN ATOMIC CHARGES
----------------------
   0 C :   -0.095748
   1 H :    0.115949
   2 O :   -0.411326
   3 C :   -0.268820
   4 H :    0.122807
   5 H :    0.131347
   6 C :   -0.267706
   7 H :    0.128569
   8 H :    0.121890
   9 H :    0.306523
  10 H :    0.101675
  11 C :   -0.098462
  12 H :    0.102588
  13 H :    0.117929
  14 O :   -0.413526
  15 H :    0.306311

  Mayer bond orders larger than 0.100000
B(  0-C ,  1-H ) :   0.9141 B(  0-C ,  2-O ) :   1.0178 B(  0-C ,  3-C ) :   0.9798
B(  0-C , 10-H ) :   0.9075 B(  2-O ,  9-H ) :   0.7952 B(  3-C ,  4-H ) :   0.9120
B(  3-C ,  5-H ) :   0.9138 B(  3-C ,  6-C ) :   0.9652 B(  6-C ,  7-H ) :   0.9095
B(  6-C ,  8-H ) :   0.9226 B(  6-C , 11-C ) :   0.9642 B( 11-C , 12-H ) :   0.9131
B( 11-C , 13-H ) :   0.9135 B( 11-C , 14-O ) :   1.0129 B( 14-O , 15-H ) :   0.7954

Dispersion correction           -0.006698851
FINAL SINGLE POINT ENERGY      -308.206957449995

DIPOLE MOMENT
-------------
                                X             Y             Z
Electronic contribution:     -1.21182      -2.25169      -0.54202
Nuclear contribution   :      2.00880       2.60164       0.13355
                        -----------------------------------------
Total Dipole Moment    :      0.79698       0.34995      -0.40847
                        -----------------------------------------
Magnitude (a.u.)       :      0.96150
Magnitude (Debye)      :      2.44395

Rotational constants in cm-1:     0.226814     0.056395     0.051745
Rotational constants in MHz :  6799.723900  1690.674689  1551.283076

                             ****ORCA TERMINATED NORMALLY****
TOTAL RUN TIME: 0 days 0 hours 1 minutes 28 seconds 78 msec
