                         Program Version 5.0.3 -  RELEASE  -
|  1> ! PBEh-3c def2/J TightSCF DefGrid3
|  2>
|  3> %maxcore 60000
|  4>
|  5> %pal
|  6> nprocs 4
|  7> end
|  8>
|  9> *xyzfile 0 1 43.xyz
| 10>
| 11>                          ****END OF INPUT****

CARTESIAN COORDINATES (ANGSTROEM)
---------------------------------
  N     -1.115204    2.767675    0.101994
  C      0.161274    2.390613    0.461424
  C      0.251321    1.017491    0.504864
  C     -1.048733    0.519311    0.150582
  C     -1.588721   -0.775482    0.029742
  C     -2.916465   -0.907119   -0.337291
  C     -3.728664    0.221730   -0.587295
  C     -3.222997    1.506277   -0.466121
  C     -1.880030    1.641021   -0.093107
  H     -1.437307    3.714099    0.016157
  H      0.914680    3.133272    0.669580
  H     -0.997128   -1.664386    0.206756
  H     -4.753606    0.064293   -0.894996
  H     -3.846549    2.368657   -0.663675
  O     -3.447147   -2.173766   -0.505028
  C     -4.286679   -2.562167    0.579467
  H     -5.131882   -1.879634    0.691439
  H     -3.723170   -2.586675    1.515275
  H     -4.654654   -3.558345    0.348498
  C      1.469751    0.202213    0.803841
  C      2.066819   -0.414068   -0.472252
  N      3.224645   -1.253109   -0.225264
  C      4.530897   -0.851488   -0.142965
  C      4.833865    0.563882   -0.595601
  H      1.224753   -0.604407    1.500186
  H      2.226689    0.819692    1.291894
  H      2.339667    0.379634   -1.165271
  H      1.307881   -1.015671   -0.973856
  H      3.069368   -2.182128    0.134136
  O      5.407903   -1.610171    0.243904
  H      5.893403    0.740279   -0.442869
  H      4.259402    1.298530   -0.032108
  H      4.596619    0.689955   -1.652030

 Total Charge           Charge          ....    0
 Multiplicity           Mult            ....    1
 Number of Electrons    NEL             ....  124
 Basis Dimension        Dim             ....  287

ORBITAL ENERGIES
----------------

  NO   OCC          E(Eh)            E(eV)
   0   2.0000     -19.507690      -530.8312
   1   2.0000     -19.446117      -529.1558
   2   2.0000     -14.692036      -399.7906
   3   2.0000     -14.652647      -398.7188
   4   2.0000     -10.541845      -286.8582
   5   2.0000     -10.497487      -285.6511
   6   2.0000     -10.486377      -285.3488
   7   2.0000     -10.485661      -285.3293
   8   2.0000     -10.482795      -285.2514
   9   2.0000     -10.481507      -285.2163
  10   2.0000     -10.458210      -284.5824
  11   2.0000     -10.451966      -284.4125
  12   2.0000     -10.451671      -284.4044
  13   2.0000     -10.449119      -284.3350
  14   2.0000     -10.448662      -284.3225
  15   2.0000     -10.447650      -284.2950
  16   2.0000     -10.437844      -284.0282
  17   2.0000      -1.156088       -31.4588
  18   2.0000      -1.132238       -30.8098
  19   2.0000      -1.094414       -29.7805
  20   2.0000      -1.017310       -27.6824
  21   2.0000      -0.942719       -25.6527
  22   2.0000      -0.905407       -24.6374
  23   2.0000      -0.846325       -23.0297
  24   2.0000      -0.833386       -22.6776
  25   2.0000      -0.823972       -22.4214
  26   2.0000      -0.807960       -21.9857
  27   2.0000      -0.769232       -20.9319
  28   2.0000      -0.732513       -19.9327
  29   2.0000      -0.704308       -19.1652
  30   2.0000      -0.672242       -18.2926
  31   2.0000      -0.646269       -17.5859
  32   2.0000      -0.636793       -17.3280
  33   2.0000      -0.617049       -16.7907
  34   2.0000      -0.572916       -15.5898
  35   2.0000      -0.561668       -15.2838
  36   2.0000      -0.559962       -15.2373
  37   2.0000      -0.545693       -14.8491
  38   2.0000      -0.526057       -14.3147
  39   2.0000      -0.519726       -14.1425
  40   2.0000      -0.514503       -14.0003
  41   2.0000      -0.505544       -13.7565
  42   2.0000      -0.499600       -13.5948
  43   2.0000      -0.491235       -13.3672
  44   2.0000      -0.483026       -13.1438
  45   2.0000      -0.473850       -12.8941
  46   2.0000      -0.461907       -12.5691
  47   2.0000      -0.457498       -12.4492
  48   2.0000      -0.454518       -12.3681
  49   2.0000      -0.452948       -12.3253
  50   2.0000      -0.441317       -12.0088
  51   2.0000      -0.416265       -11.3271
  52   2.0000      -0.408884       -11.1263
  53   2.0000      -0.406515       -11.0618
  54   2.0000      -0.396118       -10.7789
  55   2.0000      -0.379669       -10.3313
  56   2.0000      -0.330203        -8.9853
  57   2.0000      -0.328594        -8.9415
  58   2.0000      -0.299929        -8.1615
  59   2.0000      -0.293641        -7.9904
  60   2.0000      -0.259786        -7.0691
  61   2.0000      -0.246933        -6.7194
  62   0.0000      -0.000731        -0.0199
  63   0.0000       0.044809         1.2193
  64   0.0000       0.066495         1.8094
  65   0.0000       0.085648         2.3306
  66   0.0000       0.113699         3.0939

MULLIKEN ATOMIC CHARGES
-----------------------
   0 N :   -0.701209
   1 C :   -0.058087
   2 C :    0.024841
   3 C :    0.072653
   4 C :   -0.434458
   5 C :    0.362664
   6 C :   -0.312567
   7 C :   -0.261973
   8 C :    0.368060
   9 H :    0.360365
  10 H :    0.239796
  11 H :    0.212311
  12 H :    0.229232
  13 H :    0.216089
  14 O :   -0.485720
  15 C :   -0.377408
  16 H :    0.198357
  17 H :    0.203245
  18 H :    0.221325
  19 C :   -0.533718
  20 C :   -0.277381
  21 N :   -0.609899
  22 C :    0.496301
  23 C :   -0.780512
  24 H :    0.229519
  25 H :    0.229226
  26 H :    0.235732
  27 H :    0.251220
  28 H :    0.358362
  29 O :   -0.418720
  30 H :    0.272259
  31 H :    0.227581
  32 H :    0.242514
Sum of atomic charges:   -0.0000000

LOEWDIN ATOMIC CHARGES
----------------------
   0 N :   -0.156687
   1 C :   -0.081919
   2 C :   -0.106084
   3 C :   -0.055260
   4 C :   -0.153539
   5 C :    0.043624
   6 C :   -0.158304
   7 C :   -0.152061
   8 C :    0.013587
   9 H :    0.262690
  10 H :    0.135754
  11 H :    0.142337
  12 H :    0.142763
  13 H :    0.137645
  14 O :   -0.220221
  15 C :   -0.172365
  16 H :    0.107935
  17 H :    0.110888
  18 H :    0.124653
  19 C :   -0.236630
  20 C :   -0.147343
  21 N :   -0.245560
  22 C :    0.106418
  23 C :   -0.398295
  24 H :    0.134097
  25 H :    0.132497
  26 H :    0.132152
  27 H :    0.132767
  28 H :    0.257976
  29 O :   -0.274668
  30 H :    0.156281
  31 H :    0.138121
  32 H :    0.146752

  Mayer bond orders larger than 0.100000
B(  0-N ,  1-C ) :   1.1354 B(  0-N ,  8-C ) :   1.0132 B(  0-N ,  9-H ) :   0.8324
B(  1-C ,  2-C ) :   1.5584 B(  1-C , 10-H ) :   0.9110 B(  2-C ,  3-C ) :   1.2352
B(  2-C , 19-C ) :   0.9447 B(  3-C ,  4-C ) :   1.2370 B(  3-C ,  8-C ) :   1.2429
B(  4-C ,  5-C ) :   1.4865 B(  4-C , 11-H ) :   0.9308 B(  5-C ,  6-C ) :   1.3179
B(  5-C , 14-O ) :   0.9548 B(  6-C ,  7-C ) :   1.4854 B(  6-C , 12-H ) :   0.9118
B(  7-C ,  8-C ) :   1.2888 B(  7-C , 13-H ) :   0.9202 B( 14-O , 15-C ) :   0.9509
B( 15-C , 16-H ) :   0.9118 B( 15-C , 17-H ) :   0.9123 B( 15-C , 18-H ) :   0.9281
B( 19-C , 20-C ) :   0.9447 B( 19-C , 24-H ) :   0.9180 B( 19-C , 25-H ) :   0.9255
B( 20-C , 21-N ) :   0.9535 B( 20-C , 26-H ) :   0.9067 B( 20-C , 27-H ) :   0.9083
B( 21-N , 22-C ) :   1.1526 B( 21-N , 28-H ) :   0.8231 B( 22-C , 23-C ) :   0.9266
B( 22-C , 29-O ) :   2.0325 B( 23-C , 30-H ) :   0.9157 B( 23-C , 31-H ) :   0.9097
B( 23-C , 32-H ) :   0.9088

Dispersion correction           -0.021091228
FINAL SINGLE POINT ENERGY      -763.320854294475

DIPOLE MOMENT
-------------
                                X             Y             Z
Electronic contribution:     -3.01133       1.49869      -0.79118
Nuclear contribution   :      1.38805       0.26730       0.98554
                        -----------------------------------------
Total Dipole Moment    :     -1.62328       1.76600       0.19436
                        -----------------------------------------
Magnitude (a.u.)       :      2.40657
Magnitude (Debye)      :      6.11700

Rotational constants in cm-1:     0.027249     0.007077     0.005821
Rotational constants in MHz :   816.907834   212.148469   174.517680

                             ****ORCA TERMINATED NORMALLY****
TOTAL RUN TIME: 0 days 0 hours 4 minutes 16 seconds 691 msec
