                         Program Version 5.0.3 -  RELEASE  -
|  1> ! PBEh-3c def2/J TightSCF DefGrid3
|  2>
|  3> %maxcore 60000
|  4>
|  5> %pal
|  6> nprocs 4
|  7> end
|  8>
|  9> *xyzfile 0 1 3CL_A.xyz
| 10>
| 11>                          ****END OF INPUT****

CARTESIAN COORDINATES (ANGSTROEM)
---------------------------------
  Cl     0.000000    0.000000   -0.646633
  H      0.000000    0.000000    0.646633

 Total Charge           Charge          ....    0
 Multiplicity           Mult            ....    1
 Number of Electrons    NEL             ....   18
 Basis Dimension        Dim             ....   20

ORBITAL ENERGIES
----------------

  NO   OCC          E(Eh)            E(eV)
   0   2.0000    -102.299066     -2783.6991
   1   2.0000      -9.767792      -265.7951
   2   2.0000      -7.455703      -202.8800
   3   2.0000      -7.446898      -202.6404
   4   2.0000      -7.446898      -202.6404
   5   2.0000      -0.925316       -25.1791
   6   2.0000      -0.520497       -14.1634
   7   2.0000      -0.375139       -10.2080
   8   2.0000      -0.375139       -10.2080
   9   0.0000       0.062083         1.6894
  10   0.0000       0.501093        13.6354
  11   0.0000       0.629664        17.1340
  12   0.0000       0.803843        21.8737
  13   0.0000       0.803843        21.8737

MULLIKEN ATOMIC CHARGES
-----------------------
   0 Cl:   -0.287856
   1 H :    0.287856
Sum of atomic charges:    0.0000000

LOEWDIN ATOMIC CHARGES
----------------------
   0 Cl:   -0.182763
   1 H :    0.182763

  Mayer bond orders larger than 0.100000
B(  0-Cl,  1-H ) :   0.8910

Dispersion correction           -0.000168143
FINAL SINGLE POINT ENERGY      -460.296448233835

DIPOLE MOMENT
-------------
                                X             Y             Z
Electronic contribution:      0.00000      -0.00000      -0.62926
Nuclear contribution   :      0.00000       0.00000       1.22776
                        -----------------------------------------
Total Dipole Moment    :      0.00000      -0.00000       0.59850
                        -----------------------------------------
Magnitude (a.u.)       :      0.59850
Magnitude (Debye)      :      1.52126

Rotational constants in cm-1:     0.000000    10.283391    10.283391
Rotational constants in MHz :     0.000000 308288.319909 308288.319909

                             ****ORCA TERMINATED NORMALLY****
TOTAL RUN TIME: 0 days 0 hours 0 minutes 14 seconds 945 msec
