                         Program Version 5.0.3 -  RELEASE  -
|  1> ! PBEh-3c def2/J TightSCF DefGrid3
|  2>
|  3> %maxcore 60000
|  4>
|  5> %pal
|  6> nprocs 4
|  7> end
|  8>
|  9> *xyzfile 0 1 OPH3.xyz
| 10>
| 11>                          ****END OF INPUT****

CARTESIAN COORDINATES (ANGSTROEM)
---------------------------------
  O      0.000000    0.000000   -1.099908
  P      0.000000    0.000000    0.383100
  H      0.000000    1.261853    1.017586
  H      1.092797   -0.630927    1.017586
  H     -1.092797   -0.630927    1.017586

 Total Charge           Charge          ....    0
 Multiplicity           Mult            ....    1
 Number of Electrons    NEL             ....   26
 Basis Dimension        Dim             ....   39

ORBITAL ENERGIES
----------------

  NO   OCC          E(Eh)            E(eV)
   0   2.0000     -77.821633     -2117.6343
   1   2.0000     -19.445989      -529.1523
   2   2.0000      -6.891240      -187.5202
   3   2.0000      -4.982933      -135.5925
   4   2.0000      -4.982933      -135.5925
   5   2.0000      -4.981852      -135.5631
   6   2.0000      -1.070059       -29.1178
   7   2.0000      -0.724631       -19.7182
   8   2.0000      -0.504859       -13.7379
   9   2.0000      -0.504858       -13.7379
  10   2.0000      -0.440418       -11.9844
  11   2.0000      -0.335260        -9.1229
  12   2.0000      -0.335260        -9.1229
  13   0.0000       0.076023         2.0687
  14   0.0000       0.110682         3.0118
  15   0.0000       0.110682         3.0118
  16   0.0000       0.117749         3.2041
  17   0.0000       0.351140         9.5550

MULLIKEN ATOMIC CHARGES
-----------------------
   0 O :   -0.631746
   1 P :    0.496239
   2 H :    0.045157
   3 H :    0.045175
   4 H :    0.045175
Sum of atomic charges:   -0.0000000

LOEWDIN ATOMIC CHARGES
----------------------
   0 O :   -0.558343
   1 P :    0.573846
   2 H :   -0.005172
   3 H :   -0.005165
   4 H :   -0.005165

  Mayer bond orders larger than 0.100000
B(  0-O ,  1-P ) :   1.8183 B(  1-P ,  2-H ) :   0.8642 B(  1-P ,  3-H ) :   0.8642
B(  1-P ,  4-H ) :   0.8642

Dispersion correction           -0.001209861
FINAL SINGLE POINT ENERGY      -417.794467398071

DIPOLE MOMENT
-------------
                                X             Y             Z
Electronic contribution:      0.00000       0.00001      -1.12836
Nuclear contribution   :      0.00000      -0.00000       2.60822
                        -----------------------------------------
Total Dipole Moment    :      0.00000       0.00001       1.47986
                        -----------------------------------------
Magnitude (a.u.)       :      1.47986
Magnitude (Debye)      :      3.76151

Rotational constants in cm-1:     3.501043     0.575358     0.575358
Rotational constants in MHz : 104958.626324 17248.808806 17248.808586

                             ****ORCA TERMINATED NORMALLY****
TOTAL RUN TIME: 0 days 0 hours 1 minutes 12 seconds 400 msec
