                         Program Version 5.0.3 -  RELEASE  -
|  1> ! PBEh-3c def2/J TightSCF DefGrid3
|  2>
|  3> %maxcore 60000
|  4>
|  5> %pal
|  6> nprocs 4
|  7> end
|  8>
|  9> *xyzfile 0 1 Benzocyclobutane.xyz
| 10>
| 11>                          ****END OF INPUT****

CARTESIAN COORDINATES (ANGSTROEM)
---------------------------------
  H      0.000000    2.526223   -0.866746
  C      0.000000    1.439157   -0.849241
  C      0.000000   -1.439157   -0.849241
  C      0.000000    0.697807    0.323667
  C      0.000000    0.701083   -2.044316
  C      0.000000   -0.701083   -2.044316
  C      0.000000   -0.697807    0.323667
  C      0.000000    0.790511    1.844137
  H      0.000000    1.227787   -2.995395
  H      0.000000   -1.227787   -2.995395
  H      0.888881   -1.247376    2.293947
  H      0.000000   -2.526223   -0.866746
  H     -0.888881    1.247376    2.293947
  H      0.888881    1.247376    2.293947
  H     -0.888881   -1.247376    2.293947
  C      0.000000   -0.790511    1.844137

 Total Charge           Charge          ....    0
 Multiplicity           Mult            ....    1
 Number of Electrons    NEL             ....   56
 Basis Dimension        Dim             ....  136

ORBITAL ENERGIES
----------------

  NO   OCC          E(Eh)            E(eV)
   0   2.0000     -10.448993      -284.3316
   1   2.0000     -10.448884      -284.3286
   2   2.0000     -10.448063      -284.3062
   3   2.0000     -10.448024      -284.3052
   4   2.0000     -10.447131      -284.2809
   5   2.0000     -10.446636      -284.2674
   6   2.0000     -10.446008      -284.2503
   7   2.0000     -10.445461      -284.2354
   8   2.0000      -0.975960       -26.5572
   9   2.0000      -0.899221       -24.4690
  10   2.0000      -0.834300       -22.7025
  11   2.0000      -0.768361       -20.9082
  12   2.0000      -0.719229       -19.5712
  13   2.0000      -0.670083       -18.2339
  14   2.0000      -0.630198       -17.1486
  15   2.0000      -0.574648       -15.6370
  16   2.0000      -0.524572       -14.2743
  17   2.0000      -0.523895       -14.2559
  18   2.0000      -0.505588       -13.7577
  19   2.0000      -0.458712       -12.4822
  20   2.0000      -0.454691       -12.3728
  21   2.0000      -0.420379       -11.4391
  22   2.0000      -0.405280       -11.0282
  23   2.0000      -0.401073       -10.9138
  24   2.0000      -0.375548       -10.2192
  25   2.0000      -0.364634        -9.9222
  26   2.0000      -0.287640        -7.8271
  27   2.0000      -0.275587        -7.4991
  28   0.0000       0.015873         0.4319
  29   0.0000       0.028514         0.7759
  30   0.0000       0.142010         3.8643
  31   0.0000       0.160480         4.3669
  32   0.0000       0.166796         4.5388

MULLIKEN ATOMIC CHARGES
-----------------------
   0 H :    0.212544
   1 C :   -0.327709
   2 C :   -0.327711
   3 C :    0.136641
   4 C :   -0.221852
   5 C :   -0.221851
   6 C :    0.136641
   7 C :   -0.485484
   8 H :    0.217462
   9 H :    0.217463
  10 H :    0.234198
  11 H :    0.212544
  12 H :    0.234198
  13 H :    0.234198
  14 H :    0.234198
  15 C :   -0.485483
Sum of atomic charges:   -0.0000000

LOEWDIN ATOMIC CHARGES
----------------------
   0 H :    0.136748
   1 C :   -0.140468
   2 C :   -0.140468
   3 C :   -0.044704
   4 C :   -0.136549
   5 C :   -0.136549
   6 C :   -0.044704
   7 C :   -0.216699
   8 H :    0.134595
   9 H :    0.134595
  10 H :    0.133539
  11 H :    0.136748
  12 H :    0.133539
  13 H :    0.133539
  14 H :    0.133539
  15 C :   -0.216699

  Mayer bond orders larger than 0.100000
B(  0-H ,  1-C ) :   0.9296 B(  1-C ,  2-C ) :   0.1008 B(  1-C ,  3-C ) :   1.3939
B(  1-C ,  4-C ) :   1.4133 B(  2-C ,  5-C ) :   1.4133 B(  2-C ,  6-C ) :   1.3939
B(  2-C , 11-H ) :   0.9296 B(  3-C ,  6-C ) :   1.3748 B(  3-C ,  7-C ) :   0.9698
B(  4-C ,  5-C ) :   1.4382 B(  4-C ,  8-H ) :   0.9207 B(  5-C ,  9-H ) :   0.9207
B(  6-C , 15-C ) :   0.9698 B(  7-C , 12-H ) :   0.9128 B(  7-C , 13-H ) :   0.9128
B(  7-C , 15-C ) :   0.9668 B( 10-H , 15-C ) :   0.9128 B( 14-H , 15-C ) :   0.9128

Dispersion correction           -0.008569513
FINAL SINGLE POINT ENERGY      -308.941543532823

DIPOLE MOMENT
-------------
                                X             Y             Z
Electronic contribution:      0.00000       0.00000      -2.32448
Nuclear contribution   :      0.00000       0.00000       2.51267
                        -----------------------------------------
Total Dipole Moment    :      0.00000       0.00000       0.18818
                        -----------------------------------------
Magnitude (a.u.)       :      0.18818
Magnitude (Debye)      :      0.47833

Rotational constants in cm-1:     0.148351     0.069234     0.048062
Rotational constants in MHz :  4447.442582  2075.594350  1440.858288

                             ****ORCA TERMINATED NORMALLY****
TOTAL RUN TIME: 0 days 0 hours 1 minutes 48 seconds 789 msec
