                         Program Version 5.0.3 -  RELEASE  -
|  1> ! PBEh-3c def2/J TightSCF DefGrid3
|  2>
|  3> %maxcore 60000
|  4>
|  5> %pal
|  6> nprocs 4
|  7> end
|  8>
|  9> *xyzfile 0 1 me2s-cbh22.xyz
| 10>
| 11>                          ****END OF INPUT****

CARTESIAN COORDINATES (ANGSTROEM)
---------------------------------
  C     -0.134674   -1.136336    0.000000
  S      0.621051    0.439663    0.000000
  C     -0.134674    1.353050    1.357432
  C     -0.134674    1.353050   -1.357432
  H     -1.215979    1.281310    1.263418
  H      0.203978    2.386991    1.320639
  H      0.199445    0.874962    2.274534
  H     -1.215979    1.281310   -1.263418
  H      0.199445    0.874962   -2.274534
  H      0.203978    2.386991   -1.320639
  B      0.854333   -2.267230    0.000000
  H      2.036686   -2.065061    0.000000
  H      0.446800   -3.389110    0.000000
  B     -1.630930   -1.234052    0.000000
  H     -2.347921   -0.266843    0.000000
  H     -2.140155   -2.312293    0.000000

 Total Charge           Charge          ....    0
 Multiplicity           Mult            ....    1
 Number of Electrons    NEL             ....   54
 Basis Dimension        Dim             ....  113

ORBITAL ENERGIES
----------------

  NO   OCC          E(Eh)            E(eV)
   0   2.0000     -89.680964     -2440.3431
   1   2.0000     -10.491564      -285.4900
   2   2.0000     -10.491522      -285.4888
   3   2.0000     -10.409961      -283.2694
   4   2.0000      -8.314613      -226.2521
   5   2.0000      -6.925397      -188.4496
   6   2.0000      -6.916078      -188.1960
   7   2.0000      -6.204611      -168.8360
   8   2.0000      -6.203246      -168.7989
   9   2.0000      -6.198516      -168.6702
  10   2.0000      -0.973700       -26.4957
  11   2.0000      -0.829819       -22.5805
  12   2.0000      -0.790524       -21.5113
  13   2.0000      -0.675208       -18.3734
  14   2.0000      -0.570606       -15.5270
  15   2.0000      -0.550521       -14.9804
  16   2.0000      -0.528893       -14.3919
  17   2.0000      -0.525995       -14.3131
  18   2.0000      -0.505558       -13.7569
  19   2.0000      -0.489086       -13.3087
  20   2.0000      -0.461390       -12.5551
  21   2.0000      -0.439948       -11.9716
  22   2.0000      -0.396578       -10.7914
  23   2.0000      -0.347190        -9.4475
  24   2.0000      -0.344193        -9.3660
  25   2.0000      -0.329208        -8.9582
  26   2.0000      -0.277036        -7.5385
  27   0.0000      -0.003978        -0.1082
  28   0.0000       0.037486         1.0201
  29   0.0000       0.075143         2.0447
  30   0.0000       0.096609         2.6289
  31   0.0000       0.105828         2.8797

MULLIKEN ATOMIC CHARGES
-----------------------
   0 C :   -0.446990
   1 S :    0.329454
   2 C :   -0.738045
   3 C :   -0.738045
   4 H :    0.282928
   5 H :    0.256645
   6 H :    0.288871
   7 H :    0.282928
   8 H :    0.288871
   9 H :    0.256645
  10 B :   -0.069564
  11 H :    0.015802
  12 H :    0.036650
  13 B :   -0.084950
  14 H :   -0.009522
  15 H :    0.048322
Sum of atomic charges:   -0.0000000

LOEWDIN ATOMIC CHARGES
----------------------
   0 C :   -0.458082
   1 S :    0.737378
   2 C :   -0.455022
   3 C :   -0.455022
   4 H :    0.157561
   5 H :    0.142982
   6 H :    0.159332
   7 H :    0.157561
   8 H :    0.159332
   9 H :    0.142982
  10 B :   -0.157053
  11 H :   -0.002032
  12 H :    0.016264
  13 B :   -0.152880
  14 H :   -0.017179
  15 H :    0.023879

  Mayer bond orders larger than 0.100000
B(  0-C ,  1-S ) :   1.0128 B(  0-C , 10-B ) :   1.2594 B(  0-C , 13-B ) :   1.2717
B(  1-S ,  2-C ) :   0.9445 B(  1-S ,  3-C ) :   0.9445 B(  2-C ,  4-H ) :   0.8751
B(  2-C ,  5-H ) :   0.8930 B(  2-C ,  6-H ) :   0.8934 B(  3-C ,  7-H ) :   0.8751
B(  3-C ,  8-H ) :   0.8934 B(  3-C ,  9-H ) :   0.8930 B( 10-B , 11-H ) :   0.9874
B( 10-B , 12-H ) :   0.9896 B( 13-B , 14-H ) :   0.9731 B( 13-B , 15-H ) :   0.9855

Dispersion correction           -0.008087723
FINAL SINGLE POINT ENERGY      -567.331303397942

DIPOLE MOMENT
-------------
                                X             Y             Z
Electronic contribution:      3.22813      -1.60388      -0.00000
Nuclear contribution   :     -3.07225       3.92378       0.00000
                        -----------------------------------------
Total Dipole Moment    :      0.15589       2.31991      -0.00000
                        -----------------------------------------
Magnitude (a.u.)       :      2.32514
Magnitude (Debye)      :      5.91003

Rotational constants in cm-1:     0.131237     0.071153     0.069511
Rotational constants in MHz :  3934.389895  2133.115831  2083.884552

                             ****ORCA TERMINATED NORMALLY****
TOTAL RUN TIME: 0 days 0 hours 1 minutes 30 seconds 458 msec
