                         Program Version 5.0.3 -  RELEASE  -
|  1> ! PBEh-3c def2/J TightSCF DefGrid3
|  2>
|  3> %maxcore 60000
|  4>
|  5> %pal
|  6> nprocs 4
|  7> end
|  8>
|  9> *xyzfile 0 1 P8.xyz
| 10>
| 11>                          ****END OF INPUT****

CARTESIAN COORDINATES (ANGSTROEM)
---------------------------------
  C      1.228213    0.191266   -1.062655
  C     -0.134366    0.906630   -0.765610
  C     -0.134366    0.906630    0.765610
  C      1.228213    0.191266    1.062655
  C      1.074158   -1.259239   -0.664467
  C      1.074158   -1.259239    0.664467
  O      2.014280    0.715111    0.000000
  C     -1.382566    0.154572   -1.167992
  C     -1.382566    0.154572    1.167992
  N     -2.030536   -0.206052    0.000000
  O     -1.766902   -0.102330    2.277307
  O     -1.766902   -0.102330   -2.277307
  H      1.667099    0.414734   -2.030813
  H     -0.137846    1.900351   -1.213049
  H     -0.137846    1.900351    1.213049
  H      1.667099    0.414734    2.030813
  H      0.898856   -2.082285   -1.342501
  H      0.898856   -2.082285    1.342501
  H     -2.877038   -0.756457    0.000000

 Total Charge           Charge          ....    0
 Multiplicity           Mult            ....    1
 Number of Electrons    NEL             ....   86
 Basis Dimension        Dim             ....  194

ORBITAL ENERGIES
----------------

  NO   OCC          E(Eh)            E(eV)
   0   2.0000     -19.519933      -531.1644
   1   2.0000     -19.495007      -530.4861
   2   2.0000     -19.494986      -530.4855
   3   2.0000     -14.698076      -399.9550
   4   2.0000     -10.579333      -287.8783
   5   2.0000     -10.579273      -287.8767
   6   2.0000     -10.524681      -286.3911
   7   2.0000     -10.524597      -286.3888
   8   2.0000     -10.480263      -285.1825
   9   2.0000     -10.480030      -285.1761
  10   2.0000     -10.466200      -284.7998
  11   2.0000     -10.465194      -284.7724
  12   2.0000      -1.201405       -32.6919
  13   2.0000      -1.190070       -32.3834
  14   2.0000      -1.173572       -31.9345
  15   2.0000      -1.067135       -29.0382
  16   2.0000      -0.936622       -25.4868
  17   2.0000      -0.889522       -24.2051
  18   2.0000      -0.862279       -23.4638
  19   2.0000      -0.762448       -20.7473
  20   2.0000      -0.724123       -19.7044
  21   2.0000      -0.691179       -18.8079
  22   2.0000      -0.663525       -18.0554
  23   2.0000      -0.648548       -17.6479
  24   2.0000      -0.630809       -17.1652
  25   2.0000      -0.581331       -15.8188
  26   2.0000      -0.565229       -15.3807
  27   2.0000      -0.534576       -14.5465
  28   2.0000      -0.530324       -14.4308
  29   2.0000      -0.507200       -13.8016
  30   2.0000      -0.499316       -13.5871
  31   2.0000      -0.491481       -13.3739
  32   2.0000      -0.483568       -13.1586
  33   2.0000      -0.471514       -12.8305
  34   2.0000      -0.457625       -12.4526
  35   2.0000      -0.447116       -12.1667
  36   2.0000      -0.425363       -11.5747
  37   2.0000      -0.394840       -10.7442
  38   2.0000      -0.359711        -9.7882
  39   2.0000      -0.349929        -9.5221
  40   2.0000      -0.339839        -9.2475
  41   2.0000      -0.325139        -8.8475
  42   2.0000      -0.317498        -8.6396
  43   0.0000      -0.002268        -0.0617
  44   0.0000       0.016557         0.4505
  45   0.0000       0.050066         1.3624
  46   0.0000       0.123432         3.3588
  47   0.0000       0.139087         3.7847

MULLIKEN ATOMIC CHARGES
-----------------------
   0 C :   -0.001635
   1 C :   -0.410850
   2 C :   -0.410848
   3 C :   -0.001636
   4 C :   -0.206625
   5 C :   -0.206624
   6 O :   -0.437960
   7 C :    0.553568
   8 C :    0.553567
   9 N :   -0.674929
  10 O :   -0.356459
  11 O :   -0.356459
  12 H :    0.240678
  13 H :    0.299328
  14 H :    0.299328
  15 H :    0.240678
  16 H :    0.245738
  17 H :    0.245738
  18 H :    0.385405
Sum of atomic charges:    0.0000000

LOEWDIN ATOMIC CHARGES
----------------------
   0 C :    0.016247
   1 C :   -0.169809
   2 C :   -0.169809
   3 C :    0.016247
   4 C :   -0.143083
   5 C :   -0.143083
   6 O :   -0.221276
   7 C :    0.125824
   8 C :    0.125824
   9 N :   -0.196060
  10 O :   -0.208406
  11 O :   -0.208406
  12 H :    0.138012
  13 H :    0.163547
  14 H :    0.163547
  15 H :    0.138012
  16 H :    0.148193
  17 H :    0.148193
  18 H :    0.276287

  Mayer bond orders larger than 0.100000
B(  0-C ,  1-C ) :   0.9226 B(  0-C ,  4-C ) :   0.9781 B(  0-C ,  6-O ) :   0.9694
B(  0-C , 12-H ) :   0.9235 B(  1-C ,  2-C ) :   0.9479 B(  1-C ,  7-C ) :   0.8965
B(  1-C , 13-H ) :   0.8842 B(  2-C ,  3-C ) :   0.9226 B(  2-C ,  8-C ) :   0.8965
B(  2-C , 14-H ) :   0.8842 B(  3-C ,  5-C ) :   0.9781 B(  3-C ,  6-O ) :   0.9694
B(  3-C , 15-H ) :   0.9235 B(  4-C ,  5-C ) :   1.8644 B(  4-C , 16-H ) :   0.9121
B(  5-C , 17-H ) :   0.9121 B(  7-C ,  9-N ) :   1.0329 B(  7-C , 11-O ) :   2.1249
B(  8-C ,  9-N ) :   1.0329 B(  8-C , 10-O ) :   2.1249 B(  9-N , 18-H ) :   0.8035

Dispersion correction           -0.013068513
FINAL SINGLE POINT ENERGY      -588.220997246028

DIPOLE MOMENT
-------------
                                X             Y             Z
Electronic contribution:     -2.88492       0.43490      -0.00000
Nuclear contribution   :      3.10092      -0.45978      -0.00000
                        -----------------------------------------
Total Dipole Moment    :      0.21599      -0.02488      -0.00000
                        -----------------------------------------
Magnitude (a.u.)       :      0.21742
Magnitude (Debye)      :      0.55264

Rotational constants in cm-1:     0.048075     0.039431     0.027737
Rotational constants in MHz :  1441.266721  1182.097476   831.535074

                             ****ORCA TERMINATED NORMALLY****
TOTAL RUN TIME: 0 days 0 hours 2 minutes 8 seconds 801 msec
