                         Program Version 5.0.3 -  RELEASE  -
|  1> ! PBEh-3c def2/J TightSCF DefGrid3
|  2>
|  3> %maxcore 60000
|  4>
|  5> %pal
|  6> nprocs 4
|  7> end
|  8>
|  9> *xyzfile 0 1 ed7.xyz
| 10>
| 11>                          ****END OF INPUT****

CARTESIAN COORDINATES (ANGSTROEM)
---------------------------------
  C      0.103036   -1.815861    1.863014
  Si    -0.024632   -0.480989    0.566918
  C     -0.448444    1.168395    1.328025
  C     -1.211379   -0.953989   -0.790521
  B      1.259372    1.832129   -2.471566
  Cl     1.866315   -0.289366   -0.298190
  Cl     0.859355    0.701542   -3.734407
  Cl     2.824767    2.585696   -2.427264
  H     -1.231920   -0.215217   -1.593054
  H     -1.432373    1.142112    1.802575
  H      0.837060   -1.565241    2.630493
  H     -0.856196   -1.964463    2.365099
  H      0.395872   -2.773565    1.429823
  H     -2.229340   -1.048585   -0.404671
  H     -0.942114   -1.911164   -1.240324
  H     -0.466690    1.966495    0.584055
  H      0.275931    1.453250    2.092939
  H      0.421380    2.168822   -1.702945

 Total Charge           Charge          ....    0
 Multiplicity           Mult            ....    1
 Number of Electrons    NEL             ....   98
 Basis Dimension        Dim             ....  152

ORBITAL ENERGIES
----------------

  NO   OCC          E(Eh)            E(eV)
   0   2.0000    -102.309448     -2783.9816
   1   2.0000    -102.308375     -2783.9524
   2   2.0000    -102.286989     -2783.3705
   3   2.0000     -66.771770     -1816.9522
   4   2.0000     -10.427862      -283.7566
   5   2.0000     -10.427756      -283.7537
   6   2.0000     -10.426084      -283.7082
   7   2.0000      -9.778086      -266.0753
   8   2.0000      -9.776962      -266.0447
   9   2.0000      -9.754111      -265.4229
  10   2.0000      -7.463704      -203.0977
  11   2.0000      -7.462590      -203.0674
  12   2.0000      -7.459256      -202.9767
  13   2.0000      -7.458172      -202.9472
  14   2.0000      -7.457557      -202.9304
  15   2.0000      -7.456398      -202.8989
  16   2.0000      -7.439686      -202.4442
  17   2.0000      -7.434814      -202.3116
  18   2.0000      -7.434534      -202.3040
  19   2.0000      -7.065992      -192.2754
  20   2.0000      -5.542239      -150.8120
  21   2.0000      -3.836441      -104.3949
  22   2.0000      -3.832173      -104.2787
  23   2.0000      -3.832096      -104.2766
  24   2.0000      -0.955406       -25.9979
  25   2.0000      -0.916967       -24.9519
  26   2.0000      -0.905927       -24.6515
  27   2.0000      -0.808614       -22.0035
  28   2.0000      -0.776723       -21.1357
  29   2.0000      -0.775780       -21.1101
  30   2.0000      -0.584152       -15.8956
  31   2.0000      -0.548213       -14.9176
  32   2.0000      -0.495726       -13.4894
  33   2.0000      -0.487109       -13.2549
  34   2.0000      -0.480619       -13.0783
  35   2.0000      -0.479952       -13.0602
  36   2.0000      -0.474188       -12.9033
  37   2.0000      -0.462567       -12.5871
  38   2.0000      -0.462358       -12.5814
  39   2.0000      -0.448021       -12.1913
  40   2.0000      -0.432722       -11.7750
  41   2.0000      -0.406761       -11.0685
  42   2.0000      -0.394480       -10.7343
  43   2.0000      -0.392186       -10.6719
  44   2.0000      -0.379351       -10.3227
  45   2.0000      -0.367853       -10.0098
  46   2.0000      -0.366753        -9.9799
  47   2.0000      -0.348065        -9.4713
  48   2.0000      -0.347455        -9.4547
  49   0.0000      -0.019001        -0.5170
  50   0.0000       0.079007         2.1499
  51   0.0000       0.105027         2.8579
  52   0.0000       0.115669         3.1475
  53   0.0000       0.120210         3.2711

MULLIKEN ATOMIC CHARGES
-----------------------
   0 C :   -0.940608
   1 Si:    0.982861
   2 C :   -0.949959
   3 C :   -0.954982
   4 B :    0.193548
   5 Cl:   -0.301421
   6 Cl:   -0.144241
   7 Cl:   -0.139168
   8 H :    0.258373
   9 H :    0.235676
  10 H :    0.248534
  11 H :    0.235912
  12 H :    0.248833
  13 H :    0.234344
  14 H :    0.248804
  15 H :    0.248107
  16 H :    0.248878
  17 H :    0.046508
Sum of atomic charges:    0.0000000

LOEWDIN ATOMIC CHARGES
----------------------
   0 C :   -0.570289
   1 Si:    0.487523
   2 C :   -0.570296
   3 C :   -0.571004
   4 B :   -0.262271
   5 Cl:   -0.065506
   6 Cl:    0.088633
   7 Cl:    0.097820
   8 H :    0.154559
   9 H :    0.148709
  10 H :    0.152627
  11 H :    0.148866
  12 H :    0.152766
  13 H :    0.148148
  14 H :    0.153768
  15 H :    0.150757
  16 H :    0.153380
  17 H :    0.001810

  Mayer bond orders larger than 0.100000
B(  0-C ,  1-Si) :   0.9697 B(  0-C , 10-H ) :   0.9059 B(  0-C , 11-H ) :   0.9016
B(  0-C , 12-H ) :   0.9059 B(  1-Si,  2-C ) :   0.9603 B(  1-Si,  3-C ) :   0.9638
B(  1-Si,  5-Cl) :   0.9913 B(  2-C ,  9-H ) :   0.9020 B(  2-C , 15-H ) :   0.9038
B(  2-C , 16-H ) :   0.9057 B(  3-C ,  8-H ) :   0.8979 B(  3-C , 13-H ) :   0.9013
B(  3-C , 14-H ) :   0.9056 B(  4-B ,  6-Cl) :   1.2202 B(  4-B ,  7-Cl) :   1.2435
B(  4-B , 17-H ) :   0.9392

Dispersion correction           -0.010409036
FINAL SINGLE POINT ENERGY     -1813.286579058743

DIPOLE MOMENT
-------------
                                X             Y             Z
Electronic contribution:     16.74210       9.90088     -20.21989
Nuclear contribution   :    -17.71410     -10.10897      20.96703
                        -----------------------------------------
Total Dipole Moment    :     -0.97200      -0.20809       0.74715
                        -----------------------------------------
Magnitude (a.u.)       :      1.24351
Magnitude (Debye)      :      3.16075

Rotational constants in cm-1:     0.046917     0.015705     0.013991
Rotational constants in MHz :  1406.546308   470.832374   419.440179

                             ****ORCA TERMINATED NORMALLY****
TOTAL RUN TIME: 0 days 0 hours 2 minutes 7 seconds 931 msec
