                         Program Version 5.0.3 -  RELEASE  -
|  1> ! PBEh-3c def2/J TightSCF DefGrid3
|  2>
|  3> %maxcore 60000
|  4>
|  5> %pal
|  6> nprocs 4
|  7> end
|  8>
|  9> *xyzfile 0 1 1CL_A.xyz
| 10>
| 11>                          ****END OF INPUT****

CARTESIAN COORDINATES (ANGSTROEM)
---------------------------------
  Cl     0.000000    0.000000   -0.666625
  H      0.000000    0.000000    0.666625

 Total Charge           Charge          ....    0
 Multiplicity           Mult            ....    1
 Number of Electrons    NEL             ....   18
 Basis Dimension        Dim             ....   20

ORBITAL ENERGIES
----------------

  NO   OCC          E(Eh)            E(eV)
   0   2.0000    -102.301216     -2783.7576
   1   2.0000      -9.768804      -265.8227
   2   2.0000      -7.456861      -202.9115
   3   2.0000      -7.447929      -202.6684
   4   2.0000      -7.447929      -202.6684
   5   2.0000      -0.918875       -25.0039
   6   2.0000      -0.514500       -14.0003
   7   2.0000      -0.374185       -10.1821
   8   2.0000      -0.374185       -10.1821
   9   0.0000       0.047194         1.2842
  10   0.0000       0.508091        13.8259
  11   0.0000       0.637206        17.3393
  12   0.0000       0.806430        21.9441
  13   0.0000       0.806430        21.9441

MULLIKEN ATOMIC CHARGES
-----------------------
   0 Cl:   -0.284599
   1 H :    0.284599
Sum of atomic charges:   -0.0000000

LOEWDIN ATOMIC CHARGES
----------------------
   0 Cl:   -0.186476
   1 H :    0.186476

  Mayer bond orders larger than 0.100000
B(  0-Cl,  1-H ) :   0.8951

Dispersion correction           -0.000168114
FINAL SINGLE POINT ENERGY      -460.294807956475

DIPOLE MOMENT
-------------
                                X             Y             Z
Electronic contribution:      0.00000      -0.00000      -0.65687
Nuclear contribution   :      0.00000       0.00000       1.26572
                        -----------------------------------------
Total Dipole Moment    :      0.00000      -0.00000       0.60884
                        -----------------------------------------
Magnitude (a.u.)       :      0.60884
Magnitude (Debye)      :      1.54756

Rotational constants in cm-1:     0.000000     9.675854     9.675854
Rotational constants in MHz :     0.000000 290074.794559 290074.794559

                             ****ORCA TERMINATED NORMALLY****
TOTAL RUN TIME: 0 days 0 hours 0 minutes 11 seconds 270 msec
