                         Program Version 5.0.3 -  RELEASE  -
|  1> ! PBEh-3c def2/J TightSCF DefGrid3
|  2>
|  3> %maxcore 60000
|  4>
|  5> %pal
|  6> nprocs 4
|  7> end
|  8>
|  9> *xyzfile 0 1 biphenyl.xyz
| 10>
| 11>                          ****END OF INPUT****

CARTESIAN COORDINATES (ANGSTROEM)
---------------------------------
  C      0.000000    0.000000    0.739583
  C      1.131558   -0.399724    1.457941
  C      1.131997   -0.400373    2.846238
  C      0.000000    0.000000    3.547097
  C     -1.131997    0.400373    2.846238
  C     -1.131558    0.399724    1.457941
  C      0.000000    0.000000   -0.739583
  C      1.131558    0.399724   -1.457941
  C      1.131997    0.400373   -2.846238
  C      0.000000    0.000000   -3.547097
  C     -1.131997   -0.400373   -2.846238
  C     -1.131558   -0.399724   -1.457941
  H      2.009660   -0.736225    0.921921
  H      2.016109   -0.722313    3.382055
  H      0.000000    0.000000    4.629523
  H     -2.016109    0.722313    3.382055
  H     -2.009660    0.736225    0.921921
  H      2.009660    0.736225   -0.921921
  H      2.016109    0.722313   -3.382055
  H      0.000000    0.000000   -4.629523
  H     -2.016109   -0.722313   -3.382055
  H     -2.009660   -0.736225   -0.921921

 Total Charge           Charge          ....    0
 Multiplicity           Mult            ....    1
 Number of Electrons    NEL             ....   82
 Basis Dimension        Dim             ....  200

ORBITAL ENERGIES
----------------

  NO   OCC          E(Eh)            E(eV)
   0   2.0000     -10.461474      -284.6712
   1   2.0000     -10.461156      -284.6625
   2   2.0000     -10.450119      -284.3622
   3   2.0000     -10.450088      -284.3614
   4   2.0000     -10.450017      -284.3594
   5   2.0000     -10.450005      -284.3591
   6   2.0000     -10.449329      -284.3407
   7   2.0000     -10.449288      -284.3396
   8   2.0000     -10.449230      -284.3380
   9   2.0000     -10.449217      -284.3377
  10   2.0000     -10.448814      -284.3267
  11   2.0000     -10.448811      -284.3266
  12   2.0000      -0.972845       -26.4725
  13   2.0000      -0.948732       -25.8163
  14   2.0000      -0.873019       -23.7560
  15   2.0000      -0.843378       -22.9495
  16   2.0000      -0.835265       -22.7287
  17   2.0000      -0.811287       -22.0762
  18   2.0000      -0.705370       -19.1941
  19   2.0000      -0.698751       -19.0140
  20   2.0000      -0.668939       -18.2028
  21   2.0000      -0.654180       -17.8012
  22   2.0000      -0.603949       -16.4343
  23   2.0000      -0.567716       -15.4483
  24   2.0000      -0.536558       -14.6005
  25   2.0000      -0.530764       -14.4428
  26   2.0000      -0.504833       -13.7372
  27   2.0000      -0.501269       -13.6402
  28   2.0000      -0.487114       -13.2550
  29   2.0000      -0.482885       -13.1400
  30   2.0000      -0.479059       -13.0359
  31   2.0000      -0.435536       -11.8515
  32   2.0000      -0.423693       -11.5293
  33   2.0000      -0.415865       -11.3163
  34   2.0000      -0.407263       -11.0822
  35   2.0000      -0.392578       -10.6826
  36   2.0000      -0.390017       -10.6129
  37   2.0000      -0.321202        -8.7404
  38   2.0000      -0.295819        -8.0497
  39   2.0000      -0.295531        -8.0418
  40   2.0000      -0.265771        -7.2320
  41   0.0000      -0.011383        -0.3098
  42   0.0000       0.014840         0.4038
  43   0.0000       0.018721         0.5094
  44   0.0000       0.050347         1.3700
  45   0.0000       0.145254         3.9526

MULLIKEN ATOMIC CHARGES
-----------------------
   0 C :    0.106467
   1 C :   -0.283677
   2 C :   -0.203882
   3 C :   -0.233319
   4 C :   -0.203882
   5 C :   -0.283677
   6 C :    0.106470
   7 C :   -0.283678
   8 C :   -0.203881
   9 C :   -0.233320
  10 C :   -0.203881
  11 C :   -0.283678
  12 H :    0.220768
  13 H :    0.219958
  14 H :    0.220517
  15 H :    0.219958
  16 H :    0.220768
  17 H :    0.220767
  18 H :    0.219958
  19 H :    0.220517
  20 H :    0.219958
  21 H :    0.220767
Sum of atomic charges:   -0.0000000

LOEWDIN ATOMIC CHARGES
----------------------
   0 C :   -0.035032
   1 C :   -0.127198
   2 C :   -0.131200
   3 C :   -0.136320
   4 C :   -0.131200
   5 C :   -0.127198
   6 C :   -0.035032
   7 C :   -0.127198
   8 C :   -0.131200
   9 C :   -0.136320
  10 C :   -0.131200
  11 C :   -0.127198
  12 H :    0.138957
  13 H :    0.136888
  14 H :    0.136460
  15 H :    0.136888
  16 H :    0.138957
  17 H :    0.138957
  18 H :    0.136888
  19 H :    0.136460
  20 H :    0.136888
  21 H :    0.138957

  Mayer bond orders larger than 0.100000
B(  0-C ,  1-C ) :   1.3794 B(  0-C ,  5-C ) :   1.3794 B(  0-C ,  6-C ) :   0.9827
B(  1-C ,  2-C ) :   1.4320 B(  1-C , 12-H ) :   0.9184 B(  2-C ,  3-C ) :   1.4209
B(  2-C , 13-H ) :   0.9199 B(  3-C ,  4-C ) :   1.4209 B(  3-C , 14-H ) :   0.9190
B(  4-C ,  5-C ) :   1.4320 B(  4-C , 15-H ) :   0.9199 B(  5-C , 16-H ) :   0.9184
B(  6-C ,  7-C ) :   1.3794 B(  6-C , 11-C ) :   1.3793 B(  7-C ,  8-C ) :   1.4320
B(  7-C , 17-H ) :   0.9184 B(  8-C ,  9-C ) :   1.4209 B(  8-C , 18-H ) :   0.9199
B(  9-C , 10-C ) :   1.4209 B(  9-C , 19-H ) :   0.9190 B( 10-C , 11-C ) :   1.4320
B( 10-C , 20-H ) :   0.9199 B( 11-C , 21-H ) :   0.9184

Dispersion correction           -0.014447626
FINAL SINGLE POINT ENERGY      -462.271827055890

DIPOLE MOMENT
-------------
                                X             Y             Z
Electronic contribution:     -0.00000       0.00000       0.00000
Nuclear contribution   :      0.00000       0.00000      -0.00000
                        -----------------------------------------
Total Dipole Moment    :     -0.00000       0.00000       0.00000
                        -----------------------------------------
Magnitude (a.u.)       :      0.00000
Magnitude (Debye)      :      0.00000

Rotational constants in cm-1:     0.096098     0.018341     0.015975
Rotational constants in MHz :  2880.950022   549.843791   478.932782

                             ****ORCA TERMINATED NORMALLY****
TOTAL RUN TIME: 0 days 0 hours 2 minutes 33 seconds 83 msec
