                         Program Version 5.0.3 -  RELEASE  -
|  1> ! PBEh-3c def2/J TightSCF DefGrid3
|  2>
|  3> %maxcore 60000
|  4>
|  5> %pal
|  6> nprocs 4
|  7> end
|  8>
|  9> *xyzfile 0 1 PRO_xab.xyz
| 10>
| 11>                          ****END OF INPUT****

CARTESIAN COORDINATES (ANGSTROEM)
---------------------------------
  N     -1.198310    0.125929   -0.226716
  C      0.115956    0.414826   -0.754396
  C      1.231142   -0.048430    0.183310
  O      1.082068   -0.100195    1.396247
  C      0.107265    1.950363   -0.829016
  C     -0.733750    2.338762    0.387171
  C     -1.838050    1.285659    0.394790
  H      0.253511   -0.030131   -1.742155
  H     -0.391325    2.255301   -1.749675
  H      1.111545    2.370426   -0.821606
  H     -1.123676    3.351723    0.320554
  H     -0.135855    2.249029    1.291472
  H     -2.706841    1.593409   -0.190338
  H     -2.180946    1.023298    1.392865
  N      2.397006   -0.342744   -0.450202
  H      2.419024   -0.293123   -1.453353
  C      3.598085   -0.708392    0.270575
  H      3.336597   -0.752068    1.323208
  H      3.961787   -1.683162   -0.047940
  H      4.385214    0.030240    0.129069
  C     -1.744907   -1.115161   -0.082356
  O     -2.835509   -1.273282    0.454030
  C     -0.930612   -2.264543   -0.629520
  H      0.012573   -2.356671   -0.091960
  H     -1.506679   -3.174220   -0.500131
  H     -0.708111   -2.126745   -1.687182

 Total Charge           Charge          ....    0
 Multiplicity           Mult            ....    1
 Number of Electrons    NEL             ....   92
 Basis Dimension        Dim             ....  208

ORBITAL ENERGIES
----------------

  NO   OCC          E(Eh)            E(eV)
   0   2.0000     -19.466625      -529.7138
   1   2.0000     -19.443503      -529.0846
   2   2.0000     -14.676429      -399.3659
   3   2.0000     -14.658065      -398.8662
   4   2.0000     -10.553543      -287.1765
   5   2.0000     -10.535854      -286.6952
   6   2.0000     -10.500149      -285.7236
   7   2.0000     -10.476100      -285.0692
   8   2.0000     -10.462837      -284.7083
   9   2.0000     -10.458430      -284.5883
  10   2.0000     -10.440797      -284.1085
  11   2.0000     -10.434418      -283.9349
  12   2.0000      -1.153669       -31.3929
  13   2.0000      -1.129862       -30.7451
  14   2.0000      -1.044975       -28.4352
  15   2.0000      -1.034012       -28.1369
  16   2.0000      -0.894253       -24.3339
  17   2.0000      -0.856923       -23.3180
  18   2.0000      -0.816537       -22.2191
  19   2.0000      -0.795254       -21.6400
  20   2.0000      -0.720015       -19.5926
  21   2.0000      -0.680273       -18.5112
  22   2.0000      -0.669730       -18.2243
  23   2.0000      -0.634747       -17.2723
  24   2.0000      -0.599692       -16.3185
  25   2.0000      -0.551731       -15.0134
  26   2.0000      -0.542806       -14.7705
  27   2.0000      -0.536894       -14.6096
  28   2.0000      -0.523320       -14.2403
  29   2.0000      -0.508226       -13.8295
  30   2.0000      -0.493656       -13.4331
  31   2.0000      -0.481907       -13.1133
  32   2.0000      -0.480360       -13.0712
  33   2.0000      -0.464556       -12.6412
  34   2.0000      -0.455947       -12.4069
  35   2.0000      -0.454940       -12.3796
  36   2.0000      -0.437252       -11.8982
  37   2.0000      -0.433065       -11.7843
  38   2.0000      -0.410763       -11.1774
  39   2.0000      -0.406146       -11.0518
  40   2.0000      -0.403720       -10.9858
  41   2.0000      -0.385290       -10.4843
  42   2.0000      -0.319616        -8.6972
  43   2.0000      -0.314011        -8.5447
  44   2.0000      -0.295206        -8.0330
  45   2.0000      -0.279966        -7.6183
  46   0.0000       0.047463         1.2915
  47   0.0000       0.067430         1.8349
  48   0.0000       0.104748         2.8503
  49   0.0000       0.137704         3.7471
  50   0.0000       0.147348         4.0096

MULLIKEN ATOMIC CHARGES
-----------------------
   0 N :   -0.451856
   1 C :   -0.206758
   2 C :    0.547554
   3 O :   -0.413931
   4 C :   -0.447527
   5 C :   -0.486051
   6 C :   -0.231085
   7 H :    0.232319
   8 H :    0.239945
   9 H :    0.240319
  10 H :    0.234749
  11 H :    0.260804
  12 H :    0.220773
  13 H :    0.257892
  14 N :   -0.637445
  15 H :    0.355145
  16 C :   -0.495217
  17 H :    0.271710
  18 H :    0.222980
  19 H :    0.222137
  20 C :    0.526379
  21 O :   -0.426999
  22 C :   -0.788413
  23 H :    0.256464
  24 H :    0.274010
  25 H :    0.222103
Sum of atomic charges:    0.0000000

LOEWDIN ATOMIC CHARGES
----------------------
   0 N :   -0.121355
   1 C :   -0.093116
   2 C :    0.094559
   3 O :   -0.269626
   4 C :   -0.222601
   5 C :   -0.246413
   6 C :   -0.124081
   7 H :    0.124308
   8 H :    0.133775
   9 H :    0.133646
  10 H :    0.131770
  11 H :    0.144872
  12 H :    0.121555
  13 H :    0.142390
  14 N :   -0.247196
  15 H :    0.251909
  16 C :   -0.258226
  17 H :    0.157518
  18 H :    0.124187
  19 H :    0.122941
  20 C :    0.116598
  21 O :   -0.269956
  22 C :   -0.392780
  23 H :    0.151994
  24 H :    0.156730
  25 H :    0.136596

  Mayer bond orders larger than 0.100000
B(  0-N ,  1-C ) :   0.9824 B(  0-N ,  6-C ) :   0.9292 B(  0-N , 20-C ) :   1.1394
B(  1-C ,  2-C ) :   0.8604 B(  1-C ,  4-C ) :   0.9652 B(  1-C ,  7-H ) :   0.8999
B(  2-C ,  3-O ) :   2.0033 B(  2-C , 14-N ) :   1.1075 B(  4-C ,  5-C ) :   0.9678
B(  4-C ,  8-H ) :   0.9128 B(  4-C ,  9-H ) :   0.9204 B(  5-C ,  6-C ) :   0.9603
B(  5-C , 10-H ) :   0.9232 B(  5-C , 11-H ) :   0.9008 B(  6-C , 12-H ) :   0.9128
B(  6-C , 13-H ) :   0.9044 B( 14-N , 15-H ) :   0.8272 B( 14-N , 16-C ) :   0.9465
B( 16-C , 17-H ) :   0.8954 B( 16-C , 18-H ) :   0.9212 B( 16-C , 19-H ) :   0.9205
B( 20-C , 21-O ) :   1.9959 B( 20-C , 22-C ) :   0.9345 B( 22-C , 23-H ) :   0.8968
B( 22-C , 24-H ) :   0.9177 B( 22-C , 25-H ) :   0.9137

Dispersion correction           -0.015895922
FINAL SINGLE POINT ENERGY      -572.039501989123

DIPOLE MOMENT
-------------
                                X             Y             Z
Electronic contribution:     -4.88014      -1.64412       2.15479
Nuclear contribution   :      6.81975       2.30531      -3.84080
                        -----------------------------------------
Total Dipole Moment    :      1.93960       0.66119      -1.68601
                        -----------------------------------------
Magnitude (a.u.)       :      2.65365
Magnitude (Debye)      :      6.74504

Rotational constants in cm-1:     0.044478     0.025304     0.019062
Rotational constants in MHz :  1333.405152   758.604534   571.467819

                             ****ORCA TERMINATED NORMALLY****
TOTAL RUN TIME: 0 days 0 hours 2 minutes 49 seconds 975 msec
