                         Program Version 5.0.3 -  RELEASE  -
|  1> ! PBEh-3c def2/J TightSCF DefGrid3
|  2>
|  3> %maxcore 60000
|  4>
|  5> %pal
|  6> nprocs 4
|  7> end
|  8>
|  9> *xyzfile 0 1 8a.xyz
| 10>
| 11>                          ****END OF INPUT****

CARTESIAN COORDINATES (ANGSTROEM)
---------------------------------
  C     -0.809168   -1.626151    0.000000
  N     -1.657887   -0.565112    0.000000
  C     -0.889454    0.572672    0.000000
  C      0.414552    0.138298    0.000000
  N      0.449461   -1.237582    0.000000
  C      1.663936    0.948768    0.000000
  H     -2.660937   -0.606588    0.000000
  H     -1.320858    1.556800    0.000000
  H     -1.156811   -2.644282    0.000000
  H      2.265938    0.725564    0.878314
  H      2.265938    0.725564   -0.878314
  H      1.435291    2.012051    0.000000

 Total Charge           Charge          ....    0
 Multiplicity           Mult            ....    1
 Number of Electrons    NEL             ....   44
 Basis Dimension        Dim             ....  102

ORBITAL ENERGIES
----------------

  NO   OCC          E(Eh)            E(eV)
   0   2.0000     -14.693280      -399.8245
   1   2.0000     -14.609172      -397.5358
   2   2.0000     -10.492608      -285.5184
   3   2.0000     -10.463359      -284.7225
   4   2.0000     -10.456045      -284.5234
   5   2.0000     -10.422127      -283.6005
   6   2.0000      -1.118793       -30.4439
   7   2.0000      -0.964710       -26.2511
   8   2.0000      -0.849761       -23.1232
   9   2.0000      -0.775621       -21.1057
  10   2.0000      -0.685355       -18.6495
  11   2.0000      -0.638651       -17.3786
  12   2.0000      -0.613265       -16.6878
  13   2.0000      -0.509768       -13.8715
  14   2.0000      -0.498220       -13.5573
  15   2.0000      -0.491889       -13.3850
  16   2.0000      -0.450232       -12.2514
  17   2.0000      -0.441301       -12.0084
  18   2.0000      -0.426454       -11.6044
  19   2.0000      -0.319308        -8.6888
  20   2.0000      -0.318938        -8.6787
  21   2.0000      -0.258776        -7.0417
  22   0.0000       0.062347         1.6966
  23   0.0000       0.103872         2.8265
  24   0.0000       0.126382         3.4390
  25   0.0000       0.175920         4.7870
  26   0.0000       0.198155         5.3921

MULLIKEN ATOMIC CHARGES
-----------------------
   0 C :    0.111266
   1 N :   -0.574067
   2 C :   -0.108597
   3 C :    0.152667
   4 N :   -0.393990
   5 C :   -0.706910
   6 H :    0.364167
   7 H :    0.239138
   8 H :    0.233441
   9 H :    0.235434
  10 H :    0.235434
  11 H :    0.212017
Sum of atomic charges:   -0.0000000

LOEWDIN ATOMIC CHARGES
----------------------
   0 C :   -0.051684
   1 N :   -0.141968
   2 C :   -0.155302
   3 C :   -0.049976
   4 N :   -0.190423
   5 C :   -0.352466
   6 H :    0.262763
   7 H :    0.136544
   8 H :    0.129024
   9 H :    0.141374
  10 H :    0.141374
  11 H :    0.130740

  Mayer bond orders larger than 0.100000
B(  0-C ,  1-N ) :   1.1897 B(  0-C ,  4-N ) :   1.6187 B(  0-C ,  8-H ) :   0.9111
B(  1-N ,  2-C ) :   1.1214 B(  1-N ,  6-H ) :   0.8214 B(  2-C ,  3-C ) :   1.5531
B(  2-C ,  7-H ) :   0.9082 B(  3-C ,  4-N ) :   1.3621 B(  3-C ,  5-C ) :   0.9739
B(  5-C ,  9-H ) :   0.9183 B(  5-C , 10-H ) :   0.9183 B(  5-C , 11-H ) :   0.9348

Dispersion correction           -0.005189811
FINAL SINGLE POINT ENERGY      -264.956060260283

DIPOLE MOMENT
-------------
                                X             Y             Z
Electronic contribution:     -2.88288      -2.83680       0.00000
Nuclear contribution   :      1.56262       3.23411       0.00000
                        -----------------------------------------
Total Dipole Moment    :     -1.32026       0.39731       0.00000
                        -----------------------------------------
Magnitude (a.u.)       :      1.37875
Magnitude (Debye)      :      3.50449

Rotational constants in cm-1:     0.301147     0.117561     0.085894
Rotational constants in MHz :  9028.157175  3524.403886  2575.024172

                             ****ORCA TERMINATED NORMALLY****
TOTAL RUN TIME: 0 days 0 hours 1 minutes 26 seconds 265 msec
