                         Program Version 5.0.3 -  RELEASE  -
|  1> ! PBEh-3c def2/J TightSCF DefGrid3
|  2>
|  3> %maxcore 60000
|  4>
|  5> %pal
|  6> nprocs 4
|  7> end
|  8>
|  9> *xyzfile 0 1 ts5.xyz
| 10>
| 11>                          ****END OF INPUT****

CARTESIAN COORDINATES (ANGSTROEM)
---------------------------------
  C     -0.077016    0.551986    0.027408
  H     -0.238295    1.625354    0.118269
  C      1.139606   -0.193208   -0.031496
  H      1.355044   -0.698094    0.908034
  H     -0.073907   -1.134900   -0.245811
  H      2.028949    0.223228   -0.494171
  N     -1.065094   -0.300004   -0.078808
  H     -1.991673   -0.068229    0.289860

 Total Charge           Charge          ....    0
 Multiplicity           Mult            ....    1
 Number of Electrons    NEL             ....   24
 Basis Dimension        Dim             ....   55

ORBITAL ENERGIES
----------------

  NO   OCC          E(Eh)            E(eV)
   0   2.0000     -14.654340      -398.7649
   1   2.0000     -10.507702      -285.9291
   2   2.0000     -10.402102      -283.0556
   3   2.0000      -1.035096       -28.1664
   4   2.0000      -0.793632       -21.5958
   5   2.0000      -0.649655       -17.6780
   6   2.0000      -0.617145       -16.7934
   7   2.0000      -0.473922       -12.8961
   8   2.0000      -0.468695       -12.7539
   9   2.0000      -0.414793       -11.2871
  10   2.0000      -0.358721        -9.7613
  11   2.0000      -0.248596        -6.7646
  12   0.0000       0.007339         0.1997
  13   0.0000       0.117257         3.1907
  14   0.0000       0.165359         4.4997
  15   0.0000       0.197049         5.3620
  16   0.0000       0.217944         5.9306

MULLIKEN ATOMIC CHARGES
-----------------------
   0 C :    0.119408
   1 H :    0.224089
   2 C :   -0.838768
   3 H :    0.249890
   4 H :    0.353390
   5 H :    0.214303
   6 N :   -0.644744
   7 H :    0.322431
Sum of atomic charges:   -0.0000000

LOEWDIN ATOMIC CHARGES
----------------------
   0 C :    0.003768
   1 H :    0.119570
   2 C :   -0.568797
   3 H :    0.153056
   4 H :    0.308425
   5 H :    0.125906
   6 N :   -0.369650
   7 H :    0.227722

  Mayer bond orders larger than 0.100000
B(  0-C ,  1-H ) :   0.8975 B(  0-C ,  2-C ) :   1.1826 B(  0-C ,  6-N ) :   1.6345
B(  2-C ,  3-H ) :   0.8787 B(  2-C ,  4-H ) :   0.4175 B(  2-C ,  5-H ) :   0.9314
B(  4-H ,  6-N ) :   0.4363 B(  6-N ,  7-H ) :   0.8194

Dispersion correction           -0.002340644
FINAL SINGLE POINT ENERGY      -133.537587125412

DIPOLE MOMENT
-------------
                                X             Y             Z
Electronic contribution:     -1.68417       0.59339      -0.16721
Nuclear contribution   :      1.12385      -0.05693       0.60252
                        -----------------------------------------
Total Dipole Moment    :     -0.56031       0.53645       0.43530
                        -----------------------------------------
Magnitude (a.u.)       :      0.88951
Magnitude (Debye)      :      2.26094

Rotational constants in cm-1:     1.505595     0.392619     0.327438
Rotational constants in MHz : 45136.590804 11770.411627  9816.344374

                             ****ORCA TERMINATED NORMALLY****
TOTAL RUN TIME: 0 days 0 hours 1 minutes 5 seconds 290 msec
