                         Program Version 5.0.3 -  RELEASE  -
|  1> ! PBEh-3c def2/J TightSCF DefGrid3
|  2>
|  3> %maxcore 60000
|  4>
|  5> %pal
|  6> nprocs 4
|  7> end
|  8>
|  9> *xyzfile 0 1 ethylthiourea_180.xyz
| 10>
| 11>                          ****END OF INPUT****

CARTESIAN COORDINATES (ANGSTROEM)
---------------------------------
  S     -1.076514    1.559093   -0.164734
  N      1.557591    1.528791   -0.001665
  N      0.550242   -0.516653    0.075841
  C      0.394808    0.815427   -0.012261
  H      2.359390    1.146103    0.467020
  H      1.430994    2.519199    0.083253
  H      1.478209   -0.890641   -0.010237
  C     -0.543503   -1.459783   -0.025383
  C     -0.008426   -2.873041    0.007828
  H     -1.236563   -1.282443    0.793760
  H     -1.097945   -1.270892   -0.943004
  H      0.498648   -3.085515    0.946987
  H     -0.821635   -3.583250   -0.104463
  H      0.694474   -3.049226   -0.803942

 Total Charge           Charge          ....    0
 Multiplicity           Mult            ....    1
 Number of Electrons    NEL             ....   56
 Basis Dimension        Dim             ....  109

ORBITAL ENERGIES
----------------

  NO   OCC          E(Eh)            E(eV)
   0   2.0000     -89.506928     -2435.6073
   1   2.0000     -14.671507      -399.2320
   2   2.0000     -14.658583      -398.8803
   3   2.0000     -10.555023      -287.2168
   4   2.0000     -10.474537      -285.0267
   5   2.0000     -10.442325      -284.1501
   6   2.0000      -8.147807      -221.7131
   7   2.0000      -6.039503      -164.3432
   8   2.0000      -6.034318      -164.2021
   9   2.0000      -6.031098      -164.1145
  10   2.0000      -1.092066       -29.7166
  11   2.0000      -1.001926       -27.2638
  12   2.0000      -0.859575       -23.3902
  13   2.0000      -0.801240       -21.8029
  14   2.0000      -0.726835       -19.7782
  15   2.0000      -0.656858       -17.8740
  16   2.0000      -0.616706       -16.7814
  17   2.0000      -0.585387       -15.9292
  18   2.0000      -0.540871       -14.7178
  19   2.0000      -0.525212       -14.2917
  20   2.0000      -0.464741       -12.6463
  21   2.0000      -0.449600       -12.2342
  22   2.0000      -0.438887       -11.9427
  23   2.0000      -0.414664       -11.2836
  24   2.0000      -0.403439       -10.9781
  25   2.0000      -0.313784        -8.5385
  26   2.0000      -0.251965        -6.8563
  27   2.0000      -0.240481        -6.5438
  28   0.0000       0.040709         1.1078
  29   0.0000       0.108311         2.9473
  30   0.0000       0.137264         3.7351
  31   0.0000       0.153593         4.1795
  32   0.0000       0.165203         4.4954

MULLIKEN ATOMIC CHARGES
-----------------------
   0 S :   -0.291626
   1 N :   -0.773888
   2 N :   -0.596518
   3 C :    0.352614
   4 H :    0.343222
   5 H :    0.380460
   6 H :    0.347970
   7 C :   -0.235195
   8 C :   -0.693662
   9 H :    0.242099
  10 H :    0.241660
  11 H :    0.222978
  12 H :    0.243144
  13 H :    0.216743
Sum of atomic charges:    0.0000000

LOEWDIN ATOMIC CHARGES
----------------------
   0 S :   -0.223588
   1 N :   -0.383983
   2 N :   -0.233730
   3 C :   -0.046328
   4 H :    0.242097
   5 H :    0.262809
   6 H :    0.248332
   7 C :   -0.152222
   8 C :   -0.374613
   9 H :    0.133280
  10 H :    0.130746
  11 H :    0.128932
  12 H :    0.141908
  13 H :    0.126359

  Mayer bond orders larger than 0.100000
B(  0-S ,  3-C ) :   1.5575 B(  1-N ,  3-C ) :   1.1344 B(  1-N ,  4-H ) :   0.8337
B(  1-N ,  5-H ) :   0.8223 B(  2-N ,  3-C ) :   1.1905 B(  2-N ,  6-H ) :   0.8257
B(  2-N ,  7-C ) :   0.9303 B(  7-C ,  8-C ) :   0.9834 B(  7-C ,  9-H ) :   0.9002
B(  7-C , 10-H ) :   0.8986 B(  8-C , 11-H ) :   0.9210 B(  8-C , 12-H ) :   0.9247
B(  8-C , 13-H ) :   0.9220

Dispersion correction           -0.006622278
FINAL SINGLE POINT ENERGY      -625.898459009902

DIPOLE MOMENT
-------------
                                X             Y             Z
Electronic contribution:     -1.73877       8.74053      -0.31003
Nuclear contribution   :      3.39870      -9.83617       0.70757
                        -----------------------------------------
Total Dipole Moment    :      1.65993      -1.09564       0.39753
                        -----------------------------------------
Magnitude (a.u.)       :      2.02825
Magnitude (Debye)      :      5.15541

Rotational constants in cm-1:     0.170966     0.057542     0.043797
Rotational constants in MHz :  5125.436019  1725.072389  1312.993236

                             ****ORCA TERMINATED NORMALLY****
TOTAL RUN TIME: 0 days 0 hours 1 minutes 32 seconds 16 msec
