                         Program Version 5.0.3 -  RELEASE  -
|  1> ! PBEh-3c def2/J TightSCF DefGrid3
|  2>
|  3> %maxcore 60000
|  4>
|  5> %pal
|  6> nprocs 4
|  7> end
|  8>
|  9> *xyzfile 0 2 hf2ts.xyz
| 10>
| 11>                          ****END OF INPUT****

CARTESIAN COORDINATES (ANGSTROEM)
---------------------------------
  H      0.000000    0.000000   -1.570157
  F      0.000000    0.000000    0.044902
  F      0.000000    0.000000    1.525254

 Total Charge           Charge          ....    0
 Multiplicity           Mult            ....    2
 Number of Electrons    NEL             ....   19
 Basis Dimension        Dim             ....   32

ORBITAL ENERGIES
----------------
                 SPIN UP ORBITALS
  NO   OCC          E(Eh)            E(eV)
   0   1.0000     -25.166965      -684.8279
   1   1.0000     -25.154174      -684.4799
   2   1.0000      -1.408115       -38.3168
   3   1.0000      -1.210476       -32.9387
   4   1.0000      -0.643812       -17.5190
   5   1.0000      -0.569499       -15.4968
   6   1.0000      -0.569499       -15.4968
   7   1.0000      -0.458618       -12.4796
   8   1.0000      -0.458618       -12.4796
   9   1.0000      -0.386848       -10.5267
  10   0.0000      -0.081152        -2.2083
  11   0.0000       0.742165        20.1953
  12   0.0000       1.084996        29.5242
  13   0.0000       1.084996        29.5242
  14   0.0000       1.107103        30.1258

                 SPIN DOWN ORBITALS
  NO   OCC          E(Eh)            E(eV)
   0   1.0000     -25.173802      -685.0140
   1   1.0000     -25.136125      -683.9887
   2   1.0000      -1.394819       -37.9549
   3   1.0000      -1.190192       -32.3868
   4   1.0000      -0.611783       -16.6475
   5   1.0000      -0.565817       -15.3967
   6   1.0000      -0.565817       -15.3967
   7   1.0000      -0.449795       -12.2395
   8   1.0000      -0.449795       -12.2395
   9   0.0000      -0.112787        -3.0691
  10   0.0000       0.000222         0.0060
  11   0.0000       0.843563        22.9545
  12   0.0000       1.086962        29.5777
  13   0.0000       1.086962        29.5777

MULLIKEN ATOMIC CHARGES AND SPIN POPULATIONS
--------------------------------------------
   0 H :    0.165369    0.766087
   1 F :   -0.099227   -0.243183
   2 F :   -0.066141    0.477096
Sum of atomic charges         :   -0.0000000

LOEWDIN ATOMIC CHARGES AND SPIN POPULATIONS
-------------------------------------------
   0 H :    0.165800    0.731017
   1 F :   -0.099780   -0.162236
   2 F :   -0.066020    0.431220

  Mayer bond orders larger than 0.100000
B(  0-H ,  1-F ) :   0.2839 B(  1-F ,  2-F ) :   0.7239

Dispersion correction           -0.000248291
FINAL SINGLE POINT ENERGY      -199.623423643654

DIPOLE MOMENT
-------------
                                X             Y             Z
Electronic contribution:     -0.00000       0.00000       1.63257
Nuclear contribution   :      0.00000       0.00000      -2.26531
                        -----------------------------------------
Total Dipole Moment    :     -0.00000       0.00000      -0.63274
                        -----------------------------------------
Magnitude (a.u.)       :      0.63274
Magnitude (Debye)      :      1.60830

Rotational constants in cm-1:     0.000000     0.641866     0.641866
Rotational constants in MHz :     0.000000 19242.644344 19242.644344

                             ****ORCA TERMINATED NORMALLY****
TOTAL RUN TIME: 0 days 0 hours 0 minutes 24 seconds 425 msec
