                         Program Version 5.0.3 -  RELEASE  -
|  1> ! PBEh-3c def2/J TightSCF DefGrid3
|  2>
|  3> %maxcore 60000
|  4>
|  5> %pal
|  6> nprocs 4
|  7> end
|  8>
|  9> *xyzfile 0 1 B14.xyz
| 10>
| 11>                          ****END OF INPUT****

CARTESIAN COORDINATES (ANGSTROEM)
---------------------------------
  C     -1.851749   -0.605059   -0.395697
  H     -1.798743   -1.351261   -1.188648
  O     -1.851749   -1.349998    0.822045
  C     -0.674742    0.356685   -0.494799
  H     -0.780340    0.948632   -1.408958
  H     -0.711694    1.060837    0.340097
  C      0.674742   -0.356685   -0.494799
  H      0.780340   -0.948632   -1.408958
  H      0.711694   -1.060837    0.340097
  H     -1.974426   -0.720715    1.538285
  H     -2.794173   -0.062286   -0.514166
  C      1.851749    0.605059   -0.395697
  H      2.794173    0.062286   -0.514166
  H      1.798743    1.351261   -1.188648
  O      1.851749    1.349998    0.822045
  H      1.974426    0.720715    1.538285

 Total Charge           Charge          ....    0
 Multiplicity           Mult            ....    1
 Number of Electrons    NEL             ....   50
 Basis Dimension        Dim             ....  110

ORBITAL ENERGIES
----------------

  NO   OCC          E(Eh)            E(eV)
   0   2.0000     -19.484977      -530.2132
   1   2.0000     -19.484975      -530.2131
   2   2.0000     -10.479733      -285.1680
   3   2.0000     -10.479699      -285.1671
   4   2.0000     -10.432331      -283.8782
   5   2.0000     -10.432109      -283.8721
   6   2.0000      -1.121430       -30.5157
   7   2.0000      -1.120179       -30.4816
   8   2.0000      -0.880302       -23.9542
   9   2.0000      -0.796899       -21.6847
  10   2.0000      -0.709549       -19.3078
  11   2.0000      -0.663554       -18.0562
  12   2.0000      -0.569600       -15.4996
  13   2.0000      -0.541484       -14.7345
  14   2.0000      -0.537527       -14.6269
  15   2.0000      -0.518103       -14.0983
  16   2.0000      -0.490979       -13.3602
  17   2.0000      -0.462206       -12.5773
  18   2.0000      -0.437116       -11.8945
  19   2.0000      -0.418479       -11.3874
  20   2.0000      -0.390585       -10.6284
  21   2.0000      -0.381964       -10.3938
  22   2.0000      -0.364753        -9.9254
  23   2.0000      -0.333246        -9.0681
  24   2.0000      -0.317033        -8.6269
  25   0.0000       0.124753         3.3947
  26   0.0000       0.130657         3.5553
  27   0.0000       0.174947         4.7605
  28   0.0000       0.175319         4.7707
  29   0.0000       0.197320         5.3693

MULLIKEN ATOMIC CHARGES
-----------------------
   0 C :   -0.160425
   1 H :    0.205738
   2 O :   -0.623874
   3 C :   -0.452109
   4 H :    0.208287
   5 H :    0.220986
   6 C :   -0.452109
   7 H :    0.208287
   8 H :    0.220986
   9 H :    0.408819
  10 H :    0.192577
  11 C :   -0.160424
  12 H :    0.192577
  13 H :    0.205738
  14 O :   -0.623874
  15 H :    0.408819
Sum of atomic charges:   -0.0000000

LOEWDIN ATOMIC CHARGES
----------------------
   0 C :   -0.094300
   1 H :    0.117652
   2 O :   -0.415272
   3 C :   -0.267665
   4 H :    0.126206
   5 H :    0.127013
   6 C :   -0.267665
   7 H :    0.126206
   8 H :    0.127013
   9 H :    0.305322
  10 H :    0.101045
  11 C :   -0.094300
  12 H :    0.101045
  13 H :    0.117652
  14 O :   -0.415272
  15 H :    0.305322

  Mayer bond orders larger than 0.100000
B(  0-C ,  1-H ) :   0.9167 B(  0-C ,  2-O ) :   1.0129 B(  0-C ,  3-C ) :   0.9677
B(  0-C , 10-H ) :   0.9153 B(  2-O ,  9-H ) :   0.7958 B(  3-C ,  4-H ) :   0.9138
B(  3-C ,  5-H ) :   0.9091 B(  3-C ,  6-C ) :   0.9701 B(  6-C ,  7-H ) :   0.9138
B(  6-C ,  8-H ) :   0.9091 B(  6-C , 11-C ) :   0.9677 B( 11-C , 12-H ) :   0.9153
B( 11-C , 13-H ) :   0.9167 B( 11-C , 14-O ) :   1.0129 B( 14-O , 15-H ) :   0.7958

Dispersion correction           -0.006565659
FINAL SINGLE POINT ENERGY      -308.208168203189

DIPOLE MOMENT
-------------
                                X             Y             Z
Electronic contribution:      0.00000       0.00000       2.52113
Nuclear contribution   :     -0.00000       0.00000      -2.54328
                        -----------------------------------------
Total Dipole Moment    :      0.00000       0.00000      -0.02215
                        -----------------------------------------
Magnitude (a.u.)       :      0.02215
Magnitude (Debye)      :      0.05631

Rotational constants in cm-1:     0.244786     0.053621     0.050671
Rotational constants in MHz :  7338.485188  1607.524079  1519.064888

                             ****ORCA TERMINATED NORMALLY****
TOTAL RUN TIME: 0 days 0 hours 1 minutes 19 seconds 895 msec
