                         Program Version 5.0.3 -  RELEASE  -
|  1> ! PBEh-3c def2/J TightSCF DefGrid3
|  2>
|  3> %maxcore 60000
|  4>
|  5> %pal
|  6> nprocs 4
|  7> end
|  8>
|  9> *xyzfile 0 1 c-hcoh.xyz
| 10>
| 11>                          ****END OF INPUT****

CARTESIAN COORDINATES (ANGSTROEM)
---------------------------------
  C      0.744421   -0.083862    0.000000
  H      1.090870    0.980795    0.000000
  O     -0.568172   -0.051858    0.000000
  H     -0.942864    0.841780    0.000000

 Total Charge           Charge          ....    0
 Multiplicity           Mult            ....    1
 Number of Electrons    NEL             ....   16
 Basis Dimension        Dim             ....   34

ORBITAL ENERGIES
----------------

  NO   OCC          E(Eh)            E(eV)
   0   2.0000     -19.581143      -532.8300
   1   2.0000     -10.512950      -286.0719
   2   2.0000      -1.220721       -33.2175
   3   2.0000      -0.747546       -20.3418
   4   2.0000      -0.618544       -16.8314
   5   2.0000      -0.482191       -13.1211
   6   2.0000      -0.468603       -12.7513
   7   2.0000      -0.268129        -7.2962
   8   0.0000      -0.016590        -0.4514
   9   0.0000       0.087782         2.3887
  10   0.0000       0.217364         5.9148
  11   0.0000       0.290611         7.9079
  12   0.0000       0.550569        14.9818

MULLIKEN ATOMIC CHARGES
-----------------------
   0 C :   -0.065833
   1 H :    0.112362
   2 O :   -0.479193
   3 H :    0.432664
Sum of atomic charges:    0.0000000

LOEWDIN ATOMIC CHARGES
----------------------
   0 C :   -0.147391
   1 H :    0.056295
   2 O :   -0.217269
   3 H :    0.308365

  Mayer bond orders larger than 0.100000
B(  0-C ,  1-H ) :   0.9203 B(  0-C ,  2-O ) :   1.4104 B(  2-O ,  3-H ) :   0.7590

Dispersion correction           -0.000588930
FINAL SINGLE POINT ENERGY      -114.154638765538

DIPOLE MOMENT
-------------
                                X             Y             Z
Electronic contribution:     -0.75199      -0.45836       0.00000
Nuclear contribution   :      0.13044       1.70912       0.00000
                        -----------------------------------------
Total Dipole Moment    :     -0.62155       1.25076       0.00000
                        -----------------------------------------
Magnitude (a.u.)       :      1.39668
Magnitude (Debye)      :      3.55009

Rotational constants in cm-1:     9.306338     1.211346     1.071833
Rotational constants in MHz : 278996.982414 36315.251786 32132.738806

                             ****ORCA TERMINATED NORMALLY****
TOTAL RUN TIME: 0 days 0 hours 0 minutes 51 seconds 220 msec
