                         Program Version 5.0.3 -  RELEASE  -
|  1> ! PBEh-3c def2/J TightSCF DefGrid3
|  2>
|  3> %maxcore 60000
|  4>
|  5> %pal
|  6> nprocs 4
|  7> end
|  8>
|  9> *xyzfile 0 1 P27.xyz
| 10>
| 11>                          ****END OF INPUT****

CARTESIAN COORDINATES (ANGSTROEM)
---------------------------------
  C     -0.146708    1.747599   -0.001621
  O      0.531794    0.507908    0.026136
  O     -0.531794   -0.507908    0.026136
  C      0.146708   -1.747599   -0.001621
  H      0.646750    2.496761    0.003493
  H     -0.747874    1.852294   -0.909807
  H     -0.779622    1.874819    0.881799
  H     -0.646750   -2.496761    0.003493
  H      0.747874   -1.852294   -0.909807
  H      0.779622   -1.874819    0.881799

 Total Charge           Charge          ....    0
 Multiplicity           Mult            ....    1
 Number of Electrons    NEL             ....   34
 Basis Dimension        Dim             ....   72

ORBITAL ENERGIES
----------------

  NO   OCC          E(Eh)            E(eV)
   0   2.0000     -19.543980      -531.8187
   1   2.0000     -19.543901      -531.8166
   2   2.0000     -10.478883      -285.1449
   3   2.0000     -10.478878      -285.1448
   4   2.0000      -1.217122       -33.1196
   5   2.0000      -1.024381       -27.8748
   6   2.0000      -0.765136       -20.8204
   7   2.0000      -0.733185       -19.9510
   8   2.0000      -0.567551       -15.4438
   9   2.0000      -0.540733       -14.7141
  10   2.0000      -0.538861       -14.6632
  11   2.0000      -0.489874       -13.3302
  12   2.0000      -0.454339       -12.3632
  13   2.0000      -0.445937       -12.1346
  14   2.0000      -0.386011       -10.5039
  15   2.0000      -0.380593       -10.3565
  16   2.0000      -0.291155        -7.9227
  17   0.0000       0.074633         2.0309
  18   0.0000       0.152824         4.1586
  19   0.0000       0.180026         4.8988
  20   0.0000       0.196331         5.3424
  21   0.0000       0.221355         6.0234

MULLIKEN ATOMIC CHARGES
-----------------------
   0 C :   -0.342398
   1 O :   -0.283475
   2 O :   -0.283475
   3 C :   -0.342398
   4 H :    0.214652
   5 H :    0.205379
   6 H :    0.205841
   7 H :    0.214652
   8 H :    0.205379
   9 H :    0.205841
Sum of atomic charges:    0.0000000

LOEWDIN ATOMIC CHARGES
----------------------
   0 C :   -0.201263
   1 O :   -0.149215
   2 O :   -0.149215
   3 C :   -0.201263
   4 H :    0.127847
   5 H :    0.111176
   6 H :    0.111455
   7 H :    0.127847
   8 H :    0.111176
   9 H :    0.111455

  Mayer bond orders larger than 0.100000
B(  0-C ,  1-O ) :   0.9527 B(  0-C ,  4-H ) :   0.9199 B(  0-C ,  5-H ) :   0.9109
B(  0-C ,  6-H ) :   0.9107 B(  1-O ,  2-O ) :   0.9340 B(  2-O ,  3-C ) :   0.9527
B(  3-C ,  7-H ) :   0.9199 B(  3-C ,  8-H ) :   0.9109 B(  3-C ,  9-H ) :   0.9107

Dispersion correction           -0.002603027
FINAL SINGLE POINT ENERGY      -229.656715220260

DIPOLE MOMENT
-------------
                                X             Y             Z
Electronic contribution:     -0.00000       0.00000       0.08762
Nuclear contribution   :     -0.00000      -0.00000      -0.11341
                        -----------------------------------------
Total Dipole Moment    :     -0.00000       0.00000      -0.02579
                        -----------------------------------------
Magnitude (a.u.)       :      0.02579
Magnitude (Debye)      :      0.06556

Rotational constants in cm-1:     1.052834     0.151271     0.139373
Rotational constants in MHz : 31563.172186  4534.997748  4178.311867

                             ****ORCA TERMINATED NORMALLY****
TOTAL RUN TIME: 0 days 0 hours 0 minutes 59 seconds 344 msec
