                         Program Version 5.0.3 -  RELEASE  -
|  1> ! PBEh-3c def2/J TightSCF DefGrid3
|  2>
|  3> %maxcore 60000
|  4>
|  5> %pal
|  6> nprocs 4
|  7> end
|  8>
|  9> *xyzfile 0 2 22.xyz
| 10>
| 11>                          ****END OF INPUT****

CARTESIAN COORDINATES (ANGSTROEM)
---------------------------------
  H     -1.029956    0.404943    0.782382
  H     -2.612165   -0.743348    0.305934
  H      1.418381    1.795495   -0.398366
  B      1.684439   -1.502653    2.193840
  B     -1.522156   -0.385309   -0.021114
  H      2.404993   -1.177295    3.095630
  O     -1.668540    0.435428   -1.380523
  B     -0.544721    1.141124   -1.983011
  F      1.767565    1.729253    0.530914
  O      0.608028    0.957094   -1.388610
  H     -0.772987   -1.319337   -0.279486
  H      0.507038   -1.187367    2.330294
  H     -2.555794    0.527347   -1.757392
  H     -0.825668    1.800732   -2.936083
  P      2.247928   -2.280040    0.650997
  Mg     0.893615   -0.196068    0.254593

 Total Charge           Charge          ....    0
 Multiplicity           Mult            ....    2
 Number of Electrons    NEL             ....   75
 Basis Dimension        Dim             ....  142

ORBITAL ENERGIES
----------------
                 SPIN UP ORBITALS
  NO   OCC          E(Eh)            E(eV)
   0   1.0000     -77.706032     -2114.4886
   1   1.0000     -47.389816     -1289.5425
   2   1.0000     -25.121947      -683.6029
   3   1.0000     -19.612776      -533.6908
   4   1.0000     -19.510101      -530.8968
   5   1.0000      -7.052891      -191.9189
   6   1.0000      -6.983106      -190.0200
   7   1.0000      -6.944268      -188.9631
   8   1.0000      -6.781625      -184.5374
   9   1.0000      -4.878149      -132.7412
  10   1.0000      -4.870344      -132.5288
  11   1.0000      -4.869066      -132.4940
  12   1.0000      -3.336233       -90.7835
  13   1.0000      -2.020432       -54.9787
  14   1.0000      -2.020286       -54.9748
  15   1.0000      -2.018808       -54.9346
  16   1.0000      -1.343465       -36.5575
  17   1.0000      -1.231381       -33.5076
  18   1.0000      -1.106412       -30.1070
  19   1.0000      -0.722951       -19.6725
  20   1.0000      -0.694720       -18.9043
  21   1.0000      -0.676381       -18.4053
  22   1.0000      -0.655361       -17.8333
  23   1.0000      -0.559900       -15.2357
  24   1.0000      -0.553288       -15.0557
  25   1.0000      -0.538378       -14.6500
  26   1.0000      -0.520372       -14.1601
  27   1.0000      -0.519830       -14.1453
  28   1.0000      -0.510214       -13.8836
  29   1.0000      -0.482415       -13.1272
  30   1.0000      -0.428278       -11.6540
  31   1.0000      -0.420078       -11.4309
  32   1.0000      -0.405360       -11.0304
  33   1.0000      -0.398318       -10.8388
  34   1.0000      -0.392968       -10.6932
  35   1.0000      -0.316651        -8.6165
  36   1.0000      -0.284742        -7.7482
  37   1.0000      -0.251887        -6.8542
  38   0.0000      -0.020369        -0.5543
  39   0.0000       0.016093         0.4379
  40   0.0000       0.021733         0.5914
  41   0.0000       0.042594         1.1590
  42   0.0000       0.078671         2.1407

                 SPIN DOWN ORBITALS
  NO   OCC          E(Eh)            E(eV)
   0   1.0000     -77.701580     -2114.3675
   1   1.0000     -47.389769     -1289.5412
   2   1.0000     -25.121972      -683.6036
   3   1.0000     -19.612758      -533.6903
   4   1.0000     -19.510085      -530.8964
   5   1.0000      -7.052894      -191.9190
   6   1.0000      -6.982932      -190.0152
   7   1.0000      -6.945260      -188.9901
   8   1.0000      -6.776859      -184.4077
   9   1.0000      -4.867070      -132.4397
  10   1.0000      -4.866274      -132.4181
  11   1.0000      -4.861543      -132.2893
  12   1.0000      -3.336178       -90.7820
  13   1.0000      -2.020288       -54.9748
  14   1.0000      -2.019956       -54.9658
  15   1.0000      -2.018882       -54.9366
  16   1.0000      -1.343518       -36.5590
  17   1.0000      -1.231334       -33.5063
  18   1.0000      -1.106372       -30.1059
  19   1.0000      -0.722863       -19.6701
  20   1.0000      -0.694204       -18.8903
  21   1.0000      -0.655536       -17.8380
  22   1.0000      -0.647950       -17.6316
  23   1.0000      -0.559842       -15.2341
  24   1.0000      -0.552229       -15.0269
  25   1.0000      -0.537956       -14.6385
  26   1.0000      -0.520334       -14.1590
  27   1.0000      -0.519822       -14.1451
  28   1.0000      -0.491803       -13.3826
  29   1.0000      -0.482222       -13.1219
  30   1.0000      -0.428090       -11.6489
  31   1.0000      -0.416424       -11.3315
  32   1.0000      -0.398580       -10.8459
  33   1.0000      -0.396658       -10.7936
  34   1.0000      -0.388037       -10.5590
  35   1.0000      -0.303856        -8.2683
  36   1.0000      -0.273729        -7.4485
  37   0.0000      -0.073218        -1.9924
  38   0.0000      -0.014433        -0.3928
  39   0.0000       0.016414         0.4466
  40   0.0000       0.022519         0.6128
  41   0.0000       0.043610         1.1867

MULLIKEN ATOMIC CHARGES AND SPIN POPULATIONS
--------------------------------------------
   0 H :    0.025841   -0.000138
   1 H :    0.058214   -0.000357
   2 H :    0.591088   -0.000208
   3 B :   -0.239380   -0.115843
   4 B :   -0.148205    0.010664
   5 H :    0.077344    0.053283
   6 O :   -0.603308    0.000211
   7 B :    0.454763    0.000372
   8 F :   -0.477509   -0.000263
   9 O :   -0.624472    0.000469
  10 H :    0.049988   -0.004174
  11 H :    0.042768    0.047807
  12 H :    0.501004   -0.000013
  13 H :    0.024479   -0.000012
  14 P :   -0.132324    0.970962
  15 Mg:    0.399709    0.037239
Sum of atomic charges         :   -0.0000000

LOEWDIN ATOMIC CHARGES AND SPIN POPULATIONS
-------------------------------------------
   0 H :    0.090999    0.000300
   1 H :    0.028162   -0.000044
   2 H :    0.455368    0.000024
   3 B :   -0.306309   -0.044788
   4 B :   -0.160242    0.008485
   5 H :    0.045947    0.043377
   6 O :   -0.202986    0.000422
   7 B :    0.157796    0.000003
   8 F :   -0.232485   -0.000278
   9 O :   -0.271481    0.000314
  10 H :    0.101450    0.000183
  11 H :    0.092502    0.038156
  12 H :    0.381287    0.000004
  13 H :    0.007322   -0.000002
  14 P :    0.257879    0.873610
  15 Mg:   -0.445211    0.080234

  Mayer bond orders larger than 0.100000
B(  0-H ,  4-B ) :   0.8141 B(  0-H , 15-Mg) :   0.1560 B(  1-H ,  4-B ) :   0.9883
B(  2-H ,  8-F ) :   0.4793 B(  2-H ,  9-O ) :   0.1468 B(  3-B ,  5-H ) :   0.9542
B(  3-B , 11-H ) :   0.8231 B(  3-B , 14-P ) :   1.4280 B(  3-B , 15-Mg) :   0.3226
B(  4-B ,  6-O ) :   0.5519 B(  4-B , 10-H ) :   0.8177 B(  4-B , 15-Mg) :   0.3203
B(  6-O ,  7-B ) :   0.8096 B(  6-O , 12-H ) :   0.7126 B(  7-B ,  9-O ) :   1.4483
B(  7-B , 13-H ) :   0.9547 B(  8-F , 15-Mg) :   0.3861 B(  9-O , 15-Mg) :   0.4521
B( 10-H , 15-Mg) :   0.1522 B( 11-H , 15-Mg) :   0.1280 B( 14-P , 15-Mg) :   0.7673

Dispersion correction           -0.007888089
FINAL SINGLE POINT ENERGY      -869.837693882275

DIPOLE MOMENT
-------------
                                X             Y             Z
Electronic contribution:      7.12824      -0.38052      -1.20616
Nuclear contribution   :     -9.03714       1.77905      -0.15270
                        -----------------------------------------
Total Dipole Moment    :     -1.90890       1.39853      -1.35886
                        -----------------------------------------
Magnitude (a.u.)       :      2.72879
Magnitude (Debye)      :      6.93603

Rotational constants in cm-1:     0.068144     0.027559     0.023586
Rotational constants in MHz :  2042.892501   826.190242   707.102762

                             ****ORCA TERMINATED NORMALLY****
TOTAL RUN TIME: 0 days 0 hours 3 minutes 43 seconds 817 msec
