                         Program Version 5.0.3 -  RELEASE  -
|  1> ! PBEh-3c def2/J TightSCF DefGrid3
|  2>
|  3> %maxcore 60000
|  4>
|  5> %pal
|  6> nprocs 4
|  7> end
|  8>
|  9> *xyzfile 0 1 heptahexaene.xyz
| 10>
| 11>                          ****END OF INPUT****

CARTESIAN COORDINATES (ANGSTROEM)
---------------------------------
  C      0.000000    0.000000    3.857519
  C      0.000000    0.000000    2.547121
  C      0.000000    0.000000    1.276939
  C      0.000000    0.000000    0.000000
  C      0.000000    0.000000   -1.276939
  C      0.000000    0.000000   -2.547121
  C      0.000000    0.000000   -3.857519
  H     -0.655056    0.655056    4.422218
  H      0.655056   -0.655056    4.422218
  H     -0.655056   -0.655056   -4.422218
  H      0.655056    0.655056   -4.422218

 Total Charge           Charge          ....    0
 Multiplicity           Mult            ....    1
 Number of Electrons    NEL             ....   46
 Basis Dimension        Dim             ....  113

ORBITAL ENERGIES
----------------

  NO   OCC          E(Eh)            E(eV)
   0   2.0000     -10.500613      -285.7362
   1   2.0000     -10.495145      -285.5874
   2   2.0000     -10.495017      -285.5839
   3   2.0000     -10.484214      -285.2900
   4   2.0000     -10.484114      -285.2873
   5   2.0000     -10.473352      -284.9944
   6   2.0000     -10.473301      -284.9930
   7   2.0000      -0.929516       -25.2934
   8   2.0000      -0.903642       -24.5893
   9   2.0000      -0.861998       -23.4562
  10   2.0000      -0.807075       -21.9616
  11   2.0000      -0.740269       -20.1437
  12   2.0000      -0.666809       -18.1448
  13   2.0000      -0.562591       -15.3089
  14   2.0000      -0.558440       -15.1959
  15   2.0000      -0.521952       -14.2030
  16   2.0000      -0.521952       -14.2030
  17   2.0000      -0.436452       -11.8765
  18   2.0000      -0.436452       -11.8765
  19   2.0000      -0.368981       -10.0405
  20   2.0000      -0.368981       -10.0405
  21   2.0000      -0.268426        -7.3042
  22   2.0000      -0.268426        -7.3042
  23   0.0000      -0.065286        -1.7765
  24   0.0000      -0.065286        -1.7765
  25   0.0000       0.082885         2.2554
  26   0.0000       0.082885         2.2554
  27   0.0000       0.154081         4.1928

MULLIKEN ATOMIC CHARGES
-----------------------
   0 C :   -0.699430
   1 C :    0.114066
   2 C :    0.060503
   3 C :    0.040575
   4 C :    0.060499
   5 C :    0.114066
   6 C :   -0.699427
   7 H :    0.252287
   8 H :    0.252287
   9 H :    0.252287
  10 H :    0.252287
Sum of atomic charges:   -0.0000000

LOEWDIN ATOMIC CHARGES
----------------------
   0 C :   -0.268039
   1 C :    0.012374
   2 C :   -0.068318
   3 C :    0.007755
   4 C :   -0.068318
   5 C :    0.012374
   6 C :   -0.268038
   7 H :    0.160053
   8 H :    0.160052
   9 H :    0.160053
  10 H :    0.160053

  Mayer bond orders larger than 0.100000
B(  0-C ,  1-C ) :   1.7971 B(  0-C ,  2-C ) :  -0.1445 B(  0-C ,  3-C ) :   0.1484
B(  0-C ,  7-H ) :   0.9049 B(  0-C ,  8-H ) :   0.9049 B(  1-C ,  2-C ) :   1.6122
B(  1-C ,  3-C ) :  -0.1513 B(  1-C ,  4-C ) :   0.1379 B(  2-C ,  3-C ) :   1.5681
B(  2-C ,  4-C ) :  -0.1532 B(  2-C ,  5-C ) :   0.1379 B(  3-C ,  4-C ) :   1.5681
B(  3-C ,  5-C ) :  -0.1513 B(  3-C ,  6-C ) :   0.1484 B(  4-C ,  5-C ) :   1.6122
B(  4-C ,  6-C ) :  -0.1445 B(  5-C ,  6-C ) :   1.7971 B(  6-C ,  9-H ) :   0.9049
B(  6-C , 10-H ) :   0.9049

Dispersion correction           -0.004244139
FINAL SINGLE POINT ENERGY      -268.325120565401

DIPOLE MOMENT
-------------
                                X             Y             Z
Electronic contribution:     -0.00000      -0.00000      -0.00000
Nuclear contribution   :      0.00000       0.00000       0.00000
                        -----------------------------------------
Total Dipole Moment    :     -0.00000      -0.00000      -0.00000
                        -----------------------------------------
Magnitude (a.u.)       :      0.00000
Magnitude (Debye)      :      0.00000

Rotational constants in cm-1:     4.871796     0.026629     0.026629
Rotational constants in MHz : 146052.780458   798.314283   798.314283

                             ****ORCA TERMINATED NORMALLY****
TOTAL RUN TIME: 0 days 0 hours 0 minutes 57 seconds 168 msec
