                         Program Version 5.0.3 -  RELEASE  -
|  1> ! PBEh-3c def2/J TightSCF DefGrid3
|  2>
|  3> %maxcore 60000
|  4>
|  5> %pal
|  6> nprocs 4
|  7> end
|  8>
|  9> *xyzfile 1 1 ch3coohp.xyz
| 10>
| 11>                          ****END OF INPUT****

CARTESIAN COORDINATES (ANGSTROEM)
---------------------------------
  C     -1.046473   -0.532470    0.000000
  C      0.258144    0.148066    0.000000
  O      0.275865    1.416285    0.000000
  O      1.298029   -0.580718    0.000000
  H     -1.115297   -1.175746    0.878854
  H     -1.115297   -1.175746   -0.878854
  H     -1.863997    0.180882    0.000000
  H      2.157569   -0.123621    0.000000
  H      1.151457    1.843071    0.000000

 Total Charge           Charge          ....    1
 Multiplicity           Mult            ....    1
 Number of Electrons    NEL             ....   32
 Basis Dimension        Dim             ....   70

ORBITAL ENERGIES
----------------

  NO   OCC          E(Eh)            E(eV)
   0   2.0000     -19.831637      -539.6463
   1   2.0000     -19.829639      -539.5919
   2   2.0000     -10.883234      -296.1479
   3   2.0000     -10.656892      -289.9888
   4   2.0000      -1.542793       -41.9815
   5   2.0000      -1.454518       -39.5794
   6   2.0000      -1.110662       -30.2227
   7   2.0000      -0.975119       -26.5343
   8   2.0000      -0.972077       -26.4515
   9   2.0000      -0.828809       -22.5530
  10   2.0000      -0.816055       -22.2060
  11   2.0000      -0.714865       -19.4525
  12   2.0000      -0.713382       -19.4121
  13   2.0000      -0.686242       -18.6736
  14   2.0000      -0.673176       -18.3181
  15   2.0000      -0.671392       -18.2695
  16   0.0000      -0.237388        -6.4597
  17   0.0000      -0.141352        -3.8464
  18   0.0000      -0.083090        -2.2610
  19   0.0000      -0.016028        -0.4361
  20   0.0000       0.017081         0.4648

MULLIKEN ATOMIC CHARGES
-----------------------
   0 C :   -0.749950
   1 C :    0.642149
   2 O :   -0.438968
   3 O :   -0.441521
   4 H :    0.333339
   5 H :    0.333339
   6 H :    0.324804
   7 H :    0.499169
   8 H :    0.497640
Sum of atomic charges:    1.0000000

LOEWDIN ATOMIC CHARGES
----------------------
   0 C :   -0.358445
   1 C :    0.261677
   2 O :   -0.129252
   3 O :   -0.135017
   4 H :    0.207111
   5 H :    0.207111
   6 H :    0.191350
   7 H :    0.377766
   8 H :    0.377697

  Mayer bond orders larger than 0.100000
B(  0-C ,  1-C ) :   0.9533 B(  0-C ,  4-H ) :   0.8530 B(  0-C ,  5-H ) :   0.8530
B(  0-C ,  6-H ) :   0.8767 B(  1-C ,  2-O ) :   1.4209 B(  1-C ,  3-O ) :   1.4034
B(  2-O ,  8-H ) :   0.7032 B(  3-O ,  7-H ) :   0.7041

Dispersion correction           -0.002647446
FINAL SINGLE POINT ENERGY      -228.905571703965

DIPOLE MOMENT
-------------
                                X             Y             Z
Electronic contribution:      2.79807       1.48600      -0.00000
Nuclear contribution   :     -1.86719      -1.05229       0.00000
                        -----------------------------------------
Total Dipole Moment    :      0.93088       0.43370      -0.00000
                        -----------------------------------------
Magnitude (a.u.)       :      1.02696
Magnitude (Debye)      :      2.61031

Rotational constants in cm-1:     0.367427     0.311933     0.174134
Rotational constants in MHz : 11015.188694  9351.503094  5220.399642

                             ****ORCA TERMINATED NORMALLY****
TOTAL RUN TIME: 0 days 0 hours 1 minutes 13 seconds 143 msec
