                         Program Version 5.0.3 -  RELEASE  -
|  1> ! PBEh-3c def2/J TightSCF DefGrid3
|  2>
|  3> %maxcore 60000
|  4>
|  5> %pal
|  6> nprocs 4
|  7> end
|  8>
|  9> *xyzfile 0 1 691.xyz
| 10>
| 11>                          ****END OF INPUT****

CARTESIAN COORDINATES (ANGSTROEM)
---------------------------------
  O      3.169432   -1.409216    0.246432
  C      4.200432   -0.980216   -0.215568
  O      5.361433   -1.669216   -0.219568
  H      5.169433   -2.513216    0.215432
  C      4.377432    0.370784   -0.878568
  H      4.671432    0.209784   -1.914568
  H      5.188433    0.890784   -0.374568
  N      3.181432    1.159784   -0.807568
  H      2.380432    0.860784   -1.357568
  C      2.868432    1.729784    0.393432
  O      3.669433    1.879784    1.305432
  C      1.400432    2.112784    0.511432
  H      1.039432    2.568784   -0.408568
  H      1.284432    2.802784    1.341432
  N      0.617432    0.918784    0.766432
  H      0.517432    0.542784    1.700432
  C      0.312432    0.057784   -0.218568
  O      0.532432    0.274784   -1.415568
  C     -0.310568   -1.253216    0.250432
  N     -0.627568   -1.201216    1.675432
  H     -0.607568   -2.131216    2.071432
  H     -1.569568   -0.845216    1.802432
  H      0.488432   -1.985216    0.112432
  C     -1.488568   -1.624216   -0.668568
  H     -1.140568   -1.570216   -1.699568
  H     -1.779568   -2.654216   -0.456568
  C     -2.658568   -0.709216   -0.452568
  C     -3.696568   -1.069216    0.413432
  H     -3.682568   -2.049216    0.876432
  C     -4.754568   -0.198216    0.669432
  H     -5.550568   -0.498216    1.338432
  C     -4.787568    1.052784    0.059432
  H     -5.607568    1.730784    0.252432
  C     -3.762568    1.421784   -0.811568
  H     -3.787568    2.387784   -1.296568
  C     -2.706568    0.550784   -1.064568
  H     -1.911568    0.836784   -1.741568

 Total Charge           Charge          ....    0
 Multiplicity           Mult            ....    1
 Number of Electrons    NEL             ....  148
 Basis Dimension        Dim             ....  334

ORBITAL ENERGIES
----------------

  NO   OCC          E(Eh)            E(eV)
   0   2.0000     -19.551378      -532.0201
   1   2.0000     -19.497233      -530.5467
   2   2.0000     -19.465558      -529.6848
   3   2.0000     -19.458892      -529.5034
   4   2.0000     -14.664067      -399.0295
   5   2.0000     -14.650444      -398.6588
   6   2.0000     -14.630551      -398.1175
   7   2.0000     -10.589650      -288.1590
   8   2.0000     -10.548119      -287.0289
   9   2.0000     -10.542808      -286.8844
  10   2.0000     -10.487398      -285.3766
  11   2.0000     -10.484601      -285.3005
  12   2.0000     -10.480900      -285.1998
  13   2.0000     -10.460768      -284.6520
  14   2.0000     -10.453282      -284.4483
  15   2.0000     -10.452543      -284.4282
  16   2.0000     -10.450852      -284.3821
  17   2.0000     -10.450251      -284.3658
  18   2.0000     -10.446226      -284.2563
  19   2.0000     -10.446094      -284.2527
  20   2.0000      -1.229556       -33.4579
  21   2.0000      -1.151929       -31.3456
  22   2.0000      -1.140582       -31.0368
  23   2.0000      -1.133239       -30.8370
  24   2.0000      -1.034166       -28.1411
  25   2.0000      -1.021997       -27.8099
  26   2.0000      -0.999032       -27.1850
  27   2.0000      -0.958488       -26.0818
  28   2.0000      -0.875641       -23.8274
  29   2.0000      -0.853854       -23.2346
  30   2.0000      -0.838833       -22.8258
  31   2.0000      -0.818406       -22.2700
  32   2.0000      -0.798126       -21.7181
  33   2.0000      -0.729253       -19.8440
  34   2.0000      -0.699219       -19.0267
  35   2.0000      -0.686574       -18.6826
  36   2.0000      -0.663373       -18.0513
  37   2.0000      -0.647450       -17.6180
  38   2.0000      -0.642062       -17.4714
  39   2.0000      -0.605883       -16.4869
  40   2.0000      -0.594245       -16.1702
  41   2.0000      -0.578364       -15.7381
  42   2.0000      -0.577546       -15.7158
  43   2.0000      -0.564113       -15.3503
  44   2.0000      -0.557669       -15.1750
  45   2.0000      -0.545766       -14.8510
  46   2.0000      -0.532386       -14.4870
  47   2.0000      -0.530447       -14.4342
  48   2.0000      -0.524984       -14.2855
  49   2.0000      -0.518588       -14.1115
  50   2.0000      -0.494554       -13.4575
  51   2.0000      -0.488975       -13.3057
  52   2.0000      -0.485451       -13.2098
  53   2.0000      -0.477228       -12.9860
  54   2.0000      -0.474459       -12.9107
  55   2.0000      -0.469638       -12.7795
  56   2.0000      -0.457483       -12.4488
  57   2.0000      -0.455212       -12.3870
  58   2.0000      -0.439597       -11.9620
  59   2.0000      -0.432731       -11.7752
  60   2.0000      -0.427579       -11.6350
  61   2.0000      -0.422023       -11.4838
  62   2.0000      -0.415646       -11.3103
  63   2.0000      -0.394055       -10.7228
  64   2.0000      -0.386376       -10.5138
  65   2.0000      -0.385352       -10.4860
  66   2.0000      -0.350640        -9.5414
  67   2.0000      -0.339285        -9.2324
  68   2.0000      -0.329816        -8.9748
  69   2.0000      -0.308798        -8.4028
  70   2.0000      -0.303029        -8.2458
  71   2.0000      -0.296287        -8.0624
  72   2.0000      -0.290316        -7.8999
  73   2.0000      -0.285839        -7.7781
  74   0.0000       0.010963         0.2983
  75   0.0000       0.013503         0.3674
  76   0.0000       0.039478         1.0742
  77   0.0000       0.042410         1.1540
  78   0.0000       0.065646         1.7863

MULLIKEN ATOMIC CHARGES
-----------------------
   0 O :   -0.399816
   1 C :    0.535083
   2 O :   -0.583070
   3 H :    0.443614
   4 C :   -0.416408
   5 H :    0.272901
   6 H :    0.293555
   7 N :   -0.627077
   8 H :    0.409910
   9 C :    0.526866
  10 O :   -0.420316
  11 C :   -0.421088
  12 H :    0.260183
  13 H :    0.268301
  14 N :   -0.612325
  15 H :    0.403243
  16 C :    0.586178
  17 O :   -0.496074
  18 C :   -0.215379
  19 N :   -0.777408
  20 H :    0.335909
  21 H :    0.351125
  22 H :    0.285418
  23 C :   -0.515980
  24 H :    0.269531
  25 H :    0.228389
  26 C :    0.113517
  27 C :   -0.305067
  28 H :    0.213733
  29 C :   -0.209422
  30 H :    0.219412
  31 C :   -0.232046
  32 H :    0.220672
  33 C :   -0.207310
  34 H :    0.221492
  35 C :   -0.275540
  36 H :    0.255295
Sum of atomic charges:   -0.0000000

LOEWDIN ATOMIC CHARGES
----------------------
   0 O :   -0.232995
   1 C :    0.134827
   2 O :   -0.295564
   3 H :    0.334780
   4 C :   -0.188267
   5 H :    0.153937
   6 H :    0.170277
   7 N :   -0.245876
   8 H :    0.270876
   9 C :    0.104122
  10 O :   -0.266773
  11 C :   -0.167921
  12 H :    0.147662
  13 H :    0.148120
  14 N :   -0.206577
  15 H :    0.277285
  16 C :    0.116540
  17 O :   -0.321877
  18 C :   -0.103017
  19 N :   -0.459344
  20 H :    0.233782
  21 H :    0.236477
  22 H :    0.156635
  23 C :   -0.230673
  24 H :    0.155530
  25 H :    0.130520
  26 C :   -0.055372
  27 C :   -0.154501
  28 H :    0.131401
  29 C :   -0.134826
  30 H :    0.136238
  31 C :   -0.139057
  32 H :    0.136270
  33 C :   -0.129239
  34 H :    0.137284
  35 C :   -0.131745
  36 H :    0.151062

  Mayer bond orders larger than 0.100000
B(  0-O ,  1-C ) :   2.0381 B(  1-C ,  2-O ) :   1.1464 B(  1-C ,  4-C ) :   0.8975
B(  2-O ,  3-H ) :   0.7587 B(  4-C ,  5-H ) :   0.8951 B(  4-C ,  6-H ) :   0.8752
B(  4-C ,  7-N ) :   0.9993 B(  7-N ,  8-H ) :   0.7285 B(  7-N ,  9-C ) :   1.1396
B(  9-C , 10-O ) :   2.0040 B(  9-C , 11-C ) :   0.8854 B( 11-C , 12-H ) :   0.8918
B( 11-C , 13-H ) :   0.9110 B( 11-C , 14-N ) :   0.9549 B( 14-N , 15-H ) :   0.7593
B( 14-N , 16-C ) :   1.2080 B( 16-C , 17-O ) :   1.8081 B( 16-C , 18-C ) :   0.9086
B( 18-C , 19-N ) :   1.0337 B( 18-C , 22-H ) :   0.8778 B( 18-C , 23-C ) :   0.9393
B( 19-N , 20-H ) :   0.8547 B( 19-N , 21-H ) :   0.8302 B( 23-C , 24-H ) :   0.8931
B( 23-C , 25-H ) :   0.9228 B( 23-C , 26-C ) :   0.9558 B( 26-C , 27-C ) :   1.3963
B( 26-C , 35-C ) :   1.4008 B( 27-C , 28-H ) :   0.9210 B( 27-C , 29-C ) :   1.4199
B( 29-C , 30-H ) :   0.9199 B( 29-C , 31-C ) :   1.4317 B( 31-C , 32-H ) :   0.9194
B( 31-C , 33-C ) :   1.4151 B( 33-C , 34-H ) :   0.9202 B( 33-C , 35-C ) :   1.4259
B( 35-C , 36-H ) :   0.8929

Dispersion correction           -0.026279605
FINAL SINGLE POINT ENERGY      -968.747258457459

DIPOLE MOMENT
-------------
                                X             Y             Z
Electronic contribution:     10.02792       1.05833      -0.41478
Nuclear contribution   :    -10.75756      -2.11978       0.56374
                        -----------------------------------------
Total Dipole Moment    :     -0.72964      -1.06146       0.14896
                        -----------------------------------------
Magnitude (a.u.)       :      1.29663
Magnitude (Debye)      :      3.29578

Rotational constants in cm-1:     0.025767     0.005652     0.005206
Rotational constants in MHz :   772.464837   169.431361   156.074464

                             ****ORCA TERMINATED NORMALLY****
TOTAL RUN TIME: 0 days 0 hours 5 minutes 44 seconds 591 msec
