                         Program Version 5.0.3 -  RELEASE  -
|  1> ! PBEh-3c def2/J TightSCF DefGrid3
|  2>
|  3> %maxcore 60000
|  4>
|  5> %pal
|  6> nprocs 4
|  7> end
|  8>
|  9> *xyzfile 0 1 55B.xyz
| 10>
| 11>                          ****END OF INPUT****

CARTESIAN COORDINATES (ANGSTROEM)
---------------------------------
  O      1.096403   -0.033198    0.000000
  H      1.229178   -0.986345    0.000000
  C     -0.300265    0.192791    0.000000
  H     -0.449553    1.269136    0.000000
  H     -0.787882   -0.221192   -0.885844
  H     -0.787882   -0.221192    0.885844

 Total Charge           Charge          ....    0
 Multiplicity           Mult            ....    1
 Number of Electrons    NEL             ....   18
 Basis Dimension        Dim             ....   38

ORBITAL ENERGIES
----------------

  NO   OCC          E(Eh)            E(eV)
   0   2.0000     -19.483045      -530.1606
   1   2.0000     -10.472976      -284.9842
   2   2.0000      -1.119690       -30.4683
   3   2.0000      -0.759999       -20.6806
   4   2.0000      -0.567794       -15.4505
   5   2.0000      -0.497559       -13.5393
   6   2.0000      -0.480474       -13.0744
   7   2.0000      -0.388900       -10.5825
   8   2.0000      -0.325242        -8.8503
   9   0.0000       0.130232         3.5438
  10   0.0000       0.194506         5.2928
  11   0.0000       0.219671         5.9775
  12   0.0000       0.233086         6.3426
  13   0.0000       0.239899         6.5280

MULLIKEN ATOMIC CHARGES
-----------------------
   0 O :   -0.624639
   1 H :    0.412712
   2 C :   -0.371405
   3 H :    0.217931
   4 H :    0.182701
   5 H :    0.182701
Sum of atomic charges:   -0.0000000

LOEWDIN ATOMIC CHARGES
----------------------
   0 O :   -0.421593
   1 H :    0.306031
   2 C :   -0.199224
   3 H :    0.121984
   4 H :    0.096401
   5 H :    0.096401

  Mayer bond orders larger than 0.100000
B(  0-O ,  1-H ) :   0.7977 B(  0-O ,  2-C ) :   1.0183 B(  2-C ,  3-H ) :   0.9249
B(  2-C ,  4-H ) :   0.9179 B(  2-C ,  5-H ) :   0.9179

Dispersion correction           -0.001081523
FINAL SINGLE POINT ENERGY      -115.467110351140

DIPOLE MOMENT
-------------
                                X             Y             Z
Electronic contribution:      1.80327      -0.17743       0.00000
Nuclear contribution   :     -2.27481      -0.34112       0.00000
                        -----------------------------------------
Total Dipole Moment    :     -0.47154      -0.51855       0.00000
                        -----------------------------------------
Magnitude (a.u.)       :      0.70089
Magnitude (Debye)      :      1.78151

Rotational constants in cm-1:     4.290814     0.833256     0.802904
Rotational constants in MHz : 128635.370836 24980.398526 24070.471247

                             ****ORCA TERMINATED NORMALLY****
TOTAL RUN TIME: 0 days 0 hours 0 minutes 57 seconds 215 msec
