                         Program Version 5.0.3 -  RELEASE  -
|  1> ! PBEh-3c def2/J TightSCF DefGrid3
|  2>
|  3> %maxcore 60000
|  4>
|  5> %pal
|  6> nprocs 4
|  7> end
|  8>
|  9> *xyzfile 0 1 i6p.xyz
| 10>
| 11>                          ****END OF INPUT****

CARTESIAN COORDINATES (ANGSTROEM)
---------------------------------
  C      0.825783    0.565518    1.345473
  C      1.726940    0.071720    0.453547
  C      2.979295    0.814677    0.173760
  C      3.638271    1.546383    1.182962
  C      4.797689    2.271534    0.903547
  C      5.332390    2.275650   -0.390113
  C      4.697066    1.544027   -1.399987
  C      3.538110    0.817895   -1.120882
  H      3.244993    1.521000    2.196992
  H      5.294317    2.822231    1.700630
  H      6.239951    2.835986   -0.606471
  H      5.104558    1.540687   -2.409468
  H      3.046252    0.255444   -1.910844
  C      1.507443   -1.183348   -0.313297
  C      0.309920   -1.423038   -1.034311
  C      0.119388   -2.644792   -1.705757
  C      1.110720   -3.621560   -1.685813
  C      2.305519   -3.389040   -0.989044
  C      2.496750   -2.180746   -0.318364
  N     -0.628214   -0.369611   -1.102560
  H     -0.808062   -2.791645   -2.252883
  H      0.961919   -4.558574   -2.219348
  H      3.087200   -4.146152   -0.975005
  H      3.421215   -1.997604    0.224833
  N     -1.832668   -0.730345   -1.177594
  C     -2.768138    0.336365   -1.255679
  C     -4.117766   -0.049212   -1.211723
  C     -5.125267    0.917214   -1.241578
  C     -4.789132    2.272972   -1.320013
  C     -3.440111    2.659896   -1.370380
  C     -2.430027    1.702644   -1.337392
  H     -4.350126   -1.109454   -1.141088
  H     -6.169945    0.614945   -1.201967
  H     -5.572353    3.028477   -1.345119
  H     -3.182415    3.715831   -1.434507
  H     -1.381108    1.983835   -1.367057
  H      1.023113    1.564877    1.736291
  C     -0.411645   -0.048670    1.834635
  C     -1.508685    0.784828    2.132287
  C     -2.725322    0.249139    2.555479
  C     -2.864530   -1.133658    2.712514
  C     -1.772563   -1.971814    2.453643
  C     -0.558773   -1.437432    2.024371
  H     -1.406983    1.860572    1.997689
  H     -3.567211    0.909818    2.753604
  H     -3.813087   -1.555359    3.039421
  H     -1.868147   -3.047605    2.589153
  H      0.283475   -2.094509    1.827415

 Total Charge           Charge          ....    0
 Multiplicity           Mult            ....    1
 Number of Electrons    NEL             ....  190
 Basis Dimension        Dim             ....  460

ORBITAL ENERGIES
----------------

  NO   OCC          E(Eh)            E(eV)
   0   2.0000     -14.688179      -399.6857
   1   2.0000     -14.685952      -399.6251
   2   2.0000     -10.485184      -285.3164
   3   2.0000     -10.479245      -285.1548
   4   2.0000     -10.470492      -284.9166
   5   2.0000     -10.466774      -284.8154
   6   2.0000     -10.463141      -284.7165
   7   2.0000     -10.458425      -284.5882
   8   2.0000     -10.458015      -284.5770
   9   2.0000     -10.457496      -284.5629
  10   2.0000     -10.457226      -284.5556
  11   2.0000     -10.456259      -284.5293
  12   2.0000     -10.455845      -284.5180
  13   2.0000     -10.455593      -284.5112
  14   2.0000     -10.455568      -284.5105
  15   2.0000     -10.454865      -284.4913
  16   2.0000     -10.454794      -284.4894
  17   2.0000     -10.453269      -284.4479
  18   2.0000     -10.451895      -284.4105
  19   2.0000     -10.451374      -284.3963
  20   2.0000     -10.451005      -284.3863
  21   2.0000     -10.450730      -284.3788
  22   2.0000     -10.449557      -284.3469
  23   2.0000     -10.446031      -284.2509
  24   2.0000     -10.445872      -284.2466
  25   2.0000     -10.444982      -284.2224
  26   2.0000     -10.444854      -284.2189
  27   2.0000     -10.443700      -284.1875
  28   2.0000      -1.137845       -30.9623
  29   2.0000      -0.979114       -26.6431
  30   2.0000      -0.960361       -26.1327
  31   2.0000      -0.950462       -25.8634
  32   2.0000      -0.949628       -25.8407
  33   2.0000      -0.903932       -24.5972
  34   2.0000      -0.888409       -24.1748
  35   2.0000      -0.852751       -23.2045
  36   2.0000      -0.841035       -22.8857
  37   2.0000      -0.839278       -22.8379
  38   2.0000      -0.833361       -22.6769
  39   2.0000      -0.830173       -22.5901
  40   2.0000      -0.828755       -22.5516
  41   2.0000      -0.793384       -21.5891
  42   2.0000      -0.762906       -20.7597
  43   2.0000      -0.716963       -19.5095
  44   2.0000      -0.697123       -18.9697
  45   2.0000      -0.690563       -18.7912
  46   2.0000      -0.682871       -18.5819
  47   2.0000      -0.677541       -18.4368
  48   2.0000      -0.671739       -18.2789
  49   2.0000      -0.658536       -17.9197
  50   2.0000      -0.640712       -17.4347
  51   2.0000      -0.616956       -16.7882
  52   2.0000      -0.596475       -16.2309
  53   2.0000      -0.584688       -15.9102
  54   2.0000      -0.576964       -15.7000
  55   2.0000      -0.560766       -15.2592
  56   2.0000      -0.545079       -14.8323
  57   2.0000      -0.540730       -14.7140
  58   2.0000      -0.529799       -14.4166
  59   2.0000      -0.526035       -14.3141
  60   2.0000      -0.517789       -14.0898
  61   2.0000      -0.512119       -13.9355
  62   2.0000      -0.503487       -13.7006
  63   2.0000      -0.499909       -13.6032
  64   2.0000      -0.495058       -13.4712
  65   2.0000      -0.489504       -13.3201
  66   2.0000      -0.486768       -13.2456
  67   2.0000      -0.480358       -13.0712
  68   2.0000      -0.479027       -13.0350
  69   2.0000      -0.474856       -12.9215
  70   2.0000      -0.473152       -12.8751
  71   2.0000      -0.463582       -12.6147
  72   2.0000      -0.449955       -12.2439
  73   2.0000      -0.429669       -11.6919
  74   2.0000      -0.424545       -11.5525
  75   2.0000      -0.422056       -11.4847
  76   2.0000      -0.418510       -11.3882
  77   2.0000      -0.415596       -11.3089
  78   2.0000      -0.410478       -11.1697
  79   2.0000      -0.405549       -11.0355
  80   2.0000      -0.400997       -10.9117
  81   2.0000      -0.399436       -10.8692
  82   2.0000      -0.394389       -10.7319
  83   2.0000      -0.387739       -10.5509
  84   2.0000      -0.383201       -10.4274
  85   2.0000      -0.347644        -9.4599
  86   2.0000      -0.316572        -8.6144
  87   2.0000      -0.301393        -8.2013
  88   2.0000      -0.299208        -8.1419
  89   2.0000      -0.294805        -8.0220
  90   2.0000      -0.291968        -7.9449
  91   2.0000      -0.286269        -7.7898
  92   2.0000      -0.278693        -7.5836
  93   2.0000      -0.266219        -7.2442
  94   2.0000      -0.240163        -6.5352
  95   0.0000      -0.058613        -1.5949
  96   0.0000      -0.033924        -0.9231
  97   0.0000       0.005867         0.1596
  98   0.0000       0.011770         0.3203
  99   0.0000       0.016117         0.4386

MULLIKEN ATOMIC CHARGES
-----------------------
   0 C :   -0.288628
   1 C :    0.129114
   2 C :    0.081128
   3 C :   -0.288289
   4 C :   -0.207495
   5 C :   -0.233881
   6 C :   -0.206864
   7 C :   -0.273372
   8 H :    0.223545
   9 H :    0.219909
  10 H :    0.220548
  11 H :    0.220998
  12 H :    0.237522
  13 C :   -0.069759
  14 C :    0.219384
  15 C :   -0.238635
  16 C :   -0.233296
  17 C :   -0.216692
  18 C :   -0.253505
  19 N :   -0.244368
  20 H :    0.243443
  21 H :    0.225676
  22 H :    0.225295
  23 H :    0.238160
  24 N :   -0.253278
  25 C :    0.237040
  26 C :   -0.247091
  27 C :   -0.219973
  28 C :   -0.222183
  29 C :   -0.221458
  30 C :   -0.240221
  31 H :    0.239091
  32 H :    0.223006
  33 H :    0.224692
  34 H :    0.225210
  35 H :    0.259808
  36 H :    0.222878
  37 C :    0.114270
  38 C :   -0.271486
  39 C :   -0.199528
  40 C :   -0.234832
  41 C :   -0.199515
  42 C :   -0.277197
  43 H :    0.214219
  44 H :    0.219126
  45 H :    0.216892
  46 H :    0.218284
  47 H :    0.242308
Sum of atomic charges:   -0.0000000

LOEWDIN ATOMIC CHARGES
----------------------
   0 C :   -0.107411
   1 C :   -0.029938
   2 C :   -0.038475
   3 C :   -0.129589
   4 C :   -0.134319
   5 C :   -0.136183
   6 C :   -0.133861
   7 C :   -0.120992
   8 H :    0.139998
   9 H :    0.137060
  10 H :    0.136565
  11 H :    0.137476
  12 H :    0.146985
  13 C :   -0.039757
  14 C :   -0.011680
  15 C :   -0.126112
  16 C :   -0.132708
  17 C :   -0.132041
  18 C :   -0.120555
  19 N :   -0.035099
  20 H :    0.150586
  21 H :    0.139130
  22 H :    0.139457
  23 H :    0.147459
  24 N :   -0.039965
  25 C :   -0.027460
  26 C :   -0.115536
  27 C :   -0.138800
  28 C :   -0.126730
  29 C :   -0.135909
  30 C :   -0.122219
  31 H :    0.148192
  32 H :    0.138145
  33 H :    0.137811
  34 H :    0.137999
  35 H :    0.155040
  36 H :    0.142992
  37 C :   -0.054712
  38 C :   -0.120477
  39 C :   -0.131267
  40 C :   -0.135002
  41 C :   -0.131676
  42 C :   -0.118588
  43 H :    0.136898
  44 H :    0.137469
  45 H :    0.135045
  46 H :    0.136512
  47 H :    0.146242

  Mayer bond orders larger than 0.100000
B(  0-C ,  1-C ) :   1.7032 B(  0-C , 36-H ) :   0.9138 B(  0-C , 37-C ) :   1.0482
B(  1-C ,  2-C ) :   1.0282 B(  1-C , 13-C ) :   1.0050 B(  2-C ,  3-C ) :   1.3670
B(  2-C ,  7-C ) :   1.3647 B(  3-C ,  4-C ) :   1.4282 B(  3-C ,  8-H ) :   0.9164
B(  4-C ,  5-C ) :   1.4164 B(  4-C ,  9-H ) :   0.9200 B(  5-C ,  6-C ) :   1.4150
B(  5-C , 10-H ) :   0.9189 B(  6-C ,  7-C ) :   1.4302 B(  6-C , 11-H ) :   0.9199
B(  7-C , 12-H ) :   0.9113 B( 13-C , 14-C ) :   1.3289 B( 13-C , 18-C ) :   1.3862
B( 14-C , 15-C ) :   1.3203 B( 14-C , 19-N ) :   1.1168 B( 15-C , 16-C ) :   1.4254
B( 15-C , 20-H ) :   0.8989 B( 16-C , 17-C ) :   1.3966 B( 16-C , 21-H ) :   0.9187
B( 17-C , 18-C ) :   1.4374 B( 17-C , 22-H ) :   0.9176 B( 18-C , 23-H ) :   0.9129
B( 19-N , 24-N ) :   1.7356 B( 24-N , 25-C ) :   1.1012 B( 25-C , 26-C ) :   1.3699
B( 25-C , 30-C ) :   1.3070 B( 26-C , 27-C ) :   1.4148 B( 26-C , 31-H ) :   0.9049
B( 27-C , 28-C ) :   1.4301 B( 27-C , 32-H ) :   0.9199 B( 28-C , 29-C ) :   1.3978
B( 28-C , 33-H ) :   0.9183 B( 29-C , 30-C ) :   1.4322 B( 29-C , 34-H ) :   0.9200
B( 30-C , 35-H ) :   0.8891 B( 37-C , 38-C ) :   1.3540 B( 37-C , 42-C ) :   1.3654
B( 38-C , 39-C ) :   1.4323 B( 38-C , 43-H ) :   0.9232 B( 39-C , 40-C ) :   1.4183
B( 39-C , 44-H ) :   0.9198 B( 40-C , 41-C ) :   1.4069 B( 40-C , 45-H ) :   0.9203
B( 41-C , 42-C ) :   1.4404 B( 41-C , 46-H ) :   0.9208 B( 42-C , 47-H ) :   0.9085

Dispersion correction           -0.041140083
FINAL SINGLE POINT ENERGY     -1109.799732284409

DIPOLE MOMENT
-------------
                                X             Y             Z
Electronic contribution:      0.22683      -2.12483      -2.08662
Nuclear contribution   :     -0.38103       2.15274       2.04144
                        -----------------------------------------
Total Dipole Moment    :     -0.15420       0.02792      -0.04517
                        -----------------------------------------
Magnitude (a.u.)       :      0.16309
Magnitude (Debye)      :      0.41454

Rotational constants in cm-1:     0.008885     0.004208     0.003914
Rotational constants in MHz :   266.367680   126.155370   117.341786

                             ****ORCA TERMINATED NORMALLY****
TOTAL RUN TIME: 0 days 0 hours 10 minutes 46 seconds 894 msec
