                         Program Version 5.0.3 -  RELEASE  -
|  1> ! PBEh-3c def2/J TightSCF DefGrid3
|  2>
|  3> %maxcore 60000
|  4>
|  5> %scf
|  6>     guess hueckel
|  7> end
|  8>
|  9> %pal
| 10> nprocs 4
| 11> end
| 12>
| 13> *xyzfile 0 3 RKT17.xyz
| 14>
| 15>                          ****END OF INPUT****

CARTESIAN COORDINATES (ANGSTROEM)
---------------------------------
  Cl     0.163103   -1.289889    0.000000
  H     -0.326205    0.096894    0.000000
  O      0.163103    1.192995    0.000000

 Total Charge           Charge          ....    0
 Multiplicity           Mult            ....    3
 Number of Electrons    NEL             ....   26
 Basis Dimension        Dim             ....   35

ORBITAL ENERGIES
----------------
                 SPIN UP ORBITALS
  NO   OCC          E(Eh)            E(eV)
   0   1.0000    -102.313571     -2784.0938
   1   1.0000     -19.664171      -535.0893
   2   1.0000      -9.780603      -266.1437
   3   1.0000      -7.472970      -203.3499
   4   1.0000      -7.459521      -202.9839
   5   1.0000      -7.459056      -202.9712
   6   1.0000      -1.188216       -32.3330
   7   1.0000      -0.924389       -25.1539
   8   1.0000      -0.629983       -17.1427
   9   1.0000      -0.563848       -15.3431
  10   1.0000      -0.502928       -13.6854
  11   1.0000      -0.421574       -11.4716
  12   1.0000      -0.387715       -10.5502
  13   1.0000      -0.385735       -10.4964
  14   0.0000       0.140956         3.8356
  15   0.0000       0.507456        13.8086
  16   0.0000       0.619856        16.8671
  17   0.0000       0.758273        20.6337
  18   0.0000       0.769296        20.9336

                 SPIN DOWN ORBITALS
  NO   OCC          E(Eh)            E(eV)
   0   1.0000    -102.309563     -2783.9847
   1   1.0000     -19.615471      -533.7641
   2   1.0000      -9.776771      -266.0395
   3   1.0000      -7.460174      -203.0017
   4   1.0000      -7.456313      -202.8966
   5   1.0000      -7.456095      -202.8906
   6   1.0000      -1.038142       -28.2493
   7   1.0000      -0.884214       -24.0607
   8   1.0000      -0.544767       -14.8239
   9   1.0000      -0.406144       -11.0517
  10   1.0000      -0.377847       -10.2817
  11   1.0000      -0.375975       -10.2308
  12   0.0000      -0.177309        -4.8248
  13   0.0000      -0.140799        -3.8313
  14   0.0000       0.169073         4.6007
  15   0.0000       0.518977        14.1221
  16   0.0000       0.649884        17.6842

MULLIKEN ATOMIC CHARGES AND SPIN POPULATIONS
--------------------------------------------
   0 Cl:   -0.260525    0.435331
   1 H :    0.395081   -0.074263
   2 O :   -0.134557    1.638931
Sum of atomic charges         :   -0.0000000

LOEWDIN ATOMIC CHARGES AND SPIN POPULATIONS
-------------------------------------------
   0 Cl:   -0.170679    0.425774
   1 H :    0.254214   -0.051668
   2 O :   -0.083535    1.625894

  Mayer bond orders larger than 0.100000
B(  0-Cl,  1-H ) :   0.4568 B(  0-Cl,  2-O ) :   0.3975 B(  1-H ,  2-O ) :   0.3691

Dispersion correction           -0.000491832
FINAL SINGLE POINT ENERGY      -535.198615509984

DIPOLE MOMENT
-------------
                                X             Y             Z
Electronic contribution:      0.17962      -1.28338       0.00000
Nuclear contribution   :     -0.46272       1.64288       0.00000
                        -----------------------------------------
Total Dipole Moment    :     -0.28310       0.35950       0.00000
                        -----------------------------------------
Magnitude (a.u.)       :      0.45758
Magnitude (Debye)      :      1.16308

Rotational constants in cm-1:    71.612095     0.246690     0.245843
Rotational constants in MHz : 2146876.602084  7395.578736  7370.189844

                             ****ORCA TERMINATED NORMALLY****
TOTAL RUN TIME: 0 days 0 hours 0 minutes 11 seconds 414 msec
