                         Program Version 5.0.3 -  RELEASE  -
|  1> ! PBEh-3c def2/J TightSCF DefGrid3
|  2>
|  3> %maxcore 60000
|  4>
|  5> %pal
|  6> nprocs 4
|  7> end
|  8>
|  9> *xyzfile 0 1 h2o_5.xyz
| 10>
| 11>                          ****END OF INPUT****

CARTESIAN COORDINATES (ANGSTROEM)
---------------------------------
  O      0.805713   -2.160678   -0.129657
  H     -0.152520   -1.938952   -0.065621
  H     -1.917942   -0.465987    0.032396
  H      0.921283    2.713834   -0.841416
  H      0.906250   -2.674790   -0.935118
  H     -2.324752   -1.767187    0.785714
  H      1.272148    1.478649    0.033495
  O      0.634538    2.223874   -0.066158
  O     -1.815088   -1.445336    0.037870
  H      1.801031   -0.749603    0.044921
  O      2.307120    0.089530    0.153151
  H      2.839095   -0.019114    0.945695
  O     -1.920699    1.284208   -0.055719
  H     -1.009279    1.659837   -0.065720
  H     -2.427986    1.830532    0.549756

 Total Charge           Charge          ....    0
 Multiplicity           Mult            ....    1
 Number of Electrons    NEL             ....   50
 Basis Dimension        Dim             ....   95

ORBITAL ENERGIES
----------------

  NO   OCC          E(Eh)            E(eV)
   0   2.0000     -19.472522      -529.8743
   1   2.0000     -19.471133      -529.8365
   2   2.0000     -19.470847      -529.8287
   3   2.0000     -19.470765      -529.8264
   4   2.0000     -19.469925      -529.8036
   5   2.0000      -1.108019       -30.1507
   6   2.0000      -1.098779       -29.8993
   7   2.0000      -1.097880       -29.8748
   8   2.0000      -1.082586       -29.4587
   9   2.0000      -1.081625       -29.4325
  10   2.0000      -0.586966       -15.9721
  11   2.0000      -0.582611       -15.8536
  12   2.0000      -0.580776       -15.8037
  13   2.0000      -0.577720       -15.7206
  14   2.0000      -0.576322       -15.6825
  15   2.0000      -0.471969       -12.8429
  16   2.0000      -0.469100       -12.7649
  17   2.0000      -0.427392       -11.6299
  18   2.0000      -0.425472       -11.5777
  19   2.0000      -0.398363       -10.8400
  20   2.0000      -0.360535        -9.8106
  21   2.0000      -0.356961        -9.7134
  22   2.0000      -0.356496        -9.7008
  23   2.0000      -0.355570        -9.6756
  24   2.0000      -0.352469        -9.5912
  25   0.0000       0.118615         3.2277
  26   0.0000       0.148529         4.0417
  27   0.0000       0.150888         4.1059
  28   0.0000       0.180008         4.8983
  29   0.0000       0.180416         4.9094

MULLIKEN ATOMIC CHARGES
-----------------------
   0 O :   -0.879023
   1 H :    0.461009
   2 H :    0.462162
   3 H :    0.417964
   4 H :    0.418725
   5 H :    0.415286
   6 H :    0.461167
   7 O :   -0.878488
   8 O :   -0.874828
   9 H :    0.460988
  10 O :   -0.879317
  11 H :    0.417831
  12 O :   -0.878502
  13 H :    0.460373
  14 H :    0.414653
Sum of atomic charges:    0.0000000

LOEWDIN ATOMIC CHARGES
----------------------
   0 O :   -0.609051
   1 H :    0.303849
   2 H :    0.305047
   3 H :    0.305544
   4 H :    0.305992
   5 H :    0.303575
   6 H :    0.303931
   7 O :   -0.609082
   8 O :   -0.605519
   9 H :    0.303804
  10 O :   -0.609601
  11 H :    0.305319
  12 O :   -0.610409
  13 H :    0.303608
  14 H :    0.302993

  Mayer bond orders larger than 0.100000
B(  0-O ,  1-H ) :   0.6601 B(  0-O ,  4-H ) :   0.8049 B(  0-O ,  9-H ) :   0.1526
B(  1-H ,  8-O ) :   0.1516 B(  2-H ,  8-O ) :   0.6626 B(  2-H , 12-O ) :   0.1465
B(  3-H ,  7-O ) :   0.8055 B(  5-H ,  8-O ) :   0.8069 B(  6-H ,  7-O ) :   0.6597
B(  6-H , 10-O ) :   0.1521 B(  7-O , 13-H ) :   0.1527 B(  9-H , 10-O ) :   0.6590
B( 10-O , 11-H ) :   0.8054 B( 12-O , 13-H ) :   0.6596 B( 12-O , 14-H ) :   0.8078

Dispersion correction           -0.003791059
FINAL SINGLE POINT ENERGY      -381.361290485188

DIPOLE MOMENT
-------------
                                X             Y             Z
Electronic contribution:      0.01632      -0.02569      -0.06773
Nuclear contribution   :     -0.09642       0.06994       0.50368
                        -----------------------------------------
Total Dipole Moment    :     -0.08010       0.04425       0.43595
                        -----------------------------------------
Magnitude (a.u.)       :      0.44545
Magnitude (Debye)      :      1.13226

Rotational constants in cm-1:     0.067848     0.067698     0.034469
Rotational constants in MHz :  2034.044829  2029.549697  1033.366437

                             ****ORCA TERMINATED NORMALLY****
TOTAL RUN TIME: 0 days 0 hours 1 minutes 5 seconds 10 msec
