                         Program Version 5.0.3 -  RELEASE  -
|  1> ! PBEh-3c def2/J TightSCF DefGrid3
|  2>
|  3> %maxcore 60000
|  4>
|  5> %pal
|  6> nprocs 4
|  7> end
|  8>
|  9> *xyzfile 0 1 B56.xyz
| 10>
| 11>                          ****END OF INPUT****

CARTESIAN COORDINATES (ANGSTROEM)
---------------------------------
  C     -0.258262    1.549067   -0.420258
  H     -1.352974    1.508344   -0.447754
  O      0.201148    2.896350   -0.377879
  C      0.258262    0.720613    0.750754
  H      1.350434    0.733580    0.736152
  H     -0.050166    1.208410    1.679875
  C     -0.258262   -0.720613    0.750754
  H     -1.350434   -0.733580    0.736152
  H      0.050166   -1.208410    1.679875
  H     -0.125577    3.285169    0.438034
  H      0.108012    1.154720   -1.366254
  C      0.258262   -1.549067   -0.420258
  H     -0.108012   -1.154720   -1.366254
  H      1.352974   -1.508344   -0.447754
  O     -0.201148   -2.896350   -0.377879
  H      0.125577   -3.285169    0.438034

 Total Charge           Charge          ....    0
 Multiplicity           Mult            ....    1
 Number of Electrons    NEL             ....   50
 Basis Dimension        Dim             ....  110

ORBITAL ENERGIES
----------------

  NO   OCC          E(Eh)            E(eV)
   0   2.0000     -19.486372      -530.2511
   1   2.0000     -19.486339      -530.2503
   2   2.0000     -10.482901      -285.2542
   3   2.0000     -10.482887      -285.2538
   4   2.0000     -10.441403      -284.1250
   5   2.0000     -10.441189      -284.1192
   6   2.0000      -1.123554       -30.5735
   7   2.0000      -1.122884       -30.5552
   8   2.0000      -0.890528       -24.2325
   9   2.0000      -0.792062       -21.5531
  10   2.0000      -0.722761       -19.6673
  11   2.0000      -0.664112       -18.0714
  12   2.0000      -0.583059       -15.8658
  13   2.0000      -0.563908       -15.3447
  14   2.0000      -0.530016       -14.4225
  15   2.0000      -0.499985       -13.6053
  16   2.0000      -0.496365       -13.5068
  17   2.0000      -0.461529       -12.5588
  18   2.0000      -0.444864       -12.1054
  19   2.0000      -0.434020       -11.8103
  20   2.0000      -0.403752       -10.9866
  21   2.0000      -0.381013       -10.3679
  22   2.0000      -0.368687       -10.0325
  23   2.0000      -0.327369        -8.9082
  24   2.0000      -0.324179        -8.8214
  25   0.0000       0.119078         3.2403
  26   0.0000       0.127417         3.4672
  27   0.0000       0.142623         3.8810
  28   0.0000       0.164596         4.4789
  29   0.0000       0.185940         5.0597

MULLIKEN ATOMIC CHARGES
-----------------------
   0 C :   -0.133902
   1 H :    0.178909
   2 O :   -0.621481
   3 C :   -0.473103
   4 H :    0.224776
   5 H :    0.206506
   6 C :   -0.473103
   7 H :    0.224776
   8 H :    0.206506
   9 H :    0.407696
  10 H :    0.210600
  11 C :   -0.133902
  12 H :    0.210600
  13 H :    0.178909
  14 O :   -0.621481
  15 H :    0.407696
Sum of atomic charges:   -0.0000000

LOEWDIN ATOMIC CHARGES
----------------------
   0 C :   -0.095943
   1 H :    0.097714
   2 O :   -0.408943
   3 C :   -0.267291
   4 H :    0.129081
   5 H :    0.120892
   6 C :   -0.267291
   7 H :    0.129081
   8 H :    0.120892
   9 H :    0.305333
  10 H :    0.119157
  11 C :   -0.095943
  12 H :    0.119157
  13 H :    0.097714
  14 O :   -0.408943
  15 H :    0.305333

  Mayer bond orders larger than 0.100000
B(  0-C ,  1-H ) :   0.9086 B(  0-C ,  2-O ) :   1.0194 B(  0-C ,  3-C ) :   0.9756
B(  0-C , 10-H ) :   0.9121 B(  2-O ,  9-H ) :   0.7950 B(  3-C ,  4-H ) :   0.9102
B(  3-C ,  5-H ) :   0.9222 B(  3-C ,  6-C ) :   0.9560 B(  6-C ,  7-H ) :   0.9102
B(  6-C ,  8-H ) :   0.9222 B(  6-C , 11-C ) :   0.9756 B( 11-C , 12-H ) :   0.9121
B( 11-C , 13-H ) :   0.9086 B( 11-C , 14-O ) :   1.0194 B( 14-O , 15-H ) :   0.7950

Dispersion correction           -0.006576643
FINAL SINGLE POINT ENERGY      -308.205831944524

DIPOLE MOMENT
-------------
                                X             Y             Z
Electronic contribution:     -0.00000       0.00000      -1.13140
Nuclear contribution   :      0.00000      -0.00000       2.15498
                        -----------------------------------------
Total Dipole Moment    :     -0.00000       0.00000       1.02358
                        -----------------------------------------
Magnitude (a.u.)       :      1.02358
Magnitude (Debye)      :      2.60173

Rotational constants in cm-1:     0.372548     0.043954     0.041566
Rotational constants in MHz : 11168.694689  1317.701572  1246.121813

                             ****ORCA TERMINATED NORMALLY****
TOTAL RUN TIME: 0 days 0 hours 1 minutes 28 seconds 752 msec
