                         Program Version 5.0.3 -  RELEASE  -
|  1> ! PBEh-3c def2/J TightSCF DefGrid3
|  2>
|  3> %maxcore 60000
|  4>
|  5> %pal
|  6> nprocs 4
|  7> end
|  8>
|  9> *xyzfile 0 2 of.xyz
| 10>
| 11>                          ****END OF INPUT****

CARTESIAN COORDINATES (ANGSTROEM)
---------------------------------
  O     -0.734471    0.000000    0.000000
  F      0.618531    0.000000    0.000000

 Total Charge           Charge          ....    0
 Multiplicity           Mult            ....    2
 Number of Electrons    NEL             ....   17
 Basis Dimension        Dim             ....   30

ORBITAL ENERGIES
----------------
                 SPIN UP ORBITALS
  NO   OCC          E(Eh)            E(eV)
   0   1.0000     -25.189411      -685.4387
   1   1.0000     -19.668814      -535.2156
   2   1.0000      -1.444636       -39.3105
   3   1.0000      -1.063328       -28.9346
   4   1.0000      -0.637051       -17.3350
   5   1.0000      -0.624524       -16.9941
   6   1.0000      -0.600603       -16.3432
   7   1.0000      -0.464127       -12.6295
   8   1.0000      -0.407931       -11.1004
   9   0.0000       0.028598         0.7782
  10   0.0000       0.747361        20.3367
  11   0.0000       0.882134        24.0041
  12   0.0000       0.926656        25.2156
  13   0.0000       1.133010        30.8308

                 SPIN DOWN ORBITALS
  NO   OCC          E(Eh)            E(eV)
   0   1.0000     -25.184353      -685.3011
   1   1.0000     -19.640558      -534.4468
   2   1.0000      -1.420851       -38.6633
   3   1.0000      -0.989616       -26.9288
   4   1.0000      -0.605069       -16.4648
   5   1.0000      -0.590455       -16.0671
   6   1.0000      -0.551089       -14.9959
   7   1.0000      -0.383197       -10.4273
   8   0.0000      -0.120901        -3.2899
   9   0.0000       0.056286         1.5316
  10   0.0000       0.757560        20.6143
  11   0.0000       0.942426        25.6447
  12   0.0000       0.985910        26.8280

MULLIKEN ATOMIC CHARGES AND SPIN POPULATIONS
--------------------------------------------
   0 O :    0.139694    0.914426
   1 F :   -0.139694    0.085574
Sum of atomic charges         :    0.0000000

LOEWDIN ATOMIC CHARGES AND SPIN POPULATIONS
-------------------------------------------
   0 O :    0.126325    0.882835
   1 F :   -0.126325    0.117165

  Mayer bond orders larger than 0.100000
B(  0-O ,  1-F ) :   1.1675

Dispersion correction           -0.000114379
FINAL SINGLE POINT ENERGY      -174.529590175058

DIPOLE MOMENT
-------------
                                X             Y             Z
Electronic contribution:      0.52796       0.00000       0.00000
Nuclear contribution   :     -0.58395       0.00000       0.00000
                        -----------------------------------------
Total Dipole Moment    :     -0.05599       0.00000       0.00000
                        -----------------------------------------
Magnitude (a.u.)       :      0.05599
Magnitude (Debye)      :      0.14232

Rotational constants in cm-1:     0.000000     1.060303     1.060303
Rotational constants in MHz :     0.000000 31787.098434 31787.098434

                             ****ORCA TERMINATED NORMALLY****
TOTAL RUN TIME: 0 days 0 hours 0 minutes 58 seconds 393 msec
