                         Program Version 5.0.3 -  RELEASE  -
|  1> ! PBEh-3c def2/J TightSCF DefGrid3
|  2>
|  3> %maxcore 60000
|  4>
|  5> %pal
|  6> nprocs 4
|  7> end
|  8>
|  9> *xyzfile 0 1 22B.xyz
| 10>
| 11>                          ****END OF INPUT****

CARTESIAN COORDINATES (ANGSTROEM)
---------------------------------
  N      0.520349   -1.193392    0.000000
  H      0.913578   -2.124740    0.000000
  C      1.441930   -0.129732    0.000000
  O      2.639145   -0.353978    0.000000
  C      0.802829    1.172140    0.000000
  H      1.422402    2.052172    0.000000
  C     -0.544333    1.256109    0.000000
  H     -1.067203    2.200944    0.000000
  N     -1.348112    0.148966    0.000000
  H     -2.372221    0.222051    0.000000
  C     -0.848148   -1.122986    0.000000
  O     -1.560217   -2.127555    0.000000

 Total Charge           Charge          ....    0
 Multiplicity           Mult            ....    1
 Number of Electrons    NEL             ....   58
 Basis Dimension        Dim             ....  128

ORBITAL ENERGIES
----------------

  NO   OCC          E(Eh)            E(eV)
   0   2.0000     -19.478578      -530.0391
   1   2.0000     -19.477140      -529.9999
   2   2.0000     -14.722799      -400.6277
   3   2.0000     -14.697351      -399.9352
   4   2.0000     -10.607004      -288.6313
   5   2.0000     -10.575224      -287.7665
   6   2.0000     -10.540859      -286.8314
   7   2.0000     -10.469951      -284.9018
   8   2.0000      -1.193545       -32.4780
   9   2.0000      -1.157802       -31.5054
  10   2.0000      -1.092197       -29.7202
  11   2.0000      -1.035528       -28.1781
  12   2.0000      -0.901785       -24.5388
  13   2.0000      -0.783760       -21.3272
  14   2.0000      -0.750123       -20.4119
  15   2.0000      -0.679065       -18.4783
  16   2.0000      -0.639140       -17.3919
  17   2.0000      -0.595313       -16.1993
  18   2.0000      -0.554301       -15.0833
  19   2.0000      -0.546169       -14.8620
  20   2.0000      -0.519411       -14.1339
  21   2.0000      -0.489571       -13.3219
  22   2.0000      -0.486903       -13.2493
  23   2.0000      -0.469621       -12.7790
  24   2.0000      -0.428960       -11.6726
  25   2.0000      -0.357224        -9.7205
  26   2.0000      -0.339328        -9.2336
  27   2.0000      -0.328440        -8.9373
  28   2.0000      -0.302000        -8.2178
  29   0.0000      -0.024974        -0.6796
  30   0.0000       0.039195         1.0666
  31   0.0000       0.089019         2.4223
  32   0.0000       0.153008         4.1635
  33   0.0000       0.160300         4.3620

MULLIKEN ATOMIC CHARGES
-----------------------
   0 N :   -0.718558
   1 H :    0.401240
   2 C :    0.566478
   3 O :   -0.389002
   4 C :   -0.452946
   5 H :    0.268149
   6 C :    0.083579
   7 H :    0.272672
   8 N :   -0.672072
   9 H :    0.397811
  10 C :    0.677129
  11 O :   -0.434482
Sum of atomic charges:    0.0000000

LOEWDIN ATOMIC CHARGES
----------------------
   0 N :   -0.201115
   1 H :    0.288160
   2 C :    0.124410
   3 O :   -0.239207
   4 C :   -0.239450
   5 H :    0.164596
   6 C :   -0.012716
   7 H :    0.149949
   8 N :   -0.180813
   9 H :    0.288644
  10 C :    0.142795
  11 O :   -0.285253

  Mayer bond orders larger than 0.100000
B(  0-N ,  1-H ) :   0.7972 B(  0-N ,  2-C ) :   0.9751 B(  0-N , 10-C ) :   1.0757
B(  2-C ,  3-O ) :   2.0439 B(  2-C ,  4-C ) :   1.0547 B(  4-C ,  5-H ) :   0.9055
B(  4-C ,  6-C ) :   1.6456 B(  6-C ,  7-H ) :   0.8995 B(  6-C ,  8-N ) :   1.0762
B(  8-N ,  9-H ) :   0.8038 B(  8-N , 10-C ) :   1.0395 B( 10-C , 11-O ) :   2.0220

Dispersion correction           -0.006238690
FINAL SINGLE POINT ENERGY      -413.936906929585

DIPOLE MOMENT
-------------
                                X             Y             Z
Electronic contribution:      0.38494      -2.02254      -0.00000
Nuclear contribution   :     -1.52441       3.44335       0.00000
                        -----------------------------------------
Total Dipole Moment    :     -1.13947       1.42080      -0.00000
                        -----------------------------------------
Magnitude (a.u.)       :      1.82128
Magnitude (Debye)      :      4.62933

Rotational constants in cm-1:     0.130378     0.067584     0.044511
Rotational constants in MHz :  3908.636370  2026.126073  1334.407255

                             ****ORCA TERMINATED NORMALLY****
TOTAL RUN TIME: 0 days 0 hours 1 minutes 43 seconds 466 msec
