                         Program Version 5.0.3 -  RELEASE  -
|  1> ! PBEh-3c def2/J TightSCF DefGrid3
|  2>
|  3> %maxcore 60000
|  4>
|  5> %pal
|  6> nprocs 4
|  7> end
|  8>
|  9> *xyzfile 0 1 13ts_8a.xyz
| 10>
| 11>                          ****END OF INPUT****

CARTESIAN COORDINATES (ANGSTROEM)
---------------------------------
  C     -1.230579    0.500861    0.106765
  C     -1.213140   -0.876897    0.079662
  N      1.047477   -1.339438   -0.096958
  N      1.419309   -0.139499    0.314813
  C      0.941130    1.021890   -0.166607
  H     -1.556874    1.059852   -0.763154
  H     -1.331109    1.025880    1.049805
  H     -1.464244   -1.417461   -0.825465
  H     -1.241659   -1.458840    0.990086
  H      0.855680   -1.252457   -1.095413
  H      1.698578   -0.136819    1.289561
  H      1.246156    1.920978    0.357091
  H      0.829275    1.091950   -1.240183

 Total Charge           Charge          ....    0
 Multiplicity           Mult            ....    1
 Number of Electrons    NEL             ....   40
 Basis Dimension        Dim             ....   91

ORBITAL ENERGIES
----------------

  NO   OCC          E(Eh)            E(eV)
   0   2.0000     -14.719245      -400.5310
   1   2.0000     -14.637581      -398.3088
   2   2.0000     -10.479646      -285.1657
   3   2.0000     -10.427354      -283.7427
   4   2.0000     -10.426459      -283.7184
   5   2.0000      -1.121123       -30.5073
   6   2.0000      -0.873577       -23.7712
   7   2.0000      -0.827062       -22.5055
   8   2.0000      -0.733035       -19.9469
   9   2.0000      -0.639646       -17.4056
  10   2.0000      -0.582842       -15.8599
  11   2.0000      -0.557519       -15.1709
  12   2.0000      -0.513181       -13.9644
  13   2.0000      -0.480582       -13.0773
  14   2.0000      -0.460974       -12.5437
  15   2.0000      -0.452638       -12.3169
  16   2.0000      -0.391853       -10.6629
  17   2.0000      -0.337536        -9.1848
  18   2.0000      -0.275913        -7.5080
  19   2.0000      -0.245601        -6.6831
  20   0.0000       0.018105         0.4927
  21   0.0000       0.094122         2.5612
  22   0.0000       0.127508         3.4697
  23   0.0000       0.150007         4.0819
  24   0.0000       0.183505         4.9934

MULLIKEN ATOMIC CHARGES
-----------------------
   0 C :   -0.488751
   1 C :   -0.460844
   2 N :   -0.438600
   3 N :   -0.253099
   4 C :   -0.369763
   5 H :    0.214747
   6 H :    0.215604
   7 H :    0.209731
   8 H :    0.227513
   9 H :    0.313453
  10 H :    0.371131
  11 H :    0.222039
  12 H :    0.236839
Sum of atomic charges:   -0.0000000

LOEWDIN ATOMIC CHARGES
----------------------
   0 C :   -0.310917
   1 C :   -0.292022
   2 N :   -0.338156
   3 N :   -0.052125
   4 C :   -0.246881
   5 H :    0.126245
   6 H :    0.126794
   7 H :    0.123703
   8 H :    0.132417
   9 H :    0.211937
  10 H :    0.256337
  11 H :    0.130818
  12 H :    0.131851

  Mayer bond orders larger than 0.100000
B(  0-C ,  1-C ) :   1.5565 B(  0-C ,  4-C ) :   0.3704 B(  0-C ,  5-H ) :   0.9258
B(  0-C ,  6-H ) :   0.9295 B(  1-C ,  2-N ) :   0.3675 B(  1-C ,  7-H ) :   0.9309
B(  1-C ,  8-H ) :   0.9287 B(  2-N ,  3-N ) :   1.3376 B(  2-N ,  4-C ) :   0.2211
B(  2-N ,  9-H ) :   0.8507 B(  3-N ,  4-C ) :   1.2988 B(  3-N , 10-H ) :   0.8152
B(  4-C , 11-H ) :   0.9121 B(  4-C , 12-H ) :   0.9129

Dispersion correction           -0.005948294
FINAL SINGLE POINT ENERGY      -227.986507640307

DIPOLE MOMENT
-------------
                                X             Y             Z
Electronic contribution:      2.87044      -1.19464       0.53860
Nuclear contribution   :     -2.51005       2.03658      -0.53969
                        -----------------------------------------
Total Dipole Moment    :      0.36040       0.84194      -0.00109
                        -----------------------------------------
Magnitude (a.u.)       :      0.91584
Magnitude (Debye)      :      2.32787

Rotational constants in cm-1:     0.237707     0.152603     0.104295
Rotational constants in MHz :  7126.275811  4574.932038  3126.674891

                             ****ORCA TERMINATED NORMALLY****
TOTAL RUN TIME: 0 days 0 hours 1 minutes 40 seconds 949 msec
