                         Program Version 5.0.3 -  RELEASE  -
|  1> ! PBEh-3c def2/J TightSCF DefGrid3
|  2>
|  3> %maxcore 60000
|  4>
|  5> %pal
|  6> nprocs 4
|  7> end
|  8>
|  9> *xyzfile 0 1 212.xyz
| 10>
| 11>                          ****END OF INPUT****

CARTESIAN COORDINATES (ANGSTROEM)
---------------------------------
  C     -0.641960   -1.190040   -0.607250
  N     -0.011160    0.023440    0.001330
  C     -0.628430    1.353510   -0.354760
  C     -2.033740    1.552390    0.210340
  H      0.052160   -0.075540    1.025180
  H      0.958680    0.055750   -0.343930
  H     -0.608780   -1.066070   -1.693390
  H     -0.031130   -2.056360   -0.336590
  H     -1.670280   -1.318360   -0.258010
  H     -2.389350    2.557950   -0.046570
  H     -2.752490    0.833690   -0.201850
  H     -2.043350    1.466110    1.306110
  H     -0.601620    1.406470   -1.448970
  H      0.076700    2.106620    0.016470
  Cl     2.552840    0.157990   -1.225870

 Total Charge           Charge          ....    0
 Multiplicity           Mult            ....    1
 Number of Electrons    NEL             ....   52
 Basis Dimension        Dim             ....   98

ORBITAL ENERGIES
----------------

  NO   OCC          E(Eh)            E(eV)
   0   2.0000    -102.121478     -2778.8667
   1   2.0000     -14.747433      -401.2981
   2   2.0000     -10.524330      -286.3816
   3   2.0000     -10.517069      -286.1840
   4   2.0000     -10.479018      -285.1486
   5   2.0000      -9.586721      -260.8679
   6   2.0000      -7.270966      -197.8530
   7   2.0000      -7.268678      -197.7908
   8   2.0000      -7.268628      -197.7894
   9   2.0000      -1.110302       -30.2129
  10   2.0000      -0.892191       -24.2778
  11   2.0000      -0.823015       -22.3954
  12   2.0000      -0.743236       -20.2245
  13   2.0000      -0.731329       -19.9005
  14   2.0000      -0.645722       -17.5710
  15   2.0000      -0.615297       -16.7431
  16   2.0000      -0.569291       -15.4912
  17   2.0000      -0.532480       -14.4895
  18   2.0000      -0.503230       -13.6936
  19   2.0000      -0.497148       -13.5281
  20   2.0000      -0.470401       -12.8003
  21   2.0000      -0.463300       -12.6070
  22   2.0000      -0.445493       -12.1225
  23   2.0000      -0.241449        -6.5701
  24   2.0000      -0.225713        -6.1420
  25   2.0000      -0.225471        -6.1354
  26   0.0000       0.067924         1.8483
  27   0.0000       0.112954         3.0736
  28   0.0000       0.127241         3.4624
  29   0.0000       0.142915         3.8889
  30   0.0000       0.152409         4.1473

MULLIKEN ATOMIC CHARGES
-----------------------
   0 C :   -0.524146
   1 N :   -0.635051
   2 C :   -0.313359
   3 C :   -0.661842
   4 H :    0.390106
   5 H :    0.385615
   6 H :    0.279255
   7 H :    0.280700
   8 H :    0.237216
   9 H :    0.256422
  10 H :    0.230419
  11 H :    0.222762
  12 H :    0.276783
  13 H :    0.281570
  14 Cl:   -0.706448
Sum of atomic charges:   -0.0000000

LOEWDIN ATOMIC CHARGES
----------------------
   0 C :   -0.254620
   1 N :   -0.181151
   2 C :   -0.148645
   3 C :   -0.375413
   4 H :    0.272721
   5 H :    0.240166
   6 H :    0.158366
   7 H :    0.157457
   8 H :    0.132360
   9 H :    0.151177
  10 H :    0.133884
  11 H :    0.132202
  12 H :    0.152603
  13 H :    0.153634
  14 Cl:   -0.724742

  Mayer bond orders larger than 0.100000
B(  0-C ,  1-N ) :   0.9142 B(  0-C ,  6-H ) :   0.8993 B(  0-C ,  7-H ) :   0.9040
B(  0-C ,  8-H ) :   0.9089 B(  1-N ,  2-C ) :   0.8877 B(  1-N ,  4-H ) :   0.8109
B(  1-N ,  5-H ) :   0.4790 B(  2-C ,  3-C ) :   0.9742 B(  2-C , 12-H ) :   0.8931
B(  2-C , 13-H ) :   0.8970 B(  3-C ,  9-H ) :   0.9134 B(  3-C , 10-H ) :   0.9191
B(  3-C , 11-H ) :   0.9216 B(  5-H , 14-Cl) :   0.4724

Dispersion correction           -0.006666083
FINAL SINGLE POINT ENERGY      -634.403631439039

DIPOLE MOMENT
-------------
                                X             Y             Z
Electronic contribution:     11.71124      -0.95002      -2.86580
Nuclear contribution   :    -15.37923       0.89084       4.37128
                        -----------------------------------------
Total Dipole Moment    :     -3.66799      -0.05917       1.50548
                        -----------------------------------------
Magnitude (a.u.)       :      3.96536
Magnitude (Debye)      :     10.07915

Rotational constants in cm-1:     0.202711     0.049406     0.041872
Rotational constants in MHz :  6077.113204  1481.152399  1255.292017

                             ****ORCA TERMINATED NORMALLY****
TOTAL RUN TIME: 0 days 0 hours 1 minutes 5 seconds 767 msec
