                         Program Version 5.0.3 -  RELEASE  -
|  1> ! PBEh-3c def2/J TightSCF DefGrid3
|  2>
|  3> %maxcore 60000
|  4>
|  5> %pal
|  6> nprocs 4
|  7> end
|  8>
|  9> *xyzfile 0 1 h8.xyz
| 10>
| 11>                          ****END OF INPUT****

CARTESIAN COORDINATES (ANGSTROEM)
---------------------------------
  C     -2.902198    0.536641    0.197362
  C     -1.618347   -0.270670    0.353816
  C     -0.412648    0.569355   -0.064925
  C      0.939940   -0.088335    0.176925
  C      2.110721    0.834165   -0.137752
  C      3.458743    0.165567    0.097033
  C     -1.714604   -1.566767   -0.443915
  H     -3.047816    0.812802   -0.848632
  H     -3.772752   -0.037095    0.514920
  H     -2.867522    1.454411    0.783889
  H     -1.497470   -0.524707    1.411916
  H     -0.511245    0.818781   -1.127210
  H     -0.442359    1.518718    0.477984
  H      1.032609   -0.992639   -0.428369
  H      1.004135   -0.406973    1.222122
  H      2.037383    1.162668   -1.177075
  H      2.032901    1.734505    0.475860
  H      3.565491   -0.719823   -0.529528
  H      4.286397    0.836316   -0.128331
  H      3.557435   -0.150610    1.135366
  H     -1.798703   -1.345569   -1.510094
  H     -0.843897   -2.203780   -0.299876
  H     -2.596195   -2.136961   -0.151488

 Total Charge           Charge          ....    0
 Multiplicity           Mult            ....    1
 Number of Electrons    NEL             ....   58
 Basis Dimension        Dim             ....  137

ORBITAL ENERGIES
----------------

  NO   OCC          E(Eh)            E(eV)
   0   2.0000     -10.435461      -283.9633
   1   2.0000     -10.426826      -283.7284
   2   2.0000     -10.424616      -283.6682
   3   2.0000     -10.424000      -283.6515
   4   2.0000     -10.418771      -283.5092
   5   2.0000     -10.417422      -283.4725
   6   2.0000     -10.417189      -283.4661
   7   2.0000      -0.908317       -24.7166
   8   2.0000      -0.868123       -23.6228
   9   2.0000      -0.795027       -21.6338
  10   2.0000      -0.760465       -20.6933
  11   2.0000      -0.709201       -19.2983
  12   2.0000      -0.648753       -17.6535
  13   2.0000      -0.623538       -16.9673
  14   2.0000      -0.537341       -14.6218
  15   2.0000      -0.511253       -13.9119
  16   2.0000      -0.495639       -13.4870
  17   2.0000      -0.488519       -13.2933
  18   2.0000      -0.462277       -12.5792
  19   2.0000      -0.444135       -12.0855
  20   2.0000      -0.434057       -11.8113
  21   2.0000      -0.429583       -11.6896
  22   2.0000      -0.403514       -10.9802
  23   2.0000      -0.400765       -10.9054
  24   2.0000      -0.385999       -10.5036
  25   2.0000      -0.372033       -10.1235
  26   2.0000      -0.363146        -9.8817
  27   2.0000      -0.360644        -9.8136
  28   2.0000      -0.349552        -9.5118
  29   0.0000       0.131722         3.5843
  30   0.0000       0.145345         3.9550
  31   0.0000       0.174847         4.7578
  32   0.0000       0.179893         4.8951
  33   0.0000       0.184250         5.0137

MULLIKEN ATOMIC CHARGES
-----------------------
   0 C :   -0.625168
   1 C :   -0.234892
   2 C :   -0.382134
   3 C :   -0.404983
   4 C :   -0.408196
   5 C :   -0.639229
   6 C :   -0.633232
   7 H :    0.204136
   8 H :    0.214920
   9 H :    0.214398
  10 H :    0.203858
  11 H :    0.195752
  12 H :    0.204702
  13 H :    0.205289
  14 H :    0.199193
  15 H :    0.205217
  16 H :    0.204565
  17 H :    0.208528
  18 H :    0.218548
  19 H :    0.208726
  20 H :    0.203040
  21 H :    0.220356
  22 H :    0.216605
Sum of atomic charges:   -0.0000000

LOEWDIN ATOMIC CHARGES
----------------------
   0 C :   -0.352250
   1 C :   -0.163110
   2 C :   -0.232204
   3 C :   -0.240754
   4 C :   -0.244556
   5 C :   -0.362083
   6 C :   -0.354895
   7 H :    0.123092
   8 H :    0.124515
   9 H :    0.124341
  10 H :    0.117367
  11 H :    0.118362
  12 H :    0.120351
  13 H :    0.119275
  14 H :    0.118435
  15 H :    0.119622
  16 H :    0.118886
  17 H :    0.123177
  18 H :    0.125817
  19 H :    0.123282
  20 H :    0.122766
  21 H :    0.125038
  22 H :    0.125525

  Mayer bond orders larger than 0.100000
B(  0-C ,  1-C ) :   0.9960 B(  0-C ,  7-H ) :   0.9271 B(  0-C ,  8-H ) :   0.9311
B(  0-C ,  9-H ) :   0.9313 B(  1-C ,  2-C ) :   0.9807 B(  1-C ,  6-C ) :   0.9858
B(  1-C , 10-H ) :   0.9099 B(  2-C ,  3-C ) :   0.9932 B(  2-C , 11-H ) :   0.9158
B(  2-C , 12-H ) :   0.9221 B(  3-C ,  4-C ) :   0.9910 B(  3-C , 13-H ) :   0.9153
B(  3-C , 14-H ) :   0.9185 B(  4-C ,  5-C ) :   0.9990 B(  4-C , 15-H ) :   0.9204
B(  4-C , 16-H ) :   0.9207 B(  5-C , 17-H ) :   0.9297 B(  5-C , 18-H ) :   0.9324
B(  5-C , 19-H ) :   0.9296 B(  6-C , 20-H ) :   0.9275 B(  6-C , 21-H ) :   0.9275
B(  6-C , 22-H ) :   0.9301

Dispersion correction           -0.010853790
FINAL SINGLE POINT ENERGY      -275.791047655725

DIPOLE MOMENT
-------------
                                X             Y             Z
Electronic contribution:     -0.35203       0.47446       0.48508
Nuclear contribution   :      0.35795      -0.46545      -0.46180
                        -----------------------------------------
Total Dipole Moment    :      0.00591       0.00901       0.02329
                        -----------------------------------------
Magnitude (a.u.)       :      0.02566
Magnitude (Debye)      :      0.06522

Rotational constants in cm-1:     0.205881     0.033710     0.030650
Rotational constants in MHz :  6172.143016  1010.599697   918.862272

                             ****ORCA TERMINATED NORMALLY****
TOTAL RUN TIME: 0 days 0 hours 1 minutes 26 seconds 386 msec
