                         Program Version 5.0.3 -  RELEASE  -
|  1> ! PBEh-3c def2/J TightSCF DefGrid3
|  2>
|  3> %maxcore 60000
|  4>
|  5> %pal
|  6> nprocs 4
|  7> end
|  8>
|  9> *xyzfile 0 1 18B.xyz
| 10>
| 11>                          ****END OF INPUT****

CARTESIAN COORDINATES (ANGSTROEM)
---------------------------------
  H      2.366974    2.205484   -0.659712
  N      3.322687    2.455182   -0.353690
  C      4.094872    1.203780   -0.451236
  H      5.107788    1.348008   -0.034866
  H      3.614583    0.352477    0.066517
  H      4.211798    0.937271   -1.514399
  H      3.177107    2.632321    0.643504

 Total Charge           Charge          ....    0
 Multiplicity           Mult            ....    1
 Number of Electrons    NEL             ....   18
 Basis Dimension        Dim             ....   40

ORBITAL ENERGIES
----------------

  NO   OCC          E(Eh)            E(eV)
   0   2.0000     -14.611377      -397.5958
   1   2.0000     -10.452046      -284.4146
   2   2.0000      -0.966322       -26.2949
   3   2.0000      -0.729812       -19.8592
   4   2.0000      -0.537814       -14.6347
   5   2.0000      -0.492959       -13.4141
   6   2.0000      -0.448914       -12.2156
   7   2.0000      -0.411652       -11.2016
   8   2.0000      -0.292962        -7.9719
   9   0.0000       0.130652         3.5552
  10   0.0000       0.197539         5.3753
  11   0.0000       0.206705         5.6247
  12   0.0000       0.220048         5.9878
  13   0.0000       0.225876         6.1464

MULLIKEN ATOMIC CHARGES
-----------------------
   0 H :    0.304851
   1 N :   -0.716302
   2 C :   -0.507936
   3 H :    0.215475
   4 H :    0.179355
   5 H :    0.216597
   6 H :    0.307961
Sum of atomic charges:   -0.0000000

LOEWDIN ATOMIC CHARGES
----------------------
   0 H :    0.216454
   1 N :   -0.482115
   2 C :   -0.281967
   3 H :    0.119930
   4 H :    0.091888
   5 H :    0.119984
   6 H :    0.215825

  Mayer bond orders larger than 0.100000
B(  0-H ,  1-N ) :   0.8730 B(  1-N ,  2-C ) :   1.0281 B(  1-N ,  6-H ) :   0.8699
B(  2-C ,  3-H ) :   0.9261 B(  2-C ,  4-H ) :   0.9202 B(  2-C ,  5-H ) :   0.9250

Dispersion correction           -0.001527578
FINAL SINGLE POINT ENERGY       -95.640357082163

DIPOLE MOMENT
-------------
                                X             Y             Z
Electronic contribution:     -0.38244       1.01489      -0.03993
Nuclear contribution   :      0.06282      -1.49906       0.38892
                        -----------------------------------------
Total Dipole Moment    :     -0.31962      -0.48417       0.34899
                        -----------------------------------------
Magnitude (a.u.)       :      0.67703
Magnitude (Debye)      :      1.72087

Rotational constants in cm-1:     3.322927     0.754240     0.732214
Rotational constants in MHz : 99618.838251 22611.545753 21951.231817

                             ****ORCA TERMINATED NORMALLY****
TOTAL RUN TIME: 0 days 0 hours 0 minutes 41 seconds 54 msec
