                         Program Version 5.0.3 -  RELEASE  -
|  1> ! PBEh-3c def2/J TightSCF DefGrid3
|  2>
|  3> %maxcore 60000
|  4>
|  5> %pal
|  6> nprocs 4
|  7> end
|  8>
|  9> *xyzfile 0 1 LYS_xao.xyz
| 10>
| 11>                          ****END OF INPUT****

CARTESIAN COORDINATES (ANGSTROEM)
---------------------------------
  N     -1.633196   -1.161867   -0.408619
  C     -0.565582   -0.326019    0.125067
  C     -0.810186    1.127897   -0.301309
  O     -0.216877    1.645523   -1.242864
  C      0.783031   -0.823342   -0.357007
  C      1.942508   -0.117268    0.332742
  H     -1.501070   -1.583671   -1.312471
  H     -0.635453   -0.395706    1.211626
  H      0.841059   -1.898305   -0.171886
  H      1.875455   -0.281163    1.412166
  H      1.857279    0.956928    0.162339
  N     -1.748195    1.754145    0.443657
  H     -2.301288    1.166773    1.055985
  C     -2.216555    3.075337    0.083332
  H     -2.971696    3.041506   -0.702790
  H     -1.373658    3.654148   -0.281685
  H     -2.637041    3.559250    0.960019
  C     -2.832197   -1.282823    0.211836
  O     -3.092563   -0.693361    1.260994
  C     -3.826043   -2.202392   -0.450399
  H     -4.066529   -3.004542    0.243423
  H     -3.462370   -2.630736   -1.380891
  H     -4.740265   -1.645787   -0.640745
  H      0.850035   -0.656529   -1.434131
  C      3.296226   -0.600692   -0.169303
  H      3.365976   -0.427158   -1.246792
  H      3.384058   -1.680777   -0.017583
  C      4.462055    0.096198    0.523864
  H      4.373093    1.174092    0.378291
  H      4.395293   -0.073989    1.600081
  N      5.798090   -0.306625    0.088547
  H      5.903793   -1.306639    0.211702
  H      5.888865   -0.143339   -0.907159

 Total Charge           Charge          ....    0
 Multiplicity           Mult            ....    1
 Number of Electrons    NEL             ....  110
 Basis Dimension        Dim             ....  248

ORBITAL ENERGIES
----------------

  NO   OCC          E(Eh)            E(eV)
   0   2.0000     -19.471831      -529.8555
   1   2.0000     -19.454271      -529.3776
   2   2.0000     -14.679400      -399.4468
   3   2.0000     -14.649645      -398.6371
   4   2.0000     -14.603004      -397.3679
   5   2.0000     -10.564203      -287.4666
   6   2.0000     -10.538201      -286.7590
   7   2.0000     -10.490348      -285.4569
   8   2.0000     -10.459185      -284.6089
   9   2.0000     -10.453763      -284.4613
  10   2.0000     -10.450573      -284.3746
  11   2.0000     -10.441996      -284.1412
  12   2.0000     -10.432720      -283.8887
  13   2.0000     -10.428897      -283.7847
  14   2.0000      -1.158016       -31.5112
  15   2.0000      -1.135862       -30.9084
  16   2.0000      -1.040367       -28.3098
  17   2.0000      -1.012369       -27.5480
  18   2.0000      -0.972701       -26.4685
  19   2.0000      -0.902802       -24.5665
  20   2.0000      -0.858992       -23.3743
  21   2.0000      -0.821589       -22.3566
  22   2.0000      -0.794189       -21.6110
  23   2.0000      -0.744849       -20.2684
  24   2.0000      -0.690499       -18.7894
  25   2.0000      -0.674766       -18.3613
  26   2.0000      -0.651873       -17.7384
  27   2.0000      -0.642483       -17.4828
  28   2.0000      -0.604247       -16.4424
  29   2.0000      -0.568014       -15.4564
  30   2.0000      -0.561314       -15.2741
  31   2.0000      -0.556783       -15.1508
  32   2.0000      -0.530821       -14.4444
  33   2.0000      -0.518658       -14.1134
  34   2.0000      -0.511458       -13.9175
  35   2.0000      -0.501052       -13.6343
  36   2.0000      -0.492858       -13.4113
  37   2.0000      -0.479711       -13.0536
  38   2.0000      -0.477951       -13.0057
  39   2.0000      -0.471095       -12.8192
  40   2.0000      -0.462979       -12.5983
  41   2.0000      -0.447244       -12.1701
  42   2.0000      -0.441512       -12.0141
  43   2.0000      -0.425927       -11.5901
  44   2.0000      -0.420624       -11.4457
  45   2.0000      -0.415889       -11.3169
  46   2.0000      -0.406729       -11.0676
  47   2.0000      -0.393307       -10.7024
  48   2.0000      -0.386092       -10.5061
  49   2.0000      -0.374205       -10.1826
  50   2.0000      -0.338171        -9.2021
  51   2.0000      -0.324333        -8.8256
  52   2.0000      -0.298540        -8.1237
  53   2.0000      -0.290789        -7.9128
  54   2.0000      -0.280605        -7.6357
  55   0.0000       0.040282         1.0961
  56   0.0000       0.064127         1.7450
  57   0.0000       0.113185         3.0799
  58   0.0000       0.130881         3.5615
  59   0.0000       0.141790         3.8583

MULLIKEN ATOMIC CHARGES
-----------------------
   0 N :   -0.624771
   1 C :   -0.201463
   2 C :    0.562080
   3 O :   -0.440271
   4 C :   -0.431845
   5 C :   -0.421971
   6 H :    0.364903
   7 H :    0.263175
   8 H :    0.219198
   9 H :    0.201320
  10 H :    0.244904
  11 N :   -0.645374
  12 H :    0.401853
  13 C :   -0.491839
  14 H :    0.218530
  15 H :    0.250961
  16 H :    0.220975
  17 C :    0.540536
  18 O :   -0.461852
  19 C :   -0.744285
  20 H :    0.263966
  21 H :    0.216190
  22 H :    0.261377
  23 H :    0.233271
  24 C :   -0.433528
  25 H :    0.204742
  26 H :    0.192732
  27 C :   -0.275035
  28 H :    0.213434
  29 H :    0.206530
  30 N :   -0.725168
  31 H :    0.307377
  32 H :    0.309346
Sum of atomic charges:   -0.0000000

LOEWDIN ATOMIC CHARGES
----------------------
   0 N :   -0.212160
   1 C :   -0.093471
   2 C :    0.101115
   3 O :   -0.284659
   4 C :   -0.236202
   5 C :   -0.238565
   6 H :    0.260785
   7 H :    0.146176
   8 H :    0.125784
   9 H :    0.119509
  10 H :    0.138486
  11 N :   -0.246973
  12 H :    0.266964
  13 C :   -0.254548
  14 H :    0.119606
  15 H :    0.144121
  16 H :    0.126065
  17 C :    0.113515
  18 O :   -0.301952
  19 C :   -0.384094
  20 H :    0.160744
  21 H :    0.129294
  22 H :    0.158563
  23 H :    0.137267
  24 C :   -0.261537
  25 H :    0.119796
  26 H :    0.113760
  27 C :   -0.171869
  28 H :    0.119741
  29 H :    0.116481
  30 N :   -0.466871
  31 H :    0.216964
  32 H :    0.218164

  Mayer bond orders larger than 0.100000
B(  0-N ,  1-C ) :   0.9136 B(  0-N ,  6-H ) :   0.8198 B(  0-N , 17-C ) :   1.1713
B(  1-C ,  2-C ) :   0.8707 B(  1-C ,  4-C ) :   0.9938 B(  1-C ,  7-H ) :   0.8812
B(  2-C ,  3-O ) :   1.9510 B(  2-C , 11-N ) :   1.1783 B(  4-C ,  5-C ) :   0.9893
B(  4-C ,  8-H ) :   0.9147 B(  4-C , 23-H ) :   0.8962 B(  5-C ,  9-H ) :   0.9165
B(  5-C , 10-H ) :   0.8978 B(  5-C , 24-C ) :   0.9845 B( 11-N , 12-H ) :   0.7467
B( 11-N , 13-C ) :   0.9616 B( 13-C , 14-H ) :   0.9184 B( 13-C , 15-H ) :   0.9095
B( 13-C , 16-H ) :   0.9256 B( 17-C , 18-O ) :   1.8896 B( 17-C , 19-C ) :   0.9324
B( 19-C , 20-H ) :   0.9063 B( 19-C , 21-H ) :   0.9215 B( 19-C , 22-H ) :   0.9076
B( 24-C , 25-H ) :   0.9173 B( 24-C , 26-H ) :   0.9208 B( 24-C , 27-C ) :   0.9767
B( 27-C , 28-H ) :   0.9162 B( 27-C , 29-H ) :   0.9182 B( 27-C , 30-N ) :   1.0562
B( 30-N , 31-H ) :   0.8656 B( 30-N , 32-H ) :   0.8647

Dispersion correction           -0.018664625
FINAL SINGLE POINT ENERGY      -667.701826619918

DIPOLE MOMENT
-------------
                                X             Y             Z
Electronic contribution:     -9.92833       1.18054       0.33223
Nuclear contribution   :      9.08799      -2.41554      -0.90754
                        -----------------------------------------
Total Dipole Moment    :     -0.84034      -1.23500      -0.57531
                        -----------------------------------------
Magnitude (a.u.)       :      1.60074
Magnitude (Debye)      :      4.06876

Rotational constants in cm-1:     0.034508     0.009520     0.008057
Rotational constants in MHz :  1034.516912   285.390052   241.533719

                             ****ORCA TERMINATED NORMALLY****
TOTAL RUN TIME: 0 days 0 hours 3 minutes 26 seconds 630 msec
