                         Program Version 5.0.3 -  RELEASE  -
|  1> ! PBEh-3c def2/J TightSCF DefGrid3
|  2>
|  3> %maxcore 60000
|  4>
|  5> %pal
|  6> nprocs 4
|  7> end
|  8>
|  9> *xyzfile 0 1 H2O5.xyz
| 10>
| 11>                          ****END OF INPUT****

CARTESIAN COORDINATES (ANGSTROEM)
---------------------------------
  O     -1.126802   -1.542115    1.311538
  H     -0.766190   -2.020889    2.061913
  H     -1.042547   -0.587581    1.537550
  O      0.080378   -2.040821   -1.086627
  H     -0.529787   -2.567652   -1.607662
  H     -0.361574   -1.890196   -0.219868
  O      0.865356    2.157727   -0.005126
  H      0.989684    1.511834   -0.737500
  H      1.747717    2.402439    0.284174
  O     -0.798021    1.105543    1.883396
  H     -0.192538    1.515853    1.224282
  H     -1.580047    1.662064    1.908272
  O      1.167534    0.310358   -1.992308
  H      0.767938    0.536435   -2.835439
  H      0.778900   -0.552997   -1.726595

 Total Charge           Charge          ....    0
 Multiplicity           Mult            ....    1
 Number of Electrons    NEL             ....   50
 Basis Dimension        Dim             ....   95

ORBITAL ENERGIES
----------------

  NO   OCC          E(Eh)            E(eV)
   0   2.0000     -19.473669      -529.9055
   1   2.0000     -19.472082      -529.8623
   2   2.0000     -19.471877      -529.8567
   3   2.0000     -19.471800      -529.8546
   4   2.0000     -19.470931      -529.8310
   5   2.0000      -1.109273       -30.1849
   6   2.0000      -1.100212       -29.9383
   7   2.0000      -1.099221       -29.9113
   8   2.0000      -1.084218       -29.5031
   9   2.0000      -1.083230       -29.4762
  10   2.0000      -0.587257       -15.9801
  11   2.0000      -0.583287       -15.8720
  12   2.0000      -0.581366       -15.8198
  13   2.0000      -0.578953       -15.7541
  14   2.0000      -0.577602       -15.7173
  15   2.0000      -0.472204       -12.8493
  16   2.0000      -0.469274       -12.7696
  17   2.0000      -0.429044       -11.6749
  18   2.0000      -0.427102       -11.6220
  19   2.0000      -0.401066       -10.9136
  20   2.0000      -0.361330        -9.8323
  21   2.0000      -0.358008        -9.7419
  22   2.0000      -0.357461        -9.7270
  23   2.0000      -0.356541        -9.7020
  24   2.0000      -0.353704        -9.6248
  25   0.0000       0.117712         3.2031
  26   0.0000       0.147801         4.0219
  27   0.0000       0.150257         4.0887
  28   0.0000       0.179684         4.8894
  29   0.0000       0.180030         4.8989

MULLIKEN ATOMIC CHARGES
-----------------------
   0 O :   -0.877155
   1 H :    0.418141
   2 H :    0.459625
   3 O :   -0.877083
   4 H :    0.414623
   5 H :    0.458604
   6 O :   -0.877897
   7 H :    0.459313
   8 H :    0.419023
   9 O :   -0.877872
  10 H :    0.459533
  11 H :    0.417946
  12 O :   -0.872761
  13 H :    0.415205
  14 H :    0.460755
Sum of atomic charges:    0.0000000

LOEWDIN ATOMIC CHARGES
----------------------
   0 O :   -0.608485
   1 H :    0.305664
   2 H :    0.303152
   3 O :   -0.609839
   4 H :    0.302987
   5 H :    0.302704
   6 O :   -0.608565
   7 H :    0.303032
   8 H :    0.306161
   9 O :   -0.608858
  10 H :    0.303049
  11 H :    0.305398
  12 O :   -0.604339
  13 H :    0.303583
  14 H :    0.304355

  Mayer bond orders larger than 0.100000
B(  0-O ,  1-H ) :   0.8056 B(  0-O ,  2-H ) :   0.6618 B(  0-O ,  5-H ) :   0.1524
B(  2-H ,  9-O ) :   0.1518 B(  3-O ,  4-H ) :   0.8080 B(  3-O ,  5-H ) :   0.6619
B(  3-O , 14-H ) :   0.1455 B(  6-O ,  7-H ) :   0.6621 B(  6-O ,  8-H ) :   0.8049
B(  6-O , 10-H ) :   0.1522 B(  7-H , 12-O ) :   0.1516 B(  9-O , 10-H ) :   0.6612
B(  9-O , 11-H ) :   0.8055 B( 12-O , 13-H ) :   0.8071 B( 12-O , 14-H ) :   0.6652

Dispersion correction           -0.003790058
FINAL SINGLE POINT ENERGY      -381.361492269848

DIPOLE MOMENT
-------------
                                X             Y             Z
Electronic contribution:      0.07090       0.01279       0.03449
Nuclear contribution   :     -0.47056       0.02325      -0.27686
                        -----------------------------------------
Total Dipole Moment    :     -0.39966       0.03604      -0.24236
                        -----------------------------------------
Magnitude (a.u.)       :      0.46879
Magnitude (Debye)      :      1.19158

Rotational constants in cm-1:     0.067509     0.067355     0.034275
Rotational constants in MHz :  2023.868205  2019.254561  1027.536749

                             ****ORCA TERMINATED NORMALLY****
TOTAL RUN TIME: 0 days 0 hours 1 minutes 12 seconds 370 msec
