                         Program Version 5.0.3 -  RELEASE  -
|  1> ! PBEh-3c def2/J TightSCF DefGrid3
|  2>
|  3> %maxcore 60000
|  4>
|  5> %pal
|  6> nprocs 4
|  7> end
|  8>
|  9> *xyzfile -1 1 4.xyz
| 10>
| 11>                          ****END OF INPUT****

CARTESIAN COORDINATES (ANGSTROEM)
---------------------------------
  Cl    -0.052700    1.434212   -1.147997
  N     -1.103461   -0.082763    1.641265
  H     -0.607464   -0.964033    1.559767
  H     -0.586034    0.445829    2.335639
  H     -0.908471    0.402652    0.753707

 Total Charge           Charge          ....   -1
 Multiplicity           Mult            ....    1
 Number of Electrons    NEL             ....   28
 Basis Dimension        Dim             ....   39

ORBITAL ENERGIES
----------------

  NO   OCC          E(Eh)            E(eV)
   0   2.0000    -101.920471     -2773.3970
   1   2.0000     -14.418836      -392.3565
   2   2.0000      -9.384353      -255.3612
   3   2.0000      -7.067855      -192.3261
   4   2.0000      -7.067093      -192.3054
   5   2.0000      -7.067085      -192.3051
   6   2.0000      -0.757184       -20.6040
   7   2.0000      -0.518208       -14.1012
   8   2.0000      -0.337259        -9.1773
   9   2.0000      -0.318597        -8.6695
  10   2.0000      -0.141752        -3.8573
  11   2.0000      -0.035505        -0.9661
  12   2.0000      -0.032050        -0.8721
  13   2.0000      -0.031788        -0.8650
  14   0.0000       0.309771         8.4293
  15   0.0000       0.378463        10.2985
  16   0.0000       0.465863        12.6768
  17   0.0000       0.831632        22.6298
  18   0.0000       0.926309        25.2061

MULLIKEN ATOMIC CHARGES
-----------------------
   0 Cl:   -0.901228
   1 N :   -0.993379
   2 H :    0.270598
   3 H :    0.270559
   4 H :    0.353451
Sum of atomic charges:   -1.0000000

LOEWDIN ATOMIC CHARGES
----------------------
   0 Cl:   -0.907504
   1 N :   -0.698797
   2 H :    0.192438
   3 H :    0.192414
   4 H :    0.221450

  Mayer bond orders larger than 0.100000
B(  0-Cl,  4-H ) :   0.1848 B(  1-N ,  2-H ) :   0.9034 B(  1-N ,  3-H ) :   0.9034
B(  1-N ,  4-H ) :   0.7488

Dispersion correction           -0.000952778
FINAL SINGLE POINT ENERGY      -516.186216000166

DIPOLE MOMENT
-------------
                                X             Y             Z
Electronic contribution:      1.67447       2.88705      -5.29948
Nuclear contribution   :     -1.35988      -3.42969       6.27831
                        -----------------------------------------
Total Dipole Moment    :      0.31459      -0.54264       0.97884
                        -----------------------------------------
Magnitude (a.u.)       :      1.16256
Magnitude (Debye)      :      2.95500

Rotational constants in cm-1:     8.651635     0.132275     0.131592
Rotational constants in MHz : 259369.491384  3965.519320  3945.015379

                             ****ORCA TERMINATED NORMALLY****
TOTAL RUN TIME: 0 days 0 hours 0 minutes 17 seconds 114 msec
