                         Program Version 5.0.3 -  RELEASE  -
|  1> ! PBEh-3c def2/J TightSCF DefGrid3
|  2>
|  3> %maxcore 60000
|  4>
|  5> %pal
|  6> nprocs 4
|  7> end
|  8>
|  9> *xyzfile 0 1 acetaldehyde.xyz
| 10>
| 11>                          ****END OF INPUT****

CARTESIAN COORDINATES (ANGSTROEM)
---------------------------------
  C      0.125413    0.420662    0.000000
  O      1.142601   -0.232430    0.000000
  H      0.174373    1.526315    0.000000
  C     -1.257974   -0.165649    0.000000
  H     -1.210799   -1.251998    0.000000
  H     -1.802325    0.188165    0.878440
  H     -1.802325    0.188165   -0.878440

 Total Charge           Charge          ....    0
 Multiplicity           Mult            ....    1
 Number of Electrons    NEL             ....   24
 Basis Dimension        Dim             ....   53

ORBITAL ENERGIES
----------------

  NO   OCC          E(Eh)            E(eV)
   0   2.0000     -19.497337      -530.5495
   1   2.0000     -10.539095      -286.7833
   2   2.0000     -10.448308      -284.3129
   3   2.0000      -1.158536       -31.5254
   4   2.0000      -0.844463       -22.9790
   5   2.0000      -0.656314       -17.8592
   6   2.0000      -0.546543       -14.8722
   7   2.0000      -0.505600       -13.7581
   8   2.0000      -0.501176       -13.6377
   9   2.0000      -0.457257       -12.4426
  10   2.0000      -0.417916       -11.3721
  11   2.0000      -0.314094        -8.5469
  12   0.0000       0.011940         0.3249
  13   0.0000       0.160241         4.3604
  14   0.0000       0.181115         4.9284
  15   0.0000       0.189416         5.1543
  16   0.0000       0.200611         5.4589

MULLIKEN ATOMIC CHARGES
-----------------------
   0 C :    0.170697
   1 O :   -0.314879
   2 H :    0.150410
   3 C :   -0.742282
   4 H :    0.256000
   5 H :    0.240027
   6 H :    0.240027
Sum of atomic charges:   -0.0000000

LOEWDIN ATOMIC CHARGES
----------------------
   0 C :    0.059825
   1 O :   -0.183496
   2 H :    0.081764
   3 C :   -0.408532
   4 H :    0.150261
   5 H :    0.150089
   6 H :    0.150089

  Mayer bond orders larger than 0.100000
B(  0-C ,  1-O ) :   2.1384 B(  0-C ,  2-H ) :   0.8696 B(  0-C ,  3-C ) :   0.9319
B(  3-C ,  4-H ) :   0.9124 B(  3-C ,  5-H ) :   0.9070 B(  3-C ,  6-H ) :   0.9070

Dispersion correction           -0.001781282
FINAL SINGLE POINT ENERGY      -153.495582188002

DIPOLE MOMENT
-------------
                                X             Y             Z
Electronic contribution:      3.33111      -0.17351      -0.00000
Nuclear contribution   :     -4.33717       0.60697       0.00000
                        -----------------------------------------
Total Dipole Moment    :     -1.00606       0.43346      -0.00000
                        -----------------------------------------
Magnitude (a.u.)       :      1.09546
Magnitude (Debye)      :      2.78445

Rotational constants in cm-1:     1.899522     0.339213     0.303962
Rotational constants in MHz : 56946.232831 10169.341959  9112.547175

                             ****ORCA TERMINATED NORMALLY****
TOTAL RUN TIME: 0 days 0 hours 0 minutes 25 seconds 798 msec
