                         Program Version 5.0.3 -  RELEASE  -
|  1> ! PBEh-3c def2/J TightSCF DefGrid3
|  2>
|  3> %maxcore 60000
|  4>
|  5> %pal
|  6> nprocs 4
|  7> end
|  8>
|  9> *xyzfile 0 1 12a.xyz
| 10>
| 11>                          ****END OF INPUT****

CARTESIAN COORDINATES (ANGSTROEM)
---------------------------------
  P     -0.000104   -1.613590    0.000000
  H     -0.962251   -1.637206    1.037259
  H     -0.962251   -1.637206   -1.037259
  N      0.344180   -3.291520    0.000000
  C      0.739465   -4.392668    0.000000

 Total Charge           Charge          ....    0
 Multiplicity           Mult            ....    1
 Number of Electrons    NEL             ....   30
 Basis Dimension        Dim             ....   52

ORBITAL ENERGIES
----------------

  NO   OCC          E(Eh)            E(eV)
   0   2.0000     -77.800990     -2117.0726
   1   2.0000     -14.677610      -399.3981
   2   2.0000     -10.494759      -285.5769
   3   2.0000      -6.875180      -187.0831
   4   2.0000      -4.966802      -135.1535
   5   2.0000      -4.964677      -135.0957
   6   2.0000      -4.963020      -135.0506
   7   2.0000      -1.051225       -28.6053
   8   2.0000      -0.801014       -21.7967
   9   2.0000      -0.592386       -16.1196
  10   2.0000      -0.502790       -13.6816
  11   2.0000      -0.458704       -12.4820
  12   2.0000      -0.409206       -11.1351
  13   2.0000      -0.367172        -9.9913
  14   2.0000      -0.332488        -9.0475
  15   0.0000       0.014585         0.3969
  16   0.0000       0.016566         0.4508
  17   0.0000       0.065410         1.7799
  18   0.0000       0.090786         2.4704
  19   0.0000       0.140813         3.8317

MULLIKEN ATOMIC CHARGES
-----------------------
   0 P :    0.185917
   1 H :    0.096986
   2 H :    0.096986
   3 N :   -0.371320
   4 C :   -0.008570
Sum of atomic charges:   -0.0000000

LOEWDIN ATOMIC CHARGES
----------------------
   0 P :    0.217995
   1 H :    0.039965
   2 H :    0.039965
   3 N :   -0.215369
   4 C :   -0.082557

  Mayer bond orders larger than 0.100000
B(  0-P ,  1-H ) :   0.9466 B(  0-P ,  2-H ) :   0.9466 B(  0-P ,  3-N ) :   0.8277
B(  3-N ,  4-C ) :   2.4558

Dispersion correction           -0.001723224
FINAL SINGLE POINT ENERGY      -434.735640260794

DIPOLE MOMENT
-------------
                                X             Y             Z
Electronic contribution:      1.32362       0.17127      -0.00000
Nuclear contribution   :     -2.00050       0.90001       0.00000
                        -----------------------------------------
Total Dipole Moment    :     -0.67688       1.07127      -0.00000
                        -----------------------------------------
Magnitude (a.u.)       :      1.26720
Magnitude (Debye)      :      3.22097

Rotational constants in cm-1:     4.355671     0.198263     0.197179
Rotational constants in MHz : 130579.740002  5943.784030  5911.262834

                             ****ORCA TERMINATED NORMALLY****
TOTAL RUN TIME: 0 days 0 hours 0 minutes 44 seconds 149 msec
