                         Program Version 5.0.3 -  RELEASE  -
|  1> ! PBEh-3c def2/J TightSCF DefGrid3
|  2>
|  3> %maxcore 60000
|  4>
|  5> %pal
|  6> nprocs 4
|  7> end
|  8>
|  9> *xyzfile 0 1 BrBr_FCCH.xyz
| 10>
| 11>                          ****END OF INPUT****

CARTESIAN COORDINATES (ANGSTROEM)
---------------------------------
  Br     0.000000    0.000000    0.179380
  Br     0.000000    0.000000    2.456257
  F      0.000000    0.000000   -3.011826
  C      0.000000    0.000000   -4.289350
  C      0.000000    0.000000   -5.477561
  H      0.000000    0.000000   -6.539388

 Total Charge           Charge          ....    0
 Multiplicity           Mult            ....    1
 Number of Electrons    NEL             ....   92
 Basis Dimension        Dim             ....  111

ORBITAL ENERGIES
----------------

  NO   OCC          E(Eh)            E(eV)
   0   2.0000    -484.570946    -13185.8458
   1   2.0000    -484.570643    -13185.8375
   2   2.0000     -63.233585     -1720.6733
   3   2.0000     -63.233372     -1720.6675
   4   2.0000     -56.938693     -1549.3806
   5   2.0000     -56.938449     -1549.3740
   6   2.0000     -56.935051     -1549.2815
   7   2.0000     -56.935051     -1549.2815
   8   2.0000     -56.934846     -1549.2759
   9   2.0000     -56.934846     -1549.2759
  10   2.0000     -25.191847      -685.5050
  11   2.0000     -10.553090      -287.1642
  12   2.0000     -10.465479      -284.7802
  13   2.0000      -9.062279      -246.5971
  14   2.0000      -9.062120      -246.5928
  15   2.0000      -6.840358      -186.1356
  16   2.0000      -6.840094      -186.1284
  17   2.0000      -6.821930      -185.6342
  18   2.0000      -6.821930      -185.6342
  19   2.0000      -6.821825      -185.6313
  20   2.0000      -6.821825      -185.6313
  21   2.0000      -2.854235       -77.6677
  22   2.0000      -2.852056       -77.6084
  23   2.0000      -2.848121       -77.5013
  24   2.0000      -2.848121       -77.5013
  25   2.0000      -2.847430       -77.4825
  26   2.0000      -2.847430       -77.4825
  27   2.0000      -2.832119       -77.0659
  28   2.0000      -2.832096       -77.0653
  29   2.0000      -2.832028       -77.0634
  30   2.0000      -2.832005       -77.0628
  31   2.0000      -1.438056       -39.1315
  32   2.0000      -0.944454       -25.6999
  33   2.0000      -0.870316       -23.6825
  34   2.0000      -0.807805       -21.9815
  35   2.0000      -0.720936       -19.6177
  36   2.0000      -0.607986       -16.5442
  37   2.0000      -0.607986       -16.5442
  38   2.0000      -0.601943       -16.3797
  39   2.0000      -0.475690       -12.9442
  40   2.0000      -0.418487       -11.3876
  41   2.0000      -0.418487       -11.3876
  42   2.0000      -0.346300        -9.4233
  43   2.0000      -0.346300        -9.4233
  44   2.0000      -0.330221        -8.9858
  45   2.0000      -0.330221        -8.9858
  46   0.0000      -0.107427        -2.9232
  47   0.0000       0.092385         2.5139
  48   0.0000       0.092385         2.5139
  49   0.0000       0.114184         3.1071
  50   0.0000       0.198331         5.3969

MULLIKEN ATOMIC CHARGES
-----------------------
   0 Br:   -0.001800
   1 Br:   -0.002754
   2 F :   -0.185459
   3 C :    0.340402
   4 C :   -0.403459
   5 H :    0.253070
Sum of atomic charges:    0.0000000

LOEWDIN ATOMIC CHARGES
----------------------
   0 Br:   -0.000151
   1 Br:   -0.003182
   2 F :   -0.049670
   3 C :    0.138181
   4 C :   -0.258136
   5 H :    0.172958

  Mayer bond orders larger than 0.100000
B(  0-Br,  1-Br) :   1.0565 B(  2-F ,  3-C ) :   1.1774 B(  3-C ,  4-C ) :   2.7755
B(  4-C ,  5-H ) :   0.9231

Dispersion correction           -0.001618416
FINAL SINGLE POINT ENERGY     -5322.183921563949

DIPOLE MOMENT
-------------
                                X             Y             Z
Electronic contribution:      0.00000      -0.00000      24.79553
Nuclear contribution   :      0.00000       0.00000     -25.13353
                        -----------------------------------------
Total Dipole Moment    :      0.00000      -0.00000      -0.33800
                        -----------------------------------------
Magnitude (a.u.)       :      0.33800
Magnitude (Debye)      :      0.85912

Rotational constants in cm-1:     0.000000     0.013199     0.013199
Rotational constants in MHz :     0.000000   395.705494   395.705494

                             ****ORCA TERMINATED NORMALLY****
TOTAL RUN TIME: 0 days 0 hours 1 minutes 20 seconds 425 msec
