                         Program Version 5.0.3 -  RELEASE  -
|  1> ! PBEh-3c def2/J TightSCF DefGrid3
|  2>
|  3> %maxcore 60000
|  4>
|  5> %pal
|  6> nprocs 4
|  7> end
|  8>
|  9> *xyzfile 0 1 butanediol.xyz
| 10>
| 11>                          ****END OF INPUT****

CARTESIAN COORDINATES (ANGSTROEM)
---------------------------------
  C     -1.334699   -0.724309   -1.227536
  H     -1.045241   -1.785060   -1.194087
  H     -0.964024   -0.287061   -2.163370
  H     -2.434591   -0.664613   -1.235257
  C     -0.766588    0.018233   -0.023395
  H     -1.070447    1.083398   -0.069418
  C      0.766646   -0.018873    0.023741
  H      1.070398   -1.084009    0.070906
  C      1.334655    0.724929    1.227141
  H      0.963568    0.288928    2.163393
  H      2.434527    0.664930    1.235296
  H      1.045494    1.785720    1.192298
  O     -1.212620   -0.565787    1.214657
  H     -2.176592   -0.672692    1.153632
  O      1.212887    0.563828   -1.214868
  H      2.176626    0.672436   -1.153132

 Total Charge           Charge          ....    0
 Multiplicity           Mult            ....    1
 Number of Electrons    NEL             ....   50
 Basis Dimension        Dim             ....  110

ORBITAL ENERGIES
----------------

  NO   OCC          E(Eh)            E(eV)
   0   2.0000     -19.485885      -530.2379
   1   2.0000     -19.485861      -530.2372
   2   2.0000     -10.487333      -285.3748
   3   2.0000     -10.487121      -285.3691
   4   2.0000     -10.424374      -283.6616
   5   2.0000     -10.424328      -283.6604
   6   2.0000      -1.124121       -30.5889
   7   2.0000      -1.110976       -30.2312
   8   2.0000      -0.857344       -23.3295
   9   2.0000      -0.809255       -22.0210
  10   2.0000      -0.716118       -19.4866
  11   2.0000      -0.641881       -17.4665
  12   2.0000      -0.587552       -15.9881
  13   2.0000      -0.533568       -14.5191
  14   2.0000      -0.511004       -13.9051
  15   2.0000      -0.496377       -13.5071
  16   2.0000      -0.474521       -12.9124
  17   2.0000      -0.453334       -12.3358
  18   2.0000      -0.425461       -11.5774
  19   2.0000      -0.424058       -11.5392
  20   2.0000      -0.404400       -11.0043
  21   2.0000      -0.401823       -10.9342
  22   2.0000      -0.358309        -9.7501
  23   2.0000      -0.326639        -8.8883
  24   2.0000      -0.319684        -8.6990
  25   0.0000       0.125346         3.4108
  26   0.0000       0.126705         3.4478
  27   0.0000       0.168937         4.5970
  28   0.0000       0.187034         5.0895
  29   0.0000       0.188931         5.1411

MULLIKEN ATOMIC CHARGES
-----------------------
   0 C :   -0.672424
   1 H :    0.217846
   2 H :    0.247908
   3 H :    0.200018
   4 C :    0.046475
   5 H :    0.186274
   6 C :    0.046588
   7 H :    0.186359
   8 C :   -0.672588
   9 H :    0.247941
  10 H :    0.200065
  11 H :    0.217823
  12 O :   -0.641749
  13 H :    0.415611
  14 O :   -0.641765
  15 H :    0.415619
Sum of atomic charges:   -0.0000000

LOEWDIN ATOMIC CHARGES
----------------------
   0 C :   -0.375714
   1 H :    0.130765
   2 H :    0.146643
   3 H :    0.119990
   4 C :   -0.024863
   5 H :    0.103364
   6 C :   -0.024857
   7 H :    0.103400
   8 C :   -0.375736
   9 H :    0.146657
  10 H :    0.120005
  11 H :    0.130743
  12 O :   -0.410793
  13 H :    0.310593
  14 O :   -0.410789
  15 H :    0.310593

  Mayer bond orders larger than 0.100000
B(  0-C ,  1-H ) :   0.9211 B(  0-C ,  2-H ) :   0.9057 B(  0-C ,  3-H ) :   0.9301
B(  0-C ,  4-C ) :   0.9805 B(  4-C ,  5-H ) :   0.8911 B(  4-C ,  6-C ) :   0.9594
B(  4-C , 12-O ) :   0.9861 B(  6-C ,  7-H ) :   0.8911 B(  6-C ,  8-C ) :   0.9805
B(  6-C , 14-O ) :   0.9861 B(  8-C ,  9-H ) :   0.9057 B(  8-C , 10-H ) :   0.9301
B(  8-C , 11-H ) :   0.9211 B( 12-O , 13-H ) :   0.7921 B( 14-O , 15-H ) :   0.7921

Dispersion correction           -0.006733384
FINAL SINGLE POINT ENERGY      -308.219288584250

DIPOLE MOMENT
-------------
                                X             Y             Z
Electronic contribution:      0.00053      -0.00334       0.00008
Nuclear contribution   :     -0.00069       0.00491       0.00063
                        -----------------------------------------
Total Dipole Moment    :     -0.00017       0.00158       0.00071
                        -----------------------------------------
Magnitude (a.u.)       :      0.00174
Magnitude (Debye)      :      0.00441

Rotational constants in cm-1:     0.150742     0.101945     0.065673
Rotational constants in MHz :  4519.146350  3056.232740  1968.829210

                             ****ORCA TERMINATED NORMALLY****
TOTAL RUN TIME: 0 days 0 hours 1 minutes 18 seconds 454 msec
