                         Program Version 5.0.3 -  RELEASE  -
|  1> ! PBEh-3c def2/J TightSCF DefGrid3
|  2>
|  3> %maxcore 60000
|  4>
|  5> %pal
|  6> nprocs 4
|  7> end
|  8>
|  9> *xyzfile 0 1 h2o2_cis.xyz
| 10>
| 11>                          ****END OF INPUT****

CARTESIAN COORDINATES (ANGSTROEM)
---------------------------------
  O      0.720943    0.000000    0.464274
  O     -0.720943    0.000000    0.464274
  H      0.974356    0.000000   -0.464267
  H     -0.974356    0.000000   -0.464267

 Total Charge           Charge          ....    0
 Multiplicity           Mult            ....    1
 Number of Electrons    NEL             ....   18
 Basis Dimension        Dim             ....   34

ORBITAL ENERGIES
----------------

  NO   OCC          E(Eh)            E(eV)
   0   2.0000     -19.547016      -531.9013
   1   2.0000     -19.547011      -531.9012
   2   2.0000      -1.230249       -33.4768
   3   2.0000      -0.995833       -27.0980
   4   2.0000      -0.640890       -17.4395
   5   2.0000      -0.484991       -13.1973
   6   2.0000      -0.469081       -12.7643
   7   2.0000      -0.443526       -12.0690
   8   2.0000      -0.310945        -8.4612
   9   0.0000       0.079642         2.1672
  10   0.0000       0.092179         2.5083
  11   0.0000       0.211422         5.7531
  12   0.0000       0.848968        23.1016
  13   0.0000       0.869297        23.6548

MULLIKEN ATOMIC CHARGES
-----------------------
   0 O :   -0.418695
   1 O :   -0.418695
   2 H :    0.418695
   3 H :    0.418695
Sum of atomic charges:    0.0000000

LOEWDIN ATOMIC CHARGES
----------------------
   0 O :   -0.296073
   1 O :   -0.296073
   2 H :    0.296073
   3 H :    0.296073

  Mayer bond orders larger than 0.100000
B(  0-O ,  1-O ) :   0.9914 B(  0-O ,  2-H ) :   0.7926 B(  1-O ,  3-H ) :   0.7926

Dispersion correction           -0.000474774
FINAL SINGLE POINT ENERGY      -151.206917764862

DIPOLE MOMENT
-------------
                                X             Y             Z
Electronic contribution:      0.00000      -0.00000       0.28999
Nuclear contribution   :      0.00000       0.00000      -1.63738
                        -----------------------------------------
Total Dipole Moment    :      0.00000      -0.00000      -1.34739
                        -----------------------------------------
Magnitude (a.u.)       :      1.34739
Magnitude (Debye)      :      3.42479

Rotational constants in cm-1:    10.309544     0.909003     0.835350
Rotational constants in MHz : 309072.349706 27251.233396 25043.152373

                             ****ORCA TERMINATED NORMALLY****
TOTAL RUN TIME: 0 days 0 hours 0 minutes 45 seconds 704 msec
