                         Program Version 5.0.3 -  RELEASE  -
|  1> ! PBEh-3c def2/J TightSCF DefGrid3
|  2>
|  3> %maxcore 60000
|  4>
|  5> %pal
|  6> nprocs 4
|  7> end
|  8>
|  9> *xyzfile 0 1 hof.xyz
| 10>
| 11>                          ****END OF INPUT****

CARTESIAN COORDINATES (ANGSTROEM)
---------------------------------
  H      0.927698    0.887451   -0.000000
  O      0.751243   -0.062789    0.000000
  F     -0.681871    0.005797    0.000000

 Total Charge           Charge          ....    0
 Multiplicity           Mult            ....    1
 Number of Electrons    NEL             ....   18
 Basis Dimension        Dim             ....   32

ORBITAL ENERGIES
----------------

  NO   OCC          E(Eh)            E(eV)
   0   2.0000     -25.131691      -683.8681
   1   2.0000     -19.602135      -533.4012
   2   2.0000      -1.360835       -37.0302
   3   2.0000      -1.076508       -29.2933
   4   2.0000      -0.627121       -17.0648
   5   2.0000      -0.557025       -15.1574
   6   2.0000      -0.540360       -14.7040
   7   2.0000      -0.449629       -12.2350
   8   2.0000      -0.382102       -10.3975
   9   0.0000       0.005866         0.1596
  10   0.0000       0.123002         3.3470
  11   0.0000       0.789581        21.4856
  12   0.0000       0.890520        24.2323
  13   0.0000       0.945236        25.7212

MULLIKEN ATOMIC CHARGES
-----------------------
   0 H :    0.452325
   1 O :   -0.248692
   2 F :   -0.203634
Sum of atomic charges:    0.0000000

LOEWDIN ATOMIC CHARGES
----------------------
   0 H :    0.316152
   1 O :   -0.120746
   2 F :   -0.195406

  Mayer bond orders larger than 0.100000
B(  0-H ,  1-O ) :   0.7696 B(  1-O ,  2-F ) :   0.9878

Dispersion correction           -0.000246354
FINAL SINGLE POINT ENERGY      -175.180054721137

DIPOLE MOMENT
-------------
                                X             Y             Z
Electronic contribution:     -1.10520      -0.11652      -0.00000
Nuclear contribution   :      1.51323       0.82629       0.00000
                        -----------------------------------------
Total Dipole Moment    :      0.40803       0.70977      -0.00000
                        -----------------------------------------
Magnitude (a.u.)       :      0.81869
Magnitude (Debye)      :      2.08095

Rotational constants in cm-1:    19.657137     0.900040     0.860635
Rotational constants in MHz : 589306.149527 26982.533323 25801.176071

                             ****ORCA TERMINATED NORMALLY****
TOTAL RUN TIME: 0 days 0 hours 0 minutes 52 seconds 719 msec
