                         Program Version 5.0.3 -  RELEASE  -
|  1> ! PBEh-3c def2/J TightSCF DefGrid3
|  2>
|  3> %maxcore 60000
|  4>
|  5> %pal
|  6> nprocs 4
|  7> end
|  8>
|  9> *xyzfile 0 1 kr2.xyz
| 10>
| 11>                          ****END OF INPUT****

CARTESIAN COORDINATES (ANGSTROEM)
---------------------------------
  Kr     0.000000    0.000000    2.005000
  Kr     0.000000    0.000000   -2.005000

 Total Charge           Charge          ....    0
 Multiplicity           Mult            ....    1
 Number of Electrons    NEL             ....   72
 Basis Dimension        Dim             ....   64

ORBITAL ENERGIES
----------------

  NO   OCC          E(Eh)            E(eV)
   0   2.0000    -514.486324    -13999.8846
   1   2.0000    -514.486315    -13999.8844
   2   2.0000     -67.849657     -1846.2830
   3   2.0000     -67.849651     -1846.2829
   4   2.0000     -61.311878     -1668.3810
   5   2.0000     -61.311878     -1668.3810
   6   2.0000     -61.311876     -1668.3810
   7   2.0000     -61.311876     -1668.3810
   8   2.0000     -61.311840     -1668.3800
   9   2.0000     -61.311820     -1668.3794
  10   2.0000      -9.985854      -271.7289
  11   2.0000      -9.985845      -271.7287
  12   2.0000      -7.630923      -207.6480
  13   2.0000      -7.630923      -207.6480
  14   2.0000      -7.630923      -207.6480
  15   2.0000      -7.630922      -207.6480
  16   2.0000      -7.630922      -207.6480
  17   2.0000      -7.630921      -207.6479
  18   2.0000      -3.404792       -92.6491
  19   2.0000      -3.404792       -92.6491
  20   2.0000      -3.404791       -92.6491
  21   2.0000      -3.404790       -92.6491
  22   2.0000      -3.404788       -92.6490
  23   2.0000      -3.404788       -92.6490
  24   2.0000      -3.404787       -92.6490
  25   2.0000      -3.404787       -92.6490
  26   2.0000      -3.404786       -92.6489
  27   2.0000      -3.404785       -92.6489
  28   2.0000      -0.970453       -26.4074
  29   2.0000      -0.968984       -26.3674
  30   2.0000      -0.438480       -11.9316
  31   2.0000      -0.431539       -11.7428
  32   2.0000      -0.431539       -11.7428
  33   2.0000      -0.429571       -11.6892
  34   2.0000      -0.429571       -11.6892
  35   2.0000      -0.422776       -11.5043
  36   0.0000       0.353633         9.6228
  37   0.0000       0.410172        11.1614
  38   0.0000       0.585379        15.9290
  39   0.0000       0.589014        16.0279
  40   0.0000       0.589014        16.0279

MULLIKEN ATOMIC CHARGES
-----------------------
   0 Kr:    0.000000
   1 Kr:   -0.000000
Sum of atomic charges:    0.0000000

LOEWDIN ATOMIC CHARGES
----------------------
   0 Kr:    0.000000
   1 Kr:   -0.000000

Dispersion correction           -0.000272799
FINAL SINGLE POINT ENERGY     -5505.152329815219

DIPOLE MOMENT
-------------
                                X             Y             Z
Electronic contribution:     -0.00000       0.00000       0.00000
Nuclear contribution   :      0.00000       0.00000       0.00000
                        -----------------------------------------
Total Dipole Moment    :     -0.00000       0.00000       0.00000
                        -----------------------------------------
Magnitude (a.u.)       :      0.00000
Magnitude (Debye)      :      0.00000

Rotational constants in cm-1:     0.000000     0.025020     0.025020
Rotational constants in MHz :     0.000000   750.092597   750.092597

                             ****ORCA TERMINATED NORMALLY****
TOTAL RUN TIME: 0 days 0 hours 0 minutes 36 seconds 180 msec
