                         Program Version 5.0.3 -  RELEASE  -
|  1> ! PBEh-3c def2/J TightSCF DefGrid3
|  2>
|  3> %maxcore 60000
|  4>
|  5> %pal
|  6> nprocs 4
|  7> end
|  8>
|  9> *xyzfile 0 1 si2h6.xyz
| 10>
| 11>                          ****END OF INPUT****

CARTESIAN COORDINATES (ANGSTROEM)
---------------------------------
  Si    -1.170884    0.000000   -0.000010
  H     -1.685137    0.000002    1.389936
  H     -1.683688    1.204044   -0.695472
  H     -1.683688   -1.204046   -0.695470
  Si     1.170884    0.000000    0.000010
  H      1.685137   -0.000002   -1.389936
  H      1.683688    1.204046    0.695470
  H      1.683688   -1.204044    0.695472

 Total Charge           Charge          ....    0
 Multiplicity           Mult            ....    1
 Number of Electrons    NEL             ....   34
 Basis Dimension        Dim             ....   48

ORBITAL ENERGIES
----------------

  NO   OCC          E(Eh)            E(eV)
   0   2.0000     -66.729071     -1815.7903
   1   2.0000     -66.728989     -1815.7881
   2   2.0000      -5.513569      -150.0319
   3   2.0000      -5.513526      -150.0307
   4   2.0000      -3.804104      -103.5149
   5   2.0000      -3.804103      -103.5149
   6   2.0000      -3.804062      -103.5138
   7   2.0000      -3.804060      -103.5137
   8   2.0000      -3.804058      -103.5137
   9   2.0000      -3.803513      -103.4989
  10   2.0000      -0.637808       -17.3556
  11   2.0000      -0.569938       -15.5088
  12   2.0000      -0.417196       -11.3525
  13   2.0000      -0.417189       -11.3523
  14   2.0000      -0.390657       -10.6303
  15   2.0000      -0.390633       -10.6297
  16   2.0000      -0.341897        -9.3035
  17   0.0000       0.042805         1.1648
  18   0.0000       0.042910         1.1676
  19   0.0000       0.059930         1.6308
  20   0.0000       0.119180         3.2431
  21   0.0000       0.121853         3.3158

MULLIKEN ATOMIC CHARGES
-----------------------
   0 Si:    0.015911
   1 H :   -0.005257
   2 H :   -0.005327
   3 H :   -0.005327
   4 Si:    0.015911
   5 H :   -0.005257
   6 H :   -0.005327
   7 H :   -0.005327
Sum of atomic charges:   -0.0000000

LOEWDIN ATOMIC CHARGES
----------------------
   0 Si:    0.042215
   1 H :   -0.014035
   2 H :   -0.014090
   3 H :   -0.014090
   4 Si:    0.042215
   5 H :   -0.014035
   6 H :   -0.014090
   7 H :   -0.014090

  Mayer bond orders larger than 0.100000
B(  0-Si,  1-H ) :   0.9636 B(  0-Si,  2-H ) :   0.9635 B(  0-Si,  3-H ) :   0.9635
B(  0-Si,  4-Si) :   0.9888 B(  4-Si,  5-H ) :   0.9636 B(  4-Si,  6-H ) :   0.9635
B(  4-Si,  7-H ) :   0.9635

Dispersion correction           -0.002474934
FINAL SINGLE POINT ENERGY      -581.845916597186

DIPOLE MOMENT
-------------
                                X             Y             Z
Electronic contribution:      0.00000       0.00000      -0.00000
Nuclear contribution   :      0.00000       0.00000      -0.00000
                        -----------------------------------------
Total Dipole Moment    :      0.00000       0.00000      -0.00000
                        -----------------------------------------
Magnitude (a.u.)       :      0.00000
Magnitude (Debye)      :      0.00000

Rotational constants in cm-1:     1.442027     0.168560     0.168559
Rotational constants in MHz : 43230.894203  5053.301132  5053.284132

                             ****ORCA TERMINATED NORMALLY****
TOTAL RUN TIME: 0 days 0 hours 0 minutes 33 seconds 15 msec
