                         Program Version 5.0.3 -  RELEASE  -
|  1> ! PBEh-3c def2/J TightSCF DefGrid3
|  2>
|  3> %maxcore 60000
|  4>
|  5> %pal
|  6> nprocs 4
|  7> end
|  8>
|  9> *xyzfile 0 1 B61.xyz
| 10>
| 11>                          ****END OF INPUT****

CARTESIAN COORDINATES (ANGSTROEM)
---------------------------------
  C     -0.257096    1.556863   -0.411960
  H     -1.347160    1.541142   -0.424081
  O      0.101244    2.931016   -0.295699
  C      0.257096    0.721265    0.754998
  H      1.352011    0.717645    0.741968
  H     -0.045597    1.218131    1.677867
  C     -0.257096   -0.721265    0.754998
  H     -1.352011   -0.717645    0.741968
  H      0.045597   -1.218131    1.677867
  H      1.060622    2.980741   -0.321552
  H      0.088906    1.151058   -1.366844
  C      0.257096   -1.556863   -0.411960
  H     -0.088906   -1.151058   -1.366844
  H      1.347160   -1.541142   -0.424081
  O     -0.101244   -2.931016   -0.295699
  H     -1.060622   -2.980741   -0.321552

 Total Charge           Charge          ....    0
 Multiplicity           Mult            ....    1
 Number of Electrons    NEL             ....   50
 Basis Dimension        Dim             ....  110

ORBITAL ENERGIES
----------------

  NO   OCC          E(Eh)            E(eV)
   0   2.0000     -19.486826      -530.2635
   1   2.0000     -19.486794      -530.2626
   2   2.0000     -10.483808      -285.2789
   3   2.0000     -10.483795      -285.2786
   4   2.0000     -10.440574      -284.1025
   5   2.0000     -10.440360      -284.0966
   6   2.0000      -1.123877       -30.5823
   7   2.0000      -1.123220       -30.5644
   8   2.0000      -0.890047       -24.2194
   9   2.0000      -0.793033       -21.5795
  10   2.0000      -0.721318       -19.6281
  11   2.0000      -0.666081       -18.1250
  12   2.0000      -0.583550       -15.8792
  13   2.0000      -0.557244       -15.1634
  14   2.0000      -0.538489       -14.6530
  15   2.0000      -0.507582       -13.8120
  16   2.0000      -0.484841       -13.1932
  17   2.0000      -0.463000       -12.5989
  18   2.0000      -0.457437       -12.4475
  19   2.0000      -0.415179       -11.2976
  20   2.0000      -0.403613       -10.9829
  21   2.0000      -0.383473       -10.4348
  22   2.0000      -0.376320       -10.2402
  23   2.0000      -0.327055        -8.8996
  24   2.0000      -0.323092        -8.7918
  25   0.0000       0.116484         3.1697
  26   0.0000       0.131249         3.5715
  27   0.0000       0.138701         3.7743
  28   0.0000       0.171175         4.6579
  29   0.0000       0.175791         4.7835

MULLIKEN ATOMIC CHARGES
-----------------------
   0 C :   -0.136046
   1 H :    0.206511
   2 O :   -0.621514
   3 C :   -0.474381
   4 H :    0.198054
   5 H :    0.239778
   6 C :   -0.474381
   7 H :    0.198054
   8 H :    0.239778
   9 H :    0.408986
  10 H :    0.178612
  11 C :   -0.136046
  12 H :    0.178613
  13 H :    0.206511
  14 O :   -0.621514
  15 H :    0.408986
Sum of atomic charges:    0.0000000

LOEWDIN ATOMIC CHARGES
----------------------
   0 C :   -0.097722
   1 H :    0.118425
   2 O :   -0.409506
   3 C :   -0.266835
   4 H :    0.117457
   5 H :    0.135422
   6 C :   -0.266835
   7 H :    0.117457
   8 H :    0.135422
   9 H :    0.306244
  10 H :    0.096516
  11 C :   -0.097722
  12 H :    0.096516
  13 H :    0.118425
  14 O :   -0.409507
  15 H :    0.306244

  Mayer bond orders larger than 0.100000
B(  0-C ,  1-H ) :   0.9126 B(  0-C ,  2-O ) :   1.0200 B(  0-C ,  3-C ) :   0.9752
B(  0-C , 10-H ) :   0.9090 B(  2-O ,  9-H ) :   0.7951 B(  3-C ,  4-H ) :   0.9180
B(  3-C ,  5-H ) :   0.9106 B(  3-C ,  6-C ) :   0.9606 B(  6-C ,  7-H ) :   0.9180
B(  6-C ,  8-H ) :   0.9106 B(  6-C , 11-C ) :   0.9752 B( 11-C , 12-H ) :   0.9090
B( 11-C , 13-H ) :   0.9126 B( 11-C , 14-O ) :   1.0200 B( 14-O , 15-H ) :   0.7951

Dispersion correction           -0.006569712
FINAL SINGLE POINT ENERGY      -308.205534673531

DIPOLE MOMENT
-------------
                                X             Y             Z
Electronic contribution:     -0.00000       0.00000      -0.64108
Nuclear contribution   :      0.00000       0.00000       0.63080
                        -----------------------------------------
Total Dipole Moment    :     -0.00000       0.00000      -0.01028
                        -----------------------------------------
Magnitude (a.u.)       :      0.01028
Magnitude (Debye)      :      0.02614

Rotational constants in cm-1:     0.377814     0.043431     0.041429
Rotational constants in MHz : 11326.576433  1302.026961  1242.016793

                             ****ORCA TERMINATED NORMALLY****
TOTAL RUN TIME: 0 days 0 hours 1 minutes 35 seconds 478 msec
