                         Program Version 5.0.3 -  RELEASE  -
|  1> ! PBEh-3c def2/J TightSCF DefGrid3
|  2>
|  3> %maxcore 60000
|  4>
|  5> %pal
|  6> nprocs 4
|  7> end
|  8>
|  9> *xyzfile 0 1 i21p.xyz
| 10>
| 11>                          ****END OF INPUT****

CARTESIAN COORDINATES (ANGSTROEM)
---------------------------------
  C      0.625579   -2.241626   -0.086121
  C     -0.175482   -3.226442    0.337883
  H     -0.959718   -3.038055    1.070503
  H     -0.060580   -4.246671   -0.026154
  C      1.711622   -2.448104   -1.107909
  H      2.697878   -2.236198   -0.673082
  H      1.702932   -3.473693   -1.494184
  H      1.586087   -1.749980   -1.947562
  C      0.472500   -0.839337    0.473767
  N      0.262204    0.172710   -0.578091
  C     -1.034969    0.056575   -1.276339
  C     -2.213220    0.381593   -0.379366
  C     -3.102234   -0.625118    0.018477
  C     -4.178498   -0.332449    0.864320
  C     -4.369010    0.974388    1.322810
  C     -3.481804    1.985325    0.930704
  C     -2.409469    1.692291    0.084621
  H     -2.945556   -1.642677   -0.337192
  H     -4.863693   -1.122937    1.165565
  H     -5.204247    1.205793    1.981302
  H     -3.630524    3.004987    1.281925
  H     -1.716704    2.470121   -0.228868
  C      0.985765    1.331549   -0.741514
  C      2.362961    1.434773   -0.196586
  O      0.551924    2.312812   -1.356301
  C      3.092415    2.569288    0.049808
  C      4.393001    2.161244    0.469916
  C      4.370613    0.794265    0.436442
  H      2.720759    3.577669   -0.074127
  H      5.232741    2.781291    0.752444
  O      3.162848    0.318886    0.037353
  Cl     5.578890   -0.379959    0.791257
  H     -0.395189   -0.806647    1.147572
  H      1.355188   -0.569562    1.056181
  H     -1.007601    0.731394   -2.136303
  H     -1.117412   -0.977499   -1.633153

 Total Charge           Charge          ....    0
 Multiplicity           Mult            ....    1
 Number of Electrons    NEL             ....  152
 Basis Dimension        Dim             ....  335

ORBITAL ENERGIES
----------------

  NO   OCC          E(Eh)            E(eV)
   0   2.0000    -102.337808     -2784.7533
   1   2.0000     -19.601115      -533.3735
   2   2.0000     -19.469020      -529.7790
   3   2.0000     -14.680938      -399.4886
   4   2.0000     -10.579564      -287.8846
   5   2.0000     -10.568972      -287.5964
   6   2.0000     -10.525390      -286.4104
   7   2.0000     -10.485814      -285.3335
   8   2.0000     -10.480297      -285.1834
   9   2.0000     -10.474973      -285.0385
  10   2.0000     -10.474447      -285.0242
  11   2.0000     -10.465307      -284.7755
  12   2.0000     -10.458825      -284.5991
  13   2.0000     -10.452193      -284.4186
  14   2.0000     -10.451484      -284.3993
  15   2.0000     -10.451128      -284.3896
  16   2.0000     -10.450301      -284.3671
  17   2.0000     -10.446012      -284.2504
  18   2.0000     -10.440452      -284.0991
  19   2.0000     -10.435362      -283.9606
  20   2.0000      -9.804846      -266.8034
  21   2.0000      -7.492883      -203.8917
  22   2.0000      -7.483955      -203.6488
  23   2.0000      -7.483903      -203.6473
  24   2.0000      -1.256319       -34.1862
  25   2.0000      -1.149133       -31.2695
  26   2.0000      -1.042086       -28.3566
  27   2.0000      -0.986246       -26.8371
  28   2.0000      -0.953166       -25.9370
  29   2.0000      -0.924473       -25.1562
  30   2.0000      -0.903854       -24.5951
  31   2.0000      -0.867703       -23.6114
  32   2.0000      -0.842124       -22.9154
  33   2.0000      -0.834016       -22.6947
  34   2.0000      -0.791155       -21.5284
  35   2.0000      -0.775787       -21.1103
  36   2.0000      -0.768404       -20.9093
  37   2.0000      -0.704921       -19.1819
  38   2.0000      -0.686072       -18.6690
  39   2.0000      -0.681060       -18.5326
  40   2.0000      -0.660004       -17.9596
  41   2.0000      -0.643082       -17.4991
  42   2.0000      -0.619624       -16.8608
  43   2.0000      -0.599659       -16.3175
  44   2.0000      -0.575834       -15.6692
  45   2.0000      -0.562450       -15.3050
  46   2.0000      -0.556826       -15.1520
  47   2.0000      -0.549269       -14.9464
  48   2.0000      -0.535391       -14.5687
  49   2.0000      -0.522377       -14.2146
  50   2.0000      -0.515734       -14.0338
  51   2.0000      -0.503204       -13.6929
  52   2.0000      -0.498367       -13.5612
  53   2.0000      -0.490022       -13.3342
  54   2.0000      -0.488044       -13.2804
  55   2.0000      -0.482632       -13.1331
  56   2.0000      -0.478807       -13.0290
  57   2.0000      -0.466447       -12.6927
  58   2.0000      -0.458677       -12.4812
  59   2.0000      -0.450484       -12.2583
  60   2.0000      -0.443564       -12.0700
  61   2.0000      -0.437366       -11.9013
  62   2.0000      -0.425914       -11.5897
  63   2.0000      -0.418968       -11.4007
  64   2.0000      -0.415000       -11.2927
  65   2.0000      -0.405981       -11.0473
  66   2.0000      -0.399449       -10.8696
  67   2.0000      -0.397854       -10.8262
  68   2.0000      -0.392859       -10.6902
  69   2.0000      -0.354511        -9.6467
  70   2.0000      -0.330737        -8.9998
  71   2.0000      -0.302495        -8.2313
  72   2.0000      -0.299339        -8.1454
  73   2.0000      -0.291882        -7.9425
  74   2.0000      -0.285856        -7.7785
  75   2.0000      -0.280592        -7.6353
  76   0.0000      -0.024399        -0.6639
  77   0.0000       0.011812         0.3214
  78   0.0000       0.016185         0.4404
  79   0.0000       0.035029         0.9532
  80   0.0000       0.053607         1.4587

MULLIKEN ATOMIC CHARGES
-----------------------
   0 C :    0.147501
   1 C :   -0.538681
   2 H :    0.218158
   3 H :    0.216994
   4 C :   -0.688653
   5 H :    0.238052
   6 H :    0.225114
   7 H :    0.232252
   8 C :   -0.361989
   9 N :   -0.480241
  10 C :   -0.397147
  11 C :    0.124072
  12 C :   -0.282363
  13 C :   -0.210806
  14 C :   -0.229614
  15 C :   -0.210657
  16 C :   -0.279165
  17 H :    0.222214
  18 H :    0.218879
  19 H :    0.220248
  20 H :    0.220935
  21 H :    0.261110
  22 C :    0.520658
  23 C :    0.224930
  24 O :   -0.437560
  25 C :   -0.268640
  26 C :   -0.261742
  27 C :    0.280400
  28 H :    0.259693
  29 H :    0.252480
  30 O :   -0.424321
  31 Cl:   -0.072792
  32 H :    0.261790
  33 H :    0.264149
  34 H :    0.281856
  35 H :    0.252886
Sum of atomic charges:   -0.0000000

LOEWDIN ATOMIC CHARGES
----------------------
   0 C :   -0.069576
   1 C :   -0.281163
   2 H :    0.132422
   3 H :    0.132305
   4 C :   -0.352623
   5 H :    0.142485
   6 H :    0.133851
   7 H :    0.139263
   8 C :   -0.128839
   9 N :   -0.120775
  10 C :   -0.123536
  11 C :   -0.064726
  12 C :   -0.141407
  13 C :   -0.136258
  14 C :   -0.136498
  15 C :   -0.132077
  16 C :   -0.126245
  17 H :    0.136886
  18 H :    0.136163
  19 H :    0.136244
  20 H :    0.137174
  21 H :    0.153396
  22 C :    0.117739
  23 C :    0.008776
  24 O :   -0.278061
  25 C :   -0.123619
  26 C :   -0.197383
  27 C :   -0.043844
  28 H :    0.164613
  29 H :    0.157145
  30 O :   -0.088125
  31 Cl:    0.136648
  32 H :    0.138593
  33 H :    0.146545
  34 H :    0.158219
  35 H :    0.136288

  Mayer bond orders larger than 0.100000
B(  0-C ,  1-C ) :   1.8695 B(  0-C ,  4-C ) :   0.9817 B(  0-C ,  8-C ) :   0.9478
B(  1-C ,  2-H ) :   0.9262 B(  1-C ,  3-H ) :   0.9292 B(  4-C ,  5-H ) :   0.9061
B(  4-C ,  6-H ) :   0.9293 B(  4-C ,  7-H ) :   0.9093 B(  8-C ,  9-N ) :   0.9266
B(  8-C , 32-H ) :   0.8946 B(  8-C , 33-H ) :   0.8888 B(  9-N , 10-C ) :   0.9452
B(  9-N , 22-C ) :   1.1294 B( 10-C , 11-C ) :   0.9184 B( 10-C , 34-H ) :   0.8944
B( 10-C , 35-H ) :   0.9053 B( 11-C , 12-C ) :   1.4072 B( 11-C , 16-C ) :   1.3967
B( 12-C , 13-C ) :   1.4156 B( 12-C , 17-H ) :   0.9150 B( 13-C , 14-C ) :   1.4335
B( 13-C , 18-H ) :   0.9200 B( 14-C , 15-C ) :   1.4096 B( 14-C , 19-H ) :   0.9197
B( 15-C , 16-C ) :   1.4249 B( 15-C , 20-H ) :   0.9205 B( 16-C , 21-H ) :   0.8910
B( 22-C , 23-C ) :   0.9634 B( 22-C , 24-O ) :   1.9158 B( 23-C , 25-C ) :   1.5459
B( 23-C , 30-O ) :   0.9814 B( 25-C , 26-C ) :   1.2650 B( 25-C , 28-H ) :   0.9136
B( 26-C , 27-C ) :   1.5190 B( 26-C , 29-H ) :   0.9122 B( 27-C , 30-O ) :   1.0974
B( 27-C , 31-Cl) :   1.1045

Dispersion correction           -0.026665616
FINAL SINGLE POINT ENERGY     -1282.409224930060

DIPOLE MOMENT
-------------
                                X             Y             Z
Electronic contribution:     24.23733       7.96539       2.44348
Nuclear contribution   :    -23.97660      -8.42796      -1.79737
                        -----------------------------------------
Total Dipole Moment    :      0.26073      -0.46256       0.64611
                        -----------------------------------------
Magnitude (a.u.)       :      0.83630
Magnitude (Debye)      :      2.12571

Rotational constants in cm-1:     0.018786     0.005722     0.004821
Rotational constants in MHz :   563.179181   171.529241   144.539401

                             ****ORCA TERMINATED NORMALLY****
TOTAL RUN TIME: 0 days 0 hours 5 minutes 29 seconds 170 msec
