                         Program Version 5.0.3 -  RELEASE  -
|  1> ! PBEh-3c def2/J TightSCF DefGrid3
|  2>
|  3> %maxcore 60000
|  4>
|  5> %pal
|  6> nprocs 4
|  7> end
|  8>
|  9> *xyzfile 0 1 sb2me4.xyz
| 10>
| 11>                          ****END OF INPUT****

CARTESIAN COORDINATES (ANGSTROEM)
---------------------------------
  Sb    -1.339378    0.445978   -1.272797
  Sb     1.339378   -0.445978   -1.272797
  C     -1.404295    1.104419    0.834682
  C     -2.162101   -1.561324   -0.847175
  C      2.162101    1.561324   -0.847175
  C      1.404295   -1.104419    0.834682
  H     -0.699186    1.919876    1.008720
  H     -1.161115    0.290306    1.518730
  H     -2.401245    1.472355    1.085168
  H     -2.020020   -2.229093   -1.698873
  H     -1.690523   -2.016129    0.025778
  H     -3.234508   -1.494898   -0.654233
  H      2.020020    2.229093   -1.698873
  H      3.234508    1.494898   -0.654233
  H      1.690523    2.016129    0.025778
  H      0.699186   -1.919876    1.008720
  H      2.401245   -1.472355    1.085168
  H      1.161115   -0.290306    1.518730

 Total Charge           Charge          ....    0
 Multiplicity           Mult            ....    1
 Number of Electrons    NEL             ....   82
 Basis Dimension        Dim             ....  136

ORBITAL ENERGIES
----------------

  NO   OCC          E(Eh)            E(eV)
   0   2.0000     -10.436049      -283.9793
   1   2.0000     -10.436047      -283.9793
   2   2.0000     -10.435196      -283.9561
   3   2.0000     -10.435189      -283.9559
   4   2.0000      -5.922299      -161.1540
   5   2.0000      -5.922279      -161.1534
   6   2.0000      -4.108509      -111.7982
   7   2.0000      -4.108505      -111.7981
   8   2.0000      -4.107941      -111.7828
   9   2.0000      -4.107761      -111.7779
  10   2.0000      -4.103527      -111.6626
  11   2.0000      -4.103445      -111.6604
  12   2.0000      -1.381860       -37.6023
  13   2.0000      -1.380070       -37.5536
  14   2.0000      -1.379466       -37.5372
  15   2.0000      -1.377786       -37.4915
  16   2.0000      -1.375796       -37.4373
  17   2.0000      -1.375687       -37.4343
  18   2.0000      -1.375107       -37.4186
  19   2.0000      -1.372815       -37.3562
  20   2.0000      -1.372080       -37.3362
  21   2.0000      -1.371644       -37.3243
  22   2.0000      -0.788547       -21.4575
  23   2.0000      -0.775299       -21.0970
  24   2.0000      -0.757119       -20.6023
  25   2.0000      -0.756962       -20.5980
  26   2.0000      -0.598266       -16.2796
  27   2.0000      -0.530760       -14.4427
  28   2.0000      -0.473034       -12.8719
  29   2.0000      -0.468636       -12.7522
  30   2.0000      -0.462191       -12.5768
  31   2.0000      -0.453665       -12.3449
  32   2.0000      -0.452345       -12.3089
  33   2.0000      -0.444948       -12.1077
  34   2.0000      -0.444868       -12.1055
  35   2.0000      -0.439274       -11.9533
  36   2.0000      -0.344999        -9.3879
  37   2.0000      -0.339628        -9.2418
  38   2.0000      -0.313235        -8.5236
  39   2.0000      -0.274165        -7.4604
  40   2.0000      -0.244690        -6.6584
  41   0.0000      -0.003280        -0.0892
  42   0.0000       0.022303         0.6069
  43   0.0000       0.025036         0.6813
  44   0.0000       0.060307         1.6410
  45   0.0000       0.097241         2.6461

MULLIKEN ATOMIC CHARGES
-----------------------
   0 Sb:    0.428643
   1 Sb:    0.428643
   2 C :   -0.926128
   3 C :   -0.924505
   4 C :   -0.924505
   5 C :   -0.926128
   6 H :    0.231467
   7 H :    0.237938
   8 H :    0.240980
   9 H :    0.236815
  10 H :    0.234261
  11 H :    0.240529
  12 H :    0.236815
  13 H :    0.240529
  14 H :    0.234262
  15 H :    0.231467
  16 H :    0.240980
  17 H :    0.237938
Sum of atomic charges:    0.0000000

LOEWDIN ATOMIC CHARGES
----------------------
   0 Sb:    0.297564
   1 Sb:    0.297564
   2 C :   -0.560539
   3 C :   -0.559465
   4 C :   -0.559465
   5 C :   -0.560539
   6 H :    0.135714
   7 H :    0.135471
   8 H :    0.139296
   9 H :    0.139604
  10 H :    0.132711
  11 H :    0.139644
  12 H :    0.139604
  13 H :    0.139644
  14 H :    0.132711
  15 H :    0.135714
  16 H :    0.139296
  17 H :    0.135471

  Mayer bond orders larger than 0.100000
B(  0-Sb,  1-Sb) :   0.9886 B(  0-Sb,  2-C ) :   0.9311 B(  0-Sb,  3-C ) :   0.9375
B(  1-Sb,  4-C ) :   0.9375 B(  1-Sb,  5-C ) :   0.9311 B(  2-C ,  6-H ) :   0.9147
B(  2-C ,  7-H ) :   0.9087 B(  2-C ,  8-H ) :   0.9117 B(  3-C ,  9-H ) :   0.9151
B(  3-C , 10-H ) :   0.9098 B(  3-C , 11-H ) :   0.9131 B(  4-C , 12-H ) :   0.9151
B(  4-C , 13-H ) :   0.9131 B(  4-C , 14-H ) :   0.9098 B(  5-C , 15-H ) :   0.9147
B(  5-C , 16-H ) :   0.9117 B(  5-C , 17-H ) :   0.9087

Dispersion correction           -0.009744096
FINAL SINGLE POINT ENERGY      -639.869296967388

DIPOLE MOMENT
-------------
                                X             Y             Z
Electronic contribution:      0.00000      -0.00000     -50.48797
Nuclear contribution   :      0.00000       0.00000      50.92978
                        -----------------------------------------
Total Dipole Moment    :      0.00000      -0.00000       0.44181
                        -----------------------------------------
Magnitude (a.u.)       :      0.44181
Magnitude (Debye)      :      1.12299

Rotational constants in cm-1:     0.058474     0.021214     0.020611
Rotational constants in MHz :  1753.002989   635.990751   617.916401

                             ****ORCA TERMINATED NORMALLY****
TOTAL RUN TIME: 0 days 0 hours 2 minutes 19 seconds 22 msec
