                         Program Version 5.0.3 -  RELEASE  -
|  1> ! PBEh-3c def2/J TightSCF DefGrid3
|  2>
|  3> %maxcore 60000
|  4>
|  5> %pal
|  6> nprocs 4
|  7> end
|  8>
|  9> *xyzfile 0 1 88.xyz
| 10>
| 11>                          ****END OF INPUT****

CARTESIAN COORDINATES (ANGSTROEM)
---------------------------------
  C      0.000000   -0.667585    0.926424
  C      0.000000   -0.785511   -0.585221
  C      0.000000    0.785511   -0.585221
  C      0.000000    0.667585    0.926424
  H      0.000000   -1.410459    1.713192
  H      0.887039   -1.242674   -1.027197
  H     -0.887039   -1.242674   -1.027197
  H     -0.887039    1.242674   -1.027197
  H      0.887039    1.242674   -1.027197
  H      0.000000    1.410459    1.713192

 Total Charge           Charge          ....    0
 Multiplicity           Mult            ....    1
 Number of Electrons    NEL             ....   30
 Basis Dimension        Dim             ....   72

ORBITAL ENERGIES
----------------

  NO   OCC          E(Eh)            E(eV)
   0   2.0000     -10.440200      -284.0923
   1   2.0000     -10.439305      -284.0679
   2   2.0000     -10.438532      -284.0469
   3   2.0000     -10.438403      -284.0434
   4   2.0000      -0.951618       -25.8949
   5   2.0000      -0.736219       -20.0335
   6   2.0000      -0.721033       -19.6203
   7   2.0000      -0.580023       -15.7832
   8   2.0000      -0.561312       -15.2741
   9   2.0000      -0.517276       -14.0758
  10   2.0000      -0.435533       -11.8515
  11   2.0000      -0.412229       -11.2173
  12   2.0000      -0.377372       -10.2688
  13   2.0000      -0.367565       -10.0019
  14   2.0000      -0.291243        -7.9251
  15   0.0000       0.050248         1.3673
  16   0.0000       0.161604         4.3975
  17   0.0000       0.173146         4.7115
  18   0.0000       0.175839         4.7848
  19   0.0000       0.196268         5.3407

MULLIKEN ATOMIC CHARGES
-----------------------
   0 C :   -0.196748
   1 C :   -0.451645
   2 C :   -0.451645
   3 C :   -0.196748
   4 H :    0.200813
   5 H :    0.223790
   6 H :    0.223790
   7 H :    0.223790
   8 H :    0.223790
   9 H :    0.200813
Sum of atomic charges:   -0.0000000

LOEWDIN ATOMIC CHARGES
----------------------
   0 C :   -0.146650
   1 C :   -0.228777
   2 C :   -0.228777
   3 C :   -0.146650
   4 H :    0.122420
   5 H :    0.126504
   6 H :    0.126504
   7 H :    0.126504
   8 H :    0.126504
   9 H :    0.122420

  Mayer bond orders larger than 0.100000
B(  0-C ,  1-C ) :   1.0131 B(  0-C ,  3-C ) :   1.8728 B(  0-C ,  4-H ) :   0.9297
B(  1-C ,  2-C ) :   0.9558 B(  1-C ,  5-H ) :   0.9131 B(  1-C ,  6-H ) :   0.9131
B(  2-C ,  3-C ) :   1.0131 B(  2-C ,  7-H ) :   0.9131 B(  2-C ,  8-H ) :   0.9131
B(  3-C ,  9-H ) :   0.9297

Dispersion correction           -0.003547628
FINAL SINGLE POINT ENERGY      -155.623407626471

DIPOLE MOMENT
-------------
                                X             Y             Z
Electronic contribution:     -0.00000      -0.00000       1.35867
Nuclear contribution   :      0.00000       0.00000      -1.42158
                        -----------------------------------------
Total Dipole Moment    :     -0.00000      -0.00000      -0.06291
                        -----------------------------------------
Magnitude (a.u.)       :      0.06291
Magnitude (Debye)      :      0.15992

Rotational constants in cm-1:     0.432940     0.409704     0.228614
Rotational constants in MHz : 12979.203769 12282.624928  6853.676583

                             ****ORCA TERMINATED NORMALLY****
TOTAL RUN TIME: 0 days 0 hours 0 minutes 36 seconds 65 msec
