                         Program Version 5.0.3 -  RELEASE  -
|  1> ! PBEh-3c def2/J TightSCF DefGrid3
|  2>
|  3> %maxcore 60000
|  4>
|  5> %pal
|  6> nprocs 4
|  7> end
|  8>
|  9> *xyzfile 0 1 43.xyz
| 10>
| 11>                          ****END OF INPUT****

CARTESIAN COORDINATES (ANGSTROEM)
---------------------------------
  N      0.622035   -1.001218   -2.206685
  H      0.405144   -1.961806   -1.978199
  C     -0.436502   -0.237642   -2.717937
  O     -1.534817   -0.738709   -2.889008
  C     -0.070920    1.140969   -2.992963
  H     -0.813789    1.801505   -3.405440
  C      1.179496    1.567629   -2.722068
  H      1.497804    2.583565   -2.902768
  N      2.130084    0.736296   -2.193519
  H      3.051290    1.073595   -1.969173
  C      1.898737   -0.593484   -1.884289
  O      2.739760   -1.314229   -1.384014
  C     -0.627748   -0.180024    1.719288
  C     -1.944494    0.561265    1.934161
  H     -2.651565   -0.056941    2.489023
  H     -1.784995    1.481450    2.498346
  H     -2.402204    0.822762    0.979007
  C     -0.012311   -0.533462    3.070565
  H      0.930851   -1.065835    2.939783
  H      0.184710    0.366280    3.655367
  H     -0.683605   -1.171199    3.647302
  C      0.337376    0.713454    0.943499
  H      1.285947    0.200859    0.773145
  H      0.542666    1.631590    1.496925
  H     -0.085019    0.991941   -0.023965
  C     -0.889065   -1.460058    0.928923
  H     -1.352803   -1.238224   -0.033701
  H      0.043511   -1.998457    0.749286
  H     -1.559573   -2.121872    1.479108

 Total Charge           Charge          ....    0
 Multiplicity           Mult            ....    1
 Number of Electrons    NEL             ....  100
 Basis Dimension        Dim             ....  227

ORBITAL ENERGIES
----------------

  NO   OCC          E(Eh)            E(eV)
   0   2.0000     -19.484631      -530.2038
   1   2.0000     -19.478477      -530.0363
   2   2.0000     -14.718545      -400.5120
   3   2.0000     -14.697815      -399.9479
   4   2.0000     -10.610459      -288.7253
   5   2.0000     -10.575228      -287.7666
   6   2.0000     -10.539438      -286.7927
   7   2.0000     -10.468219      -284.8547
   8   2.0000     -10.444889      -284.2199
   9   2.0000     -10.419138      -283.5192
  10   2.0000     -10.415451      -283.4188
  11   2.0000     -10.415125      -283.4099
  12   2.0000     -10.414303      -283.3876
  13   2.0000      -1.198023       -32.5999
  14   2.0000      -1.159741       -31.5581
  15   2.0000      -1.094550       -29.7842
  16   2.0000      -1.035555       -28.1789
  17   2.0000      -0.912813       -24.8389
  18   2.0000      -0.900592       -24.5064
  19   2.0000      -0.780860       -21.2483
  20   2.0000      -0.763005       -20.7624
  21   2.0000      -0.760345       -20.6900
  22   2.0000      -0.759691       -20.6722
  23   2.0000      -0.751327       -20.4447
  24   2.0000      -0.678768       -18.4702
  25   2.0000      -0.637516       -17.3477
  26   2.0000      -0.596834       -16.2407
  27   2.0000      -0.593874       -16.1601
  28   2.0000      -0.553938       -15.0734
  29   2.0000      -0.545518       -14.8443
  30   2.0000      -0.523467       -14.2443
  31   2.0000      -0.505153       -13.7459
  32   2.0000      -0.504075       -13.7166
  33   2.0000      -0.503519       -13.7015
  34   2.0000      -0.492170       -13.3926
  35   2.0000      -0.486952       -13.2506
  36   2.0000      -0.469827       -12.7846
  37   2.0000      -0.452136       -12.3033
  38   2.0000      -0.450370       -12.2552
  39   2.0000      -0.431730       -11.7480
  40   2.0000      -0.410396       -11.1674
  41   2.0000      -0.409819       -11.1517
  42   2.0000      -0.408747       -11.1226
  43   2.0000      -0.364574        -9.9206
  44   2.0000      -0.363875        -9.9015
  45   2.0000      -0.363203        -9.8833
  46   2.0000      -0.361357        -9.8330
  47   2.0000      -0.341980        -9.3058
  48   2.0000      -0.330050        -8.9811
  49   2.0000      -0.301205        -8.1962
  50   0.0000      -0.024029        -0.6539
  51   0.0000       0.037928         1.0321
  52   0.0000       0.095312         2.5936
  53   0.0000       0.115818         3.1516
  54   0.0000       0.144636         3.9357

MULLIKEN ATOMIC CHARGES
-----------------------
   0 N :   -0.720739
   1 H :    0.400109
   2 C :    0.565370
   3 O :   -0.395876
   4 C :   -0.446142
   5 H :    0.266594
   6 C :    0.082529
   7 H :    0.274313
   8 N :   -0.676951
   9 H :    0.392637
  10 C :    0.680089
  11 O :   -0.415909
  12 C :   -0.101925
  13 C :   -0.606612
  14 H :    0.212468
  15 H :    0.207433
  16 H :    0.216974
  17 C :   -0.607076
  18 H :    0.215458
  19 H :    0.208508
  20 H :    0.211787
  21 C :   -0.631767
  22 H :    0.220970
  23 H :    0.212089
  24 H :    0.210573
  25 C :   -0.631104
  26 H :    0.231293
  27 H :    0.209633
  28 H :    0.215276
Sum of atomic charges:   -0.0000000

LOEWDIN ATOMIC CHARGES
----------------------
   0 N :   -0.199048
   1 H :    0.286564
   2 C :    0.119639
   3 O :   -0.243012
   4 C :   -0.242005
   5 H :    0.163924
   6 C :   -0.012056
   7 H :    0.150522
   8 N :   -0.186008
   9 H :    0.282274
  10 C :    0.142688
  11 O :   -0.262751
  12 C :   -0.114224
  13 C :   -0.343330
  14 H :    0.124991
  15 H :    0.122537
  16 H :    0.126760
  17 C :   -0.343489
  18 H :    0.126072
  19 H :    0.122951
  20 H :    0.124560
  21 C :   -0.348300
  22 H :    0.126632
  23 H :    0.122824
  24 H :    0.122251
  25 C :   -0.349191
  26 H :    0.129853
  27 H :    0.122975
  28 H :    0.125398

  Mayer bond orders larger than 0.100000
B(  0-N ,  1-H ) :   0.7970 B(  0-N ,  2-C ) :   0.9768 B(  0-N , 10-C ) :   1.0629
B(  2-C ,  3-O ) :   2.0235 B(  2-C ,  4-C ) :   1.0610 B(  4-C ,  5-H ) :   0.9066
B(  4-C ,  6-C ) :   1.6425 B(  6-C ,  7-H ) :   0.8982 B(  6-C ,  8-N ) :   1.0768
B(  8-N ,  9-H ) :   0.8089 B(  8-N , 10-C ) :   1.0213 B( 10-C , 11-O ) :   2.0414
B( 12-C , 13-C ) :   0.9841 B( 12-C , 17-C ) :   0.9838 B( 12-C , 21-C ) :   0.9797
B( 12-C , 25-C ) :   0.9821 B( 13-C , 14-H ) :   0.9304 B( 13-C , 15-H ) :   0.9310
B( 13-C , 16-H ) :   0.9284 B( 17-C , 18-H ) :   0.9291 B( 17-C , 19-H ) :   0.9310
B( 17-C , 20-H ) :   0.9302 B( 21-C , 22-H ) :   0.9201 B( 21-C , 23-H ) :   0.9302
B( 21-C , 24-H ) :   0.9234 B( 25-C , 26-H ) :   0.9147 B( 25-C , 27-H ) :   0.9283
B( 25-C , 28-H ) :   0.9293

Dispersion correction           -0.017580250
FINAL SINGLE POINT ENERGY      -611.283941300362

DIPOLE MOMENT
-------------
                                X             Y             Z
Electronic contribution:      7.87416      -1.62688     -21.30590
Nuclear contribution   :     -7.03902       3.14045      21.11680
                        -----------------------------------------
Total Dipole Moment    :      0.83514       1.51357      -0.18910
                        -----------------------------------------
Magnitude (a.u.)       :      1.73900
Magnitude (Debye)      :      4.42018

Rotational constants in cm-1:     0.035123     0.015829     0.014072
Rotational constants in MHz :  1052.972716   474.550433   421.862194

                             ****ORCA TERMINATED NORMALLY****
TOTAL RUN TIME: 0 days 0 hours 2 minutes 43 seconds 489 msec
