                         Program Version 5.0.3 -  RELEASE  -
|  1> ! PBEh-3c def2/J TightSCF DefGrid3
|  2>
|  3> %maxcore 60000
|  4>
|  5> %pal
|  6> nprocs 4
|  7> end
|  8>
|  9> *xyzfile 0 1 8.xyz
| 10>
| 11>                          ****END OF INPUT****

CARTESIAN COORDINATES (ANGSTROEM)
---------------------------------
  C     -0.626731   -4.638134    0.000000
  C      0.164729   -4.248307   -1.146594
  C      1.496847   -3.946679   -0.738538
  C      0.164729   -4.248307    1.146594
  C      1.496847   -3.946679    0.738538
  C     -0.533428   -3.258837    1.910255
  C     -1.783363   -3.817333    0.000000
  C     -1.785383   -3.011927    1.196508
  C     -0.533428   -3.258837   -1.910255
  C     -1.785383   -3.011927   -1.196508
  C      0.154555   -2.146655   -2.492998
  C      2.143607   -2.772989   -1.180049
  C      1.541247   -1.863542   -2.130086
  C      2.143607   -2.772989    1.180049
  C      2.764176   -2.185245    0.000000
  C      0.154555   -2.146655    2.492998
  C      1.541247   -1.863542    2.130086
  C     -0.666005   -1.038595    2.845758
  C     -2.424724   -1.734857    1.234872
  C     -1.998018   -0.874804    2.266849
  C     -2.424724   -1.734857   -1.234872
  C     -2.922414   -1.129727    0.000000
  C     -0.666005   -1.038595   -2.845758
  C     -1.998018   -0.874804   -2.266849
  C     -0.152489    0.255070   -3.115638
  C      2.012536   -0.478407   -2.173732
  C      1.204870    0.577757   -2.793246
  C      3.132948   -0.878714    0.000000
  C      2.935177   -0.051769   -1.168818
  C      2.012536   -0.478407    2.173732
  C      2.935177   -0.051769    1.168818
  C     -0.152489    0.255070    3.115638
  C      1.204870    0.577757    2.793246
  C     -2.320158    0.520641    2.271311
  C     -1.231496    1.226632    2.895682
  C     -3.201355    0.259887    0.000000
  C     -2.965045    1.088262    1.164090
  C     -2.320158    0.520641   -2.271311
  C     -1.231496    1.226632   -2.895682
  C     -2.965045    1.088262   -1.164090
  C     -0.956049    2.540107   -2.546340
  C      1.478597    1.952503   -2.494548
  C      0.413192    2.932197   -2.478658
  C      3.028240    1.313823   -0.731015
  C      3.028240    1.313823    0.731015
  C      2.369824    2.320213   -1.426407
  C      1.478597    1.952503    2.494548
  C      2.369824    2.320213    1.426407
  C     -0.956049    2.540107    2.546340
  C      0.413192    2.932197    2.478658
  C     -2.613708    2.430654    0.728038
  C     -2.613708    2.430654   -0.728038
  C     -1.661302    3.179693   -1.427544
  C     -1.661302    3.179693    1.427544
  C      0.582299    3.840461   -1.392461
  C      1.782919    3.460524   -0.698252
  C      1.782919    3.460524    0.698252
  C      0.582299    3.840461    1.392461
  C     -0.682464    3.983464   -0.704551
  C     -0.682464    3.983464    0.704551

 Total Charge           Charge          ....    0
 Multiplicity           Mult            ....    1
 Number of Electrons    NEL             ....  360
 Basis Dimension        Dim             ....  900

ORBITAL ENERGIES
----------------

  NO   OCC          E(Eh)            E(eV)
   0   2.0000     -10.535393      -286.6826
   1   2.0000     -10.535298      -286.6800
   2   2.0000     -10.533949      -286.6433
   3   2.0000     -10.533949      -286.6433
   4   2.0000     -10.531878      -286.5870
   5   2.0000     -10.531878      -286.5870
   6   2.0000     -10.529515      -286.5227
   7   2.0000     -10.529509      -286.5225
   8   2.0000     -10.527198      -286.4596
   9   2.0000     -10.526024      -286.4277
  10   2.0000     -10.525949      -286.4256
  11   2.0000     -10.525197      -286.4052
  12   2.0000     -10.525006      -286.4000
  13   2.0000     -10.524983      -286.3994
  14   2.0000     -10.524635      -286.3899
  15   2.0000     -10.524633      -286.3898
  16   2.0000     -10.524630      -286.3898
  17   2.0000     -10.523122      -286.3487
  18   2.0000     -10.523045      -286.3466
  19   2.0000     -10.522753      -286.3387
  20   2.0000     -10.522736      -286.3382
  21   2.0000     -10.522077      -286.3203
  22   2.0000     -10.522076      -286.3202
  23   2.0000     -10.521958      -286.3170
  24   2.0000     -10.521660      -286.3089
  25   2.0000     -10.520820      -286.2861
  26   2.0000     -10.520817      -286.2860
  27   2.0000     -10.520328      -286.2727
  28   2.0000     -10.520245      -286.2704
  29   2.0000     -10.520093      -286.2663
  30   2.0000     -10.520092      -286.2663
  31   2.0000     -10.519942      -286.2622
  32   2.0000     -10.518951      -286.2352
  33   2.0000     -10.518937      -286.2348
  34   2.0000     -10.518926      -286.2345
  35   2.0000     -10.518444      -286.2214
  36   2.0000     -10.518419      -286.2207
  37   2.0000     -10.518416      -286.2207
  38   2.0000     -10.517923      -286.2072
  39   2.0000     -10.517861      -286.2055
  40   2.0000     -10.517253      -286.1890
  41   2.0000     -10.517244      -286.1888
  42   2.0000     -10.516882      -286.1789
  43   2.0000     -10.516545      -286.1697
  44   2.0000     -10.516208      -286.1606
  45   2.0000     -10.516131      -286.1585
  46   2.0000     -10.514186      -286.1056
  47   2.0000     -10.514165      -286.1050
  48   2.0000     -10.512150      -286.0502
  49   2.0000     -10.512142      -286.0499
  50   2.0000     -10.510675      -286.0100
  51   2.0000     -10.510664      -286.0097
  52   2.0000     -10.507414      -285.9213
  53   2.0000     -10.507369      -285.9200
  54   2.0000     -10.507299      -285.9181
  55   2.0000     -10.507079      -285.9121
  56   2.0000     -10.505217      -285.8615
  57   2.0000     -10.504188      -285.8335
  58   2.0000     -10.502347      -285.7834
  59   2.0000     -10.478501      -285.1345
  60   2.0000      -1.102365       -29.9969
  61   2.0000      -1.091309       -29.6960
  62   2.0000      -1.076320       -29.2882
  63   2.0000      -1.075449       -29.2645
  64   2.0000      -1.055584       -28.7239
  65   2.0000      -1.042141       -28.3581
  66   2.0000      -1.040627       -28.3169
  67   2.0000      -1.027700       -27.9651
  68   2.0000      -1.017879       -27.6979
  69   2.0000      -0.995364       -27.0852
  70   2.0000      -0.991442       -26.9785
  71   2.0000      -0.990297       -26.9474
  72   2.0000      -0.966508       -26.3000
  73   2.0000      -0.966196       -26.2915
  74   2.0000      -0.957925       -26.0665
  75   2.0000      -0.939747       -25.5718
  76   2.0000      -0.924557       -25.1585
  77   2.0000      -0.920056       -25.0360
  78   2.0000      -0.919304       -25.0155
  79   2.0000      -0.907583       -24.6966
  80   2.0000      -0.907193       -24.6860
  81   2.0000      -0.878275       -23.8991
  82   2.0000      -0.876840       -23.8600
  83   2.0000      -0.863311       -23.4919
  84   2.0000      -0.859505       -23.3883
  85   2.0000      -0.855766       -23.2866
  86   2.0000      -0.847223       -23.0541
  87   2.0000      -0.832284       -22.6476
  88   2.0000      -0.832144       -22.6438
  89   2.0000      -0.826926       -22.5018
  90   2.0000      -0.806960       -21.9585
  91   2.0000      -0.790609       -21.5136
  92   2.0000      -0.765969       -20.8431
  93   2.0000      -0.765108       -20.8197
  94   2.0000      -0.758969       -20.6526
  95   2.0000      -0.756416       -20.5831
  96   2.0000      -0.752636       -20.4803
  97   2.0000      -0.750407       -20.4196
  98   2.0000      -0.737730       -20.0746
  99   2.0000      -0.730713       -19.8837
 100   2.0000      -0.730577       -19.8800
 101   2.0000      -0.703900       -19.1541
 102   2.0000      -0.684615       -18.6293
 103   2.0000      -0.683477       -18.5984
 104   2.0000      -0.678817       -18.4716
 105   2.0000      -0.661282       -17.9944
 106   2.0000      -0.659255       -17.9392
 107   2.0000      -0.654627       -17.8133
 108   2.0000      -0.647428       -17.6174
 109   2.0000      -0.641652       -17.4602
 110   2.0000      -0.639801       -17.4099
 111   2.0000      -0.626962       -17.0605
 112   2.0000      -0.615827       -16.7575
 113   2.0000      -0.609161       -16.5761
 114   2.0000      -0.603538       -16.4231
 115   2.0000      -0.601304       -16.3623
 116   2.0000      -0.592159       -16.1135
 117   2.0000      -0.586698       -15.9649
 118   2.0000      -0.571831       -15.5603
 119   2.0000      -0.570487       -15.5237
 120   2.0000      -0.565963       -15.4006
 121   2.0000      -0.558547       -15.1988
 122   2.0000      -0.551957       -15.0195
 123   2.0000      -0.551533       -15.0080
 124   2.0000      -0.548370       -14.9219
 125   2.0000      -0.546596       -14.8736
 126   2.0000      -0.542859       -14.7719
 127   2.0000      -0.538578       -14.6555
 128   2.0000      -0.537474       -14.6254
 129   2.0000      -0.533882       -14.5277
 130   2.0000      -0.531027       -14.4500
 131   2.0000      -0.530015       -14.4224
 132   2.0000      -0.521805       -14.1990
 133   2.0000      -0.520392       -14.1606
 134   2.0000      -0.516061       -14.0427
 135   2.0000      -0.514446       -13.9988
 136   2.0000      -0.504441       -13.7265
 137   2.0000      -0.502854       -13.6834
 138   2.0000      -0.501522       -13.6471
 139   2.0000      -0.496664       -13.5149
 140   2.0000      -0.494797       -13.4641
 141   2.0000      -0.493817       -13.4374
 142   2.0000      -0.483024       -13.1437
 143   2.0000      -0.482592       -13.1320
 144   2.0000      -0.479961       -13.0604
 145   2.0000      -0.477660       -12.9978
 146   2.0000      -0.471495       -12.8300
 147   2.0000      -0.468211       -12.7407
 148   2.0000      -0.465665       -12.6714
 149   2.0000      -0.452103       -12.3023
 150   2.0000      -0.451851       -12.2955
 151   2.0000      -0.447195       -12.1688
 152   2.0000      -0.437532       -11.9058
 153   2.0000      -0.437340       -11.9006
 154   2.0000      -0.434627       -11.8268
 155   2.0000      -0.432314       -11.7639
 156   2.0000      -0.430758       -11.7215
 157   2.0000      -0.428752       -11.6669
 158   2.0000      -0.423341       -11.5197
 159   2.0000      -0.418577       -11.3901
 160   2.0000      -0.417684       -11.3658
 161   2.0000      -0.417116       -11.3503
 162   2.0000      -0.404456       -11.0058
 163   2.0000      -0.403788       -10.9876
 164   2.0000      -0.392490       -10.6802
 165   2.0000      -0.378145       -10.2899
 166   2.0000      -0.359737        -9.7889
 167   2.0000      -0.357519        -9.7286
 168   2.0000      -0.348953        -9.4955
 169   2.0000      -0.336188        -9.1481
 170   2.0000      -0.332856        -9.0575
 171   2.0000      -0.311807        -8.4847
 172   2.0000      -0.304694        -8.2911
 173   2.0000      -0.294506        -8.0139
 174   2.0000      -0.292582        -7.9616
 175   2.0000      -0.286916        -7.8074
 176   2.0000      -0.276758        -7.5310
 177   2.0000      -0.267472        -7.2783
 178   2.0000      -0.263876        -7.1804
 179   2.0000      -0.237226        -6.4552
 180   0.0000      -0.178325        -4.8525
 181   0.0000      -0.133197        -3.6245
 182   0.0000      -0.127105        -3.4587
 183   0.0000      -0.104622        -2.8469
 184   0.0000      -0.084250        -2.2926

MULLIKEN ATOMIC CHARGES
-----------------------
   0 C :   -0.057418
   1 C :    0.006276
   2 C :   -0.017816
   3 C :    0.006273
   4 C :   -0.017820
   5 C :    0.003258
   6 C :   -0.000762
   7 C :   -0.015344
   8 C :    0.003257
   9 C :   -0.015344
  10 C :   -0.002292
  11 C :    0.012531
  12 C :    0.004614
  13 C :    0.012533
  14 C :   -0.040610
  15 C :   -0.002288
  16 C :    0.004611
  17 C :   -0.007007
  18 C :    0.025727
  19 C :    0.000067
  20 C :    0.025725
  21 C :    0.008852
  22 C :   -0.007002
  23 C :    0.000060
  24 C :    0.002501
  25 C :    0.030775
  26 C :    0.029731
  27 C :   -0.004241
  28 C :    0.001829
  29 C :    0.030773
  30 C :    0.001832
  31 C :    0.002504
  32 C :    0.029733
  33 C :    0.017798
  34 C :   -0.013792
  35 C :   -0.003828
  36 C :    0.000405
  37 C :    0.017806
  38 C :   -0.013789
  39 C :    0.000406
  40 C :    0.001932
  41 C :    0.006199
  42 C :   -0.012703
  43 C :    0.006489
  44 C :    0.006491
  45 C :   -0.022875
  46 C :    0.006198
  47 C :   -0.022875
  48 C :    0.001934
  49 C :   -0.012706
  50 C :    0.004316
  51 C :    0.004313
  52 C :   -0.009363
  53 C :   -0.009364
  54 C :   -0.018789
  55 C :    0.011568
  56 C :    0.011571
  57 C :   -0.018789
  58 C :    0.002965
  59 C :    0.002963
Sum of atomic charges:    0.0000000

LOEWDIN ATOMIC CHARGES
----------------------
   0 C :   -0.084612
   1 C :    0.043541
   2 C :   -0.014104
   3 C :    0.043541
   4 C :   -0.014104
   5 C :   -0.034971
   6 C :   -0.031068
   7 C :    0.050749
   8 C :   -0.034971
   9 C :    0.050748
  10 C :   -0.006266
  11 C :    0.003130
  12 C :    0.007369
  13 C :    0.003130
  14 C :   -0.011334
  15 C :   -0.006266
  16 C :    0.007369
  17 C :   -0.002332
  18 C :   -0.010144
  19 C :    0.028112
  20 C :   -0.010143
  21 C :   -0.012491
  22 C :   -0.002332
  23 C :    0.028111
  24 C :    0.006133
  25 C :   -0.000293
  26 C :   -0.002330
  27 C :   -0.019154
  28 C :    0.022057
  29 C :   -0.000293
  30 C :    0.022057
  31 C :    0.006133
  32 C :   -0.002330
  33 C :   -0.023261
  34 C :    0.011357
  35 C :   -0.000353
  36 C :    0.010480
  37 C :   -0.023261
  38 C :    0.011357
  39 C :    0.010481
  40 C :   -0.003597
  41 C :   -0.008788
  42 C :    0.012030
  43 C :   -0.004442
  44 C :   -0.004442
  45 C :   -0.002240
  46 C :   -0.008788
  47 C :   -0.002240
  48 C :   -0.003597
  49 C :    0.012030
  50 C :    0.004417
  51 C :    0.004417
  52 C :    0.001295
  53 C :    0.001296
  54 C :   -0.019401
  55 C :    0.015401
  56 C :    0.015401
  57 C :   -0.019401
  58 C :   -0.004395
  59 C :   -0.004395

  Mayer bond orders larger than 0.100000
B(  0-C ,  1-C ) :   1.1934 B(  0-C ,  3-C ) :   1.1934 B(  0-C ,  6-C ) :   1.2743
B(  1-C ,  2-C ) :   1.2044 B(  1-C ,  8-C ) :   1.2213 B(  2-C ,  4-C ) :   1.1462
B(  2-C , 11-C ) :   1.3210 B(  3-C ,  4-C ) :   1.2044 B(  3-C ,  5-C ) :   1.2213
B(  4-C , 13-C ) :   1.3210 B(  5-C ,  7-C ) :   1.2134 B(  5-C , 15-C ) :   1.2411
B(  6-C ,  7-C ) :   1.2016 B(  6-C ,  9-C ) :   1.2016 B(  7-C , 18-C ) :   1.1512
B(  8-C ,  9-C ) :   1.2134 B(  8-C , 10-C ) :   1.2411 B(  9-C , 20-C ) :   1.1512
B( 10-C , 12-C ) :   1.2424 B( 10-C , 22-C ) :   1.1990 B( 11-C , 12-C ) :   1.2293
B( 11-C , 14-C ) :   1.1380 B( 12-C , 25-C ) :   1.1740 B( 13-C , 14-C ) :   1.1380
B( 13-C , 16-C ) :   1.2293 B( 14-C , 27-C ) :   1.4089 B( 15-C , 16-C ) :   1.2424
B( 15-C , 17-C ) :   1.1990 B( 16-C , 29-C ) :   1.1740 B( 17-C , 19-C ) :   1.1671
B( 17-C , 31-C ) :   1.2928 B( 18-C , 19-C ) :   1.3213 B( 18-C , 21-C ) :   1.1891
B( 19-C , 33-C ) :   1.1720 B( 20-C , 21-C ) :   1.1891 B( 20-C , 23-C ) :   1.3213
B( 21-C , 35-C ) :   1.2966 B( 22-C , 23-C ) :   1.1671 B( 22-C , 24-C ) :   1.2928
B( 23-C , 37-C ) :   1.1720 B( 24-C , 26-C ) :   1.2381 B( 24-C , 38-C ) :   1.1293
B( 25-C , 26-C ) :   1.1652 B( 25-C , 28-C ) :   1.3087 B( 26-C , 41-C ) :   1.2560
B( 27-C , 28-C ) :   1.1461 B( 27-C , 30-C ) :   1.1461 B( 28-C , 43-C ) :   1.1953
B( 29-C , 30-C ) :   1.3087 B( 29-C , 32-C ) :   1.1652 B( 30-C , 44-C ) :   1.1953
B( 31-C , 32-C ) :   1.2381 B( 31-C , 34-C ) :   1.1293 B( 32-C , 46-C ) :   1.2560
B( 33-C , 34-C ) :   1.1782 B( 33-C , 36-C ) :   1.3390 B( 34-C , 48-C ) :   1.3690
B( 35-C , 36-C ) :   1.1869 B( 35-C , 39-C ) :   1.1869 B( 36-C , 50-C ) :   1.1535
B( 37-C , 38-C ) :   1.1781 B( 37-C , 39-C ) :   1.3390 B( 38-C , 40-C ) :   1.3690
B( 39-C , 51-C ) :   1.1535 B( 40-C , 42-C ) :   1.1878 B( 40-C , 52-C ) :   1.1355
B( 41-C , 42-C ) :   1.1734 B( 41-C , 45-C ) :   1.2341 B( 42-C , 54-C ) :   1.2862
B( 43-C , 44-C ) :   1.1434 B( 43-C , 45-C ) :   1.3431 B( 44-C , 47-C ) :   1.3431
B( 45-C , 55-C ) :   1.1020 B( 46-C , 47-C ) :   1.2341 B( 46-C , 49-C ) :   1.1734
B( 47-C , 56-C ) :   1.1020 B( 48-C , 49-C ) :   1.1878 B( 48-C , 53-C ) :   1.1355
B( 49-C , 57-C ) :   1.2862 B( 50-C , 51-C ) :   1.1500 B( 50-C , 53-C ) :   1.3932
B( 51-C , 52-C ) :   1.3932 B( 52-C , 58-C ) :   1.1684 B( 53-C , 59-C ) :   1.1684
B( 54-C , 55-C ) :   1.1873 B( 54-C , 58-C ) :   1.1918 B( 55-C , 56-C ) :   1.3929
B( 56-C , 57-C ) :   1.1873 B( 57-C , 59-C ) :   1.1918 B( 58-C , 59-C ) :   1.3393

Dispersion correction           -0.097388508
FINAL SINGLE POINT ENERGY     -2280.986501481092

DIPOLE MOMENT
-------------
                                X             Y             Z
Electronic contribution:     -0.06027       0.38205      -0.00000
Nuclear contribution   :     -0.00000       0.00000       0.00000
                        -----------------------------------------
Total Dipole Moment    :     -0.06027       0.38205      -0.00000
                        -----------------------------------------
Magnitude (a.u.)       :      0.38677
Magnitude (Debye)      :      0.98310

Rotational constants in cm-1:     0.003446     0.002481     0.002436
Rotational constants in MHz :   103.305019    74.369664    73.043351

                             ****ORCA TERMINATED NORMALLY****
TOTAL RUN TIME: 0 days 1 hours 8 minutes 30 seconds 61 msec
