                         Program Version 5.0.3 -  RELEASE  -
|  1> ! PBEh-3c def2/J TightSCF DefGrid3
|  2>
|  3> %maxcore 60000
|  4>
|  5> %pal
|  6> nprocs 4
|  7> end
|  8>
|  9> *xyzfile 0 1 AM4.xyz
| 10>
| 11>                          ****END OF INPUT****

CARTESIAN COORDINATES (ANGSTROEM)
---------------------------------
  C      0.623249    0.440758    0.000000
  C     -0.623249   -0.440758    0.000000
  C      1.919588   -0.364720    0.000000
  C     -1.919588    0.364720    0.000000
  H      0.597629    1.098582    0.877938
  H      0.597629    1.098582   -0.877938
  H     -0.597629   -1.098582    0.877938
  H     -0.597629   -1.098582   -0.877938
  H      2.797387    0.288091    0.000000
  H      1.978788   -1.007283    0.884014
  H      1.978788   -1.007283   -0.884014
  H     -2.797387   -0.288091    0.000000
  H     -1.978788    1.007283    0.884014
  H     -1.978788    1.007283   -0.884014

 Total Charge           Charge          ....    0
 Multiplicity           Mult            ....    1
 Number of Electrons    NEL             ....   34
 Basis Dimension        Dim             ....   80

ORBITAL ENERGIES
----------------

  NO   OCC          E(Eh)            E(eV)
   0   2.0000     -10.428657      -283.7782
   1   2.0000     -10.428437      -283.7722
   2   2.0000     -10.420869      -283.5663
   3   2.0000     -10.420841      -283.5655
   4   2.0000      -0.882968       -24.0268
   5   2.0000      -0.805957       -21.9312
   6   2.0000      -0.703875       -19.1534
   7   2.0000      -0.644245       -17.5308
   8   2.0000      -0.527327       -14.3493
   9   2.0000      -0.481072       -13.0906
  10   2.0000      -0.473785       -12.8923
  11   2.0000      -0.464516       -12.6401
  12   2.0000      -0.418149       -11.3784
  13   2.0000      -0.398843       -10.8531
  14   2.0000      -0.380348       -10.3498
  15   2.0000      -0.368410       -10.0249
  16   2.0000      -0.367889       -10.0108
  17   0.0000       0.139618         3.7992
  18   0.0000       0.164856         4.4859
  19   0.0000       0.192471         5.2374
  20   0.0000       0.201259         5.4765
  21   0.0000       0.202590         5.5128

MULLIKEN ATOMIC CHARGES
-----------------------
   0 C :   -0.403430
   1 C :   -0.403430
   2 C :   -0.636448
   3 C :   -0.636448
   4 H :    0.203089
   5 H :    0.203089
   6 H :    0.203089
   7 H :    0.203089
   8 H :    0.217546
   9 H :    0.208077
  10 H :    0.208077
  11 H :    0.217546
  12 H :    0.208077
  13 H :    0.208077
Sum of atomic charges:   -0.0000000

LOEWDIN ATOMIC CHARGES
----------------------
   0 C :   -0.247422
   1 C :   -0.247422
   2 C :   -0.362291
   3 C :   -0.362291
   4 H :    0.118685
   5 H :    0.118685
   6 H :    0.118685
   7 H :    0.118685
   8 H :    0.125992
   9 H :    0.123175
  10 H :    0.123175
  11 H :    0.125992
  12 H :    0.123175
  13 H :    0.123175

  Mayer bond orders larger than 0.100000
B(  0-C ,  1-C ) :   0.9870 B(  0-C ,  2-C ) :   0.9972 B(  0-C ,  4-H ) :   0.9204
B(  0-C ,  5-H ) :   0.9204 B(  1-C ,  3-C ) :   0.9972 B(  1-C ,  6-H ) :   0.9204
B(  1-C ,  7-H ) :   0.9204 B(  2-C ,  8-H ) :   0.9324 B(  2-C ,  9-H ) :   0.9295
B(  2-C , 10-H ) :   0.9295 B(  3-C , 11-H ) :   0.9324 B(  3-C , 12-H ) :   0.9295
B(  3-C , 13-H ) :   0.9295

Dispersion correction           -0.005101366
FINAL SINGLE POINT ENERGY      -158.106181925031

DIPOLE MOMENT
-------------
                                X             Y             Z
Electronic contribution:      0.00000       0.00000       0.00000
Nuclear contribution   :      0.00000       0.00000       0.00000
                        -----------------------------------------
Total Dipole Moment    :      0.00000       0.00000       0.00000
                        -----------------------------------------
Magnitude (a.u.)       :      0.00000
Magnitude (Debye)      :      0.00000

Rotational constants in cm-1:     0.782148     0.121451     0.114028
Rotational constants in MHz : 23448.203581  3640.999456  3418.467666

                             ****ORCA TERMINATED NORMALLY****
TOTAL RUN TIME: 0 days 0 hours 1 minutes 4 seconds 734 msec
