                         Program Version 5.0.3 -  RELEASE  -
|  1> ! PBEh-3c def2/J TightSCF DefGrid3
|  2>
|  3> %maxcore 60000
|  4>
|  5> %pal
|  6> nprocs 4
|  7> end
|  8>
|  9> *xyzfile 0 1 i16p.xyz
| 10>
| 11>                          ****END OF INPUT****

CARTESIAN COORDINATES (ANGSTROEM)
---------------------------------
  C     -3.975850   -1.774086   -0.628527
  C     -3.873740   -0.708938    0.306073
  C     -2.696997    0.034517    0.401480
  C     -1.628651   -0.296085   -0.437194
  C     -1.721096   -1.334320   -1.359539
  C     -2.899323   -2.081650   -1.460402
  C     -0.446441   -1.480213   -2.150873
  C      0.593147   -0.582552   -1.418287
  C     -0.277087    0.419485   -0.500352
  C      0.334304    0.549265    0.869443
  C      0.626777    1.754924    1.395452
  C      0.337172    3.034334    0.720018
  C     -0.183842    2.930136   -0.678634
  C     -0.452672    1.721997   -1.218339
  N      1.523778   -1.362354   -0.602601
  C      0.922921   -1.895722    0.625853
  C      0.598021   -0.741656    1.609379
  O      0.503242    4.113573    1.293858
  O     -0.507890    4.057784   -1.385598
  C      0.544046    5.037468   -1.557257
  C      2.875475   -1.097246   -0.717116
  O      3.574822   -1.658886    0.316971
  C      5.020387   -1.507807    0.243945
  C      5.604937   -2.173098    1.478090
  O     -5.007948   -0.513130    1.062848
  C     -4.998920    0.573000    1.996606
  O     -5.123687   -2.513389   -0.724780
  O      3.394388   -0.476843   -1.630708
  H     -5.763275   -2.157905   -0.086935
  H      1.066340    1.841451    2.389214
  H     -0.870606    1.672427   -2.223008
  H      0.130276    5.789271   -2.236445
  H      0.817767    5.492986   -0.600615
  H      1.425584    4.568468   -2.020730
  H     -0.292410   -1.017082    2.194113
  H      1.424855   -0.590950    2.313226
  H      1.593574   -2.623922    1.081701
  H      0.001074   -2.408552    0.333347
  H      1.191649   -0.005351   -2.122293
  H     -0.579350   -1.128558   -3.183955
  H     -0.087820   -2.515917   -2.206533
  H     -2.603460    0.856737    1.105377
  H     -3.002880   -2.901122   -2.168366
  H     -4.212990    0.429833    2.753260
  H     -5.982371    0.566416    2.473890
  H     -4.836323    1.529880    1.479128
  H      5.262300   -0.438825    0.201002
  H      5.378539   -1.974680   -0.682092
  H      5.232928   -1.695537    2.392910
  H      6.698385   -2.078247    1.456900
  H      5.348943   -3.239329    1.507095

 Total Charge           Charge          ....    0
 Multiplicity           Mult            ....    1
 Number of Electrons    NEL             ....  204
 Basis Dimension        Dim             ....  466

ORBITAL ENERGIES
----------------

  NO   OCC          E(Eh)            E(eV)
   0   2.0000     -19.547853      -531.9241
   1   2.0000     -19.538396      -531.6668
   2   2.0000     -19.526832      -531.3521
   3   2.0000     -19.511222      -530.9273
   4   2.0000     -19.478664      -530.0414
   5   2.0000     -19.468762      -529.7719
   6   2.0000     -14.675620      -399.3439
   7   2.0000     -10.597980      -288.3857
   8   2.0000     -10.534658      -286.6626
   9   2.0000     -10.522150      -286.3223
  10   2.0000     -10.520491      -286.2771
  11   2.0000     -10.509491      -285.9778
  12   2.0000     -10.506232      -285.8891
  13   2.0000     -10.501802      -285.7686
  14   2.0000     -10.501110      -285.7497
  15   2.0000     -10.489799      -285.4419
  16   2.0000     -10.487139      -285.3696
  17   2.0000     -10.486791      -285.3601
  18   2.0000     -10.475821      -285.0616
  19   2.0000     -10.464307      -284.7483
  20   2.0000     -10.463368      -284.7227
  21   2.0000     -10.462740      -284.7056
  22   2.0000     -10.461844      -284.6812
  23   2.0000     -10.460322      -284.6398
  24   2.0000     -10.456628      -284.5393
  25   2.0000     -10.454848      -284.4909
  26   2.0000     -10.453785      -284.4620
  27   2.0000     -10.441498      -284.1276
  28   2.0000      -1.211714       -32.9724
  29   2.0000      -1.195085       -32.5199
  30   2.0000      -1.162828       -31.6422
  31   2.0000      -1.159017       -31.5384
  32   2.0000      -1.128703       -30.7136
  33   2.0000      -1.116014       -30.3683
  34   2.0000      -1.057473       -28.7753
  35   2.0000      -0.984910       -26.8008
  36   2.0000      -0.946085       -25.7443
  37   2.0000      -0.905473       -24.6392
  38   2.0000      -0.881279       -23.9808
  39   2.0000      -0.861723       -23.4487
  40   2.0000      -0.857184       -23.3252
  41   2.0000      -0.837617       -22.7927
  42   2.0000      -0.826934       -22.5020
  43   2.0000      -0.807230       -21.9658
  44   2.0000      -0.782869       -21.3030
  45   2.0000      -0.764477       -20.8025
  46   2.0000      -0.743431       -20.2298
  47   2.0000      -0.720729       -19.6120
  48   2.0000      -0.701879       -19.0991
  49   2.0000      -0.692502       -18.8439
  50   2.0000      -0.680393       -18.5144
  51   2.0000      -0.676679       -18.4134
  52   2.0000      -0.653398       -17.7799
  53   2.0000      -0.624917       -17.0049
  54   2.0000      -0.621593       -16.9144
  55   2.0000      -0.602467       -16.3940
  56   2.0000      -0.592489       -16.1225
  57   2.0000      -0.578921       -15.7533
  58   2.0000      -0.570217       -15.5164
  59   2.0000      -0.567207       -15.4345
  60   2.0000      -0.551356       -15.0032
  61   2.0000      -0.547784       -14.9060
  62   2.0000      -0.547679       -14.9031
  63   2.0000      -0.533868       -14.5273
  64   2.0000      -0.525814       -14.3081
  65   2.0000      -0.524049       -14.2601
  66   2.0000      -0.518425       -14.1071
  67   2.0000      -0.514477       -13.9996
  68   2.0000      -0.506798       -13.7907
  69   2.0000      -0.501159       -13.6372
  70   2.0000      -0.497790       -13.5456
  71   2.0000      -0.494183       -13.4474
  72   2.0000      -0.485416       -13.2088
  73   2.0000      -0.478858       -13.0304
  74   2.0000      -0.470357       -12.7991
  75   2.0000      -0.465846       -12.6763
  76   2.0000      -0.465269       -12.6606
  77   2.0000      -0.461481       -12.5575
  78   2.0000      -0.451952       -12.2982
  79   2.0000      -0.450141       -12.2490
  80   2.0000      -0.445882       -12.1331
  81   2.0000      -0.441638       -12.0176
  82   2.0000      -0.434376       -11.8200
  83   2.0000      -0.427396       -11.6300
  84   2.0000      -0.423814       -11.5326
  85   2.0000      -0.415951       -11.3186
  86   2.0000      -0.414296       -11.2736
  87   2.0000      -0.411404       -11.1949
  88   2.0000      -0.409358       -11.1392
  89   2.0000      -0.404472       -11.0062
  90   2.0000      -0.399152       -10.8615
  91   2.0000      -0.396521       -10.7899
  92   2.0000      -0.371574       -10.1110
  93   2.0000      -0.356679        -9.7057
  94   2.0000      -0.353631        -9.6228
  95   2.0000      -0.334709        -9.1079
  96   2.0000      -0.315575        -8.5872
  97   2.0000      -0.306338        -8.3359
  98   2.0000      -0.297578        -8.0975
  99   2.0000      -0.286283        -7.7902
 100   2.0000      -0.277940        -7.5631
 101   2.0000      -0.251788        -6.8515
 102   0.0000      -0.042073        -1.1449
 103   0.0000       0.005925         0.1612
 104   0.0000       0.011414         0.3106
 105   0.0000       0.048429         1.3178
 106   0.0000       0.078788         2.1439

MULLIKEN ATOMIC CHARGES
-----------------------
   0 C :    0.299694
   1 C :    0.298164
   2 C :   -0.397157
   3 C :    0.183502
   4 C :    0.066223
   5 C :   -0.379326
   6 C :   -0.488107
   7 C :   -0.077355
   8 C :   -0.368492
   9 C :    0.260065
  10 C :   -0.433896
  11 C :    0.352361
  12 C :    0.253550
  13 C :   -0.198329
  14 N :   -0.498376
  15 C :   -0.319175
  16 C :   -0.503655
  17 O :   -0.382655
  18 O :   -0.477549
  19 C :   -0.396739
  20 C :    0.764166
  21 O :   -0.501882
  22 C :   -0.150104
  23 C :   -0.665780
  24 O :   -0.502305
  25 C :   -0.400339
  26 O :   -0.611441
  27 O :   -0.456687
  28 H :    0.445992
  29 H :    0.234657
  30 H :    0.253569
  31 H :    0.221132
  32 H :    0.246790
  33 H :    0.199453
  34 H :    0.252988
  35 H :    0.250009
  36 H :    0.270991
  37 H :    0.259177
  38 H :    0.298651
  39 H :    0.252987
  40 H :    0.252934
  41 H :    0.249638
  42 H :    0.235682
  43 H :    0.213618
  44 H :    0.245756
  45 H :    0.223139
  46 H :    0.226583
  47 H :    0.222874
  48 H :    0.226295
  49 H :    0.221514
  50 H :    0.227191
Sum of atomic charges:   -0.0000000

LOEWDIN ATOMIC CHARGES
----------------------
   0 C :    0.059405
   1 C :    0.032928
   2 C :   -0.168007
   3 C :   -0.044400
   4 C :   -0.055957
   5 C :   -0.156560
   6 C :   -0.223298
   7 C :   -0.014040
   8 C :   -0.062987
   9 C :    0.006771
  10 C :   -0.178505
  11 C :    0.092103
  12 C :    0.014872
  13 C :   -0.109360
  14 N :   -0.137316
  15 C :   -0.138110
  16 C :   -0.236205
  17 O :   -0.218021
  18 O :   -0.205811
  19 C :   -0.176214
  20 C :    0.174575
  21 O :   -0.207361
  22 C :   -0.070454
  23 C :   -0.371420
  24 O :   -0.211470
  25 C :   -0.173963
  26 O :   -0.314534
  27 O :   -0.275480
  28 H :    0.332390
  29 H :    0.148716
  30 H :    0.153751
  31 H :    0.125660
  32 H :    0.132089
  33 H :    0.112072
  34 H :    0.150011
  35 H :    0.144493
  36 H :    0.146773
  37 H :    0.137953
  38 H :    0.159399
  39 H :    0.146066
  40 H :    0.145493
  41 H :    0.151070
  42 H :    0.150570
  43 H :    0.118622
  44 H :    0.134822
  45 H :    0.123294
  46 H :    0.126432
  47 H :    0.124655
  48 H :    0.134074
  49 H :    0.136031
  50 H :    0.134386

  Mayer bond orders larger than 0.100000
B(  0-C ,  1-C ) :   1.2682 B(  0-C ,  5-C ) :   1.4267 B(  0-C , 26-O ) :   1.1022
B(  1-C ,  2-C ) :   1.3605 B(  1-C , 24-O ) :   1.0093 B(  2-C ,  3-C ) :   1.3560
B(  2-C , 41-H ) :   0.9003 B(  3-C ,  4-C ) :   1.4098 B(  3-C ,  8-C ) :   0.9007
B(  4-C ,  5-C ) :   1.3591 B(  4-C ,  6-C ) :   0.9513 B(  5-C , 42-H ) :   0.9150
B(  6-C ,  7-C ) :   0.9439 B(  6-C , 39-H ) :   0.9038 B(  6-C , 40-H ) :   0.9094
B(  7-C ,  8-C ) :   0.9062 B(  7-C , 14-N ) :   0.9555 B(  7-C , 38-H ) :   0.8795
B(  8-C ,  9-C ) :   1.0047 B(  8-C , 13-C ) :   1.0130 B(  9-C , 10-C ) :   1.6973
B(  9-C , 16-C ) :   0.9521 B( 10-C , 11-C ) :   1.0387 B( 10-C , 29-H ) :   0.9178
B( 11-C , 12-C ) :   0.9597 B( 11-C , 17-O ) :   1.9600 B( 12-C , 13-C ) :   1.7299
B( 12-C , 18-O ) :   1.0179 B( 13-C , 30-H ) :   0.8989 B( 14-N , 15-C ) :   0.9516
B( 14-N , 20-C ) :   1.0889 B( 15-C , 16-C ) :   0.9436 B( 15-C , 36-H ) :   0.9065
B( 15-C , 37-H ) :   0.8953 B( 16-C , 34-H ) :   0.8969 B( 16-C , 35-H ) :   0.9149
B( 18-O , 19-C ) :   0.9158 B( 19-C , 31-H ) :   0.9285 B( 19-C , 32-H ) :   0.8910
B( 19-C , 33-H ) :   0.9152 B( 20-C , 21-O ) :   1.0525 B( 20-C , 27-O ) :   1.9084
B( 21-O , 22-C ) :   0.8656 B( 22-C , 23-C ) :   0.9919 B( 22-C , 46-H ) :   0.9048
B( 22-C , 47-H ) :   0.9068 B( 23-C , 48-H ) :   0.9223 B( 23-C , 49-H ) :   0.9211
B( 23-C , 50-H ) :   0.9219 B( 24-O , 25-C ) :   0.9229 B( 25-C , 43-H ) :   0.9072
B( 25-C , 44-H ) :   0.9208 B( 25-C , 45-H ) :   0.9047 B( 26-O , 28-H ) :   0.7501

Dispersion correction           -0.039471800
FINAL SINGLE POINT ENERGY     -1317.328703668983

DIPOLE MOMENT
-------------
                                X             Y             Z
Electronic contribution:    -12.17191       2.51720      -5.80548
Nuclear contribution   :     11.92941      -3.64304       6.74927
                        -----------------------------------------
Total Dipole Moment    :     -0.24250      -1.12583       0.94379
                        -----------------------------------------
Magnitude (a.u.)       :      1.48897
Magnitude (Debye)      :      3.78467

Rotational constants in cm-1:     0.007267     0.004405     0.003353
Rotational constants in MHz :   217.872139   132.058398   100.512462

                             ****ORCA TERMINATED NORMALLY****
TOTAL RUN TIME: 0 days 0 hours 9 minutes 53 seconds 577 msec
