                         Program Version 5.0.3 -  RELEASE  -
|  1> ! PBEh-3c def2/J TightSCF DefGrid3
|  2>
|  3> %maxcore 60000
|  4>
|  5> %pal
|  6> nprocs 4
|  7> end
|  8>
|  9> *xyzfile 0 1 28.xyz
| 10>
| 11>                          ****END OF INPUT****

CARTESIAN COORDINATES (ANGSTROEM)
---------------------------------
  N     -2.220123   -2.800225    0.010385
  C     -0.882954   -3.010578   -0.246251
  C     -0.234523   -1.801196   -0.370196
  C     -1.233452   -0.787743   -0.177943
  C     -1.185500    0.624038   -0.195285
  C     -2.363309    1.323558    0.021952
  C     -3.584977    0.644751    0.256503
  C     -3.650024   -0.735002    0.274661
  C     -2.461903   -1.446088    0.054776
  H     -2.909638   -3.520704    0.120802
  H     -0.489567   -4.010835   -0.329670
  H     -0.251623    1.133153   -0.380234
  H     -4.470045    1.243591    0.419981
  H     -4.590984   -1.239492    0.452200
  O     -2.467673    2.688839    0.032677
  C     -1.271027    3.411309   -0.201650
  H     -0.856368    3.184033   -1.186482
  H     -0.521506    3.197064    0.563957
  H     -1.541219    4.461931   -0.157576
  C      1.226556   -1.578410   -0.602833
  C      1.933568   -1.094519    0.674008
  N      3.347043   -0.819896    0.492330
  C      3.912478    0.353555    0.071727
  C      2.998571    1.562773    0.012298
  H      1.378019   -0.838410   -1.393394
  H      1.699789   -2.502551   -0.942239
  H      1.828376   -1.855389    1.448628
  H      1.441035   -0.200483    1.051547
  H      3.980853   -1.602998    0.454594
  O      5.098918    0.423802   -0.214256
  H      2.568587    1.778201    0.990443
  H      2.180350    1.404018   -0.690247
  H      3.592268    2.409898   -0.315209

 Total Charge           Charge          ....    0
 Multiplicity           Mult            ....    1
 Number of Electrons    NEL             ....  124
 Basis Dimension        Dim             ....  287

ORBITAL ENERGIES
----------------

  NO   OCC          E(Eh)            E(eV)
   0   2.0000     -19.524022      -531.2756
   1   2.0000     -19.448083      -529.2093
   2   2.0000     -14.689316      -399.7166
   3   2.0000     -14.654408      -398.7667
   4   2.0000     -10.543930      -286.9149
   5   2.0000     -10.505189      -285.8607
   6   2.0000     -10.490113      -285.4505
   7   2.0000     -10.483628      -285.2740
   8   2.0000     -10.482434      -285.2415
   9   2.0000     -10.480257      -285.1823
  10   2.0000     -10.456644      -284.5397
  11   2.0000     -10.451351      -284.3957
  12   2.0000     -10.450033      -284.3599
  13   2.0000     -10.446876      -284.2739
  14   2.0000     -10.446500      -284.2637
  15   2.0000     -10.444325      -284.2045
  16   2.0000     -10.441135      -284.1177
  17   2.0000      -1.172419       -31.9032
  18   2.0000      -1.134187       -30.8628
  19   2.0000      -1.091441       -29.6996
  20   2.0000      -1.018871       -27.7249
  21   2.0000      -0.941912       -25.6307
  22   2.0000      -0.903983       -24.5986
  23   2.0000      -0.845809       -23.0156
  24   2.0000      -0.837054       -22.7774
  25   2.0000      -0.826181       -22.4815
  26   2.0000      -0.809412       -22.0252
  27   2.0000      -0.780728       -21.2447
  28   2.0000      -0.732221       -19.9248
  29   2.0000      -0.695584       -18.9278
  30   2.0000      -0.674342       -18.3498
  31   2.0000      -0.647950       -17.6316
  32   2.0000      -0.639222       -17.3941
  33   2.0000      -0.615281       -16.7426
  34   2.0000      -0.582017       -15.8375
  35   2.0000      -0.562199       -15.2982
  36   2.0000      -0.559527       -15.2255
  37   2.0000      -0.548212       -14.9176
  38   2.0000      -0.532974       -14.5030
  39   2.0000      -0.530660       -14.4400
  40   2.0000      -0.513573       -13.9750
  41   2.0000      -0.511017       -13.9055
  42   2.0000      -0.501366       -13.6429
  43   2.0000      -0.489800       -13.3281
  44   2.0000      -0.476095       -12.9552
  45   2.0000      -0.466139       -12.6843
  46   2.0000      -0.460551       -12.5322
  47   2.0000      -0.458215       -12.4687
  48   2.0000      -0.455064       -12.3829
  49   2.0000      -0.451011       -12.2726
  50   2.0000      -0.439001       -11.9458
  51   2.0000      -0.419600       -11.4179
  52   2.0000      -0.414676       -11.2839
  53   2.0000      -0.411057       -11.1854
  54   2.0000      -0.406601       -11.0642
  55   2.0000      -0.381162       -10.3719
  56   2.0000      -0.354417        -9.6442
  57   2.0000      -0.327134        -8.9018
  58   2.0000      -0.301932        -8.2160
  59   2.0000      -0.294849        -8.0233
  60   2.0000      -0.248179        -6.7533
  61   2.0000      -0.243048        -6.6137
  62   0.0000       0.002333         0.0635
  63   0.0000       0.054451         1.4817
  64   0.0000       0.063616         1.7311
  65   0.0000       0.084897         2.3102
  66   0.0000       0.105391         2.8678

MULLIKEN ATOMIC CHARGES
-----------------------
   0 N :   -0.700215
   1 C :   -0.059652
   2 C :    0.023117
   3 C :    0.089579
   4 C :   -0.495973
   5 C :    0.393248
   6 C :   -0.316896
   7 C :   -0.251449
   8 C :    0.352427
   9 H :    0.359528
  10 H :    0.238744
  11 H :    0.222963
  12 H :    0.236115
  13 H :    0.215258
  14 O :   -0.465461
  15 C :   -0.405475
  16 H :    0.205674
  17 H :    0.202163
  18 H :    0.243061
  19 C :   -0.536262
  20 C :   -0.275310
  21 N :   -0.610347
  22 C :    0.500411
  23 C :   -0.791320
  24 H :    0.229375
  25 H :    0.227221
  26 H :    0.242950
  27 H :    0.239974
  28 H :    0.357742
  29 O :   -0.418396
  30 H :    0.239844
  31 H :    0.232329
  32 H :    0.275034
Sum of atomic charges:    0.0000000

LOEWDIN ATOMIC CHARGES
----------------------
   0 N :   -0.156068
   1 C :   -0.083448
   2 C :   -0.108834
   3 C :   -0.050744
   4 C :   -0.200000
   5 C :    0.060888
   6 C :   -0.156241
   7 C :   -0.145120
   8 C :    0.003654
   9 H :    0.262264
  10 H :    0.135351
  11 H :    0.136158
  12 H :    0.147001
  13 H :    0.138196
  14 O :   -0.189768
  15 C :   -0.179730
  16 H :    0.113360
  17 H :    0.111548
  18 H :    0.131274
  19 C :   -0.236504
  20 C :   -0.147340
  21 N :   -0.245391
  22 C :    0.106579
  23 C :   -0.399188
  24 H :    0.132272
  25 H :    0.133389
  26 H :    0.130928
  27 H :    0.132255
  28 H :    0.257830
  29 O :   -0.274159
  30 H :    0.145025
  31 H :    0.137675
  32 H :    0.156886

  Mayer bond orders larger than 0.100000
B(  0-N ,  1-C ) :   1.1431 B(  0-N ,  8-C ) :   1.0052 B(  0-N ,  9-H ) :   0.8329
B(  1-C ,  2-C ) :   1.5468 B(  1-C , 10-H ) :   0.9110 B(  2-C ,  3-C ) :   1.2475
B(  2-C , 19-C ) :   0.9446 B(  3-C ,  4-C ) :   1.2499 B(  3-C ,  8-C ) :   1.2554
B(  4-C ,  5-C ) :   1.4239 B(  4-C , 11-H ) :   0.9080 B(  5-C ,  6-C ) :   1.2981
B(  5-C , 14-O ) :   1.0286 B(  6-C ,  7-C ) :   1.5293 B(  6-C , 12-H ) :   0.9079
B(  7-C ,  8-C ) :   1.2714 B(  7-C , 13-H ) :   0.9198 B( 14-O , 15-C ) :   0.9563
B( 15-C , 16-H ) :   0.9065 B( 15-C , 17-H ) :   0.9069 B( 15-C , 18-H ) :   0.9225
B( 19-C , 20-C ) :   0.9454 B( 19-C , 24-H ) :   0.9155 B( 19-C , 25-H ) :   0.9290
B( 20-C , 21-N ) :   0.9518 B( 20-C , 26-H ) :   0.9133 B( 20-C , 27-H ) :   0.9034
B( 21-N , 22-C ) :   1.1547 B( 21-N , 28-H ) :   0.8237 B( 22-C , 23-C ) :   0.9245
B( 22-C , 29-O ) :   2.0329 B( 23-C , 30-H ) :   0.9091 B( 23-C , 31-H ) :   0.9035
B( 23-C , 32-H ) :   0.9147

Dispersion correction           -0.021788509
FINAL SINGLE POINT ENERGY      -763.325514069921

DIPOLE MOMENT
-------------
                                X             Y             Z
Electronic contribution:     -5.68693      -5.86790       0.11619
Nuclear contribution   :      4.23614       4.71115       0.15882
                        -----------------------------------------
Total Dipole Moment    :     -1.45078      -1.15675       0.27502
                        -----------------------------------------
Magnitude (a.u.)       :      1.87576
Magnitude (Debye)      :      4.76781

Rotational constants in cm-1:     0.021219     0.009659     0.006797
Rotational constants in MHz :   636.124818   289.571612   203.761194

                             ****ORCA TERMINATED NORMALLY****
TOTAL RUN TIME: 0 days 0 hours 4 minutes 52 seconds 590 msec
