                         Program Version 5.0.3 -  RELEASE  -
|  1> ! PBEh-3c def2/J TightSCF DefGrid3
|  2>
|  3> %maxcore 60000
|  4>
|  5> %pal
|  6> nprocs 4
|  7> end
|  8>
|  9> *xyzfile 0 1 00r.xyz
| 10>
| 11>                          ****END OF INPUT****

CARTESIAN COORDINATES (ANGSTROEM)
---------------------------------
  C      0.663482    0.000000    0.000000
  H      1.234624   -0.922536    0.000000
  H      1.234624    0.922536    0.000000
  C     -0.663482    0.000000    0.000000
  H     -1.234624   -0.922536    0.000000
  H     -1.234624    0.922536    0.000000

 Total Charge           Charge          ....    0
 Multiplicity           Mult            ....    1
 Number of Electrons    NEL             ....   16
 Basis Dimension        Dim             ....   38

ORBITAL ENERGIES
----------------

  NO   OCC          E(Eh)            E(eV)
   0   2.0000     -10.441074      -284.1161
   1   2.0000     -10.440088      -284.0892
   2   2.0000      -0.849757       -23.1231
   3   2.0000      -0.651168       -17.7192
   4   2.0000      -0.530258       -14.4291
   5   2.0000      -0.478983       -13.0338
   6   2.0000      -0.407197       -11.0804
   7   2.0000      -0.317160        -8.6304
   8   0.0000       0.040621         1.1053
   9   0.0000       0.169429         4.6104
  10   0.0000       0.194578         5.2947
  11   0.0000       0.209253         5.6941
  12   0.0000       0.319484         8.6936

MULLIKEN ATOMIC CHARGES
-----------------------
   0 C :   -0.429256
   1 H :    0.214628
   2 H :    0.214628
   3 C :   -0.429256
   4 H :    0.214628
   5 H :    0.214628
Sum of atomic charges:   -0.0000000

LOEWDIN ATOMIC CHARGES
----------------------
   0 C :   -0.260213
   1 H :    0.130107
   2 H :    0.130107
   3 C :   -0.260213
   4 H :    0.130107
   5 H :    0.130107

  Mayer bond orders larger than 0.100000
B(  0-C ,  1-H ) :   0.9299 B(  0-C ,  2-H ) :   0.9299 B(  0-C ,  3-C ) :   1.9824
B(  3-C ,  4-H ) :   0.9299 B(  3-C ,  5-H ) :   0.9299

Dispersion correction           -0.001301279
FINAL SINGLE POINT ENERGY       -78.405385925843

DIPOLE MOMENT
-------------
                                X             Y             Z
Electronic contribution:     -0.00000      -0.00000      -0.00000
Nuclear contribution   :      0.00000       0.00000       0.00000
                        -----------------------------------------
Total Dipole Moment    :     -0.00000      -0.00000      -0.00000
                        -----------------------------------------
Magnitude (a.u.)       :      0.00000
Magnitude (Debye)      :      0.00000

Rotational constants in cm-1:     4.912583     1.008193     0.836517
Rotational constants in MHz : 147275.539955 30224.861615 25078.156303

                             ****ORCA TERMINATED NORMALLY****
TOTAL RUN TIME: 0 days 0 hours 0 minutes 51 seconds 404 msec
