                         Program Version 5.0.3 -  RELEASE  -
|  1> ! PBEh-3c def2/J TightSCF DefGrid3
|  2>
|  3> %maxcore 60000
|  4>
|  5> %pal
|  6> nprocs 4
|  7> end
|  8>
|  9> *xyzfile 0 1 hno.xyz
| 10>
| 11>                          ****END OF INPUT****

CARTESIAN COORDINATES (ANGSTROEM)
---------------------------------
  N      0.608892   -0.085352    0.000000
  H      1.019756    0.884758   -0.000000
  O     -0.597296    0.018985    0.000000

 Total Charge           Charge          ....    0
 Multiplicity           Mult            ....    1
 Number of Electrons    NEL             ....   16
 Basis Dimension        Dim             ....   32

ORBITAL ENERGIES
----------------

  NO   OCC          E(Eh)            E(eV)
   0   2.0000     -19.576533      -532.7046
   1   2.0000     -14.762731      -401.7143
   2   2.0000      -1.283211       -34.9179
   3   2.0000      -0.810877       -22.0651
   4   2.0000      -0.598989       -16.2993
   5   2.0000      -0.516237       -14.0475
   6   2.0000      -0.509731       -13.8705
   7   2.0000      -0.300158        -8.1677
   8   0.0000      -0.061403        -1.6709
   9   0.0000       0.133357         3.6288
  10   0.0000       0.330716         8.9992
  11   0.0000       0.697536        18.9809
  12   0.0000       0.737317        20.0634

MULLIKEN ATOMIC CHARGES
-----------------------
   0 N :   -0.081071
   1 H :    0.300525
   2 O :   -0.219454
Sum of atomic charges:   -0.0000000

LOEWDIN ATOMIC CHARGES
----------------------
   0 N :   -0.068012
   1 H :    0.182752
   2 O :   -0.114739

  Mayer bond orders larger than 0.100000
B(  0-N ,  1-H ) :   0.8333 B(  0-N ,  2-O ) :   1.9911

Dispersion correction           -0.000359842
FINAL SINGLE POINT ENERGY      -130.187364969960

DIPOLE MOMENT
-------------
                                X             Y             Z
Electronic contribution:     -0.48846      -0.26534      -0.00000
Nuclear contribution   :      0.95121       0.82987       0.00000
                        -----------------------------------------
Total Dipole Moment    :      0.46276       0.56453      -0.00000
                        -----------------------------------------
Magnitude (a.u.)       :      0.72996
Magnitude (Debye)      :      1.85541

Rotational constants in cm-1:    18.796165     1.410783     1.312286
Rotational constants in MHz : 563494.861407 42294.196358 39341.354898

                             ****ORCA TERMINATED NORMALLY****
TOTAL RUN TIME: 0 days 0 hours 0 minutes 49 seconds 964 msec
