                         Program Version 5.0.3 -  RELEASE  -
|  1> ! PBEh-3c def2/J TightSCF DefGrid3
|  2>
|  3> %maxcore 60000
|  4>
|  5> %pal
|  6> nprocs 4
|  7> end
|  8>
|  9> *xyzfile 1 1 ethanolp.xyz
| 10>
| 11>                          ****END OF INPUT****

CARTESIAN COORDINATES (ANGSTROEM)
---------------------------------
  C     -0.881607   -0.616128    0.000000
  C      0.585328   -0.305433    0.000000
  O      0.843844    1.163108    0.000000
  H     -0.988635   -1.701565    0.000000
  H     -1.381905   -0.233547    0.889694
  H     -1.381905   -0.233547   -0.889694
  H      1.103219   -0.656737   -0.887876
  H      1.103219   -0.656737    0.887876
  H      0.499221    1.620293   -0.788761
  H      0.499221    1.620293    0.788761

 Total Charge           Charge          ....    1
 Multiplicity           Mult            ....    1
 Number of Electrons    NEL             ....   26
 Basis Dimension        Dim             ....   59

ORBITAL ENERGIES
----------------

  NO   OCC          E(Eh)            E(eV)
   0   2.0000     -19.871240      -540.7239
   1   2.0000     -10.736380      -292.1518
   2   2.0000     -10.630827      -289.2795
   3   2.0000      -1.505014       -40.9535
   4   2.0000      -1.092282       -29.7225
   5   2.0000      -0.960849       -26.1460
   6   2.0000      -0.960561       -26.1382
   7   2.0000      -0.814589       -22.1661
   8   2.0000      -0.782344       -21.2886
   9   2.0000      -0.732274       -19.9262
  10   2.0000      -0.645447       -17.5635
  11   2.0000      -0.643937       -17.5224
  12   2.0000      -0.621494       -16.9117
  13   0.0000      -0.162841        -4.4311
  14   0.0000      -0.080303        -2.1852
  15   0.0000      -0.067689        -1.8419
  16   0.0000      -0.022497        -0.6122
  17   0.0000       0.005167         0.1406

MULLIKEN ATOMIC CHARGES
-----------------------
   0 C :   -0.689313
   1 C :   -0.253784
   2 O :   -0.608975
   3 H :    0.312250
   4 H :    0.263306
   5 H :    0.263306
   6 H :    0.321050
   7 H :    0.321050
   8 H :    0.535555
   9 H :    0.535555
Sum of atomic charges:    1.0000000

LOEWDIN ATOMIC CHARGES
----------------------
   0 C :   -0.383218
   1 C :   -0.062072
   2 O :   -0.191715
   3 H :    0.188345
   4 H :    0.154975
   5 H :    0.154975
   6 H :    0.172506
   7 H :    0.172506
   8 H :    0.396849
   9 H :    0.396849

  Mayer bond orders larger than 0.100000
B(  0-C ,  1-C ) :   0.9882 B(  0-C ,  3-H ) :   0.8748 B(  0-C ,  4-H ) :   0.9016
B(  0-C ,  5-H ) :   0.9016 B(  1-C ,  2-O ) :   0.6838 B(  1-C ,  6-H ) :   0.8730
B(  1-C ,  7-H ) :   0.8730 B(  2-O ,  8-H ) :   0.6909 B(  2-O ,  9-H ) :   0.6909

Dispersion correction           -0.002906567
FINAL SINGLE POINT ENERGY      -155.007695685756

DIPOLE MOMENT
-------------
                                X             Y             Z
Electronic contribution:      1.90614       2.23905       0.00000
Nuclear contribution   :     -1.81410      -1.22953       0.00000
                        -----------------------------------------
Total Dipole Moment    :      0.09204       1.00953       0.00000
                        -----------------------------------------
Magnitude (a.u.)       :      1.01371
Magnitude (Debye)      :      2.57665

Rotational constants in cm-1:     1.037712     0.286801     0.254860
Rotational constants in MHz : 31109.826135  8598.068215  7640.511800

                             ****ORCA TERMINATED NORMALLY****
TOTAL RUN TIME: 0 days 0 hours 1 minutes 12 seconds 796 msec
