                         Program Version 5.0.3 -  RELEASE  -
|  1> ! PBEh-3c def2/J TightSCF DefGrid3
|  2>
|  3> %maxcore 60000
|  4>
|  5> %pal
|  6> nprocs 4
|  7> end
|  8>
|  9> *xyzfile 0 1 bithiophene_syn.xyz
| 10>
| 11>                          ****END OF INPUT****

CARTESIAN COORDINATES (ANGSTROEM)
---------------------------------
  C     -1.550938   -0.304678    0.797422
  C     -2.917360   -0.257261    0.452078
  C     -3.115391    0.050072   -0.857650
  S     -1.639719    0.300112   -1.670499
  C     -0.721678   -0.025409   -0.254157
  C      0.721678    0.025409   -0.254157
  S      1.639719   -0.300112   -1.670499
  C      3.115391   -0.050072   -0.857650
  C      2.917360    0.257261    0.452078
  C      1.550938    0.304678    0.797422
  H     -1.182226   -0.558851    1.776745
  H     -3.719770   -0.453147    1.142754
  H     -4.045713    0.143596   -1.385870
  H      4.045713   -0.143596   -1.385870
  H      3.719770    0.453147    1.142754
  H      1.182226    0.558851    1.776745

 Total Charge           Charge          ....    0
 Multiplicity           Mult            ....    1
 Number of Electrons    NEL             ....   86
 Basis Dimension        Dim             ....  168

ORBITAL ENERGIES
----------------

  NO   OCC          E(Eh)            E(eV)
   0   2.0000     -89.620428     -2438.6958
   1   2.0000     -89.620377     -2438.6944
   2   2.0000     -10.489520      -285.4344
   3   2.0000     -10.489169      -285.4248
   4   2.0000     -10.473903      -285.0094
   5   2.0000     -10.473891      -285.0091
   6   2.0000     -10.452805      -284.4353
   7   2.0000     -10.452789      -284.4348
   8   2.0000     -10.451981      -284.4129
   9   2.0000     -10.451940      -284.4117
  10   2.0000      -8.260351      -224.7756
  11   2.0000      -8.260323      -224.7748
  12   2.0000      -6.150516      -167.3641
  13   2.0000      -6.150496      -167.3635
  14   2.0000      -6.147034      -167.2693
  15   2.0000      -6.147025      -167.2690
  16   2.0000      -6.144909      -167.2115
  17   2.0000      -6.144904      -167.2113
  18   2.0000      -1.007087       -27.4042
  19   2.0000      -0.982715       -26.7410
  20   2.0000      -0.862910       -23.4810
  21   2.0000      -0.835725       -22.7412
  22   2.0000      -0.822592       -22.3839
  23   2.0000      -0.789316       -21.4784
  24   2.0000      -0.674678       -18.3589
  25   2.0000      -0.651111       -17.7176
  26   2.0000      -0.621725       -16.9180
  27   2.0000      -0.600424       -16.3384
  28   2.0000      -0.594920       -16.1886
  29   2.0000      -0.540090       -14.6966
  30   2.0000      -0.476894       -12.9770
  31   2.0000      -0.473433       -12.8828
  32   2.0000      -0.469911       -12.7869
  33   2.0000      -0.458779       -12.4840
  34   2.0000      -0.454002       -12.3540
  35   2.0000      -0.432331       -11.7643
  36   2.0000      -0.428924       -11.6716
  37   2.0000      -0.407713       -11.0944
  38   2.0000      -0.391568       -10.6551
  39   2.0000      -0.321467        -8.7476
  40   2.0000      -0.301508        -8.2045
  41   2.0000      -0.297262        -8.0889
  42   2.0000      -0.248017        -6.7489
  43   0.0000      -0.024347        -0.6625
  44   0.0000       0.033705         0.9172
  45   0.0000       0.054196         1.4748
  46   0.0000       0.075550         2.0558
  47   0.0000       0.106113         2.8875

MULLIKEN ATOMIC CHARGES
-----------------------
   0 C :   -0.218907
   1 C :   -0.128607
   2 C :   -0.451891
   3 S :    0.248693
   4 C :   -0.156336
   5 C :   -0.156337
   6 S :    0.248694
   7 C :   -0.451890
   8 C :   -0.128607
   9 C :   -0.218906
  10 H :    0.222227
  11 H :    0.229644
  12 H :    0.255175
  13 H :    0.255175
  14 H :    0.229645
  15 H :    0.222227
Sum of atomic charges:   -0.0000000

LOEWDIN ATOMIC CHARGES
----------------------
   0 C :   -0.167111
   1 C :   -0.170544
   2 C :   -0.302612
   3 S :    0.405393
   4 C :   -0.199338
   5 C :   -0.199338
   6 S :    0.405393
   7 C :   -0.302612
   8 C :   -0.170544
   9 C :   -0.167111
  10 H :    0.143327
  11 H :    0.142787
  12 H :    0.148098
  13 H :    0.148098
  14 H :    0.142787
  15 H :    0.143327

  Mayer bond orders larger than 0.100000
B(  0-C ,  1-C ) :   1.2979 B(  0-C ,  4-C ) :   1.5011 B(  0-C , 10-H ) :   0.9235
B(  1-C ,  2-C ) :   1.5303 B(  1-C , 11-H ) :   0.9166 B(  2-C ,  3-S ) :   1.2078
B(  2-C , 12-H ) :   0.9104 B(  3-S ,  4-C ) :   1.1912 B(  4-C ,  5-C ) :   0.9939
B(  5-C ,  6-S ) :   1.1912 B(  5-C ,  9-C ) :   1.5011 B(  6-S ,  7-C ) :   1.2078
B(  7-C ,  8-C ) :   1.5303 B(  7-C , 13-H ) :   0.9104 B(  8-C ,  9-C ) :   1.2979
B(  8-C , 14-H ) :   0.9166 B(  9-C , 15-H ) :   0.9235

Dispersion correction           -0.010978554
FINAL SINGLE POINT ENERGY     -1103.241158206403

DIPOLE MOMENT
-------------
                                X             Y             Z
Electronic contribution:     -0.00000      -0.00000      -5.94667
Nuclear contribution   :     -0.00000       0.00000       6.34919
                        -----------------------------------------
Total Dipole Moment    :     -0.00000      -0.00000       0.40252
                        -----------------------------------------
Magnitude (a.u.)       :      0.40252
Magnitude (Debye)      :      1.02312

Rotational constants in cm-1:     0.093163     0.022335     0.018440
Rotational constants in MHz :  2792.957689   669.591350   552.807999

                             ****ORCA TERMINATED NORMALLY****
TOTAL RUN TIME: 0 days 0 hours 2 minutes 15 seconds 429 msec
