                         Program Version 5.0.3 -  RELEASE  -
|  1> ! PBEh-3c def2/J TightSCF DefGrid3
|  2>
|  3> %maxcore 60000
|  4>
|  5> %pal
|  6> nprocs 4
|  7> end
|  8>
|  9> *xyzfile 1 2 IP_79.xyz
| 10>
| 11>                          ****END OF INPUT****

CARTESIAN COORDINATES (ANGSTROEM)
---------------------------------
  Cl     0.000000    0.000000    0.778991
  F      0.000000    0.000000   -0.778991

 Total Charge           Charge          ....    1
 Multiplicity           Mult            ....    2
 Number of Electrons    NEL             ....   25
 Basis Dimension        Dim             ....   33

ORBITAL ENERGIES
----------------
                 SPIN UP ORBITALS
  NO   OCC          E(Eh)            E(eV)
   0   1.0000    -102.843795     -2798.5219
   1   1.0000     -25.555737      -695.4070
   2   1.0000     -10.297878      -280.2195
   3   1.0000      -7.991163      -217.4506
   4   1.0000      -7.986004      -217.3102
   5   1.0000      -7.968572      -216.8359
   6   1.0000      -1.777190       -48.3598
   7   1.0000      -1.328646       -36.1543
   8   1.0000      -0.983157       -26.7531
   9   1.0000      -0.973306       -26.4850
  10   1.0000      -0.943631       -25.6775
  11   1.0000      -0.804938       -21.9035
  12   1.0000      -0.757996       -20.6261
  13   0.0000      -0.415131       -11.2963
  14   0.0000       0.093220         2.5366
  15   0.0000       0.270469         7.3598
  16   0.0000       0.305469         8.3122
  17   0.0000       0.340258         9.2589

                 SPIN DOWN ORBITALS
  NO   OCC          E(Eh)            E(eV)
   0   1.0000    -102.836255     -2798.3168
   1   1.0000     -25.546360      -695.1518
   2   1.0000     -10.290646      -280.0227
   3   1.0000      -7.981973      -217.2005
   4   1.0000      -7.964320      -216.7202
   5   1.0000      -7.964171      -216.7161
   6   1.0000      -1.755027       -47.7567
   7   1.0000      -1.273772       -34.6611
   8   1.0000      -0.965962       -26.2852
   9   1.0000      -0.934144       -25.4194
  10   1.0000      -0.892419       -24.2839
  11   1.0000      -0.742229       -20.1971
  12   0.0000      -0.558274       -15.1914
  13   0.0000      -0.396044       -10.7769
  14   0.0000       0.107570         2.9271
  15   0.0000       0.311449         8.4750
  16   0.0000       0.321949         8.7607

MULLIKEN ATOMIC CHARGES AND SPIN POPULATIONS
--------------------------------------------
   0 Cl:    1.140141    0.812361
   1 F :   -0.140141    0.187639
Sum of atomic charges         :    1.0000000

LOEWDIN ATOMIC CHARGES AND SPIN POPULATIONS
-------------------------------------------
   0 Cl:    1.123000    0.793130
   1 F :   -0.123000    0.206870

  Mayer bond orders larger than 0.100000
B(  0-Cl,  1-F ) :   1.2406

Dispersion correction           -0.000199094
FINAL SINGLE POINT ENERGY      -558.796747727002

DIPOLE MOMENT
-------------
                                X             Y             Z
Electronic contribution:      0.00000       0.00000       0.53039
Nuclear contribution   :      0.00000       0.00000       0.21028
                        -----------------------------------------
Total Dipole Moment    :      0.00000       0.00000       0.74067
                        -----------------------------------------
Magnitude (a.u.)       :      0.74067
Magnitude (Debye)      :      1.88264

Rotational constants in cm-1:     0.000000     0.561458     0.561458
Rotational constants in MHz :     0.000000 16832.090322 16832.090322

                             ****ORCA TERMINATED NORMALLY****
TOTAL RUN TIME: 0 days 0 hours 0 minutes 12 seconds 114 msec
