                         Program Version 5.0.3 -  RELEASE  -
|  1> ! PBEh-3c def2/J TightSCF DefGrid3
|  2>
|  3> %maxcore 60000
|  4>
|  5> %pal
|  6> nprocs 4
|  7> end
|  8>
|  9> *xyzfile 0 1 undecan2.xyz
| 10>
| 11>                          ****END OF INPUT****

CARTESIAN COORDINATES (ANGSTROEM)
---------------------------------
  C      0.000000   -6.347446   -0.367820
  C      0.000000   -5.086224    0.485905
  C      0.000000   -3.814701   -0.351314
  C      0.000000   -2.541545    0.482451
  C      0.000000   -1.272242   -0.358336
  C      0.000000    0.000000    0.477463
  C      0.000000    1.272242   -0.358336
  C      0.000000    2.541545    0.482451
  C      0.000000    3.814701   -0.351314
  C      0.000000    5.086224    0.485905
  C      0.000000    6.347446   -0.367820
  H      0.000000   -7.248042    0.245661
  H     -0.881909   -6.376056   -1.009066
  H      0.881909   -6.376056   -1.009066
  H      0.877591   -5.082304    1.137746
  H     -0.877591   -5.082304    1.137746
  H      0.877365   -3.814448   -1.005695
  H     -0.877365   -3.814448   -1.005695
  H      0.878028   -2.538847    1.135833
  H     -0.878028   -2.538847    1.135833
  H      0.877968   -1.273815   -1.011962
  H     -0.877968   -1.273815   -1.011962
  H      0.877944    0.000000    1.131014
  H     -0.877944    0.000000    1.131014
  H      0.877968    1.273815   -1.011962
  H     -0.877968    1.273815   -1.011962
  H      0.878028    2.538847    1.135833
  H     -0.878028    2.538847    1.135833
  H      0.877365    3.814448   -1.005695
  H     -0.877365    3.814448   -1.005695
  H      0.877591    5.082304    1.137746
  H     -0.877591    5.082304    1.137746
  H      0.881909    6.376056   -1.009066
  H      0.000000    7.248042    0.245661
  H     -0.881909    6.376056   -1.009066

 Total Charge           Charge          ....    0
 Multiplicity           Mult            ....    1
 Number of Electrons    NEL             ....   90
 Basis Dimension        Dim             ....  213

ORBITAL ENERGIES
----------------

  NO   OCC          E(Eh)            E(eV)
   0   2.0000     -10.426557      -283.7210
   1   2.0000     -10.426555      -283.7210
   2   2.0000     -10.424802      -283.6733
   3   2.0000     -10.424772      -283.6725
   4   2.0000     -10.424659      -283.6694
   5   2.0000     -10.424582      -283.6673
   6   2.0000     -10.424459      -283.6640
   7   2.0000     -10.424375      -283.6617
   8   2.0000     -10.424359      -283.6612
   9   2.0000     -10.418863      -283.5117
  10   2.0000     -10.418862      -283.5117
  11   2.0000      -0.907369       -24.6908
  12   2.0000      -0.892753       -24.2930
  13   2.0000      -0.868500       -23.6331
  14   2.0000      -0.835478       -22.7345
  15   2.0000      -0.794771       -21.6268
  16   2.0000      -0.748682       -20.3727
  17   2.0000      -0.700829       -19.0705
  18   2.0000      -0.660133       -17.9631
  19   2.0000      -0.647093       -17.6083
  20   2.0000      -0.640093       -17.4178
  21   2.0000      -0.639145       -17.3920
  22   2.0000      -0.549504       -14.9528
  23   2.0000      -0.536067       -14.5871
  24   2.0000      -0.514519       -14.0008
  25   2.0000      -0.494243       -13.4490
  26   2.0000      -0.486725       -13.2445
  27   2.0000      -0.481773       -13.1097
  28   2.0000      -0.476226       -12.9588
  29   2.0000      -0.455447       -12.3933
  30   2.0000      -0.455203       -12.3867
  31   2.0000      -0.430441       -11.7129
  32   2.0000      -0.425602       -11.5812
  33   2.0000      -0.423906       -11.5351
  34   2.0000      -0.399422       -10.8688
  35   2.0000      -0.397041       -10.8040
  36   2.0000      -0.383065       -10.4237
  37   2.0000      -0.378073       -10.2879
  38   2.0000      -0.376110       -10.2345
  39   2.0000      -0.370870       -10.0919
  40   2.0000      -0.367800       -10.0084
  41   2.0000      -0.366310        -9.9678
  42   2.0000      -0.364866        -9.9285
  43   2.0000      -0.364506        -9.9187
  44   2.0000      -0.337781        -9.1915
  45   0.0000       0.128831         3.5057
  46   0.0000       0.138470         3.7680
  47   0.0000       0.147508         4.0139
  48   0.0000       0.156421         4.2564
  49   0.0000       0.168399         4.5824

MULLIKEN ATOMIC CHARGES
-----------------------
   0 C :   -0.638031
   1 C :   -0.409786
   2 C :   -0.395132
   3 C :   -0.399682
   4 C :   -0.399761
   5 C :   -0.399903
   6 C :   -0.399760
   7 C :   -0.399682
   8 C :   -0.395133
   9 C :   -0.409786
  10 C :   -0.638031
  11 H :    0.218286
  12 H :    0.208403
  13 H :    0.208403
  14 H :    0.204197
  15 H :    0.204198
  16 H :    0.199369
  17 H :    0.199369
  18 H :    0.199886
  19 H :    0.199886
  20 H :    0.200135
  21 H :    0.200135
  22 H :    0.200075
  23 H :    0.200076
  24 H :    0.200135
  25 H :    0.200135
  26 H :    0.199886
  27 H :    0.199886
  28 H :    0.199369
  29 H :    0.199369
  30 H :    0.204198
  31 H :    0.204197
  32 H :    0.208403
  33 H :    0.218285
  34 H :    0.208404
Sum of atomic charges:    0.0000000

LOEWDIN ATOMIC CHARGES
----------------------
   0 C :   -0.361681
   1 C :   -0.245711
   2 C :   -0.239692
   3 C :   -0.238062
   4 C :   -0.237464
   5 C :   -0.237613
   6 C :   -0.237464
   7 C :   -0.238062
   8 C :   -0.239692
   9 C :   -0.245711
  10 C :   -0.361681
  11 H :    0.125739
  12 H :    0.123304
  13 H :    0.123304
  14 H :    0.119214
  15 H :    0.119214
  16 H :    0.118339
  17 H :    0.118339
  18 H :    0.118766
  19 H :    0.118766
  20 H :    0.118807
  21 H :    0.118807
  22 H :    0.118815
  23 H :    0.118815
  24 H :    0.118807
  25 H :    0.118807
  26 H :    0.118766
  27 H :    0.118766
  28 H :    0.118339
  29 H :    0.118339
  30 H :    0.119214
  31 H :    0.119214
  32 H :    0.123304
  33 H :    0.125739
  34 H :    0.123304

  Mayer bond orders larger than 0.100000
B(  0-C ,  1-C ) :   0.9986 B(  0-C , 11-H ) :   0.9324 B(  0-C , 12-H ) :   0.9298
B(  0-C , 13-H ) :   0.9298 B(  1-C ,  2-C ) :   0.9912 B(  1-C , 14-H ) :   0.9208
B(  1-C , 15-H ) :   0.9208 B(  2-C ,  3-C ) :   0.9964 B(  2-C , 16-H ) :   0.9186
B(  2-C , 17-H ) :   0.9186 B(  3-C ,  4-C ) :   0.9952 B(  3-C , 18-H ) :   0.9187
B(  3-C , 19-H ) :   0.9187 B(  4-C ,  5-C ) :   0.9956 B(  4-C , 20-H ) :   0.9189
B(  4-C , 21-H ) :   0.9189 B(  5-C ,  6-C ) :   0.9956 B(  5-C , 22-H ) :   0.9188
B(  5-C , 23-H ) :   0.9188 B(  6-C ,  7-C ) :   0.9952 B(  6-C , 24-H ) :   0.9189
B(  6-C , 25-H ) :   0.9189 B(  7-C ,  8-C ) :   0.9964 B(  7-C , 26-H ) :   0.9187
B(  7-C , 27-H ) :   0.9187 B(  8-C ,  9-C ) :   0.9912 B(  8-C , 28-H ) :   0.9186
B(  8-C , 29-H ) :   0.9186 B(  9-C , 10-C ) :   0.9986 B(  9-C , 30-H ) :   0.9208
B(  9-C , 31-H ) :   0.9208 B( 10-C , 32-H ) :   0.9298 B( 10-C , 33-H ) :   0.9324
B( 10-C , 34-H ) :   0.9298

Dispersion correction           -0.017134684
FINAL SINGLE POINT ENERGY      -432.699778592391

DIPOLE MOMENT
-------------
                                X             Y             Z
Electronic contribution:     -0.00000       0.00000       0.67412
Nuclear contribution   :      0.00000      -0.00000      -0.65407
                        -----------------------------------------
Total Dipole Moment    :     -0.00000       0.00000       0.02005
                        -----------------------------------------
Magnitude (a.u.)       :      0.02005
Magnitude (Debye)      :      0.05096

Rotational constants in cm-1:     0.256204     0.006446     0.006369
Rotational constants in MHz :  7680.797777   193.247577   190.942757

                             ****ORCA TERMINATED NORMALLY****
TOTAL RUN TIME: 0 days 0 hours 2 minutes 15 seconds 761 msec
