                         Program Version 5.0.3 -  RELEASE  -
|  1> ! PBEh-3c def2/J TightSCF DefGrid3
|  2>
|  3> %maxcore 60000
|  4>
|  5> %pal
|  6> nprocs 4
|  7> end
|  8>
|  9> *xyzfile 0 1 p6.xyz
| 10>
| 11>                          ****END OF INPUT****

CARTESIAN COORDINATES (ANGSTROEM)
---------------------------------
  C      1.864703   -0.411895    0.000000
  C      3.066933    0.175970    0.000000
  C      0.603933    0.298145    0.000000
  C     -0.603933   -0.298145    0.000000
  C     -1.864703    0.411895    0.000000
  C     -3.066933   -0.175970    0.000000
  H      1.807459   -1.497995    0.000000
  H      3.170803    1.255707    0.000000
  H      3.981325   -0.403258    0.000000
  H      0.654942    1.385148    0.000000
  H     -0.654942   -1.385148    0.000000
  H     -1.807459    1.497995    0.000000
  H     -3.170803   -1.255707    0.000000
  H     -3.981325    0.403258    0.000000

 Total Charge           Charge          ....    0
 Multiplicity           Mult            ....    1
 Number of Electrons    NEL             ....   44
 Basis Dimension        Dim             ....  106

ORBITAL ENERGIES
----------------

  NO   OCC          E(Eh)            E(eV)
   0   2.0000     -10.453686      -284.4592
   1   2.0000     -10.453342      -284.4499
   2   2.0000     -10.453202      -284.4461
   3   2.0000     -10.452710      -284.4327
   4   2.0000     -10.442438      -284.1532
   5   2.0000     -10.442430      -284.1530
   6   2.0000      -0.918567       -24.9955
   7   2.0000      -0.873917       -23.7805
   8   2.0000      -0.810263       -22.0484
   9   2.0000      -0.700626       -19.0650
  10   2.0000      -0.631306       -17.1787
  11   2.0000      -0.627111       -17.0646
  12   2.0000      -0.552646       -15.0383
  13   2.0000      -0.525482       -14.2991
  14   2.0000      -0.492658       -13.4059
  15   2.0000      -0.465267       -12.6605
  16   2.0000      -0.440150       -11.9771
  17   2.0000      -0.417523       -11.3614
  18   2.0000      -0.399482       -10.8705
  19   2.0000      -0.395507       -10.7623
  20   2.0000      -0.337713        -9.1896
  21   2.0000      -0.251821        -6.8524
  22   0.0000      -0.028390        -0.7725
  23   0.0000       0.070973         1.9313
  24   0.0000       0.122097         3.3224
  25   0.0000       0.152537         4.1507
  26   0.0000       0.167403         4.5553

MULLIKEN ATOMIC CHARGES
-----------------------
   0 C :   -0.152061
   1 C :   -0.498590
   2 C :   -0.216678
   3 C :   -0.216678
   4 C :   -0.152061
   5 C :   -0.498590
   6 H :    0.215941
   7 H :    0.216583
   8 H :    0.222305
   9 H :    0.212501
  10 H :    0.212500
  11 H :    0.215941
  12 H :    0.216584
  13 H :    0.222305
Sum of atomic charges:    0.0000000

LOEWDIN ATOMIC CHARGES
----------------------
   0 C :   -0.139169
   1 C :   -0.259720
   2 C :   -0.135158
   3 C :   -0.135158
   4 C :   -0.139169
   5 C :   -0.259720
   6 H :    0.133500
   7 H :    0.131386
   8 H :    0.135489
   9 H :    0.133673
  10 H :    0.133673
  11 H :    0.133500
  12 H :    0.131386
  13 H :    0.135489

  Mayer bond orders larger than 0.100000
B(  0-C ,  1-C ) :   1.8211 B(  0-C ,  2-C ) :   1.1106 B(  0-C ,  6-H ) :   0.9203
B(  1-C ,  3-C ) :   0.1026 B(  1-C ,  7-H ) :   0.9297 B(  1-C ,  8-H ) :   0.9280
B(  2-C ,  3-C ) :   1.7060 B(  2-C ,  5-C ) :   0.1026 B(  2-C ,  9-H ) :   0.9224
B(  3-C ,  4-C ) :   1.1106 B(  3-C , 10-H ) :   0.9224 B(  4-C ,  5-C ) :   1.8211
B(  4-C , 11-H ) :   0.9203 B(  5-C , 12-H ) :   0.9297 B(  5-C , 13-H ) :   0.9280

Dispersion correction           -0.005894404
FINAL SINGLE POINT ENERGY      -232.864561177644

DIPOLE MOMENT
-------------
                                X             Y             Z
Electronic contribution:      0.00000       0.00000      -0.00000
Nuclear contribution   :      0.00000       0.00000       0.00000
                        -----------------------------------------
Total Dipole Moment    :      0.00000       0.00000      -0.00000
                        -----------------------------------------
Magnitude (a.u.)       :      0.00000
Magnitude (Debye)      :      0.00000

Rotational constants in cm-1:     0.894153     0.044607     0.042487
Rotational constants in MHz : 26806.045421  1337.276323  1273.733435

                             ****ORCA TERMINATED NORMALLY****
TOTAL RUN TIME: 0 days 0 hours 1 minutes 0 seconds 199 msec
