                         Program Version 5.0.3 -  RELEASE  -
|  1> ! PBEh-3c def2/J TightSCF DefGrid3
|  2>
|  3> %maxcore 60000
|  4>
|  5> %pal
|  6> nprocs 4
|  7> end
|  8>
|  9> *xyzfile 0 1 3.xyz
| 10>
| 11>                          ****END OF INPUT****

CARTESIAN COORDINATES (ANGSTROEM)
---------------------------------
  P      0.131244    1.839958   -0.000008
  F      1.171061    1.803348    1.188638
  F      1.171132    1.803321   -1.188591
  F     -0.131244    3.396533   -0.000034
  P     -0.131244   -1.839958   -0.000008
  F     -1.171061   -1.803348    1.188638
  F     -1.171132   -1.803321   -1.188591
  F      0.131244   -3.396533   -0.000034

 Total Charge           Charge          ....    0
 Multiplicity           Mult            ....    1
 Number of Electrons    NEL             ....   84
 Basis Dimension        Dim             ....  126

ORBITAL ENERGIES
----------------

  NO   OCC          E(Eh)            E(eV)
   0   2.0000     -77.932322     -2120.6463
   1   2.0000     -77.932256     -2120.6445
   2   2.0000     -25.136590      -684.0014
   3   2.0000     -25.136572      -684.0009
   4   2.0000     -25.136419      -683.9967
   5   2.0000     -25.136410      -683.9965
   6   2.0000     -25.136386      -683.9958
   7   2.0000     -25.136371      -683.9954
   8   2.0000      -6.979863      -189.9317
   9   2.0000      -6.979836      -189.9310
  10   2.0000      -5.071721      -138.0086
  11   2.0000      -5.071718      -138.0085
  12   2.0000      -5.071715      -138.0084
  13   2.0000      -5.071705      -138.0081
  14   2.0000      -5.067600      -137.8964
  15   2.0000      -5.067595      -137.8963
  16   2.0000      -1.404164       -38.2092
  17   2.0000      -1.404072       -38.2067
  18   2.0000      -1.350624       -36.7523
  19   2.0000      -1.350599       -36.7517
  20   2.0000      -1.350481       -36.7484
  21   2.0000      -1.350390       -36.7460
  22   2.0000      -0.755066       -20.5464
  23   2.0000      -0.753374       -20.5004
  24   2.0000      -0.634930       -17.2773
  25   2.0000      -0.634323       -17.2608
  26   2.0000      -0.634291       -17.2599
  27   2.0000      -0.633913       -17.2496
  28   2.0000      -0.606590       -16.5062
  29   2.0000      -0.601260       -16.3611
  30   2.0000      -0.560474       -15.2513
  31   2.0000      -0.560399       -15.2492
  32   2.0000      -0.560369       -15.2484
  33   2.0000      -0.560330       -15.2474
  34   2.0000      -0.520690       -14.1687
  35   2.0000      -0.520531       -14.1644
  36   2.0000      -0.519825       -14.1451
  37   2.0000      -0.519767       -14.1436
  38   2.0000      -0.506663       -13.7870
  39   2.0000      -0.506654       -13.7868
  40   2.0000      -0.389066       -10.5870
  41   2.0000      -0.365179        -9.9370
  42   0.0000       0.005507         0.1499
  43   0.0000       0.024438         0.6650
  44   0.0000       0.043610         1.1867
  45   0.0000       0.060540         1.6474
  46   0.0000       0.168979         4.5981

MULLIKEN ATOMIC CHARGES
-----------------------
   0 P :    1.259572
   1 F :   -0.420923
   2 F :   -0.420923
   3 F :   -0.417726
   4 P :    1.259572
   5 F :   -0.420923
   6 F :   -0.420923
   7 F :   -0.417726
Sum of atomic charges:    0.0000000

LOEWDIN ATOMIC CHARGES
----------------------
   0 P :    0.838208
   1 F :   -0.280470
   2 F :   -0.280470
   3 F :   -0.277268
   4 P :    0.838208
   5 F :   -0.280470
   6 F :   -0.280470
   7 F :   -0.277268

  Mayer bond orders larger than 0.100000
B(  0-P ,  1-F ) :   0.9152 B(  0-P ,  2-F ) :   0.9152 B(  0-P ,  3-F ) :   0.9202
B(  4-P ,  5-F ) :   0.9152 B(  4-P ,  6-F ) :   0.9152 B(  4-P ,  7-F ) :   0.9202

Dispersion correction           -0.002596235
FINAL SINGLE POINT ENERGY     -1280.017430553037

DIPOLE MOMENT
-------------
                                X             Y             Z
Electronic contribution:     -0.00000      -0.00000      -0.00000
Nuclear contribution   :      0.00000       0.00000      -0.00001
                        -----------------------------------------
Total Dipole Moment    :     -0.00000      -0.00000      -0.00001
                        -----------------------------------------
Magnitude (a.u.)       :      0.00001
Magnitude (Debye)      :      0.00004

Rotational constants in cm-1:     0.092290     0.016839     0.016316
Rotational constants in MHz :  2766.778533   504.809441   489.143350

                             ****ORCA TERMINATED NORMALLY****
TOTAL RUN TIME: 0 days 0 hours 1 minutes 19 seconds 391 msec
