                         Program Version 5.0.3 -  RELEASE  -
|  1> ! PBEh-3c def2/J TightSCF DefGrid3
|  2>
|  3> %maxcore 60000
|  4>
|  5> %pal
|  6> nprocs 4
|  7> end
|  8>
|  9> *xyzfile 0 1 B17.xyz
| 10>
| 11>                          ****END OF INPUT****

CARTESIAN COORDINATES (ANGSTROEM)
---------------------------------
  C     -1.822687   -0.652630   -0.181243
  H     -2.344427   -1.486381    0.285680
  O     -2.617408    0.498674    0.103759
  C     -0.406276   -0.552137    0.367708
  H     -0.458627   -0.413247    1.450471
  H      0.110299   -1.495205    0.181108
  C      0.396823    0.588415   -0.254581
  H     -0.059927    1.549788   -0.005842
  H      0.397163    0.493643   -1.344265
  H     -2.294476    1.216419   -0.445940
  H     -1.793211   -0.842577   -1.259562
  C      1.838481    0.619097    0.220511
  H      2.346790    1.498269   -0.186257
  H      1.865598    0.684852    1.313359
  O      2.470294   -0.578616   -0.229951
  H      3.369681   -0.582494    0.106411

 Total Charge           Charge          ....    0
 Multiplicity           Mult            ....    1
 Number of Electrons    NEL             ....   50
 Basis Dimension        Dim             ....  110

ORBITAL ENERGIES
----------------

  NO   OCC          E(Eh)            E(eV)
   0   2.0000     -19.486974      -530.2675
   1   2.0000     -19.479381      -530.0609
   2   2.0000     -10.484439      -285.2961
   3   2.0000     -10.474570      -285.0276
   4   2.0000     -10.435897      -283.9752
   5   2.0000     -10.425341      -283.6880
   6   2.0000      -1.123391       -30.5690
   7   2.0000      -1.115293       -30.3487
   8   2.0000      -0.880715       -23.9655
   9   2.0000      -0.798682       -21.7332
  10   2.0000      -0.705691       -19.2028
  11   2.0000      -0.647866       -17.6293
  12   2.0000      -0.586563       -15.9612
  13   2.0000      -0.567036       -15.4298
  14   2.0000      -0.522292       -14.2123
  15   2.0000      -0.506299       -13.7771
  16   2.0000      -0.485517       -13.2116
  17   2.0000      -0.460398       -12.5281
  18   2.0000      -0.436571       -11.8797
  19   2.0000      -0.405398       -11.0314
  20   2.0000      -0.398941       -10.8557
  21   2.0000      -0.380277       -10.3479
  22   2.0000      -0.365876        -9.9560
  23   2.0000      -0.326937        -8.8964
  24   2.0000      -0.318980        -8.6799
  25   0.0000       0.121918         3.3176
  26   0.0000       0.132729         3.6118
  27   0.0000       0.165828         4.5124
  28   0.0000       0.175871         4.7857
  29   0.0000       0.193778         5.2730

MULLIKEN ATOMIC CHARGES
-----------------------
   0 C :   -0.163244
   1 H :    0.217934
   2 O :   -0.629187
   3 C :   -0.435250
   4 H :    0.213731
   5 H :    0.233605
   6 C :   -0.456764
   7 H :    0.200986
   8 H :    0.220247
   9 H :    0.412554
  10 H :    0.178183
  11 C :   -0.148374
  12 H :    0.189535
  13 H :    0.179810
  14 O :   -0.631859
  15 H :    0.418093
Sum of atomic charges:    0.0000000

LOEWDIN ATOMIC CHARGES
----------------------
   0 C :   -0.093775
   1 H :    0.120905
   2 O :   -0.416401
   3 C :   -0.264801
   4 H :    0.126151
   5 H :    0.137883
   6 C :   -0.259810
   7 H :    0.120458
   8 H :    0.127709
   9 H :    0.304562
  10 H :    0.097574
  11 C :   -0.088229
  12 H :    0.100114
  13 H :    0.098483
  14 O :   -0.419889
  15 H :    0.309067

  Mayer bond orders larger than 0.100000
B(  0-C ,  1-H ) :   0.9218 B(  0-C ,  2-O ) :   1.0118 B(  0-C ,  3-C ) :   0.9690
B(  0-C , 10-H ) :   0.9141 B(  2-O ,  9-H ) :   0.7925 B(  3-C ,  4-H ) :   0.9143
B(  3-C ,  5-H ) :   0.8992 B(  3-C ,  6-C ) :   0.9757 B(  6-C ,  7-H ) :   0.9163
B(  6-C ,  8-H ) :   0.9096 B(  6-C , 11-C ) :   0.9949 B( 11-C , 12-H ) :   0.9102
B( 11-C , 13-H ) :   0.9055 B( 11-C , 14-O ) :   1.0095 B( 14-O , 15-H ) :   0.7925

Dispersion correction           -0.006533043
FINAL SINGLE POINT ENERGY      -308.206824742882

DIPOLE MOMENT
-------------
                                X             Y             Z
Electronic contribution:     -0.27823      -0.25640      -0.14851
Nuclear contribution   :      1.18424       0.64790       0.09708
                        -----------------------------------------
Total Dipole Moment    :      0.90600       0.39150      -0.05142
                        -----------------------------------------
Magnitude (a.u.)       :      0.98831
Magnitude (Debye)      :      2.51208

Rotational constants in cm-1:     0.328098     0.049774     0.046044
Rotational constants in MHz :  9836.134528  1492.176512  1380.356387

                             ****ORCA TERMINATED NORMALLY****
TOTAL RUN TIME: 0 days 0 hours 1 minutes 27 seconds 920 msec
