                         Program Version 5.0.3 -  RELEASE  -
|  1> ! PBEh-3c def2/J TightSCF DefGrid3
|  2>
|  3> %maxcore 60000
|  4>
|  5> %pal
|  6> nprocs 4
|  7> end
|  8>
|  9> *xyzfile 1 1 p2p.xyz
| 10>
| 11>                          ****END OF INPUT****

CARTESIAN COORDINATES (ANGSTROEM)
---------------------------------
  C      0.000000   -0.688533   -0.154093
  C      0.000000    0.688533   -0.154093
  H     -0.933839   -1.244634   -0.165840
  H      0.933839   -1.244634   -0.165840
  H      0.000000    0.000000    0.971546
  H     -0.933839    1.244634   -0.165840
  H      0.933839    1.244634   -0.165840

 Total Charge           Charge          ....    1
 Multiplicity           Mult            ....    1
 Number of Electrons    NEL             ....   16
 Basis Dimension        Dim             ....   40

ORBITAL ENERGIES
----------------

  NO   OCC          E(Eh)            E(eV)
   0   2.0000     -10.777612      -293.2737
   1   2.0000     -10.776868      -293.2535
   2   2.0000      -1.215465       -33.0745
   3   2.0000      -0.952772       -25.9262
   4   2.0000      -0.833901       -22.6916
   5   2.0000      -0.807589       -21.9756
   6   2.0000      -0.728976       -19.8364
   7   2.0000      -0.707103       -19.2413
   8   0.0000      -0.287323        -7.8185
   9   0.0000      -0.158695        -4.3183
  10   0.0000      -0.081688        -2.2228
  11   0.0000      -0.063528        -1.7287
  12   0.0000      -0.042685        -1.1615

MULLIKEN ATOMIC CHARGES
-----------------------
   0 C :   -0.431333
   1 C :   -0.431333
   2 H :    0.379376
   3 H :    0.379376
   4 H :    0.345161
   5 H :    0.379376
   6 H :    0.379376
Sum of atomic charges:    1.0000000

LOEWDIN ATOMIC CHARGES
----------------------
   0 C :   -0.079175
   1 C :   -0.079175
   2 H :    0.210794
   3 H :    0.210794
   4 H :    0.315173
   5 H :    0.210794
   6 H :    0.210794

  Mayer bond orders larger than 0.100000
B(  0-C ,  1-C ) :   1.2946 B(  0-C ,  2-H ) :   0.8469 B(  0-C ,  3-H ) :   0.8469
B(  0-C ,  4-H ) :   0.4269 B(  1-C ,  4-H ) :   0.4269 B(  1-C ,  5-H ) :   0.8469
B(  1-C ,  6-H ) :   0.8469

Dispersion correction           -0.001509423
FINAL SINGLE POINT ENERGY       -78.673646625171

DIPOLE MOMENT
-------------
                                X             Y             Z
Electronic contribution:      0.00000       0.00000      -0.47127
Nuclear contribution   :      0.00000       0.00000       0.83647
                        -----------------------------------------
Total Dipole Moment    :      0.00000       0.00000       0.36520
                        -----------------------------------------
Magnitude (a.u.)       :      0.36520
Magnitude (Debye)      :      0.92826

Rotational constants in cm-1:     3.546584     0.893291     0.797035
Rotational constants in MHz : 106323.924477 26780.180701 23894.503856

                             ****ORCA TERMINATED NORMALLY****
TOTAL RUN TIME: 0 days 0 hours 0 minutes 28 seconds 636 msec
