                         Program Version 5.0.3 -  RELEASE  -
|  1> ! PBEh-3c def2/J TightSCF DefGrid3
|  2>
|  3> %maxcore 60000
|  4>
|  5> %pal
|  6> nprocs 4
|  7> end
|  8>
|  9> *xyzfile 0 1 BN_Corannulene_TS.xyz
| 10>
| 11>                          ****END OF INPUT****

CARTESIAN COORDINATES (ANGSTROEM)
---------------------------------
  B      1.107374    0.358800   -0.000009
  N     -0.014500    1.202817   -0.000004
  B      0.000750    2.602813    0.000003
  N      1.368820    3.105796    0.000007
  B      2.553292    2.253356    0.000001
  N      2.455437    0.792180   -0.000009
  B     -1.153597    0.383024   -0.000003
  N     -2.488580    0.844201    0.000003
  B     -2.557377    2.306602   -0.000000
  N     -1.354931    3.135139    0.000004
  N      0.656524   -0.982055   -0.000013
  N     -0.733116   -0.976612   -0.000012
  B      1.489283   -2.105325   -0.000002
  N      2.895706   -1.694747    0.000002
  B      3.389042   -0.328434   -0.000002
  B     -1.576394   -2.095663   -0.000002
  B     -0.636084   -3.547733    0.000001
  N      0.797339   -3.387781    0.000001
  B     -3.445511   -0.261317    0.000004
  N     -2.971664   -1.630230    0.000003
  H     -3.698284   -2.328294    0.000005
  H     -4.617656   -0.046875    0.000005
  H     -3.613982    2.856385   -0.000010
  H     -1.527030    4.127909   -0.000001
  H      1.560541    4.094955    0.000010
  H      3.621102    2.780875    0.000004
  H      4.565482   -0.142906    0.000000
  H      3.613045   -2.402464    0.000008
  H      1.343935   -4.236888    0.000010
  H     -1.028967   -4.677526    0.000003

 Total Charge           Charge          ....    0
 Multiplicity           Mult            ....    1
 Number of Electrons    NEL             ....  130
 Basis Dimension        Dim             ....  320

ORBITAL ENERGIES
----------------

  NO   OCC          E(Eh)            E(eV)
   0   2.0000     -14.648423      -398.6038
   1   2.0000     -14.644361      -398.4933
   2   2.0000     -14.638839      -398.3431
   3   2.0000     -14.631180      -398.1346
   4   2.0000     -14.631145      -398.1337
   5   2.0000     -14.630737      -398.1226
   6   2.0000     -14.621080      -397.8598
   7   2.0000     -14.619511      -397.8171
   8   2.0000     -14.617323      -397.7576
   9   2.0000     -14.590880      -397.0380
  10   2.0000      -6.988647      -190.1707
  11   2.0000      -6.987693      -190.1448
  12   2.0000      -6.984283      -190.0520
  13   2.0000      -6.982890      -190.0141
  14   2.0000      -6.980657      -189.9533
  15   2.0000      -6.973119      -189.7482
  16   2.0000      -6.961406      -189.4295
  17   2.0000      -6.960534      -189.4058
  18   2.0000      -6.953422      -189.2122
  19   2.0000      -6.951655      -189.1642
  20   2.0000      -1.102930       -30.0123
  21   2.0000      -1.003882       -27.3170
  22   2.0000      -0.987201       -26.8631
  23   2.0000      -0.967235       -26.3198
  24   2.0000      -0.957875       -26.0651
  25   2.0000      -0.949680       -25.8421
  26   2.0000      -0.931998       -25.3610
  27   2.0000      -0.923780       -25.1373
  28   2.0000      -0.917690       -24.9716
  29   2.0000      -0.842635       -22.9293
  30   2.0000      -0.688973       -18.7479
  31   2.0000      -0.643250       -17.5037
  32   2.0000      -0.637756       -17.3542
  33   2.0000      -0.614907       -16.7325
  34   2.0000      -0.607219       -16.5233
  35   2.0000      -0.593661       -16.1543
  36   2.0000      -0.574870       -15.6430
  37   2.0000      -0.564784       -15.3686
  38   2.0000      -0.550807       -14.9882
  39   2.0000      -0.544888       -14.8272
  40   2.0000      -0.536705       -14.6045
  41   2.0000      -0.522032       -14.2052
  42   2.0000      -0.512548       -13.9472
  43   2.0000      -0.502143       -13.6640
  44   2.0000      -0.487326       -13.2608
  45   2.0000      -0.481837       -13.1115
  46   2.0000      -0.477091       -12.9823
  47   2.0000      -0.468585       -12.7508
  48   2.0000      -0.449031       -12.2187
  49   2.0000      -0.432663       -11.7734
  50   2.0000      -0.429301       -11.6819
  51   2.0000      -0.422801       -11.5050
  52   2.0000      -0.419749       -11.4220
  53   2.0000      -0.402810       -10.9610
  54   2.0000      -0.398168       -10.8347
  55   2.0000      -0.380464       -10.3530
  56   2.0000      -0.372316       -10.1312
  57   2.0000      -0.371865       -10.1190
  58   2.0000      -0.362859        -9.8739
  59   2.0000      -0.354857        -9.6562
  60   2.0000      -0.330932        -9.0051
  61   2.0000      -0.322355        -8.7717
  62   2.0000      -0.315053        -8.5730
  63   2.0000      -0.312307        -8.4983
  64   2.0000      -0.264982        -7.2105
  65   0.0000      -0.019508        -0.5308
  66   0.0000       0.011922         0.3244
  67   0.0000       0.042802         1.1647
  68   0.0000       0.061517         1.6740
  69   0.0000       0.065686         1.7874

MULLIKEN ATOMIC CHARGES
-----------------------
   0 B :    0.535985
   1 N :   -0.479824
   2 B :    0.511715
   3 N :   -0.680993
   4 B :    0.267967
   5 N :   -0.515173
   6 B :    0.528974
   7 N :   -0.509077
   8 B :    0.268446
   9 N :   -0.680996
  10 N :   -0.292154
  11 N :   -0.282669
  12 B :    0.518347
  13 N :   -0.689059
  14 B :    0.251310
  15 B :    0.324154
  16 B :    0.003317
  17 N :   -0.631731
  18 B :    0.233267
  19 N :   -0.674756
  20 H :    0.363307
  21 H :    0.039262
  22 H :    0.038633
  23 H :    0.360441
  24 H :    0.360576
  25 H :    0.038429
  26 H :    0.040356
  27 H :    0.361762
  28 H :    0.361337
  29 H :    0.028845
Sum of atomic charges:   -0.0000000

LOEWDIN ATOMIC CHARGES
----------------------
   0 B :    0.092595
   1 N :   -0.141818
   2 B :    0.116999
   3 N :   -0.303379
   4 B :    0.090551
   5 N :   -0.187832
   6 B :    0.096067
   7 N :   -0.184533
   8 B :    0.091356
   9 N :   -0.302691
  10 N :   -0.040048
  11 N :   -0.019647
  12 B :    0.091398
  13 N :   -0.304111
  14 B :    0.075230
  15 B :   -0.006973
  16 B :   -0.041314
  17 N :   -0.260307
  18 B :    0.066861
  19 N :   -0.283686
  20 H :    0.269853
  21 H :    0.002421
  22 H :    0.003436
  23 H :    0.267586
  24 H :    0.267673
  25 H :    0.003278
  26 H :    0.003285
  27 H :    0.269201
  28 H :    0.265021
  29 H :    0.003529

  Mayer bond orders larger than 0.100000
B(  0-B ,  1-N ) :   1.0796 B(  0-B ,  5-N ) :   1.0466 B(  0-B , 10-N ) :   1.0489
B(  1-N ,  2-B ) :   1.1098 B(  1-N ,  6-B ) :   1.0806 B(  2-B ,  3-N ) :   1.0865
B(  2-B ,  9-N ) :   1.0914 B(  3-N ,  4-B ) :   1.1868 B(  3-N , 24-H ) :   0.8264
B(  4-B ,  5-N ) :   1.1017 B(  4-B , 25-H ) :   0.9662 B(  5-N , 14-B ) :   1.1079
B(  6-B ,  7-N ) :   1.0684 B(  6-B , 11-N ) :   1.0332 B(  7-N ,  8-B ) :   1.1040
B(  7-N , 18-B ) :   1.0939 B(  8-B ,  9-N ) :   1.1831 B(  8-B , 22-H ) :   0.9660
B(  9-N , 23-H ) :   0.8267 B( 10-N , 11-N ) :   1.0414 B( 10-N , 12-B ) :   1.1524
B( 11-N , 15-B ) :   1.2037 B( 12-B , 13-N ) :   1.0647 B( 12-B , 17-N ) :   1.0619
B( 13-N , 14-B ) :   1.2030 B( 13-N , 27-H ) :   0.8275 B( 14-B , 26-H ) :   0.9634
B( 15-B , 16-B ) :   1.0011 B( 15-B , 19-N ) :   1.0873 B( 16-B , 17-N ) :   1.3072
B( 16-B , 29-H ) :   0.9639 B( 17-N , 28-H ) :   0.8195 B( 18-B , 19-N ) :   1.2277
B( 18-B , 21-H ) :   0.9628 B( 19-N , 20-H ) :   0.8302

Dispersion correction           -0.022637638
FINAL SINGLE POINT ENERGY      -801.142225932907

DIPOLE MOMENT
-------------
                                X             Y             Z
Electronic contribution:     -0.33056      -0.28850      -0.00003
Nuclear contribution   :      0.83629       0.34617       0.00004
                        -----------------------------------------
Total Dipole Moment    :      0.50572       0.05767       0.00001
                        -----------------------------------------
Magnitude (a.u.)       :      0.50900
Magnitude (Debye)      :      1.29378

Rotational constants in cm-1:     0.015939     0.015193     0.007778
Rotational constants in MHz :   477.826296   455.471337   233.190543

                             ****ORCA TERMINATED NORMALLY****
TOTAL RUN TIME: 0 days 0 hours 4 minutes 57 seconds 350 msec
