                         Program Version 5.0.3 -  RELEASE  -
|  1> ! PBEh-3c def2/J TightSCF DefGrid3
|  2>
|  3> %maxcore 60000
|  4>
|  5> %pal
|  6> nprocs 4
|  7> end
|  8>
|  9> *xyzfile 0 1 P6.xyz
| 10>
| 11>                          ****END OF INPUT****

CARTESIAN COORDINATES (ANGSTROEM)
---------------------------------
  C      0.000000    1.272766    0.241143
  C     -1.227944    0.663667    0.869592
  C     -1.227944   -0.663667    0.869592
  C      0.000000   -1.272766    0.241143
  C      0.000000    0.767962   -1.238610
  C      0.000000   -0.767962   -1.238610
  C      1.227944    0.663667    0.869592
  C      1.227944   -0.663667    0.869592
  H      0.000000    2.361634    0.281076
  H     -2.040009    1.278635    1.238746
  H     -2.040009   -1.278635    1.238746
  H      0.000000   -2.361634    0.281076
  H      0.880906    1.161447   -1.750143
  H     -0.880906    1.161447   -1.750143
  H      0.880906   -1.161447   -1.750143
  H     -0.880906   -1.161447   -1.750143
  H      2.040009    1.278635    1.238746
  H      2.040009   -1.278635    1.238746

 Total Charge           Charge          ....    0
 Multiplicity           Mult            ....    1
 Number of Electrons    NEL             ....   58
 Basis Dimension        Dim             ....  140

ORBITAL ENERGIES
----------------

  NO   OCC          E(Eh)            E(eV)
   0   2.0000     -10.446223      -284.2562
   1   2.0000     -10.446073      -284.2521
   2   2.0000     -10.434656      -283.9414
   3   2.0000     -10.434461      -283.9361
   4   2.0000     -10.431081      -283.8442
   5   2.0000     -10.430979      -283.8414
   6   2.0000     -10.430064      -283.8165
   7   2.0000     -10.429983      -283.8143
   8   2.0000      -0.971194       -26.4275
   9   2.0000      -0.832992       -22.6669
  10   2.0000      -0.830047       -22.5867
  11   2.0000      -0.823782       -22.4162
  12   2.0000      -0.672508       -18.2999
  13   2.0000      -0.662781       -18.0352
  14   2.0000      -0.636364       -17.3163
  15   2.0000      -0.587909       -15.9978
  16   2.0000      -0.532755       -14.4970
  17   2.0000      -0.522165       -14.2088
  18   2.0000      -0.484733       -13.1903
  19   2.0000      -0.481494       -13.1021
  20   2.0000      -0.441660       -12.0182
  21   2.0000      -0.439226       -11.9519
  22   2.0000      -0.435030       -11.8378
  23   2.0000      -0.421873       -11.4797
  24   2.0000      -0.369969       -10.0674
  25   2.0000      -0.363683        -9.8963
  26   2.0000      -0.341642        -9.2966
  27   2.0000      -0.294035        -8.0011
  28   2.0000      -0.272092        -7.4040
  29   0.0000       0.034887         0.9493
  30   0.0000       0.077275         2.1028
  31   0.0000       0.141628         3.8539
  32   0.0000       0.157316         4.2808
  33   0.0000       0.182780         4.9737

MULLIKEN ATOMIC CHARGES
-----------------------
   0 C :   -0.385140
   1 C :   -0.160669
   2 C :   -0.160669
   3 C :   -0.385140
   4 C :   -0.396613
   5 C :   -0.396613
   6 C :   -0.160669
   7 C :   -0.160669
   8 H :    0.216515
   9 H :    0.217207
  10 H :    0.217207
  11 H :    0.216515
  12 H :    0.226081
  13 H :    0.226081
  14 H :    0.226081
  15 H :    0.226081
  16 H :    0.217207
  17 H :    0.217207
Sum of atomic charges:   -0.0000000

LOEWDIN ATOMIC CHARGES
----------------------
   0 C :   -0.149696
   1 C :   -0.140167
   2 C :   -0.140167
   3 C :   -0.149696
   4 C :   -0.217638
   5 C :   -0.217638
   6 C :   -0.140167
   7 C :   -0.140167
   8 H :    0.129244
   9 H :    0.132394
  10 H :    0.132394
  11 H :    0.129244
  12 H :    0.126818
  13 H :    0.126818
  14 H :    0.126818
  15 H :    0.126818
  16 H :    0.132394
  17 H :    0.132394

  Mayer bond orders larger than 0.100000
B(  0-C ,  1-C ) :   0.9861 B(  0-C ,  4-C ) :   0.9519 B(  0-C ,  6-C ) :   0.9861
B(  0-C ,  8-H ) :   0.9296 B(  1-C ,  2-C ) :   1.8898 B(  1-C ,  9-H ) :   0.9254
B(  2-C ,  3-C ) :   0.9861 B(  2-C , 10-H ) :   0.9254 B(  3-C ,  5-C ) :   0.9519
B(  3-C ,  7-C ) :   0.9861 B(  3-C , 11-H ) :   0.9296 B(  4-C ,  5-C ) :   0.9645
B(  4-C , 12-H ) :   0.9225 B(  4-C , 13-H ) :   0.9225 B(  5-C , 14-H ) :   0.9225
B(  5-C , 15-H ) :   0.9225 B(  6-C ,  7-C ) :   1.8898 B(  6-C , 16-H ) :   0.9254
B(  7-C , 17-H ) :   0.9254

Dispersion correction           -0.010855159
FINAL SINGLE POINT ENERGY      -310.139033972539

DIPOLE MOMENT
-------------
                                X             Y             Z
Electronic contribution:     -0.00000       0.00000       2.64411
Nuclear contribution   :      0.00000      -0.00000      -2.83408
                        -----------------------------------------
Total Dipole Moment    :     -0.00000       0.00000      -0.18997
                        -----------------------------------------
Magnitude (a.u.)       :      0.18997
Magnitude (Debye)      :      0.48286

Rotational constants in cm-1:     0.092058     0.089533     0.088786
Rotational constants in MHz :  2759.838456  2684.118508  2661.729779

                             ****ORCA TERMINATED NORMALLY****
TOTAL RUN TIME: 0 days 0 hours 1 minutes 32 seconds 647 msec
