                         Program Version 5.0.3 -  RELEASE  -
|  1> ! PBEh-3c def2/J TightSCF DefGrid3
|  2>
|  3> %maxcore 60000
|  4>
|  5> %pal
|  6> nprocs 4
|  7> end
|  8>
|  9> *xyzfile -1 1 2.xyz
| 10>
| 11>                          ****END OF INPUT****

CARTESIAN COORDINATES (ANGSTROEM)
---------------------------------
  F     -1.236389    0.012239    0.000000
  O      1.197566   -0.108087    0.000000
  H      1.415397    0.827014    0.000000
  H      0.134830   -0.084378    0.000000

 Total Charge           Charge          ....   -1
 Multiplicity           Mult            ....    1
 Number of Electrons    NEL             ....   20
 Basis Dimension        Dim             ....   34

ORBITAL ENERGIES
----------------

  NO   OCC          E(Eh)            E(eV)
   0   2.0000     -24.624455      -670.0655
   1   2.0000     -19.190223      -522.1925
   2   2.0000      -0.833024       -22.6677
   3   2.0000      -0.794543       -21.6206
   4   2.0000      -0.287111        -7.8127
   5   2.0000      -0.179618        -4.8876
   6   2.0000      -0.086886        -2.3643
   7   2.0000      -0.046805        -1.2736
   8   2.0000      -0.044330        -1.2063
   9   2.0000      -0.041496        -1.1292
  10   0.0000       0.377898        10.2831
  11   0.0000       0.603957        16.4345
  12   0.0000       1.049468        28.5575
  13   0.0000       1.174825        31.9686
  14   0.0000       1.233067        33.5534

MULLIKEN ATOMIC CHARGES
-----------------------
   0 F :   -0.796387
   1 O :   -0.959228
   2 H :    0.325988
   3 H :    0.429627
Sum of atomic charges:   -1.0000000

LOEWDIN ATOMIC CHARGES
----------------------
   0 F :   -0.787042
   1 O :   -0.764406
   2 H :    0.241270
   3 H :    0.310178

  Mayer bond orders larger than 0.100000
B(  0-F ,  3-H ) :   0.3159 B(  1-O ,  2-H ) :   0.8676 B(  1-O ,  3-H ) :   0.5366

Dispersion correction           -0.000452517
FINAL SINGLE POINT ENERGY      -175.916546571951

DIPOLE MOMENT
-------------
                                X             Y             Z
Electronic contribution:     -2.12426      -0.14547       0.00000
Nuclear contribution   :      2.68975       0.70328       0.00000
                        -----------------------------------------
Total Dipole Moment    :      0.56549       0.55781       0.00000
                        -----------------------------------------
Magnitude (a.u.)       :      0.79431
Magnitude (Debye)      :      2.01898

Rotational constants in cm-1:    20.022521     0.313066     0.308247
Rotational constants in MHz : 600260.069113  9385.496144  9241.006390

                             ****ORCA TERMINATED NORMALLY****
TOTAL RUN TIME: 0 days 0 hours 0 minutes 31 seconds 890 msec
