                         Program Version 5.0.3 -  RELEASE  -
|  1> ! PBEh-3c def2/J TightSCF DefGrid3
|  2>
|  3> %maxcore 60000
|  4>
|  5> %pal
|  6> nprocs 4
|  7> end
|  8>
|  9> *xyzfile 0 1 i4e.xyz
| 10>
| 11>                          ****END OF INPUT****

CARTESIAN COORDINATES (ANGSTROEM)
---------------------------------
  C     -4.643277    2.475877    0.489083
  C     -5.812316    1.506915    0.389638
  C     -5.443460    0.313873   -0.568011
  C     -3.889930    0.101341   -0.648661
  C     -3.095473    0.360189    0.667532
  C     -3.360260    1.852189    1.084974
  C     -3.489516   -1.237228   -1.274668
  C     -2.015200   -1.197761   -1.679812
  C     -1.124179   -0.579630   -0.629687
  C     -1.588408    0.128437    0.422538
  C     -6.214778   -0.960296   -0.174003
  C     -5.918280    0.725944   -1.980327
  C     -0.659610    0.662010    1.515270
  C      0.865010    0.438025    1.328162
  C      1.127954   -0.820001    0.506112
  C      0.375258   -0.687527   -0.859604
  C      2.586221   -1.041674    0.045455
  C      2.435057   -1.989952   -1.189647
  C      0.937964   -1.905563   -1.633857
  C      3.610435   -1.439183    1.145132
  C      4.966914   -0.744676    0.891604
  C      4.950779    0.762481    1.231681
  C      6.200399    1.475926    0.782830
  C      6.406358    2.028018   -0.424118
  C      3.826680   -2.951286    1.323531
  C      7.717225    2.688969   -0.775774
  C      5.380134    2.038225   -1.531962
  O     -6.175929    1.137996    1.737394
  C      0.763652    0.582813   -1.674323
  C      0.628986   -2.045088    1.309643
  H      3.219511   -1.048254    2.097918
  H     -3.525718    0.877237   -1.341341
  C     -3.534419   -0.589085    1.811863
  H     -4.940198    3.350066    1.081690
  H     -4.436558    2.831376   -0.528964
  H     -6.675905    2.030043   -0.055494
  H     -3.393497    1.920507    2.178390
  H     -2.524696    2.479647    0.752310
  H     -4.110574   -1.456949   -2.152353
  H     -3.654775   -2.050262   -0.557010
  H     -1.659847   -2.213726   -1.901092
  H     -1.904773   -0.633416   -2.622232
  H     -5.893450   -1.358628    0.791866
  H     -7.293770   -0.746367   -0.125217
  H     -6.075083   -1.740643   -0.930382
  H     -5.487430    1.694645   -2.267038
  H     -5.613542   -0.016893   -2.727629
  H     -7.012978    0.813226   -2.009019
  H     -0.962629    0.185307    2.458332
  H     -0.837899    1.732886    1.672221
  H      1.320277    1.300914    0.827425
  H      1.341890    0.361117    2.315399
  H      2.919273   -0.071271   -0.338492
  H      3.109794   -1.682668   -1.997394
  H      2.691384   -3.022953   -0.937291
  H      0.406608   -2.820951   -1.350472
  H      0.830514   -1.789263   -2.718924
  H      5.244526   -0.874039   -0.164952
  H      5.755316   -1.231345    1.484202
  H      4.064209    1.226203    0.781531
  H      4.832125    0.868773    2.319780
  H      7.025273    1.504608    1.498680
  H      4.438918   -3.135074    2.216518
  H      4.360570   -3.372819    0.461156
  H      2.881966   -3.493369    1.436099
  H      8.423469    2.657310    0.062950
  H      8.183860    2.196226   -1.643517
  H      7.560500    3.741786   -1.059704
  H      4.452987    1.523183   -1.261200
  H      5.789338    1.552509   -2.431437
  H      5.132039    3.071764   -1.820413
  H     -6.957070    0.572828    1.678918
  H      0.540411    1.500846   -1.122140
  H      0.167875    0.593948   -2.596330
  H      1.820935    0.587225   -1.966737
  H     -0.441927   -1.970713    1.519692
  H      1.169029   -2.094860    2.262985
  H      0.806266   -2.983559    0.774915
  H     -4.561630   -0.381002    2.115457
  H     -2.898724   -0.437052    2.691831
  H     -3.440177   -1.638384    1.508517

 Total Charge           Charge          ....    0
 Multiplicity           Mult            ....    1
 Number of Electrons    NEL             ....  238
 Basis Dimension        Dim             ....  565

ORBITAL ENERGIES
----------------

  NO   OCC          E(Eh)            E(eV)
   0   2.0000     -19.486340      -530.2503
   1   2.0000     -10.486739      -285.3587
   2   2.0000     -10.455115      -284.4982
   3   2.0000     -10.449950      -284.3576
   4   2.0000     -10.445327      -284.2318
   5   2.0000     -10.444688      -284.2144
   6   2.0000     -10.439669      -284.0778
   7   2.0000     -10.437244      -284.0119
   8   2.0000     -10.436557      -283.9932
   9   2.0000     -10.434571      -283.9391
  10   2.0000     -10.432439      -283.8811
  11   2.0000     -10.431567      -283.8574
  12   2.0000     -10.431545      -283.8568
  13   2.0000     -10.431118      -283.8451
  14   2.0000     -10.430809      -283.8367
  15   2.0000     -10.429722      -283.8072
  16   2.0000     -10.429582      -283.8033
  17   2.0000     -10.428805      -283.7822
  18   2.0000     -10.428667      -283.7785
  19   2.0000     -10.428397      -283.7711
  20   2.0000     -10.428388      -283.7709
  21   2.0000     -10.427865      -283.7566
  22   2.0000     -10.427711      -283.7524
  23   2.0000     -10.427589      -283.7491
  24   2.0000     -10.427112      -283.7361
  25   2.0000     -10.426523      -283.7201
  26   2.0000     -10.426350      -283.7154
  27   2.0000     -10.421023      -283.5704
  28   2.0000     -10.419107      -283.5183
  29   2.0000     -10.413751      -283.3726
  30   2.0000     -10.408736      -283.2361
  31   2.0000      -1.117689       -30.4139
  32   2.0000      -0.963154       -26.2088
  33   2.0000      -0.941115       -25.6090
  34   2.0000      -0.909361       -24.7450
  35   2.0000      -0.898264       -24.4430
  36   2.0000      -0.880345       -23.9554
  37   2.0000      -0.873795       -23.7772
  38   2.0000      -0.858547       -23.3622
  39   2.0000      -0.838255       -22.8101
  40   2.0000      -0.824281       -22.4298
  41   2.0000      -0.815675       -22.1956
  42   2.0000      -0.792195       -21.5567
  43   2.0000      -0.780740       -21.2450
  44   2.0000      -0.768815       -20.9205
  45   2.0000      -0.766665       -20.8620
  46   2.0000      -0.757387       -20.6095
  47   2.0000      -0.747736       -20.3469
  48   2.0000      -0.745372       -20.2826
  49   2.0000      -0.743976       -20.2446
  50   2.0000      -0.718282       -19.5454
  51   2.0000      -0.688342       -18.7307
  52   2.0000      -0.686301       -18.6752
  53   2.0000      -0.671949       -18.2846
  54   2.0000      -0.656748       -17.8710
  55   2.0000      -0.652485       -17.7550
  56   2.0000      -0.630718       -17.1627
  57   2.0000      -0.603091       -16.4109
  58   2.0000      -0.586665       -15.9640
  59   2.0000      -0.577617       -15.7178
  60   2.0000      -0.573301       -15.6003
  61   2.0000      -0.560304       -15.2466
  62   2.0000      -0.543238       -14.7823
  63   2.0000      -0.539352       -14.6765
  64   2.0000      -0.535042       -14.5592
  65   2.0000      -0.530548       -14.4370
  66   2.0000      -0.524505       -14.2725
  67   2.0000      -0.514290       -13.9946
  68   2.0000      -0.506627       -13.7860
  69   2.0000      -0.502843       -13.6831
  70   2.0000      -0.497731       -13.5439
  71   2.0000      -0.494253       -13.4493
  72   2.0000      -0.486848       -13.2478
  73   2.0000      -0.484607       -13.1868
  74   2.0000      -0.480252       -13.0683
  75   2.0000      -0.477134       -12.9835
  76   2.0000      -0.475276       -12.9329
  77   2.0000      -0.466137       -12.6842
  78   2.0000      -0.457232       -12.4419
  79   2.0000      -0.455799       -12.4029
  80   2.0000      -0.449534       -12.2324
  81   2.0000      -0.449275       -12.2254
  82   2.0000      -0.445178       -12.1139
  83   2.0000      -0.440281       -11.9806
  84   2.0000      -0.436089       -11.8666
  85   2.0000      -0.434210       -11.8155
  86   2.0000      -0.433312       -11.7910
  87   2.0000      -0.431987       -11.7550
  88   2.0000      -0.424697       -11.5566
  89   2.0000      -0.423840       -11.5333
  90   2.0000      -0.419537       -11.4162
  91   2.0000      -0.416293       -11.3279
  92   2.0000      -0.414378       -11.2758
  93   2.0000      -0.411944       -11.2096
  94   2.0000      -0.410376       -11.1669
  95   2.0000      -0.405409       -11.0317
  96   2.0000      -0.403983       -10.9929
  97   2.0000      -0.402286       -10.9468
  98   2.0000      -0.395571       -10.7640
  99   2.0000      -0.391181       -10.6446
 100   2.0000      -0.384118       -10.4524
 101   2.0000      -0.382012       -10.3951
 102   2.0000      -0.381723       -10.3872
 103   2.0000      -0.379654       -10.3309
 104   2.0000      -0.378133       -10.2895
 105   2.0000      -0.371137       -10.0991
 106   2.0000      -0.366726        -9.9791
 107   2.0000      -0.362629        -9.8676
 108   2.0000      -0.353293        -9.6136
 109   2.0000      -0.345314        -9.3965
 110   2.0000      -0.341200        -9.2845
 111   2.0000      -0.339442        -9.2367
 112   2.0000      -0.336879        -9.1669
 113   2.0000      -0.331559        -9.0222
 114   2.0000      -0.326387        -8.8814
 115   2.0000      -0.307673        -8.3722
 116   2.0000      -0.301893        -8.2149
 117   2.0000      -0.267568        -7.2809
 118   2.0000      -0.252505        -6.8710
 119   0.0000       0.056558         1.5390
 120   0.0000       0.057758         1.5717
 121   0.0000       0.096836         2.6350
 122   0.0000       0.105133         2.8608
 123   0.0000       0.125814         3.4236

MULLIKEN ATOMIC CHARGES
-----------------------
   0 C :   -0.451285
   1 C :    0.070436
   2 C :   -0.088480
   3 C :   -0.191264
   4 C :   -0.084375
   5 C :   -0.415207
   6 C :   -0.429527
   7 C :   -0.484269
   8 C :    0.073694
   9 C :    0.098114
  10 C :   -0.670630
  11 C :   -0.637263
  12 C :   -0.495875
  13 C :   -0.408139
  14 C :   -0.056410
  15 C :   -0.088805
  16 C :   -0.204167
  17 C :   -0.427309
  18 C :   -0.436029
  19 C :   -0.214380
  20 C :   -0.403575
  21 C :   -0.494077
  22 C :   -0.223478
  23 C :    0.104430
  24 C :   -0.659098
  25 C :   -0.677023
  26 C :   -0.702469
  27 O :   -0.632709
  28 C :   -0.633122
  29 C :   -0.648717
  30 H :    0.207939
  31 H :    0.213339
  32 C :   -0.664693
  33 H :    0.236612
  34 H :    0.209176
  35 H :    0.193192
  36 H :    0.230230
  37 H :    0.217535
  38 H :    0.211867
  39 H :    0.217814
  40 H :    0.228886
  41 H :    0.213771
  42 H :    0.239714
  43 H :    0.199291
  44 H :    0.231956
  45 H :    0.216964
  46 H :    0.220730
  47 H :    0.212927
  48 H :    0.224543
  49 H :    0.235124
  50 H :    0.212389
  51 H :    0.215867
  52 H :    0.217983
  53 H :    0.217638
  54 H :    0.225074
  55 H :    0.219558
  56 H :    0.219797
  57 H :    0.216136
  58 H :    0.212446
  59 H :    0.222521
  60 H :    0.219994
  61 H :    0.198505
  62 H :    0.218390
  63 H :    0.209840
  64 H :    0.225341
  65 H :    0.223181
  66 H :    0.215081
  67 H :    0.215798
  68 H :    0.230202
  69 H :    0.219984
  70 H :    0.222426
  71 H :    0.419511
  72 H :    0.226071
  73 H :    0.219486
  74 H :    0.215605
  75 H :    0.247917
  76 H :    0.215793
  77 H :    0.215224
  78 H :    0.253312
  79 H :    0.215214
  80 H :    0.207810
Sum of atomic charges:   -0.0000000

LOEWDIN ATOMIC CHARGES
----------------------
   0 C :   -0.236976
   1 C :   -0.003632
   2 C :   -0.099246
   3 C :   -0.117334
   4 C :   -0.062829
   5 C :   -0.219523
   6 C :   -0.224273
   7 C :   -0.221828
   8 C :   -0.051816
   9 C :   -0.051171
  10 C :   -0.353636
  11 C :   -0.341329
  12 C :   -0.228477
  13 C :   -0.218075
  14 C :   -0.070499
  15 C :   -0.065954
  16 C :   -0.125813
  17 C :   -0.230931
  18 C :   -0.224165
  19 C :   -0.144948
  20 C :   -0.223765
  21 C :   -0.241286
  22 C :   -0.166580
  23 C :   -0.071544
  24 C :   -0.355530
  25 C :   -0.346185
  26 C :   -0.352511
  27 O :   -0.400392
  28 C :   -0.334851
  29 C :   -0.341478
  30 H :    0.118326
  31 H :    0.125010
  32 C :   -0.353336
  33 H :    0.135136
  34 H :    0.123447
  35 H :    0.105293
  36 H :    0.131615
  37 H :    0.126520
  38 H :    0.119738
  39 H :    0.123791
  40 H :    0.130628
  41 H :    0.126039
  42 H :    0.132609
  43 H :    0.117302
  44 H :    0.132753
  45 H :    0.124173
  46 H :    0.125700
  47 H :    0.122899
  48 H :    0.130400
  49 H :    0.133556
  50 H :    0.120605
  51 H :    0.122999
  52 H :    0.119271
  53 H :    0.124699
  54 H :    0.128102
  55 H :    0.121477
  56 H :    0.123611
  57 H :    0.123590
  58 H :    0.122079
  59 H :    0.124377
  60 H :    0.127396
  61 H :    0.125637
  62 H :    0.125766
  63 H :    0.123438
  64 H :    0.125674
  65 H :    0.131582
  66 H :    0.129665
  67 H :    0.130141
  68 H :    0.128686
  69 H :    0.133657
  70 H :    0.133993
  71 H :    0.308619
  72 H :    0.127992
  73 H :    0.127367
  74 H :    0.120825
  75 H :    0.136814
  76 H :    0.125317
  77 H :    0.123256
  78 H :    0.136646
  79 H :    0.122329
  80 H :    0.119367

  Mayer bond orders larger than 0.100000
B(  0-C ,  1-C ) :   0.9777 B(  0-C ,  5-C ) :   0.9804 B(  0-C , 33-H ) :   0.9176
B(  0-C , 34-H ) :   0.9173 B(  1-C ,  2-C ) :   0.9077 B(  1-C , 27-O ) :   0.9981
B(  1-C , 35-H ) :   0.9094 B(  2-C ,  3-C ) :   0.9385 B(  2-C , 10-C ) :   0.9737
B(  2-C , 11-C ) :   0.9790 B(  3-C ,  4-C ) :   0.9628 B(  3-C ,  6-C ) :   0.9681
B(  3-C , 31-H ) :   0.9072 B(  4-C ,  5-C ) :   0.9341 B(  4-C ,  9-C ) :   0.9584
B(  4-C , 32-C ) :   0.9763 B(  5-C , 36-H ) :   0.9161 B(  5-C , 37-H ) :   0.9192
B(  6-C ,  7-C ) :   0.9937 B(  6-C , 38-H ) :   0.9184 B(  6-C , 39-H ) :   0.9094
B(  7-C ,  8-C ) :   0.9684 B(  7-C , 40-H ) :   0.9082 B(  7-C , 41-H ) :   0.9097
B(  8-C ,  9-C ) :   1.8411 B(  8-C , 15-C ) :   0.9733 B(  9-C , 12-C ) :   0.9655
B( 10-C , 42-H ) :   0.9121 B( 10-C , 43-H ) :   0.9269 B( 10-C , 44-H ) :   0.9184
B( 11-C , 45-H ) :   0.9229 B( 11-C , 46-H ) :   0.9187 B( 11-C , 47-H ) :   0.9247
B( 12-C , 13-C ) :   0.9729 B( 12-C , 48-H ) :   0.9026 B( 12-C , 49-H ) :   0.9034
B( 13-C , 14-C ) :   0.9848 B( 13-C , 50-H ) :   0.9190 B( 13-C , 51-H ) :   0.9202
B( 14-C , 15-C ) :   0.9321 B( 14-C , 16-C ) :   0.9633 B( 14-C , 29-C ) :   0.9796
B( 15-C , 18-C ) :   0.9578 B( 15-C , 28-C ) :   0.9721 B( 16-C , 17-C ) :   0.9696
B( 16-C , 19-C ) :   0.9294 B( 16-C , 52-H ) :   0.8987 B( 17-C , 18-C ) :   0.9668
B( 17-C , 53-H ) :   0.9286 B( 17-C , 54-H ) :   0.9177 B( 18-C , 55-H ) :   0.9229
B( 18-C , 56-H ) :   0.9264 B( 19-C , 20-C ) :   0.9602 B( 19-C , 24-C ) :   0.9900
B( 19-C , 30-H ) :   0.9118 B( 20-C , 21-C ) :   0.9555 B( 20-C , 57-H ) :   0.9179
B( 20-C , 58-H ) :   0.9248 B( 21-C , 22-C ) :   1.0022 B( 21-C , 59-H ) :   0.9091
B( 21-C , 60-H ) :   0.9188 B( 22-C , 23-C ) :   1.8697 B( 22-C , 61-H ) :   0.9228
B( 23-C , 25-C ) :   0.9773 B( 23-C , 26-C ) :   0.9807 B( 24-C , 62-H ) :   0.9266
B( 24-C , 63-H ) :   0.9235 B( 24-C , 64-H ) :   0.9185 B( 25-C , 65-H ) :   0.9319
B( 25-C , 66-H ) :   0.9178 B( 25-C , 67-H ) :   0.9180 B( 26-C , 68-H ) :   0.9157
B( 26-C , 69-H ) :   0.9173 B( 26-C , 70-H ) :   0.9167 B( 27-O , 71-H ) :   0.7824
B( 28-C , 72-H ) :   0.9226 B( 28-C , 73-H ) :   0.9209 B( 28-C , 74-H ) :   0.9181
B( 29-C , 75-H ) :   0.9084 B( 29-C , 76-H ) :   0.9192 B( 29-C , 77-H ) :   0.9228
B( 32-C , 78-H ) :   0.8828 B( 32-C , 79-H ) :   0.9176 B( 32-C , 80-H ) :   0.9217

Dispersion correction           -0.066879093
FINAL SINGLE POINT ENERGY     -1245.826464182163

DIPOLE MOMENT
-------------
                                X             Y             Z
Electronic contribution:    -12.01078       2.70089       3.71189
Nuclear contribution   :     11.60885      -2.82422      -4.25473
                        -----------------------------------------
Total Dipole Moment    :     -0.40193      -0.12333      -0.54284
                        -----------------------------------------
Magnitude (a.u.)       :      0.68661
Magnitude (Debye)      :      1.74522

Rotational constants in cm-1:     0.010555     0.002074     0.001999
Rotational constants in MHz :   316.421762    62.183427    59.940328

                             ****ORCA TERMINATED NORMALLY****
TOTAL RUN TIME: 0 days 0 hours 16 minutes 23 seconds 112 msec
