                         Program Version 5.0.3 -  RELEASE  -
|  1> ! PBEh-3c def2/J TightSCF DefGrid3
|  2>
|  3> %maxcore 60000
|  4>
|  5> %pal
|  6> nprocs 4
|  7> end
|  8>
|  9> *xyzfile 0 1 E11.xyz
| 10>
| 11>                          ****END OF INPUT****

CARTESIAN COORDINATES (ANGSTROEM)
---------------------------------
  C     -1.380779   -0.176497    0.000000
  C     -0.233135    0.492468    0.000000
  C      1.131402   -0.126590    0.000000
  H     -1.407415   -1.261611    0.000000
  H     -2.336361    0.334075    0.000000
  H     -0.261510    1.580202    0.000000
  H      1.077437   -1.216978    0.000000
  H      1.705180    0.187466    0.877865
  H      1.705180    0.187466   -0.877865

 Total Charge           Charge          ....    0
 Multiplicity           Mult            ....    1
 Number of Electrons    NEL             ....   24
 Basis Dimension        Dim             ....   57

ORBITAL ENERGIES
----------------

  NO   OCC          E(Eh)            E(eV)
   0   2.0000     -10.445936      -284.2484
   1   2.0000     -10.431887      -283.8661
   2   2.0000     -10.429506      -283.8013
   3   2.0000      -0.876405       -23.8482
   4   2.0000      -0.766557       -20.8591
   5   2.0000      -0.622223       -16.9316
   6   2.0000      -0.527215       -14.3462
   7   2.0000      -0.478398       -13.0179
   8   2.0000      -0.467090       -12.7102
   9   2.0000      -0.424506       -11.5514
  10   2.0000      -0.395681       -10.7670
  11   2.0000      -0.298567        -8.1244
  12   0.0000       0.051271         1.3951
  13   0.0000       0.163788         4.4569
  14   0.0000       0.191595         5.2136
  15   0.0000       0.198510         5.4017
  16   0.0000       0.218271         5.9395

MULLIKEN ATOMIC CHARGES
-----------------------
   0 C :   -0.474378
   1 C :   -0.144092
   2 C :   -0.685392
   3 H :    0.206207
   4 H :    0.213088
   5 H :    0.211209
   6 H :    0.222684
   7 H :    0.225337
   8 H :    0.225337
Sum of atomic charges:   -0.0000000

LOEWDIN ATOMIC CHARGES
----------------------
   0 C :   -0.280611
   1 C :   -0.145625
   2 C :   -0.361261
   3 H :    0.126595
   4 H :    0.131140
   5 H :    0.126870
   6 H :    0.132181
   7 H :    0.135356
   8 H :    0.135356

  Mayer bond orders larger than 0.100000
B(  0-C ,  1-C ) :   1.9453 B(  0-C ,  3-H ) :   0.9308 B(  0-C ,  4-H ) :   0.9303
B(  1-C ,  2-C ) :   0.9974 B(  1-C ,  5-H ) :   0.9208 B(  2-C ,  6-H ) :   0.9306
B(  2-C ,  7-H ) :   0.9164 B(  2-C ,  8-H ) :   0.9164

Dispersion correction           -0.002684239
FINAL SINGLE POINT ENERGY      -117.639499196812

DIPOLE MOMENT
-------------
                                X             Y             Z
Electronic contribution:     -1.01958       0.48588      -0.00000
Nuclear contribution   :      1.16286      -0.45641       0.00000
                        -----------------------------------------
Total Dipole Moment    :      0.14328       0.02947      -0.00000
                        -----------------------------------------
Magnitude (a.u.)       :      0.14628
Magnitude (Debye)      :      0.37182

Rotational constants in cm-1:     1.571416     0.309821     0.271760
Rotational constants in MHz : 47109.861440  9288.194511  8147.158531

                             ****ORCA TERMINATED NORMALLY****
TOTAL RUN TIME: 0 days 0 hours 0 minutes 36 seconds 272 msec
