                         Program Version 5.0.3 -  RELEASE  -
|  1> ! PBEh-3c def2/J TightSCF DefGrid3
|  2>
|  3> %maxcore 60000
|  4>
|  5> %pal
|  6> nprocs 4
|  7> end
|  8>
|  9> *xyzfile 0 1 R48.xyz
| 10>
| 11>                          ****END OF INPUT****

CARTESIAN COORDINATES (ANGSTROEM)
---------------------------------
  C      0.275006    0.077943   -0.168254
  C     -1.214759   -0.211859   -0.460858
  C     -0.098321    1.453005    0.190324
  C     -1.407270    1.247002   -0.043907
  H     -1.405998   -0.383461   -1.524077
  C      1.380044   -0.656909   -0.210100
  H      1.293359   -1.692401   -0.524466
  C      2.750210   -0.171081    0.147473
  H      2.737562    0.874445    0.453641
  H      3.177269   -0.757154    0.965724
  H      3.436921   -0.266293   -0.697966
  H      0.469894    2.313164    0.515531
  H     -2.286752    1.870293    0.029862
  C     -1.890443   -1.284767    0.379089
  H     -2.972898   -1.268408    0.237458
  H     -1.534320   -2.278396    0.102918
  H     -1.681833   -1.131800    1.438774

 Total Charge           Charge          ....    0
 Multiplicity           Mult            ....    1
 Number of Electrons    NEL             ....   52
 Basis Dimension        Dim             ....  125

ORBITAL ENERGIES
----------------

  NO   OCC          E(Eh)            E(eV)
   0   2.0000     -10.449265      -284.3390
   1   2.0000     -10.448548      -284.3194
   2   2.0000     -10.445315      -284.2315
   3   2.0000     -10.444833      -284.2183
   4   2.0000     -10.435661      -283.9688
   5   2.0000     -10.428865      -283.7838
   6   2.0000     -10.423687      -283.6429
   7   2.0000      -0.969084       -26.3701
   8   2.0000      -0.856926       -23.3182
   9   2.0000      -0.812635       -22.1129
  10   2.0000      -0.747021       -20.3275
  11   2.0000      -0.685007       -18.6400
  12   2.0000      -0.645319       -17.5600
  13   2.0000      -0.568726       -15.4758
  14   2.0000      -0.547756       -14.9052
  15   2.0000      -0.496556       -13.5120
  16   2.0000      -0.491265       -13.3680
  17   2.0000      -0.463311       -12.6073
  18   2.0000      -0.454052       -12.3554
  19   2.0000      -0.441988       -12.0271
  20   2.0000      -0.431326       -11.7370
  21   2.0000      -0.408339       -11.1115
  22   2.0000      -0.370664       -10.0863
  23   2.0000      -0.354440        -9.6448
  24   2.0000      -0.334676        -9.1070
  25   2.0000      -0.257375        -7.0035
  26   0.0000       0.011449         0.3115
  27   0.0000       0.104724         2.8497
  28   0.0000       0.156947         4.2708
  29   0.0000       0.163483         4.4486
  30   0.0000       0.186803         5.0832

MULLIKEN ATOMIC CHARGES
-----------------------
   0 C :    0.185851
   1 C :   -0.292733
   2 C :   -0.219723
   3 C :   -0.202492
   4 H :    0.233920
   5 C :   -0.327994
   6 H :    0.207811
   7 C :   -0.683048
   8 H :    0.222519
   9 H :    0.223622
  10 H :    0.223945
  11 H :    0.196460
  12 H :    0.208346
  13 C :   -0.632838
  14 H :    0.215097
  15 H :    0.217669
  16 H :    0.223588
Sum of atomic charges:    0.0000000

LOEWDIN ATOMIC CHARGES
----------------------
   0 C :   -0.047528
   1 C :   -0.128059
   2 C :   -0.131702
   3 C :   -0.115165
   4 H :    0.130604
   5 C :   -0.172658
   6 H :    0.131834
   7 C :   -0.353088
   8 H :    0.131334
   9 H :    0.133322
  10 H :    0.133628
  11 H :    0.126558
  12 H :    0.127123
  13 C :   -0.353882
  14 H :    0.127059
  15 H :    0.128654
  16 H :    0.131966

  Mayer bond orders larger than 0.100000
B(  0-C ,  1-C ) :   0.9477 B(  0-C ,  2-C ) :   1.0658 B(  0-C ,  5-C ) :   1.7601
B(  1-C ,  3-C ) :   1.0033 B(  1-C ,  4-H ) :   0.8962 B(  1-C , 13-C ) :   0.9701
B(  2-C ,  3-C ) :   1.7868 B(  2-C , 11-H ) :   0.9325 B(  3-C ,  5-C ) :   0.1159
B(  3-C , 12-H ) :   0.9264 B(  5-C ,  6-H ) :   0.9262 B(  5-C ,  7-C ) :   1.0095
B(  7-C ,  8-H ) :   0.9313 B(  7-C ,  9-H ) :   0.9178 B(  7-C , 10-H ) :   0.9172
B( 13-C , 14-H ) :   0.9264 B( 13-C , 15-H ) :   0.9264 B( 13-C , 16-H ) :   0.9282

Dispersion correction           -0.007926715
FINAL SINGLE POINT ENERGY      -272.086927289046

DIPOLE MOMENT
-------------
                                X             Y             Z
Electronic contribution:     -1.32106       2.82320      -1.01492
Nuclear contribution   :      1.27908      -2.82120       1.03450
                        -----------------------------------------
Total Dipole Moment    :     -0.04198       0.00200       0.01959
                        -----------------------------------------
Magnitude (a.u.)       :      0.04636
Magnitude (Debye)      :      0.11785

Rotational constants in cm-1:     0.162222     0.063683     0.049067
Rotational constants in MHz :  4863.299673  1909.162370  1471.003731

                             ****ORCA TERMINATED NORMALLY****
TOTAL RUN TIME: 0 days 0 hours 1 minutes 14 seconds 970 msec
