                         Program Version 5.0.3 -  RELEASE  -
|  1> ! PBEh-3c def2/J TightSCF DefGrid3
|  2>
|  3> %maxcore 60000
|  4>
|  5> %pal
|  6> nprocs 4
|  7> end
|  8>
|  9> *xyzfile 0 2 clo.xyz
| 10>
| 11>                          ****END OF INPUT****

CARTESIAN COORDINATES (ANGSTROEM)
---------------------------------
  Cl     0.489709    0.000000    0.000000
  O     -1.085145    0.000000    0.000000

 Total Charge           Charge          ....    0
 Multiplicity           Mult            ....    2
 Number of Electrons    NEL             ....   25
 Basis Dimension        Dim             ....   33

ORBITAL ENERGIES
----------------
                 SPIN UP ORBITALS
  NO   OCC          E(Eh)            E(eV)
   0   1.0000    -102.384630     -2786.0274
   1   1.0000     -19.601108      -533.3733
   2   1.0000      -9.848942      -268.0033
   3   1.0000      -7.537358      -205.1019
   4   1.0000      -7.532022      -204.9567
   5   1.0000      -7.525131      -204.7692
   6   1.0000      -1.215244       -33.0685
   7   1.0000      -0.876961       -23.8633
   8   1.0000      -0.558804       -15.2058
   9   1.0000      -0.547987       -14.9115
  10   1.0000      -0.513610       -13.9760
  11   1.0000      -0.382560       -10.4100
  12   1.0000      -0.344318        -9.3694
  13   0.0000       0.010355         0.2818
  14   0.0000       0.435893        11.8613
  15   0.0000       0.699137        19.0245
  16   0.0000       0.720386        19.6027
  17   0.0000       0.761006        20.7080

                 SPIN DOWN ORBITALS
  NO   OCC          E(Eh)            E(eV)
   0   1.0000    -102.382735     -2785.9759
   1   1.0000     -19.576542      -532.7048
   2   1.0000      -9.847133      -267.9541
   3   1.0000      -7.537258      -205.0992
   4   1.0000      -7.524352      -204.7480
   5   1.0000      -7.524069      -204.7403
   6   1.0000      -1.164968       -31.7004
   7   1.0000      -0.837449       -22.7882
   8   1.0000      -0.524766       -14.2796
   9   1.0000      -0.499996       -13.6056
  10   1.0000      -0.451730       -12.2922
  11   1.0000      -0.327827        -8.9206
  12   0.0000      -0.117444        -3.1958
  13   0.0000       0.028078         0.7640
  14   0.0000       0.440230        11.9793
  15   0.0000       0.722751        19.6671
  16   0.0000       0.734679        19.9916

MULLIKEN ATOMIC CHARGES AND SPIN POPULATIONS
--------------------------------------------
   0 Cl:    0.323266    0.194645
   1 O :   -0.323266    0.805355
Sum of atomic charges         :   -0.0000000

LOEWDIN ATOMIC CHARGES AND SPIN POPULATIONS
-------------------------------------------
   0 Cl:    0.318770    0.211101
   1 O :   -0.318770    0.788899

  Mayer bond orders larger than 0.100000
B(  0-Cl,  1-O ) :   1.3489

Dispersion correction           -0.000255302
FINAL SINGLE POINT ENERGY      -534.642889981307

DIPOLE MOMENT
-------------
                                X             Y             Z
Electronic contribution:      1.17705      -0.00000      -0.00000
Nuclear contribution   :     -0.67333       0.00000       0.00000
                        -----------------------------------------
Total Dipole Moment    :      0.50372      -0.00000      -0.00000
                        -----------------------------------------
Magnitude (a.u.)       :      0.50372
Magnitude (Debye)      :      1.28036

Rotational constants in cm-1:     0.000000     0.616556     0.616556
Rotational constants in MHz :     0.000000 18483.895107 18483.895107

                             ****ORCA TERMINATED NORMALLY****
TOTAL RUN TIME: 0 days 0 hours 1 minutes 8 seconds 967 msec
