                         Program Version 5.0.3 -  RELEASE  -
|  1> ! PBEh-3c def2/J TightSCF DefGrid3
|  2>
|  3> %maxcore 60000
|  4>
|  5> %pal
|  6> nprocs 4
|  7> end
|  8>
|  9> *xyzfile 0 1 BN_Sumanene.xyz
| 10>
| 11>                          ****END OF INPUT****

CARTESIAN COORDINATES (ANGSTROEM)
---------------------------------
  C     -0.059296    3.322097    0.197823
  N     -1.209881    2.407382   -0.104965
  B     -0.692701    1.231340   -0.731800
  N      0.744744    1.238375   -0.847361
  B      1.212765    2.356550   -0.079614
  N     -1.446168    0.028686   -0.853499
  B     -2.649414   -0.123942   -0.086300
  N     -3.233032    1.072480    0.437469
  B     -2.498375    2.330466    0.500546
  B     -0.717117   -1.210830   -0.734491
  N     -1.472027   -2.241376   -0.095591
  C     -2.839805   -1.704981    0.207293
  B      1.410357   -0.016903   -0.739469
  N      2.687277   -0.161642   -0.113742
  B      3.254412    0.985685    0.514167
  N      2.534817    2.252343    0.456024
  N      0.700555   -1.267025   -0.861553
  B      1.436586   -2.232126   -0.094444
  C      2.905493   -1.615184    0.186166
  B     -0.761637   -3.315856    0.515069
  N      0.694500   -3.330067    0.441412
  H      2.920611    3.007175    1.000182
  H      4.258196    0.916880    1.154949
  H     -0.122256    3.683880    1.225556
  H     -2.954939    3.238220    1.125901
  H     -4.086254    1.026894    0.970100
  H     -3.588882   -2.177921   -0.435020
  H     -1.319376   -4.154703    1.153229
  H      1.164306   -4.040784    0.978006
  H      3.249386   -1.745567    1.213681
  H     -3.120473   -1.933694    1.236580
  H     -0.086401    4.204591   -0.448944
  H      3.684034   -2.030446   -0.460825

 Total Charge           Charge          ....    0
 Multiplicity           Mult            ....    1
 Number of Electrons    NEL             ....  138
 Basis Dimension        Dim             ....  339

ORBITAL ENERGIES
----------------

  NO   OCC          E(Eh)            E(eV)
   0   2.0000     -14.624025      -397.9399
   1   2.0000     -14.623882      -397.9361
   2   2.0000     -14.623858      -397.9354
   3   2.0000     -14.620042      -397.8316
   4   2.0000     -14.619996      -397.8303
   5   2.0000     -14.619940      -397.8288
   6   2.0000     -14.599342      -397.2683
   7   2.0000     -14.599308      -397.2674
   8   2.0000     -14.599255      -397.2659
   9   2.0000     -10.453959      -284.4667
  10   2.0000     -10.453509      -284.4544
  11   2.0000     -10.453401      -284.4515
  12   2.0000      -6.972873      -189.7415
  13   2.0000      -6.972670      -189.7360
  14   2.0000      -6.972460      -189.7303
  15   2.0000      -6.970876      -189.6872
  16   2.0000      -6.970598      -189.6796
  17   2.0000      -6.970579      -189.6791
  18   2.0000      -6.967619      -189.5986
  19   2.0000      -6.967504      -189.5954
  20   2.0000      -6.967411      -189.5929
  21   2.0000      -1.032450       -28.0944
  22   2.0000      -0.999171       -27.1888
  23   2.0000      -0.999109       -27.1871
  24   2.0000      -0.958513       -26.0825
  25   2.0000      -0.958434       -26.0803
  26   2.0000      -0.947358       -25.7789
  27   2.0000      -0.934958       -25.4415
  28   2.0000      -0.911102       -24.7923
  29   2.0000      -0.910779       -24.7836
  30   2.0000      -0.754162       -20.5218
  31   2.0000      -0.741785       -20.1850
  32   2.0000      -0.741700       -20.1827
  33   2.0000      -0.630220       -17.1492
  34   2.0000      -0.625633       -17.0243
  35   2.0000      -0.625414       -17.0184
  36   2.0000      -0.604737       -16.4557
  37   2.0000      -0.578182       -15.7331
  38   2.0000      -0.578059       -15.7298
  39   2.0000      -0.564256       -15.3542
  40   2.0000      -0.564095       -15.3498
  41   2.0000      -0.546591       -14.8735
  42   2.0000      -0.511760       -13.9257
  43   2.0000      -0.502998       -13.6873
  44   2.0000      -0.495808       -13.4916
  45   2.0000      -0.495595       -13.4858
  46   2.0000      -0.491025       -13.3615
  47   2.0000      -0.490946       -13.3593
  48   2.0000      -0.480243       -13.0681
  49   2.0000      -0.455041       -12.3823
  50   2.0000      -0.455026       -12.3819
  51   2.0000      -0.449973       -12.2444
  52   2.0000      -0.438081       -11.9208
  53   2.0000      -0.437809       -11.9134
  54   2.0000      -0.430556       -11.7160
  55   2.0000      -0.404650       -11.0111
  56   2.0000      -0.402723       -10.9587
  57   2.0000      -0.402682       -10.9575
  58   2.0000      -0.369608       -10.0575
  59   2.0000      -0.369509       -10.0549
  60   2.0000      -0.369336       -10.0502
  61   2.0000      -0.366510        -9.9732
  62   2.0000      -0.366152        -9.9635
  63   2.0000      -0.352623        -9.5954
  64   2.0000      -0.337719        -9.1898
  65   2.0000      -0.337235        -9.1766
  66   2.0000      -0.300623        -8.1804
  67   2.0000      -0.289745        -7.8844
  68   2.0000      -0.289378        -7.8744
  69   0.0000       0.024042         0.6542
  70   0.0000       0.036668         0.9978
  71   0.0000       0.036849         1.0027
  72   0.0000       0.063116         1.7175
  73   0.0000       0.063521         1.7285

MULLIKEN ATOMIC CHARGES
-----------------------
   0 C :   -0.501592
   1 N :   -0.465799
   2 B :    0.551342
   3 N :   -0.530520
   4 B :    0.521549
   5 N :   -0.531003
   6 B :    0.521925
   7 N :   -0.647522
   8 B :    0.226657
   9 B :    0.550584
  10 N :   -0.464043
  11 C :   -0.501477
  12 B :    0.550057
  13 N :   -0.464588
  14 B :    0.226930
  15 N :   -0.646920
  16 N :   -0.531222
  17 B :    0.521672
  18 C :   -0.501108
  19 B :    0.226845
  20 N :   -0.646479
  21 H :    0.360184
  22 H :    0.032795
  23 H :    0.220901
  24 H :    0.033122
  25 H :    0.360382
  26 H :    0.230473
  27 H :    0.033165
  28 H :    0.360330
  29 H :    0.220894
  30 H :    0.221286
  31 H :    0.230573
  32 H :    0.230608
Sum of atomic charges:   -0.0000000

LOEWDIN ATOMIC CHARGES
----------------------
   0 C :   -0.213470
   1 N :   -0.165010
   2 B :    0.132137
   3 N :   -0.176671
   4 B :    0.115819
   5 N :   -0.176935
   6 B :    0.115971
   7 N :   -0.286797
   8 B :    0.037305
   9 B :    0.132089
  10 N :   -0.163976
  11 C :   -0.213730
  12 B :    0.132910
  13 N :   -0.164353
  14 B :    0.036832
  15 N :   -0.286274
  16 N :   -0.177147
  17 B :    0.115358
  18 C :   -0.213469
  19 B :    0.037209
  20 N :   -0.286075
  21 H :    0.269201
  22 H :   -0.002443
  23 H :    0.142690
  24 H :   -0.002334
  25 H :    0.269250
  26 H :    0.146405
  27 H :   -0.002258
  28 H :    0.269306
  29 H :    0.142888
  30 H :    0.142840
  31 H :    0.146330
  32 H :    0.146401

  Mayer bond orders larger than 0.100000
B(  0-C ,  1-N ) :   0.9449 B(  0-C ,  4-B ) :   0.9228 B(  0-C , 23-H ) :   0.9200
B(  0-C , 31-H ) :   0.9056 B(  1-N ,  2-B ) :   1.1020 B(  1-N ,  8-B ) :   1.2123
B(  2-B ,  3-N ) :   1.0308 B(  2-B ,  5-N ) :   1.0878 B(  3-N ,  4-B ) :   1.1097
B(  3-N , 12-B ) :   1.0880 B(  4-B , 15-N ) :   1.2007 B(  5-N ,  6-B ) :   1.1097
B(  5-N ,  9-B ) :   1.0301 B(  6-B ,  7-N ) :   1.1996 B(  6-B , 11-C ) :   0.9235
B(  7-N ,  8-B ) :   1.1259 B(  7-N , 25-H ) :   0.8253 B(  8-B , 24-H ) :   0.9668
B(  9-B , 10-N ) :   1.1040 B(  9-B , 16-N ) :   1.0875 B( 10-N , 11-C ) :   0.9455
B( 10-N , 19-B ) :   1.2125 B( 11-C , 26-H ) :   0.9054 B( 11-C , 30-H ) :   0.9197
B( 12-B , 13-N ) :   1.1027 B( 12-B , 16-N ) :   1.0316 B( 13-N , 14-B ) :   1.2124
B( 13-N , 18-C ) :   0.9453 B( 14-B , 15-N ) :   1.1257 B( 14-B , 22-H ) :   0.9669
B( 15-N , 21-H ) :   0.8255 B( 16-N , 17-B ) :   1.1079 B( 17-B , 18-C ) :   0.9234
B( 17-B , 20-N ) :   1.2017 B( 18-C , 29-H ) :   0.9198 B( 18-C , 32-H ) :   0.9055
B( 19-B , 20-N ) :   1.1250 B( 19-B , 27-H ) :   0.9669 B( 20-N , 28-H ) :   0.8253

Dispersion correction           -0.025899643
FINAL SINGLE POINT ENERGY      -836.949392416797

DIPOLE MOMENT
-------------
                                X             Y             Z
Electronic contribution:     -0.00159       0.00600      -8.10746
Nuclear contribution   :      0.00146      -0.00934       9.13673
                        -----------------------------------------
Total Dipole Moment    :     -0.00013      -0.00334       1.02927
                        -----------------------------------------
Magnitude (a.u.)       :      1.02928
Magnitude (Debye)      :      2.61621

Rotational constants in cm-1:     0.014676     0.014574     0.007844
Rotational constants in MHz :   439.974533   436.906123   235.164531

                             ****ORCA TERMINATED NORMALLY****
TOTAL RUN TIME: 0 days 0 hours 5 minutes 22 seconds 340 msec
