                         Program Version 5.0.3 -  RELEASE  -
|  1> ! PBEh-3c def2/J TightSCF DefGrid3
|  2>
|  3> %maxcore 60000
|  4>
|  5> %pal
|  6> nprocs 4
|  7> end
|  8>
|  9> *xyzfile -1 1 OHmH2O4cs.xyz
| 10>
| 11>                          ****END OF INPUT****

CARTESIAN COORDINATES (ANGSTROEM)
---------------------------------
  O      0.794127   -0.158050    2.066039
  O     -0.026599   -1.468625    0.000000
  H      0.853544    1.317568    0.763270
  H     -0.049209    0.055688    2.473856
  O      0.706020    1.906109    0.000000
  H      0.853544    1.317568   -0.763270
  O      0.794127   -0.158050   -2.066039
  H     -0.049209    0.055688   -2.473856
  H      0.525303   -0.766781   -1.289874
  O     -2.037730    0.390589    0.000000
  H     -1.391153    1.109993    0.000000
  H     -1.454585   -0.407955    0.000000
  H      0.525303   -0.766781    1.289874
  H     -0.043481   -2.426961    0.000000

 Total Charge           Charge          ....   -1
 Multiplicity           Mult            ....    1
 Number of Electrons    NEL             ....   50
 Basis Dimension        Dim             ....   93

ORBITAL ENERGIES
----------------

  NO   OCC          E(Eh)            E(eV)
   0   2.0000     -19.287795      -524.8476
   1   2.0000     -19.287765      -524.8468
   2   2.0000     -19.284427      -524.7559
   3   2.0000     -19.266189      -524.2596
   4   2.0000     -19.232193      -523.3346
   5   2.0000      -0.916741       -24.9458
   6   2.0000      -0.906695       -24.6724
   7   2.0000      -0.900136       -24.4939
   8   2.0000      -0.889205       -24.1965
   9   2.0000      -0.814633       -22.1673
  10   2.0000      -0.391367       -10.6496
  11   2.0000      -0.389426       -10.5968
  12   2.0000      -0.384211       -10.4549
  13   2.0000      -0.368400       -10.0247
  14   2.0000      -0.295110        -8.0304
  15   2.0000      -0.268842        -7.3156
  16   2.0000      -0.263332        -7.1656
  17   2.0000      -0.244522        -6.6538
  18   2.0000      -0.223084        -6.0704
  19   2.0000      -0.177328        -4.8253
  20   2.0000      -0.175870        -4.7857
  21   2.0000      -0.168714        -4.5909
  22   2.0000      -0.157693        -4.2910
  23   2.0000      -0.121217        -3.2985
  24   2.0000      -0.119848        -3.2612
  25   0.0000       0.282401         7.6845
  26   0.0000       0.322101         8.7648
  27   0.0000       0.348408         9.4807
  28   0.0000       0.382213        10.4006
  29   0.0000       0.417371        11.3573

MULLIKEN ATOMIC CHARGES
-----------------------
   0 O :   -0.901746
   1 O :   -0.944607
   2 H :    0.416463
   3 H :    0.379386
   4 O :   -0.922639
   5 H :    0.416463
   6 O :   -0.901746
   7 H :    0.379386
   8 H :    0.436870
   9 O :   -0.941609
  10 H :    0.389946
  11 H :    0.416189
  12 H :    0.436870
  13 H :    0.340773
Sum of atomic charges:   -1.0000000

LOEWDIN ATOMIC CHARGES
----------------------
   0 O :   -0.674131
   1 O :   -0.823042
   2 H :    0.287439
   3 H :    0.278235
   4 O :   -0.664211
   5 H :    0.287439
   6 O :   -0.674131
   7 H :    0.278235
   8 H :    0.297462
   9 O :   -0.692760
  10 H :    0.278424
  11 H :    0.283222
  12 H :    0.297462
  13 H :    0.240356

  Mayer bond orders larger than 0.100000
B(  0-O ,  2-H ) :   0.1281 B(  0-O ,  3-H ) :   0.8309 B(  0-O , 12-H ) :   0.5880
B(  1-O ,  8-H ) :   0.2534 B(  1-O , 11-H ) :   0.1814 B(  1-O , 12-H ) :   0.2534
B(  1-O , 13-H ) :   0.8413 B(  2-H ,  4-O ) :   0.7262 B(  4-O ,  5-H ) :   0.7262
B(  5-H ,  6-O ) :   0.1281 B(  6-O ,  7-H ) :   0.8309 B(  6-O ,  8-H ) :   0.5880
B(  9-O , 10-H ) :   0.7824 B(  9-O , 11-H ) :   0.6835

Dispersion correction           -0.004600886
FINAL SINGLE POINT ENERGY      -380.786658633063

DIPOLE MOMENT
-------------
                                X             Y             Z
Electronic contribution:      0.27392       0.66056       0.00000
Nuclear contribution   :     -0.54198      -1.20671      -0.00000
                        -----------------------------------------
Total Dipole Moment    :     -0.26806      -0.54616       0.00000
                        -----------------------------------------
Magnitude (a.u.)       :      0.60839
Magnitude (Debye)      :      1.54642

Rotational constants in cm-1:     0.081111     0.067227     0.063860
Rotational constants in MHz :  2431.653083  2015.411895  1914.480109

                             ****ORCA TERMINATED NORMALLY****
TOTAL RUN TIME: 0 days 0 hours 1 minutes 26 seconds 107 msec
