                         Program Version 5.0.3 -  RELEASE  -
|  1> ! PBEh-3c def2/J TightSCF DefGrid3
|  2>
|  3> %maxcore 60000
|  4>
|  5> %pal
|  6> nprocs 4
|  7> end
|  8>
|  9> *xyzfile -1 1 11A.xyz
| 10>
| 11>                          ****END OF INPUT****

CARTESIAN COORDINATES (ANGSTROEM)
---------------------------------
  N      0.363618    1.928727   -1.785050
  N      0.822176    2.406650   -2.789666
  N     -0.094568    1.451695   -0.776823

 Total Charge           Charge          ....   -1
 Multiplicity           Mult            ....    1
 Number of Electrons    NEL             ....   22
 Basis Dimension        Dim             ....   45

ORBITAL ENERGIES
----------------

  NO   OCC          E(Eh)            E(eV)
   0   2.0000     -14.522862      -395.1872
   1   2.0000     -14.371897      -391.0792
   2   2.0000     -14.371446      -391.0669
   3   2.0000      -0.919737       -25.0273
   4   2.0000      -0.734941       -19.9988
   5   2.0000      -0.262168        -7.1339
   6   2.0000      -0.262166        -7.1339
   7   2.0000      -0.256943        -6.9918
   8   2.0000      -0.190686        -5.1888
   9   2.0000      -0.002646        -0.0720
  10   2.0000      -0.002646        -0.0720
  11   0.0000       0.342154         9.3105
  12   0.0000       0.342156         9.3105
  13   0.0000       0.569537        15.4979
  14   0.0000       0.731824        19.9139
  15   0.0000       0.879620        23.9357

MULLIKEN ATOMIC CHARGES
-----------------------
   0 N :    0.112353
   1 N :   -0.554864
   2 N :   -0.557489
Sum of atomic charges:   -1.0000000

LOEWDIN ATOMIC CHARGES
----------------------
   0 N :    0.080846
   1 N :   -0.538754
   2 N :   -0.542092

  Mayer bond orders larger than 0.100000
B(  0-N ,  1-N ) :   2.1832 B(  0-N ,  2-N ) :   2.1792 B(  1-N ,  2-N ) :   0.6309

Dispersion correction           -0.000635205
FINAL SINGLE POINT ENERGY      -163.842608710540

DIPOLE MOMENT
-------------
                                X             Y             Z
Electronic contribution:      0.00186       0.00171      -0.00614
Nuclear contribution   :      0.00000       0.00000      -0.00000
                        -----------------------------------------
Total Dipole Moment    :      0.00186       0.00171      -0.00614
                        -----------------------------------------
Magnitude (a.u.)       :      0.00664
Magnitude (Debye)      :      0.01686

Rotational constants in cm-1: 948888.111236     0.414726     0.414726
Rotational constants in MHz : 28446949923.455795 12433.185285 12433.179850

                             ****ORCA TERMINATED NORMALLY****
TOTAL RUN TIME: 0 days 0 hours 0 minutes 58 seconds 271 msec
