                         Program Version 5.0.3 -  RELEASE  -
|  1> ! PBEh-3c def2/J TightSCF DefGrid3
|  2>
|  3> %maxcore 60000
|  4>
|  5> %pal
|  6> nprocs 4
|  7> end
|  8>
|  9> *xyzfile 0 1 20.xyz
| 10>
| 11>                          ****END OF INPUT****

CARTESIAN COORDINATES (ANGSTROEM)
---------------------------------
  H     -1.884571   -0.267711   -1.580202
  H      3.239574   -1.244777    1.989363
  C     -2.298122   -0.151758   -0.581067
  P      1.360261   -0.212978   -1.357726
  F     -2.074889    0.783376    1.743194
  B     -3.529143   -0.716198   -0.263775
  H      4.531691   -0.704983    0.808495
  N     -0.275921    1.235303    0.296526
  B     -1.539663    0.625894    0.496354
  H      0.202109    1.744893    1.031496
  B      2.489943   -0.563902    0.056023
  F     -4.663192   -1.222831    0.070600
  C      3.469907   -0.854433    0.999522
  N      0.474213    1.182290   -0.897792
  H      0.023383    1.677812   -1.660605
  H      0.474419   -1.309997   -1.150405

 Total Charge           Charge          ....    0
 Multiplicity           Mult            ....    1
 Number of Electrons    NEL             ....   80
 Basis Dimension        Dim             ....  165

ORBITAL ENERGIES
----------------

  NO   OCC          E(Eh)            E(eV)
   0   2.0000     -77.762089     -2116.0140
   1   2.0000     -25.185075      -685.3207
   2   2.0000     -25.076676      -682.3710
   3   2.0000     -14.674494      -399.3133
   4   2.0000     -14.661425      -398.9577
   5   2.0000     -10.417928      -283.4862
   6   2.0000     -10.414948      -283.4051
   7   2.0000      -7.079502      -192.6431
   8   2.0000      -7.012873      -190.8300
   9   2.0000      -6.978829      -189.9036
  10   2.0000      -6.835232      -185.9961
  11   2.0000      -4.926509      -134.0571
  12   2.0000      -4.925351      -134.0256
  13   2.0000      -4.924766      -134.0097
  14   2.0000      -1.417384       -38.5690
  15   2.0000      -1.303054       -35.4579
  16   2.0000      -1.072384       -29.1811
  17   2.0000      -0.870319       -23.6826
  18   2.0000      -0.782500       -21.2929
  19   2.0000      -0.754254       -20.5243
  20   2.0000      -0.708174       -19.2704
  21   2.0000      -0.686437       -18.6789
  22   2.0000      -0.621726       -16.9180
  23   2.0000      -0.600400       -16.3377
  24   2.0000      -0.599369       -16.3097
  25   2.0000      -0.585395       -15.9294
  26   2.0000      -0.568378       -15.4663
  27   2.0000      -0.531211       -14.4550
  28   2.0000      -0.501084       -13.6352
  29   2.0000      -0.499808       -13.6005
  30   2.0000      -0.491647       -13.3784
  31   2.0000      -0.480637       -13.0788
  32   2.0000      -0.466361       -12.6903
  33   2.0000      -0.436306       -11.8725
  34   2.0000      -0.418345       -11.3837
  35   2.0000      -0.350479        -9.5370
  36   2.0000      -0.315203        -8.5771
  37   2.0000      -0.308226        -8.3873
  38   2.0000      -0.281293        -7.6544
  39   2.0000      -0.269118        -7.3231
  40   0.0000      -0.023902        -0.6504
  41   0.0000      -0.000582        -0.0158
  42   0.0000       0.010107         0.2750
  43   0.0000       0.038100         1.0368
  44   0.0000       0.074174         2.0184

MULLIKEN ATOMIC CHARGES
-----------------------
   0 H :    0.251522
   1 H :    0.235123
   2 C :   -0.773309
   3 P :    0.144413
   4 F :   -0.324682
   5 B :    0.550375
   6 H :    0.235898
   7 N :   -0.457636
   8 B :    0.594335
   9 H :    0.376462
  10 B :    0.200415
  11 F :   -0.190060
  12 C :   -0.683860
  13 N :   -0.608883
  14 H :    0.362664
  15 H :    0.087226
Sum of atomic charges:   -0.0000000

LOEWDIN ATOMIC CHARGES
----------------------
   0 H :    0.191656
   1 H :    0.172029
   2 C :   -0.507926
   3 P :    0.285534
   4 F :   -0.175620
   5 B :    0.329961
   6 H :    0.174601
   7 N :   -0.223051
   8 B :    0.121369
   9 H :    0.264668
  10 B :   -0.106128
  11 F :   -0.027205
  12 C :   -0.435704
  13 N :   -0.359046
  14 H :    0.244318
  15 H :    0.050544

  Mayer bond orders larger than 0.100000
B(  0-H ,  2-C ) :   0.8831 B(  1-H , 12-C ) :   0.9086 B(  2-C ,  5-B ) :   1.7698
B(  2-C ,  8-B ) :   1.0128 B(  3-P , 10-B ) :   1.2128 B(  3-P , 13-N ) :   0.9756
B(  3-P , 15-H ) :   0.9011 B(  4-F ,  8-B ) :   1.0613 B(  5-B , 11-F ) :   1.2567
B(  6-H , 12-C ) :   0.9078 B(  7-N ,  8-B ) :   1.1984 B(  7-N ,  9-H ) :   0.8097
B(  7-N , 13-N ) :   0.9755 B( 10-B , 12-C ) :   1.9652 B( 13-N , 14-H ) :   0.8178

Dispersion correction           -0.008604762
FINAL SINGLE POINT ENERGY      -803.567365075807

DIPOLE MOMENT
-------------
                                X             Y             Z
Electronic contribution:    -14.12487      -1.07867       0.65064
Nuclear contribution   :     13.51179       1.00841      -1.18293
                        -----------------------------------------
Total Dipole Moment    :     -0.61308      -0.07025      -0.53229
                        -----------------------------------------
Magnitude (a.u.)       :      0.81495
Magnitude (Debye)      :      2.07143

Rotational constants in cm-1:     0.063361     0.015496     0.014731
Rotational constants in MHz :  1899.519946   464.568871   441.634544

                             ****ORCA TERMINATED NORMALLY****
TOTAL RUN TIME: 0 days 0 hours 2 minutes 45 seconds 420 msec
