                         Program Version 5.0.3 -  RELEASE  -
|  1> ! PBEh-3c def2/J TightSCF DefGrid3
|  2>
|  3> %maxcore 60000
|  4>
|  5> %pal
|  6> nprocs 4
|  7> end
|  8>
|  9> *xyzfile 0 1 22b.xyz
| 10>
| 11>                          ****END OF INPUT****

CARTESIAN COORDINATES (ANGSTROEM)
---------------------------------
  C     -0.712801   -0.868697    0.000000
  C     -1.283103    0.401491    0.000000
  C     -0.454034    1.518505    0.000000
  C      0.932573    1.374158    0.000000
  C      1.490512    0.098728    0.000000
  C      0.669692   -1.027272    0.000000
  H     -1.050679   -2.754598    0.000000
  H     -2.359711    0.500222    0.000000
  H     -0.897514    2.504398    0.000000
  H      1.570632    2.246071    0.000000
  H      2.564298   -0.027045    0.000000
  H      1.102489   -2.020514    0.000000
  O     -1.572353   -1.945448    0.000000

 Total Charge           Charge          ....    0
 Multiplicity           Mult            ....    1
 Number of Electrons    NEL             ....   50
 Basis Dimension        Dim             ....  117

ORBITAL ENERGIES
----------------

  NO   OCC          E(Eh)            E(eV)
   0   2.0000     -19.523954      -531.2738
   1   2.0000     -10.512508      -286.0599
   2   2.0000     -10.453558      -284.4558
   3   2.0000     -10.451373      -284.3963
   4   2.0000     -10.449544      -284.3466
   5   2.0000     -10.443301      -284.1767
   6   2.0000     -10.442190      -284.1464
   7   2.0000      -1.167318       -31.7643
   8   2.0000      -0.951705       -25.8972
   9   2.0000      -0.841861       -22.9082
  10   2.0000      -0.829058       -22.5598
  11   2.0000      -0.702418       -19.1138
  12   2.0000      -0.679761       -18.4972
  13   2.0000      -0.613560       -16.6958
  14   2.0000      -0.566489       -15.4149
  15   2.0000      -0.532395       -14.4872
  16   2.0000      -0.501746       -13.6532
  17   2.0000      -0.486757       -13.2453
  18   2.0000      -0.470827       -12.8119
  19   2.0000      -0.452659       -12.3175
  20   2.0000      -0.417496       -11.3606
  21   2.0000      -0.397786       -10.8243
  22   2.0000      -0.392882       -10.6909
  23   2.0000      -0.296915        -8.0795
  24   2.0000      -0.266459        -7.2507
  25   0.0000       0.015224         0.4143
  26   0.0000       0.033816         0.9202
  27   0.0000       0.121684         3.3112
  28   0.0000       0.139262         3.7895
  29   0.0000       0.198568         5.4033

MULLIKEN ATOMIC CHARGES
-----------------------
   0 C :    0.369130
   1 C :   -0.292511
   2 C :   -0.208950
   3 C :   -0.242073
   4 C :   -0.208671
   5 C :   -0.349479
   6 H :    0.428145
   7 H :    0.239495
   8 H :    0.221894
   9 H :    0.218368
  10 H :    0.222516
  11 H :    0.216737
  12 O :   -0.614600
Sum of atomic charges:   -0.0000000

LOEWDIN ATOMIC CHARGES
----------------------
   0 C :    0.068679
   1 C :   -0.162860
   2 C :   -0.119276
   3 C :   -0.163468
   4 C :   -0.120357
   5 C :   -0.195482
   6 H :    0.323649
   7 H :    0.147459
   8 H :    0.137716
   9 H :    0.135716
  10 H :    0.137316
  11 H :    0.132991
  12 O :   -0.322083

  Mayer bond orders larger than 0.100000
B(  0-C ,  1-C ) :   1.3694 B(  0-C ,  5-C ) :   1.3472 B(  0-C , 12-O ) :   1.0607
B(  1-C ,  2-C ) :   1.4469 B(  1-C ,  7-H ) :   0.9081 B(  2-C ,  3-C ) :   1.4176
B(  2-C ,  8-H ) :   0.9198 B(  3-C ,  4-C ) :   1.4379 B(  3-C ,  9-H ) :   0.9193
B(  4-C ,  5-C ) :   1.4239 B(  4-C , 10-H ) :   0.9189 B(  5-C , 11-H ) :   0.9174
B(  6-H , 12-O ) :   0.7813

Dispersion correction           -0.006570216
FINAL SINGLE POINT ENERGY      -306.794666621709

DIPOLE MOMENT
-------------
                                X             Y             Z
Electronic contribution:     -1.37550      -1.45368      -0.00000
Nuclear contribution   :      1.83816       1.15326       0.00000
                        -----------------------------------------
Total Dipole Moment    :      0.46266      -0.30042      -0.00000
                        -----------------------------------------
Magnitude (a.u.)       :      0.55164
Magnitude (Debye)      :      1.40215

Rotational constants in cm-1:     0.188871     0.087533     0.059812
Rotational constants in MHz :  5662.196293  2624.162293  1793.130463

                             ****ORCA TERMINATED NORMALLY****
TOTAL RUN TIME: 0 days 0 hours 1 minutes 20 seconds 269 msec
