                         Program Version 5.0.3 -  RELEASE  -
|  1> ! PBEh-3c def2/J TightSCF DefGrid3
|  2>
|  3> %maxcore 60000
|  4>
|  5> %pal
|  6> nprocs 4
|  7> end
|  8>
|  9> *xyzfile 0 2 cf.xyz
| 10>
| 11>                          ****END OF INPUT****

CARTESIAN COORDINATES (ANGSTROEM)
---------------------------------
  C     -0.780998    0.000000    0.000000
  F      0.493755    0.000000    0.000000

 Total Charge           Charge          ....    0
 Multiplicity           Mult            ....    2
 Number of Electrons    NEL             ....   15
 Basis Dimension        Dim             ....   30

ORBITAL ENERGIES
----------------
                 SPIN UP ORBITALS
  NO   OCC          E(Eh)            E(eV)
   0   1.0000     -25.196144      -685.6219
   1   1.0000     -10.590023      -288.1692
   2   1.0000      -1.449017       -39.4298
   3   1.0000      -0.770570       -20.9683
   4   1.0000      -0.628542       -17.1035
   5   1.0000      -0.604684       -16.4543
   6   1.0000      -0.471400       -12.8275
   7   1.0000      -0.265037        -7.2120
   8   0.0000      -0.062034        -1.6880
   9   0.0000       0.207631         5.6499
  10   0.0000       0.474817        12.9204
  11   0.0000       0.504525        13.7288
  12   0.0000       0.552082        15.0229

                 SPIN DOWN ORBITALS
  NO   OCC          E(Eh)            E(eV)
   0   1.0000     -25.191357      -685.4917
   1   1.0000     -10.572832      -287.7014
   2   1.0000      -1.436561       -39.0908
   3   1.0000      -0.745715       -20.2919
   4   1.0000      -0.601422       -16.3655
   5   1.0000      -0.583422       -15.8757
   6   1.0000      -0.425918       -11.5898
   7   0.0000      -0.041943        -1.1413
   8   0.0000       0.005511         0.1500
   9   0.0000       0.225972         6.1490
  10   0.0000       0.518039        14.0966
  11   0.0000       0.552636        15.0380

MULLIKEN ATOMIC CHARGES AND SPIN POPULATIONS
--------------------------------------------
   0 C :    0.171931    0.939409
   1 F :   -0.171931    0.060591
Sum of atomic charges         :   -0.0000000

LOEWDIN ATOMIC CHARGES AND SPIN POPULATIONS
-------------------------------------------
   0 C :    0.037452    0.872232
   1 F :   -0.037452    0.127768

  Mayer bond orders larger than 0.100000
B(  0-C ,  1-F ) :   1.2910

Dispersion correction           -0.000159801
FINAL SINGLE POINT ENERGY      -137.501529435211

DIPOLE MOMENT
-------------
                                X             Y             Z
Electronic contribution:      0.72481      -0.00000       0.00000
Nuclear contribution   :     -0.45749       0.00000       0.00000
                        -----------------------------------------
Total Dipole Moment    :      0.26733      -0.00000       0.00000
                        -----------------------------------------
Magnitude (a.u.)       :      0.26733
Magnitude (Debye)      :      0.67949

Rotational constants in cm-1:     0.000000     1.409761     1.409761
Rotational constants in MHz :     0.000000 42263.574883 42263.574883

                             ****ORCA TERMINATED NORMALLY****
TOTAL RUN TIME: 0 days 0 hours 0 minutes 24 seconds 570 msec
