                         Program Version 5.0.3 -  RELEASE  -
|  1> ! PBEh-3c def2/J TightSCF DefGrid3
|  2>
|  3> %maxcore 60000
|  4>
|  5> %pal
|  6> nprocs 4
|  7> end
|  8>
|  9> *xyzfile 0 1 12b.xyz
| 10>
| 11>                          ****END OF INPUT****

CARTESIAN COORDINATES (ANGSTROEM)
---------------------------------
  P      0.000000    1.613570    0.000000
  H      0.962150    1.637084    1.037259
  H      0.962150    1.637084   -1.037259
  N     -0.344103    3.291540    0.000000
  C     -0.739261    4.392734    0.000000

 Total Charge           Charge          ....    0
 Multiplicity           Mult            ....    1
 Number of Electrons    NEL             ....   30
 Basis Dimension        Dim             ....   52

ORBITAL ENERGIES
----------------

  NO   OCC          E(Eh)            E(eV)
   0   2.0000     -77.800990     -2117.0726
   1   2.0000     -14.677610      -399.3981
   2   2.0000     -10.494758      -285.5769
   3   2.0000      -6.875180      -187.0832
   4   2.0000      -4.966802      -135.1536
   5   2.0000      -4.964677      -135.0957
   6   2.0000      -4.963020      -135.0506
   7   2.0000      -1.051224       -28.6053
   8   2.0000      -0.801014       -21.7967
   9   2.0000      -0.592386       -16.1196
  10   2.0000      -0.502789       -13.6816
  11   2.0000      -0.458703       -12.4820
  12   2.0000      -0.409206       -11.1351
  13   2.0000      -0.367172        -9.9913
  14   2.0000      -0.332488        -9.0475
  15   0.0000       0.014585         0.3969
  16   0.0000       0.016566         0.4508
  17   0.0000       0.065410         1.7799
  18   0.0000       0.090786         2.4704
  19   0.0000       0.140813         3.8317

MULLIKEN ATOMIC CHARGES
-----------------------
   0 P :    0.185918
   1 H :    0.096987
   2 H :    0.096987
   3 N :   -0.371321
   4 C :   -0.008571
Sum of atomic charges:    0.0000000

LOEWDIN ATOMIC CHARGES
----------------------
   0 P :    0.217996
   1 H :    0.039965
   2 H :    0.039965
   3 N :   -0.215369
   4 C :   -0.082557

  Mayer bond orders larger than 0.100000
B(  0-P ,  1-H ) :   0.9466 B(  0-P ,  2-H ) :   0.9466 B(  0-P ,  3-N ) :   0.8277
B(  3-N ,  4-C ) :   2.4558

Dispersion correction           -0.001723223
FINAL SINGLE POINT ENERGY      -434.735640264037

DIPOLE MOMENT
-------------
                                X             Y             Z
Electronic contribution:     -1.32364      -0.17113      -0.00000
Nuclear contribution   :      2.00040      -0.90022       0.00000
                        -----------------------------------------
Total Dipole Moment    :      0.67677      -1.07135      -0.00000
                        -----------------------------------------
Magnitude (a.u.)       :      1.26720
Magnitude (Debye)      :      3.22098

Rotational constants in cm-1:     4.355673     0.198263     0.197178
Rotational constants in MHz : 130579.792399  5943.768786  5911.247649

                             ****ORCA TERMINATED NORMALLY****
TOTAL RUN TIME: 0 days 0 hours 0 minutes 48 seconds 421 msec
