                         Program Version 5.0.3 -  RELEASE  -
|  1> ! PBEh-3c def2/J TightSCF DefGrid3
|  2>
|  3> %maxcore 60000
|  4>
|  5> %pal
|  6> nprocs 4
|  7> end
|  8>
|  9> *xyzfile 0 1 49.xyz
| 10>
| 11>                          ****END OF INPUT****

CARTESIAN COORDINATES (ANGSTROEM)
---------------------------------
  C      0.849324    1.082070   -2.062135
  H      1.510653    1.927373   -1.928207
  C      1.379757   -0.193304   -2.250428
  H      2.451431   -0.337321   -2.258737
  C      0.528315   -1.282893   -2.428397
  H      0.939975   -2.271875   -2.576666
  C     -0.853468   -1.097312   -2.415205
  H     -1.514134   -1.942307   -2.553226
  C     -1.383798    0.177785   -2.223976
  H     -2.455470    0.321567   -2.211557
  C     -0.532366    1.267573   -2.048851
  H     -0.944677    2.256957   -1.904223
  N      0.027365    0.376176    4.012955
  C      0.182048    1.314137    3.068078
  H      0.323819    2.326663    3.425980
  C      0.167839    1.046847    1.701579
  H      0.298079    1.847873    0.987693
  C     -0.016499   -0.264782    1.276288
  H     -0.033066   -0.507901    0.222940
  C     -0.178348   -1.249817    2.245147
  H     -0.324891   -2.285027    1.970376
  C     -0.149146   -0.882483    3.588237
  H     -0.272742   -1.629997    4.362337

 Total Charge           Charge          ....    0
 Multiplicity           Mult            ....    1
 Number of Electrons    NEL             ....   84
 Basis Dimension        Dim             ....  202

ORBITAL ENERGIES
----------------

  NO   OCC          E(Eh)            E(eV)
   0   2.0000     -14.632546      -398.1718
   1   2.0000     -10.475351      -285.0488
   2   2.0000     -10.475224      -285.0453
   3   2.0000     -10.459996      -284.6310
   4   2.0000     -10.459816      -284.6261
   5   2.0000     -10.459632      -284.6211
   6   2.0000     -10.459192      -284.6091
   7   2.0000     -10.458985      -284.6035
   8   2.0000     -10.458824      -284.5991
   9   2.0000     -10.458443      -284.5887
  10   2.0000     -10.450173      -284.3637
  11   2.0000     -10.449458      -284.3442
  12   2.0000      -1.038416       -28.2567
  13   2.0000      -0.963886       -26.2287
  14   2.0000      -0.892030       -24.2734
  15   2.0000      -0.847019       -23.0486
  16   2.0000      -0.846358       -23.0306
  17   2.0000      -0.845845       -23.0166
  18   2.0000      -0.700909       -19.0727
  19   2.0000      -0.700106       -19.0509
  20   2.0000      -0.689631       -18.7658
  21   2.0000      -0.689497       -18.7622
  22   2.0000      -0.602643       -16.3987
  23   2.0000      -0.591870       -16.1056
  24   2.0000      -0.538141       -14.6436
  25   2.0000      -0.535863       -14.5816
  26   2.0000      -0.528748       -14.3880
  27   2.0000      -0.519265       -14.1299
  28   2.0000      -0.492460       -13.4005
  29   2.0000      -0.492018       -13.3885
  30   2.0000      -0.483562       -13.1584
  31   2.0000      -0.462969       -12.5980
  32   2.0000      -0.448038       -12.1917
  33   2.0000      -0.425357       -11.5746
  34   2.0000      -0.412640       -11.2285
  35   2.0000      -0.408716       -11.1217
  36   2.0000      -0.408537       -11.1168
  37   2.0000      -0.325072        -8.8456
  38   2.0000      -0.308219        -8.3871
  39   2.0000      -0.303343        -8.2544
  40   2.0000      -0.303212        -8.2508
  41   2.0000      -0.297797        -8.1035
  42   0.0000       0.004520         0.1230
  43   0.0000       0.005684         0.1547
  44   0.0000       0.007302         0.1987
  45   0.0000       0.018740         0.5099
  46   0.0000       0.130061         3.5391

MULLIKEN ATOMIC CHARGES
-----------------------
   0 C :   -0.228135
   1 H :    0.226674
   2 C :   -0.222158
   3 H :    0.227389
   4 C :   -0.229467
   5 H :    0.226163
   6 C :   -0.228970
   7 H :    0.226174
   8 C :   -0.221524
   9 H :    0.227464
  10 C :   -0.227021
  11 H :    0.226780
  12 N :   -0.363195
  13 C :   -0.039575
  14 H :    0.227674
  15 C :   -0.303402
  16 H :    0.225027
  17 C :   -0.125769
  18 H :    0.266402
  19 C :   -0.304905
  20 H :    0.225697
  21 C :   -0.039944
  22 H :    0.228623
Sum of atomic charges:   -0.0000000

LOEWDIN ATOMIC CHARGES
----------------------
   0 C :   -0.138648
   1 H :    0.138103
   2 C :   -0.135598
   3 H :    0.139204
   4 C :   -0.139510
   5 H :    0.138384
   6 C :   -0.139265
   7 H :    0.138386
   8 C :   -0.135089
   9 H :    0.139267
  10 C :   -0.138052
  11 H :    0.138215
  12 N :   -0.144153
  13 C :   -0.060179
  14 H :    0.127595
  15 C :   -0.164872
  16 H :    0.139645
  17 C :   -0.096863
  18 H :    0.152528
  19 C :   -0.167169
  20 H :    0.139709
  21 C :   -0.059573
  22 H :    0.127936

  Mayer bond orders larger than 0.100000
B(  0-C ,  1-H ) :   0.9180 B(  0-C ,  2-C ) :   1.4255 B(  0-C , 10-C ) :   1.4207
B(  2-C ,  3-H ) :   0.9181 B(  2-C ,  4-C ) :   1.4243 B(  4-C ,  5-H ) :   0.9186
B(  4-C ,  6-C ) :   1.4228 B(  6-C ,  7-H ) :   0.9186 B(  6-C ,  8-C ) :   1.4243
B(  8-C ,  9-H ) :   0.9180 B(  8-C , 10-C ) :   1.4256 B( 10-C , 11-H ) :   0.9179
B( 12-N , 13-C ) :   1.4966 B( 12-N , 21-C ) :   1.4985 B( 13-C , 14-H ) :   0.9197
B( 13-C , 15-C ) :   1.3812 B( 15-C , 16-H ) :   0.9139 B( 15-C , 17-C ) :   1.4130
B( 17-C , 18-H ) :   0.8974 B( 17-C , 19-C ) :   1.4120 B( 19-C , 20-H ) :   0.9157
B( 19-C , 21-C ) :   1.3817 B( 21-C , 22-H ) :   0.9189

Dispersion correction           -0.013918869
FINAL SINGLE POINT ENERGY      -479.460581743164

DIPOLE MOMENT
-------------
                                X             Y             Z
Electronic contribution:      0.01996       0.32124       3.52394
Nuclear contribution   :     -0.03835      -0.53552      -4.59504
                        -----------------------------------------
Total Dipole Moment    :     -0.01839      -0.21427      -1.07110
                        -----------------------------------------
Magnitude (a.u.)       :      1.09248
Magnitude (Debye)      :      2.77685

Rotational constants in cm-1:     0.065372     0.015064     0.014051
Rotational constants in MHz :  1959.803732   451.605070   421.231791

                             ****ORCA TERMINATED NORMALLY****
TOTAL RUN TIME: 0 days 0 hours 2 minutes 39 seconds 297 msec
