                         Program Version 5.0.3 -  RELEASE  -
|  1> ! PBEh-3c def2/J TightSCF DefGrid3
|  2>
|  3> %maxcore 60000
|  4>
|  5> %pal
|  6> nprocs 4
|  7> end
|  8>
|  9> *xyzfile 0 1 PH2Ph_TS.xyz
| 10>
| 11>                          ****END OF INPUT****

CARTESIAN COORDINATES (ANGSTROEM)
---------------------------------
  C      2.942939    0.188347    0.318124
  C      1.828053    0.116897   -0.528146
  C      2.033952   -0.041591   -1.905745
  C      3.321288   -0.121863   -2.415216
  C      4.426129   -0.049587   -1.572943
  C      4.224349    0.104271   -0.205610
  P      0.184618    0.227253    0.127136
  H     -0.033444    0.375495    1.483310
  H     -0.902381    0.170822   -0.725028
  H      1.189708   -0.105318   -2.579547
  H      3.460652   -0.246431   -3.481248
  H      5.427371   -0.113468   -1.975789
  H      5.071938    0.165341    0.464136
  H      2.807505    0.314830    1.384283

 Total Charge           Charge          ....    0
 Multiplicity           Mult            ....    1
 Number of Electrons    NEL             ....   58
 Basis Dimension        Dim             ....  122

ORBITAL ENERGIES
----------------

  NO   OCC          E(Eh)            E(eV)
   0   2.0000     -77.732959     -2115.2213
   1   2.0000     -10.482606      -285.2462
   2   2.0000     -10.450119      -284.3622
   3   2.0000     -10.450003      -284.3590
   4   2.0000     -10.449150      -284.3358
   5   2.0000     -10.449056      -284.3333
   6   2.0000     -10.441085      -284.1164
   7   2.0000      -6.813511      -185.4051
   8   2.0000      -4.905359      -133.4816
   9   2.0000      -4.905012      -133.4722
  10   2.0000      -4.902644      -133.4077
  11   2.0000      -0.958466       -26.0812
  12   2.0000      -0.851002       -23.1569
  13   2.0000      -0.839061       -22.8320
  14   2.0000      -0.729916       -19.8620
  15   2.0000      -0.685087       -18.6422
  16   2.0000      -0.657872       -17.9016
  17   2.0000      -0.582601       -15.8534
  18   2.0000      -0.524087       -14.2611
  19   2.0000      -0.521399       -14.1880
  20   2.0000      -0.486317       -13.2334
  21   2.0000      -0.474813       -12.9203
  22   2.0000      -0.473840       -12.8938
  23   2.0000      -0.430497       -11.7144
  24   2.0000      -0.400901       -10.9091
  25   2.0000      -0.399513       -10.8713
  26   2.0000      -0.323502        -8.8029
  27   2.0000      -0.295606        -8.0438
  28   2.0000      -0.216458        -5.8901
  29   0.0000       0.018488         0.5031
  30   0.0000       0.019472         0.5299
  31   0.0000       0.059889         1.6297
  32   0.0000       0.086049         2.3415
  33   0.0000       0.107732         2.9315

MULLIKEN ATOMIC CHARGES
-----------------------
   0 C :   -0.262364
   1 C :   -0.057099
   2 C :   -0.261739
   3 C :   -0.196463
   4 C :   -0.248899
   5 C :   -0.196478
   6 P :   -0.158689
   7 H :    0.148409
   8 H :    0.147111
   9 H :    0.214236
  10 H :    0.219954
  11 H :    0.217984
  12 H :    0.219859
  13 H :    0.214179
Sum of atomic charges:   -0.0000000

LOEWDIN ATOMIC CHARGES
----------------------
   0 C :   -0.156502
   1 C :   -0.160789
   2 C :   -0.156329
   3 C :   -0.123258
   4 C :   -0.158885
   5 C :   -0.123232
   6 P :    0.034753
   7 H :    0.083293
   8 H :    0.082359
   9 H :    0.134446
  10 H :    0.137090
  11 H :    0.135610
  12 H :    0.137070
  13 H :    0.134373

  Mayer bond orders larger than 0.100000
B(  0-C ,  1-C ) :   1.3386 B(  0-C ,  5-C ) :   1.4608 B(  0-C , 13-H ) :   0.9221
B(  1-C ,  2-C ) :   1.3376 B(  1-C ,  6-P ) :   1.0469 B(  2-C ,  3-C ) :   1.4621
B(  2-C ,  9-H ) :   0.9219 B(  3-C ,  4-C ) :   1.4136 B(  3-C , 10-H ) :   0.9188
B(  4-C ,  5-C ) :   1.4145 B(  4-C , 11-H ) :   0.9194 B(  5-C , 12-H ) :   0.9189
B(  6-P ,  7-H ) :   0.9240 B(  6-P ,  8-H ) :   0.9248

Dispersion correction           -0.007915138
FINAL SINGLE POINT ENERGY      -573.215505485239

DIPOLE MOMENT
-------------
                                X             Y             Z
Electronic contribution:     -3.19229       0.20731       1.30114
Nuclear contribution   :      3.00275      -0.19000      -1.22317
                        -----------------------------------------
Total Dipole Moment    :     -0.18953       0.01732       0.07796
                        -----------------------------------------
Magnitude (a.u.)       :      0.20567
Magnitude (Debye)      :      0.52278

Rotational constants in cm-1:     0.185388     0.051394     0.040239
Rotational constants in MHz :  5557.779231  1540.765250  1206.340537

                             ****ORCA TERMINATED NORMALLY****
TOTAL RUN TIME: 0 days 0 hours 1 minutes 14 seconds 716 msec
