                         Program Version 5.0.3 -  RELEASE  -
|  1> ! PBEh-3c def2/J TightSCF DefGrid3
|  2>
|  3> %maxcore 60000
|  4>
|  5> %pal
|  6> nprocs 4
|  7> end
|  8>
|  9> *xyzfile 0 1 r10.xyz
| 10>
| 11>                          ****END OF INPUT****

CARTESIAN COORDINATES (ANGSTROEM)
---------------------------------
  C      0.327244    0.199955    0.283345
  C      1.684042    0.886324    0.473484
  C     -0.532277    1.389350   -0.170961
  C     -0.172804   -0.443437    1.573771
  C      0.422448   -0.869396   -0.813117
  C     -0.885985   -1.631310   -1.011154
  C     -1.360755   -2.249861    0.299949
  C     -1.493120   -1.185807    1.385283
  C      1.819708    1.847037   -0.718053
  C      0.365646    2.181144   -1.136629
  H      2.503982    0.169715    0.543440
  H      1.658547    1.451064    1.409549
  H     -1.478985    1.099533   -0.624948
  H     -0.766315    1.997278    0.707390
  H     -0.271159    0.328096    2.342498
  H      0.583203   -1.152168    1.929682
  H      0.742310   -0.417984   -1.755011
  H      1.203769   -1.581295   -0.525430
  H     -0.751693   -2.404963   -1.769092
  H     -1.656133   -0.955227   -1.390725
  H     -2.309427   -2.768978    0.155060
  H     -0.633204   -3.000159    0.624521
  H     -2.275727   -0.476073    1.104449
  H     -1.804457   -1.641109    2.326879
  H      2.385085    2.738594   -0.453304
  H      2.352768    1.367343   -1.537611
  H      0.159546    3.248863   -1.087662
  H      0.183746    1.873471   -2.165603

 Total Charge           Charge          ....    0
 Multiplicity           Mult            ....    1
 Number of Electrons    NEL             ....   78
 Basis Dimension        Dim             ....  186

ORBITAL ENERGIES
----------------

  NO   OCC          E(Eh)            E(eV)
   0   2.0000     -10.437056      -284.0067
   1   2.0000     -10.424583      -283.6673
   2   2.0000     -10.424181      -283.6564
   3   2.0000     -10.424145      -283.6554
   4   2.0000     -10.423819      -283.6465
   5   2.0000     -10.423628      -283.6413
   6   2.0000     -10.423397      -283.6351
   7   2.0000     -10.422616      -283.6138
   8   2.0000     -10.421926      -283.5950
   9   2.0000     -10.421281      -283.5775
  10   2.0000      -0.949792       -25.8452
  11   2.0000      -0.893135       -24.3034
  12   2.0000      -0.824212       -22.4279
  13   2.0000      -0.812863       -22.1191
  14   2.0000      -0.786263       -21.3953
  15   2.0000      -0.722679       -19.6651
  16   2.0000      -0.679934       -18.5020
  17   2.0000      -0.647039       -17.6068
  18   2.0000      -0.626327       -17.0432
  19   2.0000      -0.583776       -15.8854
  20   2.0000      -0.544798       -14.8247
  21   2.0000      -0.533126       -14.5071
  22   2.0000      -0.513343       -13.9688
  23   2.0000      -0.489822       -13.3287
  24   2.0000      -0.480763       -13.0822
  25   2.0000      -0.473820       -12.8933
  26   2.0000      -0.447616       -12.1802
  27   2.0000      -0.441176       -12.0050
  28   2.0000      -0.424147       -11.5416
  29   2.0000      -0.397876       -10.8267
  30   2.0000      -0.392024       -10.6675
  31   2.0000      -0.387343       -10.5401
  32   2.0000      -0.380605       -10.3568
  33   2.0000      -0.378281       -10.2935
  34   2.0000      -0.367643       -10.0041
  35   2.0000      -0.357544        -9.7293
  36   2.0000      -0.343221        -9.3395
  37   2.0000      -0.330950        -9.0056
  38   2.0000      -0.330840        -9.0026
  39   0.0000       0.116486         3.1697
  40   0.0000       0.146622         3.9898
  41   0.0000       0.153500         4.1770
  42   0.0000       0.157086         4.2745
  43   0.0000       0.176052         4.7906

MULLIKEN ATOMIC CHARGES
-----------------------
   0 C :   -0.092512
   1 C :   -0.397609
   2 C :   -0.411770
   3 C :   -0.397095
   4 C :   -0.400242
   5 C :   -0.422098
   6 C :   -0.418211
   7 C :   -0.423410
   8 C :   -0.440669
   9 C :   -0.438033
  10 H :    0.215094
  11 H :    0.210918
  12 H :    0.220019
  13 H :    0.212102
  14 H :    0.208274
  15 H :    0.204664
  16 H :    0.221994
  17 H :    0.205442
  18 H :    0.219487
  19 H :    0.203923
  20 H :    0.217922
  21 H :    0.199704
  22 H :    0.207651
  23 H :    0.218055
  24 H :    0.221560
  25 H :    0.216954
  26 H :    0.222187
  27 H :    0.215698
Sum of atomic charges:   -0.0000000

LOEWDIN ATOMIC CHARGES
----------------------
   0 C :   -0.098764
   1 C :   -0.223279
   2 C :   -0.228615
   3 C :   -0.222099
   4 C :   -0.221747
   5 C :   -0.237713
   6 C :   -0.238428
   7 C :   -0.237791
   8 C :   -0.244344
   9 C :   -0.243312
  10 H :    0.122870
  11 H :    0.121491
  12 H :    0.122028
  13 H :    0.122198
  14 H :    0.121114
  15 H :    0.120351
  16 H :    0.124894
  17 H :    0.120672
  18 H :    0.124007
  19 H :    0.117818
  20 H :    0.122560
  21 H :    0.117755
  22 H :    0.119696
  23 H :    0.123221
  24 H :    0.125211
  25 H :    0.122656
  26 H :    0.125491
  27 H :    0.122056

  Mayer bond orders larger than 0.100000
B(  0-C ,  1-C ) :   0.9743 B(  0-C ,  2-C ) :   0.9566 B(  0-C ,  3-C ) :   0.9828
B(  0-C ,  4-C ) :   0.9549 B(  1-C ,  8-C ) :   0.9738 B(  1-C , 10-H ) :   0.9285
B(  1-C , 11-H ) :   0.9258 B(  2-C ,  9-C ) :   0.9742 B(  2-C , 12-H ) :   0.9241
B(  2-C , 13-H ) :   0.9245 B(  3-C ,  7-C ) :   0.9870 B(  3-C , 14-H ) :   0.9242
B(  3-C , 15-H ) :   0.9205 B(  4-C ,  5-C ) :   0.9876 B(  4-C , 16-H ) :   0.9215
B(  4-C , 17-H ) :   0.9190 B(  5-C ,  6-C ) :   0.9876 B(  5-C , 18-H ) :   0.9255
B(  5-C , 19-H ) :   0.9148 B(  6-C ,  7-C ) :   0.9859 B(  6-C , 20-H ) :   0.9270
B(  6-C , 21-H ) :   0.9186 B(  7-C , 22-H ) :   0.9161 B(  7-C , 23-H ) :   0.9260
B(  8-C ,  9-C ) :   0.9622 B(  8-C , 24-H ) :   0.9327 B(  8-C , 25-H ) :   0.9299
B(  9-C , 26-H ) :   0.9327 B(  9-C , 27-H ) :   0.9302

Dispersion correction           -0.017686353
FINAL SINGLE POINT ENERGY      -391.074369788786

DIPOLE MOMENT
-------------
                                X             Y             Z
Electronic contribution:      0.38802       0.27112       0.37582
Nuclear contribution   :     -0.39743      -0.28298      -0.37865
                        -----------------------------------------
Total Dipole Moment    :     -0.00941      -0.01186      -0.00284
                        -----------------------------------------
Magnitude (a.u.)       :      0.01540
Magnitude (Debye)      :      0.03915

Rotational constants in cm-1:     0.084381     0.032663     0.030456
Rotational constants in MHz :  2529.683074   979.225824   913.060067

                             ****ORCA TERMINATED NORMALLY****
TOTAL RUN TIME: 0 days 0 hours 2 minutes 23 seconds 501 msec
