                         Program Version 5.0.3 -  RELEASE  -
|  1> ! PBEh-3c def2/J TightSCF DefGrid3
|  2>
|  3> %maxcore 60000
|  4>
|  5> %pal
|  6> nprocs 4
|  7> end
|  8>
|  9> *xyzfile 0 1 229.xyz
| 10>
| 11>                          ****END OF INPUT****

CARTESIAN COORDINATES (ANGSTROEM)
---------------------------------
  C      1.077760    1.086900    1.963490
  C      0.138390   -0.027100    1.509130
  N      0.056070   -0.035750   -0.006170
  H      1.014480   -0.036190   -0.386150
  H     -0.426920   -0.872770   -0.365200
  H     -0.423570    0.794100   -0.386620
  H     -0.875270    0.090690    1.911010
  H      0.529290   -1.011240    1.782170
  H      1.134860    1.082040    3.058840
  H      2.085320    0.934930    1.556820
  H      0.716620    2.078530    1.652560
  O      3.972980   -2.022590    0.293570
  Cl     2.851920   -1.848940   -0.607350
  O      3.116910   -2.404910   -1.930700
  O      1.608690   -2.450770   -0.040850
  O      2.575940   -0.336420   -0.770920

 Total Charge           Charge          ....    0
 Multiplicity           Mult            ....    1
 Number of Electrons    NEL             ....   76
 Basis Dimension        Dim             ....  139

ORBITAL ENERGIES
----------------

  NO   OCC          E(Eh)            E(eV)
   0   2.0000    -102.662314     -2793.5836
   1   2.0000     -19.483292      -530.1673
   2   2.0000     -19.481244      -530.1116
   3   2.0000     -19.481139      -530.1088
   4   2.0000     -19.475456      -529.9541
   5   2.0000     -14.779111      -402.1601
   6   2.0000     -10.543844      -286.9126
   7   2.0000     -10.477769      -285.1146
   8   2.0000     -10.072999      -274.1002
   9   2.0000      -7.760452      -211.1726
  10   2.0000      -7.760383      -211.1708
  11   2.0000      -7.760131      -211.1639
  12   2.0000      -1.362437       -37.0738
  13   2.0000      -1.132135       -30.8070
  14   2.0000      -1.125531       -30.6273
  15   2.0000      -1.112269       -30.2664
  16   2.0000      -1.091295       -29.6956
  17   2.0000      -0.896174       -24.3861
  18   2.0000      -0.761384       -20.7183
  19   2.0000      -0.716876       -19.5072
  20   2.0000      -0.676750       -18.4153
  21   2.0000      -0.672453       -18.2984
  22   2.0000      -0.599558       -16.3148
  23   2.0000      -0.585985       -15.9455
  24   2.0000      -0.580307       -15.7910
  25   2.0000      -0.573121       -15.5954
  26   2.0000      -0.545535       -14.8448
  27   2.0000      -0.487675       -13.2703
  28   2.0000      -0.477749       -13.0002
  29   2.0000      -0.456149       -12.4124
  30   2.0000      -0.412183       -11.2161
  31   2.0000      -0.410174       -11.1614
  32   2.0000      -0.390257       -10.6194
  33   2.0000      -0.387184       -10.5358
  34   2.0000      -0.377899       -10.2832
  35   2.0000      -0.320762        -8.7284
  36   2.0000      -0.313058        -8.5188
  37   2.0000      -0.311198        -8.4681
  38   0.0000       0.047371         1.2890
  39   0.0000       0.094942         2.5835
  40   0.0000       0.110310         3.0017
  41   0.0000       0.118861         3.2344
  42   0.0000       0.141970         3.8632

MULLIKEN ATOMIC CHARGES
-----------------------
   0 C :   -0.667132
   1 C :   -0.331939
   2 N :   -0.809796
   3 H :    0.470617
   4 H :    0.435751
   5 H :    0.402341
   6 H :    0.250452
   7 H :    0.313130
   8 H :    0.254649
   9 H :    0.286552
  10 H :    0.216128
  11 O :   -0.580568
  12 Cl:    1.701763
  13 O :   -0.586891
  14 O :   -0.671422
  15 O :   -0.683636
Sum of atomic charges:   -0.0000000

LOEWDIN ATOMIC CHARGES
----------------------
   0 C :   -0.375832
   1 C :   -0.151117
   2 N :   -0.251652
   3 H :    0.286956
   4 H :    0.296525
   5 H :    0.277890
   6 H :    0.134969
   7 H :    0.167385
   8 H :    0.151826
   9 H :    0.162651
  10 H :    0.129714
  11 O :   -0.578393
  12 Cl:    1.686261
  13 O :   -0.587045
  14 O :   -0.666070
  15 O :   -0.684068

  Mayer bond orders larger than 0.100000
B(  0-C ,  1-C ) :   0.9849 B(  0-C ,  8-H ) :   0.9126 B(  0-C ,  9-H ) :   0.8859
B(  0-C , 10-H ) :   0.9224 B(  1-C ,  2-N ) :   0.8575 B(  1-C ,  6-H ) :   0.9051
B(  1-C ,  7-H ) :   0.8662 B(  2-N ,  3-H ) :   0.5703 B(  2-N ,  4-H ) :   0.7850
B(  2-N ,  5-H ) :   0.8089 B(  3-H , 15-O ) :   0.2376 B( 11-O , 12-Cl) :   1.5300
B( 11-O , 13-O ) :   0.1024 B( 12-Cl, 13-O ) :   1.5159 B( 12-Cl, 14-O ) :   1.3745
B( 12-Cl, 15-O ) :   1.1880

Dispersion correction           -0.007833864
FINAL SINGLE POINT ENERGY      -895.092050945075

DIPOLE MOMENT
-------------
                                X             Y             Z
Electronic contribution:      9.33253      -9.93107      -8.23876
Nuclear contribution   :    -13.00397      12.33463       9.49313
                        -----------------------------------------
Total Dipole Moment    :     -3.67144       2.40356       1.25437
                        -----------------------------------------
Magnitude (a.u.)       :      4.56398
Magnitude (Debye)      :     11.60072

Rotational constants in cm-1:     0.109043     0.031169     0.029264
Rotational constants in MHz :  3269.035936   934.418637   877.311344

                             ****ORCA TERMINATED NORMALLY****
TOTAL RUN TIME: 0 days 0 hours 1 minutes 32 seconds 719 msec
