                         Program Version 5.0.3 -  RELEASE  -
|  1> ! PBEh-3c def2/J TightSCF DefGrid3
|  2>
|  3> %maxcore 60000
|  4>
|  5> %pal
|  6> nprocs 4
|  7> end
|  8>
|  9> *xyzfile 0 1 5.xyz
| 10>
| 11>                          ****END OF INPUT****

CARTESIAN COORDINATES (ANGSTROEM)
---------------------------------
  N      0.880622    2.794783    0.139674
  C      1.769016    2.113340   -0.660361
  C      1.189767    0.950594   -1.118102
  C     -0.131302    0.914914   -0.562370
  C     -1.196276   -0.008594   -0.666775
  C     -2.365305    0.252431    0.032432
  C     -2.495860    1.414340    0.833389
  C     -1.470784    2.335484    0.935401
  C     -0.287550    2.076694    0.229330
  H      1.083148    3.644458    0.633569
  H      2.763578    2.495073   -0.823480
  H     -1.093952   -0.885534   -1.289243
  H     -3.429372    1.562355    1.358208
  H     -1.586248    3.221783    1.545919
  O     -3.475656   -0.552503    0.026055
  C     -3.399626   -1.719412   -0.771995
  H     -3.235170   -1.472834   -1.823506
  H     -2.602801   -2.384675   -0.429267
  H     -4.356632   -2.220941   -0.664044
  C      1.864547   -0.147415   -1.880212
  C      2.619729   -1.103311   -0.936438
  N      1.789039   -1.582026    0.154820
  C      1.781511   -0.949526    1.373536
  C      0.621946   -1.324125    2.272760
  H      1.122376   -0.710496   -2.452789
  H      2.575904    0.257061   -2.604126
  H      3.011844   -1.955193   -1.495198
  H      3.454296   -0.581611   -0.473416
  H      0.959290   -2.098280   -0.082816
  O      2.638564   -0.147449    1.712373
  H     -0.180530   -0.601435    2.116335
  H      0.235793   -2.320801    2.062258
  H      0.946093   -1.267156    3.308076

 Total Charge           Charge          ....    0
 Multiplicity           Mult            ....    1
 Number of Electrons    NEL             ....  124
 Basis Dimension        Dim             ....  287

ORBITAL ENERGIES
----------------

  NO   OCC          E(Eh)            E(eV)
   0   2.0000     -19.522417      -531.2320
   1   2.0000     -19.441290      -529.0244
   2   2.0000     -14.680699      -399.4821
   3   2.0000     -14.647948      -398.5909
   4   2.0000     -10.534518      -286.6588
   5   2.0000     -10.502219      -285.7799
   6   2.0000     -10.490404      -285.4584
   7   2.0000     -10.473514      -284.9988
   8   2.0000     -10.473106      -284.9877
   9   2.0000     -10.467329      -284.8305
  10   2.0000     -10.452442      -284.4254
  11   2.0000     -10.444916      -284.2206
  12   2.0000     -10.444199      -284.2011
  13   2.0000     -10.443408      -284.1796
  14   2.0000     -10.440006      -284.0870
  15   2.0000     -10.435395      -283.9615
  16   2.0000     -10.426346      -283.7153
  17   2.0000      -1.170595       -31.8535
  18   2.0000      -1.126370       -30.6501
  19   2.0000      -1.083371       -29.4800
  20   2.0000      -1.010963       -27.5097
  21   2.0000      -0.936980       -25.4965
  22   2.0000      -0.894694       -24.3459
  23   2.0000      -0.846744       -23.0411
  24   2.0000      -0.833196       -22.6724
  25   2.0000      -0.814920       -22.1751
  26   2.0000      -0.792763       -21.5722
  27   2.0000      -0.776692       -21.1349
  28   2.0000      -0.718524       -19.5520
  29   2.0000      -0.690344       -18.7852
  30   2.0000      -0.667756       -18.1706
  31   2.0000      -0.641710       -17.4618
  32   2.0000      -0.631550       -17.1854
  33   2.0000      -0.609884       -16.5958
  34   2.0000      -0.578821       -15.7505
  35   2.0000      -0.556337       -15.1387
  36   2.0000      -0.550952       -14.9922
  37   2.0000      -0.532964       -14.5027
  38   2.0000      -0.530281       -14.4297
  39   2.0000      -0.523033       -14.2324
  40   2.0000      -0.516481       -14.0541
  41   2.0000      -0.502164       -13.6646
  42   2.0000      -0.487503       -13.2656
  43   2.0000      -0.480096       -13.0641
  44   2.0000      -0.473764       -12.8918
  45   2.0000      -0.465390       -12.6639
  46   2.0000      -0.455550       -12.3961
  47   2.0000      -0.451101       -12.2751
  48   2.0000      -0.443800       -12.0764
  49   2.0000      -0.442489       -12.0407
  50   2.0000      -0.426201       -11.5975
  51   2.0000      -0.416641       -11.3374
  52   2.0000      -0.407158       -11.0793
  53   2.0000      -0.398843       -10.8531
  54   2.0000      -0.392222       -10.6729
  55   2.0000      -0.378275       -10.2934
  56   2.0000      -0.350239        -9.5305
  57   2.0000      -0.319324        -8.6893
  58   2.0000      -0.298082        -8.1112
  59   2.0000      -0.290099        -7.8940
  60   2.0000      -0.240739        -6.5508
  61   2.0000      -0.235685        -6.4133
  62   0.0000       0.007342         0.1998
  63   0.0000       0.059172         1.6101
  64   0.0000       0.074899         2.0381
  65   0.0000       0.090193         2.4543
  66   0.0000       0.114676         3.1205

MULLIKEN ATOMIC CHARGES
-----------------------
   0 N :   -0.695099
   1 C :   -0.019110
   2 C :    0.014862
   3 C :    0.072681
   4 C :   -0.491778
   5 C :    0.386286
   6 C :   -0.323778
   7 C :   -0.252650
   8 C :    0.353831
   9 H :    0.359959
  10 H :    0.238622
  11 H :    0.209926
  12 H :    0.234529
  13 H :    0.216005
  14 O :   -0.465317
  15 C :   -0.400593
  16 H :    0.206559
  17 H :    0.192722
  18 H :    0.242217
  19 C :   -0.538057
  20 C :   -0.277946
  21 N :   -0.615910
  22 C :    0.530808
  23 C :   -0.761127
  24 H :    0.214684
  25 H :    0.233316
  26 H :    0.220137
  27 H :    0.258156
  28 H :    0.344701
  29 O :   -0.426721
  30 H :    0.274234
  31 H :    0.207762
  32 H :    0.256088
Sum of atomic charges:    0.0000000

LOEWDIN ATOMIC CHARGES
----------------------
   0 N :   -0.147738
   1 C :   -0.062293
   2 C :   -0.110847
   3 C :   -0.052622
   4 C :   -0.208261
   5 C :    0.055505
   6 C :   -0.164571
   7 C :   -0.143633
   8 C :    0.001889
   9 H :    0.263087
  10 H :    0.136670
  11 H :    0.133392
  12 H :    0.146127
  13 H :    0.138543
  14 O :   -0.191316
  15 C :   -0.179590
  16 H :    0.113511
  17 H :    0.107084
  18 H :    0.130671
  19 C :   -0.235699
  20 C :   -0.146663
  21 N :   -0.247293
  22 C :    0.113393
  23 C :   -0.392225
  24 H :    0.125422
  25 H :    0.137675
  26 H :    0.118914
  27 H :    0.148410
  28 H :    0.246022
  29 O :   -0.276579
  30 H :    0.164121
  31 H :    0.127146
  32 H :    0.151751

  Mayer bond orders larger than 0.100000
B(  0-N ,  1-C ) :   1.1495 B(  0-N ,  8-C ) :   1.0098 B(  0-N ,  9-H ) :   0.8333
B(  1-C ,  2-C ) :   1.5410 B(  1-C , 10-H ) :   0.9123 B(  2-C ,  3-C ) :   1.2763
B(  2-C , 19-C ) :   0.9527 B(  3-C ,  4-C ) :   1.2484 B(  3-C ,  8-C ) :   1.2502
B(  4-C ,  5-C ) :   1.4230 B(  4-C , 11-H ) :   0.9161 B(  5-C ,  6-C ) :   1.2983
B(  5-C , 14-O ) :   1.0236 B(  6-C ,  7-C ) :   1.5252 B(  6-C , 12-H ) :   0.9085
B(  7-C ,  8-C ) :   1.2732 B(  7-C , 13-H ) :   0.9197 B( 14-O , 15-C ) :   0.9609
B( 15-C , 16-H ) :   0.9060 B( 15-C , 17-H ) :   0.9091 B( 15-C , 18-H ) :   0.9228
B( 19-C , 20-C ) :   0.9602 B( 19-C , 24-H ) :   0.9239 B( 19-C , 25-H ) :   0.9208
B( 20-C , 21-N ) :   0.9588 B( 20-C , 26-H ) :   0.9177 B( 20-C , 27-H ) :   0.8934
B( 21-N , 22-C ) :   1.1167 B( 21-N , 28-H ) :   0.8288 B( 22-C , 23-C ) :   0.9323
B( 22-C , 29-O ) :   2.0021 B( 23-C , 30-H ) :   0.8943 B( 23-C , 31-H ) :   0.9223
B( 23-C , 32-H ) :   0.9164

Dispersion correction           -0.023532846
FINAL SINGLE POINT ENERGY      -763.328765013276

DIPOLE MOMENT
-------------
                                X             Y             Z
Electronic contribution:      0.38938       8.55181       1.57913
Nuclear contribution   :     -0.67546      -8.76081      -2.29857
                        -----------------------------------------
Total Dipole Moment    :     -0.28608      -0.20900      -0.71944
                        -----------------------------------------
Magnitude (a.u.)       :      0.80194
Magnitude (Debye)      :      2.03838

Rotational constants in cm-1:     0.021545     0.013122     0.011265
Rotational constants in MHz :   645.908704   393.384263   337.719526

                             ****ORCA TERMINATED NORMALLY****
TOTAL RUN TIME: 0 days 0 hours 4 minutes 38 seconds 196 msec
