                         Program Version 5.0.3 -  RELEASE  -
|  1> ! PBEh-3c def2/J TightSCF DefGrid3
|  2>
|  3> %maxcore 60000
|  4>
|  5> %pal
|  6> nprocs 4
|  7> end
|  8>
|  9> *xyzfile 0 1 28_CH3I-benAB.xyz
| 10>
| 11>                          ****END OF INPUT****

CARTESIAN COORDINATES (ANGSTROEM)
---------------------------------
  H      0.022107    0.337720    0.044305
  C      0.026919    0.297157    1.127793
  C      1.232420    0.374285    1.823206
  C      1.238505    0.318304    3.215636
  C      0.039447    0.184541    3.913255
  C     -1.166220    0.107113    3.218629
  C     -1.172980    0.163913    1.825515
  H      2.165532    0.474316    1.280310
  H      2.176629    0.375131    3.756175
  H      0.044717    0.137041    4.996381
  H     -2.098862   -0.000563    3.760947
  H     -2.110703    0.101605    1.284610
  I     -0.205324   -3.368518    1.883769
  C      0.069197   -5.471929    1.872749
  H      0.073601   -5.805636    0.839826
  H      1.018049   -5.689861    2.352917
  H     -0.752874   -5.922025    2.420413

 Total Charge           Charge          ....    0
 Multiplicity           Mult            ....    1
 Number of Electrons    NEL             ....   76
 Basis Dimension        Dim             ....  149

ORBITAL ENERGIES
----------------

  NO   OCC          E(Eh)            E(eV)
   0   2.0000     -10.476384      -285.0769
   1   2.0000     -10.449358      -284.3415
   2   2.0000     -10.448849      -284.3276
   3   2.0000     -10.448569      -284.3200
   4   2.0000     -10.448271      -284.3119
   5   2.0000     -10.447913      -284.3022
   6   2.0000     -10.447574      -284.2929
   7   2.0000      -7.075954      -192.5465
   8   2.0000      -5.059318      -137.6710
   9   2.0000      -5.042817      -137.2220
  10   2.0000      -5.042814      -137.2219
  11   2.0000      -2.013207       -54.7822
  12   2.0000      -2.007972       -54.6397
  13   2.0000      -2.007970       -54.6396
  14   2.0000      -1.993629       -54.2494
  15   2.0000      -1.993627       -54.2494
  16   2.0000      -0.952312       -25.9137
  17   2.0000      -0.835222       -22.7275
  18   2.0000      -0.834988       -22.7212
  19   2.0000      -0.831909       -22.6374
  20   2.0000      -0.702500       -19.1160
  21   2.0000      -0.678062       -18.4510
  22   2.0000      -0.678016       -18.4497
  23   2.0000      -0.590873       -16.0785
  24   2.0000      -0.524052       -14.2602
  25   2.0000      -0.508160       -13.8277
  26   2.0000      -0.491748       -13.3811
  27   2.0000      -0.491716       -13.3803
  28   2.0000      -0.480817       -13.0837
  29   2.0000      -0.480749       -13.0819
  30   2.0000      -0.427182       -11.6242
  31   2.0000      -0.397378       -10.8132
  32   2.0000      -0.397292       -10.8109
  33   2.0000      -0.389482       -10.5984
  34   2.0000      -0.299138        -8.1400
  35   2.0000      -0.296847        -8.0776
  36   2.0000      -0.282673        -7.6919
  37   2.0000      -0.280565        -7.6346
  38   0.0000       0.013951         0.3796
  39   0.0000       0.019029         0.5178
  40   0.0000       0.021385         0.5819
  41   0.0000       0.140832         3.8322
  42   0.0000       0.162134         4.4119

MULLIKEN ATOMIC CHARGES
-----------------------
   0 H :    0.224190
   1 C :   -0.225581
   2 C :   -0.216056
   3 C :   -0.216273
   4 C :   -0.215822
   5 C :   -0.220030
   6 C :   -0.234140
   7 H :    0.221361
   8 H :    0.220448
   9 H :    0.220836
  10 H :    0.222850
  11 H :    0.225922
  12 I :    0.014590
  13 C :   -0.817207
  14 H :    0.264835
  15 H :    0.265191
  16 H :    0.264886
Sum of atomic charges:    0.0000000

LOEWDIN ATOMIC CHARGES
----------------------
   0 H :    0.137772
   1 C :   -0.138674
   2 C :   -0.134588
   3 C :   -0.133370
   4 C :   -0.134047
   5 C :   -0.136354
   6 C :   -0.142314
   7 H :    0.136879
   8 H :    0.136453
   9 H :    0.136643
  10 H :    0.137413
  11 H :    0.138137
  12 I :    0.057024
  13 C :   -0.495524
  14 H :    0.144783
  15 H :    0.144966
  16 H :    0.144803

  Mayer bond orders larger than 0.100000
B(  0-H ,  1-C ) :   0.9188 B(  1-C ,  2-C ) :   1.4235 B(  1-C ,  6-C ) :   1.4211
B(  2-C ,  3-C ) :   1.4255 B(  2-C ,  7-H ) :   0.9198 B(  3-C ,  4-C ) :   1.4245
B(  3-C ,  8-H ) :   0.9200 B(  4-C ,  5-C ) :   1.4253 B(  4-C ,  9-H ) :   0.9199
B(  5-C ,  6-C ) :   1.4213 B(  5-C , 10-H ) :   0.9194 B(  6-C , 11-H ) :   0.9181
B( 12-I , 13-C ) :   1.0177 B( 13-C , 14-H ) :   0.8978 B( 13-C , 15-H ) :   0.8976
B( 13-C , 16-H ) :   0.8978

Dispersion correction           -0.009056595
FINAL SINGLE POINT ENERGY      -569.291289297705

DIPOLE MOMENT
-------------
                                X             Y             Z
Electronic contribution:     -8.79711     -86.53809     -17.95537
Nuclear contribution   :      8.90381      86.06419      17.99193
                        -----------------------------------------
Total Dipole Moment    :      0.10670      -0.47390       0.03656
                        -----------------------------------------
Magnitude (a.u.)       :      0.48714
Magnitude (Debye)      :      1.23821

Rotational constants in cm-1:     0.093164     0.018331     0.018320
Rotational constants in MHz :  2792.974156   549.555956   549.226656

                             ****ORCA TERMINATED NORMALLY****
TOTAL RUN TIME: 0 days 0 hours 2 minutes 2 seconds 336 msec
