                         Program Version 5.0.3 -  RELEASE  -
|  1> ! PBEh-3c def2/J TightSCF DefGrid3
|  2>
|  3> %maxcore 60000
|  4>
|  5> %pal
|  6> nprocs 4
|  7> end
|  8>
|  9> *xyzfile 0 2 P20.xyz
| 10>
| 11>                          ****END OF INPUT****

CARTESIAN COORDINATES (ANGSTROEM)
---------------------------------
  H      0.551688    0.153298   -0.959370
  C      0.116809   -0.088854    0.000000
  F     -1.220184   -0.217742    0.000000
  H      0.551688    0.153298    0.959370

 Total Charge           Charge          ....    0
 Multiplicity           Mult            ....    2
 Number of Electrons    NEL             ....   17
 Basis Dimension        Dim             ....   34

ORBITAL ENERGIES
----------------
                 SPIN UP ORBITALS
  NO   OCC          E(Eh)            E(eV)
   0   1.0000     -25.105753      -683.1623
   1   1.0000     -10.524115      -286.3757
   2   1.0000      -1.345833       -36.6220
   3   1.0000      -0.773557       -21.0496
   4   1.0000      -0.581857       -15.8331
   5   1.0000      -0.574019       -15.6198
   6   1.0000      -0.544391       -14.8136
   7   1.0000      -0.432202       -11.7608
   8   1.0000      -0.270659        -7.3650
   9   0.0000       0.160354         4.3635
  10   0.0000       0.171101         4.6559
  11   0.0000       0.252979         6.8839
  12   0.0000       0.483587        13.1591
  13   0.0000       0.529851        14.4180

                 SPIN DOWN ORBITALS
  NO   OCC          E(Eh)            E(eV)
   0   1.0000     -25.100816      -683.0279
   1   1.0000     -10.507011      -285.9103
   2   1.0000      -1.333214       -36.2786
   3   1.0000      -0.731917       -19.9165
   4   1.0000      -0.572183       -15.5699
   5   1.0000      -0.561726       -15.2853
   6   1.0000      -0.497814       -13.5462
   7   1.0000      -0.425599       -11.5811
   8   0.0000      -0.005983        -0.1628
   9   0.0000       0.175070         4.7639
  10   0.0000       0.194587         5.2950
  11   0.0000       0.263125         7.1600
  12   0.0000       0.541559        14.7366

MULLIKEN ATOMIC CHARGES AND SPIN POPULATIONS
--------------------------------------------
   0 H :    0.189402   -0.054203
   1 C :   -0.084534    1.038255
   2 F :   -0.294270    0.070150
   3 H :    0.189402   -0.054203
Sum of atomic charges         :    0.0000000

LOEWDIN ATOMIC CHARGES AND SPIN POPULATIONS
-------------------------------------------
   0 H :    0.114207   -0.026786
   1 C :   -0.045578    0.928806
   2 F :   -0.182836    0.124767
   3 H :    0.114207   -0.026786

  Mayer bond orders larger than 0.100000
B(  0-H ,  1-C ) :   0.9040 B(  1-C ,  2-F ) :   1.0594 B(  1-C ,  3-H ) :   0.9040

Dispersion correction           -0.000522121
FINAL SINGLE POINT ENERGY      -138.788726295365

DIPOLE MOMENT
-------------
                                X             Y             Z
Electronic contribution:     -2.23242      -0.43762       0.00000
Nuclear contribution   :      2.76007       0.63017       0.00000
                        -----------------------------------------
Total Dipole Moment    :      0.52764       0.19255       0.00000
                        -----------------------------------------
Magnitude (a.u.)       :      0.56168
Magnitude (Debye)      :      1.42767

Rotational constants in cm-1:     8.796407     1.024898     0.924076
Rotational constants in MHz : 263709.650444 30725.681437 27703.104994

                             ****ORCA TERMINATED NORMALLY****
TOTAL RUN TIME: 0 days 0 hours 2 minutes 2 seconds 255 msec
