                         Program Version 5.0.3 -  RELEASE  -
|  1> ! PBEh-3c def2/J TightSCF DefGrid3
|  2>
|  3> %maxcore 60000
|  4>
|  5> %pal
|  6> nprocs 4
|  7> end
|  8>
|  9> *xyzfile -1 1 fch3fts.xyz
| 10>
| 11>                          ****END OF INPUT****

CARTESIAN COORDINATES (ANGSTROEM)
---------------------------------
  F      1.823559    0.000519    0.000109
  C      0.000144   -0.000090   -0.000182
  H      0.000064   -0.304889    1.025069
  H      0.000287    1.040178   -0.248932
  H     -0.000095   -0.736259   -0.776176
  F     -1.823959    0.000540    0.000113

 Total Charge           Charge          ....   -1
 Multiplicity           Mult            ....    1
 Number of Electrons    NEL             ....   28
 Basis Dimension        Dim             ....   51

ORBITAL ENERGIES
----------------

  NO   OCC          E(Eh)            E(eV)
   0   2.0000     -24.699182      -672.0989
   1   2.0000     -24.698958      -672.0928
   2   2.0000     -10.283611      -279.8313
   3   2.0000      -0.894309       -24.3354
   4   2.0000      -0.889085       -24.1932
   5   2.0000      -0.538925       -14.6649
   6   2.0000      -0.285977        -7.7818
   7   2.0000      -0.285836        -7.7780
   8   2.0000      -0.186887        -5.0855
   9   2.0000      -0.114896        -3.1265
  10   2.0000      -0.114892        -3.1264
  11   2.0000      -0.096444        -2.6244
  12   2.0000      -0.096427        -2.6239
  13   2.0000      -0.073682        -2.0050
  14   0.0000       0.339522         9.2389
  15   0.0000       0.372096        10.1252
  16   0.0000       0.425587        11.5808
  17   0.0000       0.425692        11.5837
  18   0.0000       0.718841        19.5607

MULLIKEN ATOMIC CHARGES
-----------------------
   0 F :   -0.672088
   1 C :   -0.217371
   2 H :    0.187278
   3 H :    0.187330
   4 H :    0.187180
   5 F :   -0.672328
Sum of atomic charges:   -1.0000000

LOEWDIN ATOMIC CHARGES
----------------------
   0 F :   -0.627229
   1 C :   -0.078067
   2 H :    0.110946
   3 H :    0.110992
   4 H :    0.110917
   5 F :   -0.627559

  Mayer bond orders larger than 0.100000
B(  0-F ,  1-C ) :   0.4998 B(  1-C ,  2-H ) :   0.9370 B(  1-C ,  3-H ) :   0.9370
B(  1-C ,  4-H ) :   0.9370 B(  1-C ,  5-F ) :   0.4994

Dispersion correction           -0.001109188
FINAL SINGLE POINT ENERGY      -239.062619585303

DIPOLE MOMENT
-------------
                                X             Y             Z
Electronic contribution:      0.00099       0.00159       0.00011
Nuclear contribution   :      0.00071      -0.00222      -0.00028
                        -----------------------------------------
Total Dipole Moment    :      0.00170      -0.00063      -0.00017
                        -----------------------------------------
Magnitude (a.u.)       :      0.00182
Magnitude (Debye)      :      0.00464

Rotational constants in cm-1:     4.872642     0.131590     0.131588
Rotational constants in MHz : 146078.146798  3944.970672  3944.914005

                             ****ORCA TERMINATED NORMALLY****
TOTAL RUN TIME: 0 days 0 hours 0 minutes 17 seconds 71 msec
