                         Program Version 5.0.3 -  RELEASE  -
|  1> ! PBEh-3c def2/J TightSCF DefGrid3
|  2>
|  3> %maxcore 60000
|  4>
|  5> %pal
|  6> nprocs 4
|  7> end
|  8>
|  9> *xyzfile 0 1 60.xyz
| 10>
| 11>                          ****END OF INPUT****

CARTESIAN COORDINATES (ANGSTROEM)
---------------------------------
  C     -2.459218    0.916788   -0.670798
  H     -1.741270    1.550721   -1.134405
  C     -3.234931    0.163960   -0.120222
  H     -3.929359   -0.484782    0.354184
  C      0.985794    0.047854   -0.034260
  O      0.731615    1.003956   -0.733097
  O      0.037889   -0.726486    0.533427
  H     -0.823110   -0.359187    0.265656
  C      2.361429   -0.433596    0.315891
  H      3.099815    0.203954   -0.154959
  H      2.487639   -0.421741    1.395927
  H      2.483706   -1.461440   -0.017343

 Total Charge           Charge          ....    0
 Multiplicity           Mult            ....    1
 Number of Electrons    NEL             ....   46
 Basis Dimension        Dim             ....  102

ORBITAL ENERGIES
----------------

  NO   OCC          E(Eh)            E(eV)
   0   2.0000     -19.533170      -531.5246
   1   2.0000     -19.484430      -530.1983
   2   2.0000     -10.582935      -287.9763
   3   2.0000     -10.472815      -284.9798
   4   2.0000     -10.469907      -284.9006
   5   2.0000     -10.445942      -284.2485
   6   2.0000      -1.214178       -33.0395
   7   2.0000      -1.119937       -30.4750
   8   2.0000      -0.857289       -23.3280
   9   2.0000      -0.845815       -23.0158
  10   2.0000      -0.679255       -18.4835
  11   2.0000      -0.648867       -17.6566
  12   2.0000      -0.571513       -15.5517
  13   2.0000      -0.558081       -15.1862
  14   2.0000      -0.543413       -14.7870
  15   2.0000      -0.530720       -14.4416
  16   2.0000      -0.468388       -12.7455
  17   2.0000      -0.453360       -12.3365
  18   2.0000      -0.447844       -12.1865
  19   2.0000      -0.372825       -10.1451
  20   2.0000      -0.357193        -9.7197
  21   2.0000      -0.351612        -9.5678
  22   2.0000      -0.332426        -9.0458
  23   0.0000       0.047379         1.2893
  24   0.0000       0.050980         1.3872
  25   0.0000       0.057283         1.5587
  26   0.0000       0.152937         4.1616
  27   0.0000       0.155927         4.2430

MULLIKEN ATOMIC CHARGES
-----------------------
   0 C :   -0.259582
   1 H :    0.287615
   2 C :   -0.264745
   3 H :    0.247521
   4 C :    0.508839
   5 O :   -0.411422
   6 O :   -0.597048
   7 H :    0.464198
   8 C :   -0.738432
   9 H :    0.255269
  10 H :    0.253916
  11 H :    0.253871
Sum of atomic charges:   -0.0000000

LOEWDIN ATOMIC CHARGES
----------------------
   0 C :   -0.165523
   1 H :    0.183128
   2 C :   -0.174932
   3 H :    0.167751
   4 C :    0.134649
   5 O :   -0.245813
   6 O :   -0.306358
   7 H :    0.332542
   8 C :   -0.390096
   9 H :    0.151025
  10 H :    0.156846
  11 H :    0.156780

  Mayer bond orders larger than 0.100000
B(  0-C ,  1-H ) :   0.8918 B(  0-C ,  2-C ) :   2.7991 B(  2-C ,  3-H ) :   0.9254
B(  4-C ,  5-O ) :   2.0382 B(  4-C ,  6-O ) :   1.1703 B(  4-C ,  8-C ) :   0.9397
B(  6-O ,  7-H ) :   0.7050 B(  8-C ,  9-H ) :   0.9181 B(  8-C , 10-H ) :   0.9056
B(  8-C , 11-H ) :   0.9057

Dispersion correction           -0.004191585
FINAL SINGLE POINT ENERGY      -305.752768746336

DIPOLE MOMENT
-------------
                                X             Y             Z
Electronic contribution:     -2.49313       1.19276      -0.86812
Nuclear contribution   :      2.43039      -1.68430       1.22741
                        -----------------------------------------
Total Dipole Moment    :     -0.06273      -0.49154       0.35929
                        -----------------------------------------
Magnitude (a.u.)       :      0.61207
Magnitude (Debye)      :      1.55577

Rotational constants in cm-1:     0.301978     0.050509     0.043619
Rotational constants in MHz :  9053.073528  1514.224352  1307.661821

                             ****ORCA TERMINATED NORMALLY****
TOTAL RUN TIME: 0 days 0 hours 1 minutes 18 seconds 796 msec
