                         Program Version 5.0.3 -  RELEASE  -
|  1> ! PBEh-3c def2/J TightSCF DefGrid3
|  2>
|  3> %maxcore 60000
|  4>
|  5> %pal
|  6> nprocs 4
|  7> end
|  8>
|  9> *xyzfile 0 1 c2h2.xyz
| 10>
| 11>                          ****END OF INPUT****

CARTESIAN COORDINATES (ANGSTROEM)
---------------------------------
  C      0.000000    0.000000    0.599564
  C      0.000000    0.000000   -0.599564
  H      0.000000    0.000000    1.663939
  H      0.000000    0.000000   -1.663939

 Total Charge           Charge          ....    0
 Multiplicity           Mult            ....    1
 Number of Electrons    NEL             ....   14
 Basis Dimension        Dim             ....   34

ORBITAL ENERGIES
----------------

  NO   OCC          E(Eh)            E(eV)
   0   2.0000     -10.455859      -284.5184
   1   2.0000     -10.453239      -284.4471
   2   2.0000      -0.842534       -22.9265
   3   2.0000      -0.637088       -17.3360
   4   2.0000      -0.559648       -15.2288
   5   2.0000      -0.339912        -9.2495
   6   2.0000      -0.339912        -9.2495
   7   0.0000       0.072236         1.9656
   8   0.0000       0.072236         1.9656
   9   0.0000       0.162789         4.4297
  10   0.0000       0.208305         5.6683
  11   0.0000       0.422058        11.4848

MULLIKEN ATOMIC CHARGES
-----------------------
   0 C :   -0.235843
   1 C :   -0.235842
   2 H :    0.235842
   3 H :    0.235842
Sum of atomic charges:    0.0000000

LOEWDIN ATOMIC CHARGES
----------------------
   0 C :   -0.162670
   1 C :   -0.162670
   2 H :    0.162670
   3 H :    0.162670

  Mayer bond orders larger than 0.100000
B(  0-C ,  1-C ) :   2.8310 B(  0-C ,  2-H ) :   0.9296 B(  1-C ,  3-H ) :   0.9296

Dispersion correction           -0.000698665
FINAL SINGLE POINT ENERGY       -77.142548697254

DIPOLE MOMENT
-------------
                                X             Y             Z
Electronic contribution:      0.00000      -0.00000       0.00000
Nuclear contribution   :      0.00000       0.00000       0.00000
                        -----------------------------------------
Total Dipole Moment    :      0.00000      -0.00000       0.00000
                        -----------------------------------------
Magnitude (a.u.)       :      0.00000
Magnitude (Debye)      :      0.00000

Rotational constants in cm-1:     0.000000     1.185735     1.185735
Rotational constants in MHz :     0.000000 35547.451622 35547.451622

                             ****ORCA TERMINATED NORMALLY****
TOTAL RUN TIME: 0 days 0 hours 0 minutes 24 seconds 644 msec
