                         Program Version 5.0.3 -  RELEASE  -
|  1> ! PBEh-3c def2/J TightSCF DefGrid3
|  2>
|  3> %maxcore 60000
|  4>
|  5> %pal
|  6> nprocs 4
|  7> end
|  8>
|  9> *xyzfile 0 1 E23.xyz
| 10>
| 11>                          ****END OF INPUT****

CARTESIAN COORDINATES (ANGSTROEM)
---------------------------------
  C     -1.793050   -0.253972    0.044068
  C     -1.093397    0.231946   -1.230375
  C      0.390995   -0.157126   -1.235150
  C      1.128311    0.342541    0.020329
  C      0.418569   -0.142796    1.288091
  C     -1.066939    0.238374    1.301450
  N      2.548189   -0.024814    0.082940
  H     -1.816390   -1.350551    0.046488
  H     -2.835125    0.079093    0.054369
  H     -1.592273   -0.171086   -2.116657
  H     -1.180686    1.323355   -1.295770
  H      0.884818    0.235419   -2.130666
  H      0.482891   -1.250350   -1.280057
  H      1.092740    1.439455    0.017799
  H      0.932914    0.262043    2.162847
  H      0.512907   -1.235824    1.345123
  H     -1.157521    1.329485    1.365174
  H     -1.547026   -0.163312    2.198493
  H      2.649446   -1.035680    0.103131
  H      3.040626    0.303798   -0.741627

 Total Charge           Charge          ....    0
 Multiplicity           Mult            ....    1
 Number of Electrons    NEL             ....   56
 Basis Dimension        Dim             ....  131

ORBITAL ENERGIES
----------------

  NO   OCC          E(Eh)            E(eV)
   0   2.0000     -14.601810      -397.3355
   1   2.0000     -10.458682      -284.5952
   2   2.0000     -10.430035      -283.8157
   3   2.0000     -10.428830      -283.7829
   4   2.0000     -10.428560      -283.7755
   5   2.0000     -10.426850      -283.7290
   6   2.0000     -10.424572      -283.6670
   7   2.0000      -0.976304       -26.5666
   8   2.0000      -0.901741       -24.5376
   9   2.0000      -0.823361       -22.4048
  10   2.0000      -0.797838       -21.7103
  11   2.0000      -0.682103       -18.5610
  12   2.0000      -0.667032       -18.1509
  13   2.0000      -0.621811       -16.9203
  14   2.0000      -0.542186       -14.7536
  15   2.0000      -0.532115       -14.4796
  16   2.0000      -0.500976       -13.6323
  17   2.0000      -0.490988       -13.3605
  18   2.0000      -0.473202       -12.8765
  19   2.0000      -0.448984       -12.2175
  20   2.0000      -0.426625       -11.6091
  21   2.0000      -0.423579       -11.5262
  22   2.0000      -0.389065       -10.5870
  23   2.0000      -0.385791       -10.4979
  24   2.0000      -0.363098        -9.8804
  25   2.0000      -0.358053        -9.7431
  26   2.0000      -0.345183        -9.3929
  27   2.0000      -0.276779        -7.5315
  28   0.0000       0.134589         3.6624
  29   0.0000       0.141783         3.8581
  30   0.0000       0.158719         4.3190
  31   0.0000       0.177778         4.8376
  32   0.0000       0.194706         5.2982

MULLIKEN ATOMIC CHARGES
-----------------------
   0 C :   -0.418491
   1 C :   -0.422976
   2 C :   -0.423625
   3 C :   -0.072012
   4 C :   -0.412032
   5 C :   -0.424557
   6 N :   -0.735164
   7 H :    0.201056
   8 H :    0.219156
   9 H :    0.219175
  10 H :    0.202579
  11 H :    0.208459
  12 H :    0.191003
  13 H :    0.200483
  14 H :    0.237476
  15 H :    0.188279
  16 H :    0.203309
  17 H :    0.220289
  18 H :    0.305044
  19 H :    0.312551
Sum of atomic charges:   -0.0000000

LOEWDIN ATOMIC CHARGES
----------------------
   0 C :   -0.240898
   1 C :   -0.241071
   2 C :   -0.255221
   3 C :   -0.088256
   4 C :   -0.238026
   5 C :   -0.240112
   6 N :   -0.460823
   7 H :    0.118173
   8 H :    0.124218
   9 H :    0.124444
  10 H :    0.119032
  11 H :    0.119767
  12 H :    0.115206
  13 H :    0.113943
  14 H :    0.133551
  15 H :    0.114684
  16 H :    0.119310
  17 H :    0.125078
  18 H :    0.217560
  19 H :    0.219443

  Mayer bond orders larger than 0.100000
B(  0-C ,  1-C ) :   0.9856 B(  0-C ,  5-C ) :   0.9838 B(  0-C ,  7-H ) :   0.9185
B(  0-C ,  8-H ) :   0.9259 B(  1-C ,  2-C ) :   0.9753 B(  1-C ,  9-H ) :   0.9245
B(  1-C , 10-H ) :   0.9177 B(  2-C ,  3-C ) :   0.9633 B(  2-C , 11-H ) :   0.9272
B(  2-C , 12-H ) :   0.9172 B(  3-C ,  4-C ) :   0.9810 B(  3-C ,  6-N ) :   1.0345
B(  3-C , 13-H ) :   0.9023 B(  4-C ,  5-C ) :   0.9805 B(  4-C , 14-H ) :   0.9172
B(  4-C , 15-H ) :   0.9171 B(  5-C , 16-H ) :   0.9179 B(  5-C , 17-H ) :   0.9256
B(  6-N , 18-H ) :   0.8630 B(  6-N , 19-H ) :   0.8634

Dispersion correction           -0.010433996
FINAL SINGLE POINT ENERGY      -290.592579636079

DIPOLE MOMENT
-------------
                                X             Y             Z
Electronic contribution:      1.64736       0.31936       0.21293
Nuclear contribution   :     -1.83256      -0.53069      -0.64182
                        -----------------------------------------
Total Dipole Moment    :     -0.18520      -0.21133      -0.42889
                        -----------------------------------------
Magnitude (a.u.)       :      0.51275
Magnitude (Debye)      :      1.30330

Rotational constants in cm-1:     0.141602     0.073139     0.053072
Rotational constants in MHz :  4245.108022  2192.637227  1591.048077

                             ****ORCA TERMINATED NORMALLY****
TOTAL RUN TIME: 0 days 0 hours 1 minutes 15 seconds 25 msec
