                         Program Version 5.0.3 -  RELEASE  -
|  1> ! PBEh-3c def2/J TightSCF DefGrid3
|  2>
|  3> %maxcore 60000
|  4>
|  5> %pal
|  6> nprocs 4
|  7> end
|  8>
|  9> *xyzfile 0 1 P28.xyz
| 10>
| 11>                          ****END OF INPUT****

CARTESIAN COORDINATES (ANGSTROEM)
---------------------------------
  O      0.000000    0.000000   -1.352332
  C      0.000000    1.039005   -0.340267
  C      0.000000    0.000000    0.797449
  C      0.000000   -1.039005   -0.340267
  H      0.888050    1.673510   -0.405423
  H     -0.888050    1.673510   -0.405423
  H     -0.886760    0.000000    1.428554
  H      0.886760    0.000000    1.428554
  H      0.888050   -1.673510   -0.405423
  H     -0.888050   -1.673510   -0.405423

 Total Charge           Charge          ....    0
 Multiplicity           Mult            ....    1
 Number of Electrons    NEL             ....   32
 Basis Dimension        Dim             ....   72

ORBITAL ENERGIES
----------------

  NO   OCC          E(Eh)            E(eV)
   0   2.0000     -19.482501      -530.1458
   1   2.0000     -10.485509      -285.3252
   2   2.0000     -10.485495      -285.3248
   3   2.0000     -10.444247      -284.2024
   4   2.0000      -1.138974       -30.9931
   5   2.0000      -0.831991       -22.6396
   6   2.0000      -0.770405       -20.9638
   7   2.0000      -0.633052       -17.2262
   8   2.0000      -0.563357       -15.3297
   9   2.0000      -0.549409       -14.9502
  10   2.0000      -0.493693       -13.4341
  11   2.0000      -0.458543       -12.4776
  12   2.0000      -0.430543       -11.7157
  13   2.0000      -0.382995       -10.4218
  14   2.0000      -0.359635        -9.7862
  15   2.0000      -0.300480        -8.1765
  16   0.0000       0.114458         3.1146
  17   0.0000       0.146173         3.9776
  18   0.0000       0.159573         4.3422
  19   0.0000       0.164926         4.4879
  20   0.0000       0.221170         6.0183

MULLIKEN ATOMIC CHARGES
-----------------------
   0 O :   -0.480849
   1 C :   -0.113220
   2 C :   -0.559077
   3 C :   -0.113220
   4 H :    0.198535
   5 H :    0.198535
   6 H :    0.236114
   7 H :    0.236114
   8 H :    0.198535
   9 H :    0.198535
Sum of atomic charges:   -0.0000000

LOEWDIN ATOMIC CHARGES
----------------------
   0 O :   -0.302437
   1 C :   -0.063855
   2 C :   -0.270430
   3 C :   -0.063855
   4 H :    0.109796
   5 H :    0.109796
   6 H :    0.130696
   7 H :    0.130696
   8 H :    0.109796
   9 H :    0.109796

  Mayer bond orders larger than 0.100000
B(  0-O ,  1-C ) :   0.9966 B(  0-O ,  3-C ) :   0.9966 B(  1-C ,  2-C ) :   0.9719
B(  1-C ,  4-H ) :   0.9065 B(  1-C ,  5-H ) :   0.9065 B(  2-C ,  3-C ) :   0.9719
B(  2-C ,  6-H ) :   0.9204 B(  2-C ,  7-H ) :   0.9204 B(  3-C ,  8-H ) :   0.9065
B(  3-C ,  9-H ) :   0.9065

Dispersion correction           -0.003241824
FINAL SINGLE POINT ENERGY      -192.683878496392

DIPOLE MOMENT
-------------
                                X             Y             Z
Electronic contribution:     -0.00000      -0.00000      -2.16314
Nuclear contribution   :      0.00000       0.00000       2.98402
                        -----------------------------------------
Total Dipole Moment    :     -0.00000      -0.00000       0.82088
                        -----------------------------------------
Magnitude (a.u.)       :      0.82088
Magnitude (Debye)      :      2.08651

Rotational constants in cm-1:     0.401471     0.391914     0.223359
Rotational constants in MHz : 12035.797709 11749.276685  6696.136461

                             ****ORCA TERMINATED NORMALLY****
TOTAL RUN TIME: 0 days 0 hours 0 minutes 56 seconds 563 msec
