                         Program Version 5.0.3 -  RELEASE  -
|  1> ! PBEh-3c def2/J TightSCF DefGrid3
|  2>
|  3> %maxcore 60000
|  4>
|  5> %pal
|  6> nprocs 4
|  7> end
|  8>
|  9> *xyzfile 0 1 E27.xyz
| 10>
| 11>                          ****END OF INPUT****

CARTESIAN COORDINATES (ANGSTROEM)
---------------------------------
  C      0.663498   -0.007856    0.000000
  N     -0.840392   -0.017091    0.000000
  O     -1.397769   -0.004253   -1.086386
  O     -1.397769   -0.004253    1.086386
  H      1.002503   -0.502244    0.904672
  H      0.967426    1.037942    0.000000
  H      1.002503   -0.502244   -0.904672

 Total Charge           Charge          ....    0
 Multiplicity           Mult            ....    1
 Number of Electrons    NEL             ....   32
 Basis Dimension        Dim             ....   66

ORBITAL ENERGIES
----------------

  NO   OCC          E(Eh)            E(eV)
   0   2.0000     -19.533513      -531.5339
   1   2.0000     -19.533404      -531.5309
   2   2.0000     -14.889361      -405.1601
   3   2.0000     -10.508764      -285.9580
   4   2.0000      -1.353916       -36.8419
   5   2.0000      -1.170997       -31.8645
   6   2.0000      -0.909957       -24.7612
   7   2.0000      -0.704324       -19.1656
   8   2.0000      -0.619666       -16.8620
   9   2.0000      -0.613827       -16.7031
  10   2.0000      -0.591649       -16.0996
  11   2.0000      -0.515768       -14.0348
  12   2.0000      -0.496176       -13.5016
  13   2.0000      -0.369747       -10.0613
  14   2.0000      -0.365777        -9.9533
  15   2.0000      -0.360442        -9.8081
  16   0.0000      -0.035600        -0.9687
  17   0.0000       0.124718         3.3938
  18   0.0000       0.154263         4.1977
  19   0.0000       0.176581         4.8050
  20   0.0000       0.188484         5.1289

MULLIKEN ATOMIC CHARGES
-----------------------
   0 C :   -0.516132
   1 N :    0.422661
   2 O :   -0.354171
   3 O :   -0.354171
   4 H :    0.265530
   5 H :    0.270754
   6 H :    0.265530
Sum of atomic charges:   -0.0000000

LOEWDIN ATOMIC CHARGES
----------------------
   0 C :   -0.280016
   1 N :    0.243211
   2 O :   -0.214057
   3 O :   -0.214057
   4 H :    0.152652
   5 H :    0.159615
   6 H :    0.152652

  Mayer bond orders larger than 0.100000
B(  0-C ,  1-N ) :   0.8231 B(  0-C ,  4-H ) :   0.8978 B(  0-C ,  5-H ) :   0.8959
B(  0-C ,  6-H ) :   0.8978 B(  1-N ,  2-O ) :   1.6693 B(  1-N ,  3-O ) :   1.6693
B(  2-O ,  3-O ) :   0.2823

Dispersion correction           -0.001941651
FINAL SINGLE POINT ENERGY      -244.489149242851

DIPOLE MOMENT
-------------
                                X             Y             Z
Electronic contribution:     -3.42834      -0.03797       0.00000
Nuclear contribution   :      4.86831       0.05153       0.00000
                        -----------------------------------------
Total Dipole Moment    :      1.43997       0.01356       0.00000
                        -----------------------------------------
Magnitude (a.u.)       :      1.44004
Magnitude (Debye)      :      3.66029

Rotational constants in cm-1:     0.411043     0.349025     0.195752
Rotational constants in MHz : 12322.762543 10463.511239  5868.484347

                             ****ORCA TERMINATED NORMALLY****
TOTAL RUN TIME: 0 days 0 hours 1 minutes 15 seconds 232 msec
