                         Program Version 5.0.3 -  RELEASE  -
|  1> ! PBEh-3c def2/J TightSCF DefGrid3
|  2>
|  3> %maxcore 60000
|  4>
|  5> %pal
|  6> nprocs 4
|  7> end
|  8>
|  9> *xyzfile 0 2 27.xyz
| 10>
| 11>                          ****END OF INPUT****

CARTESIAN COORDINATES (ANGSTROEM)
---------------------------------
  C     -0.130287   -0.896063   -0.437905
  Cl     2.394969   -0.516398    2.513855
  N      2.014387   -0.039910   -1.016887
  O      0.592789   -0.668518   -2.772908
  Al     1.466232   -0.409471    0.654690
  C     -0.178961    1.638733    0.634654
  S     -2.464559   -0.035885    1.153538
  H      0.861685    1.672391    1.029277
  H     -0.755901    2.197618    1.378652
  H     -0.615362   -1.860739   -0.577905
  N     -3.183224   -1.432522    0.680998
  H     -0.128635    2.225531   -0.291292
  C      0.840510   -0.528389   -1.590344
  B     -0.846219    0.204930    0.326477
  H     -2.599919   -1.870616   -0.049217
  H      2.732495    0.319306   -1.635682

 Total Charge           Charge          ....    0
 Multiplicity           Mult            ....    2
 Number of Electrons    NEL             ....   97
 Basis Dimension        Dim             ....  171

ORBITAL ENERGIES
----------------
                 SPIN UP ORBITALS
  NO   OCC          E(Eh)            E(eV)
   0   1.0000    -102.325465     -2784.4175
   1   1.0000     -89.628190     -2438.9070
   2   1.0000     -56.688649     -1542.5766
   3   1.0000     -19.479120      -530.0538
   4   1.0000     -14.675449      -399.3393
   5   1.0000     -14.657440      -398.8492
   6   1.0000     -10.576881      -287.8116
   7   1.0000     -10.473346      -284.9942
   8   1.0000     -10.458030      -284.5775
   9   1.0000      -9.792489      -266.4672
  10   1.0000      -8.265238      -224.9085
  11   1.0000      -7.477452      -203.4718
  12   1.0000      -7.473430      -203.3624
  13   1.0000      -7.473179      -203.3555
  14   1.0000      -7.009663      -190.7426
  15   1.0000      -6.155485      -167.4993
  16   1.0000      -6.152155      -167.4087
  17   1.0000      -6.150521      -167.3642
  18   1.0000      -4.421718      -120.3211
  19   1.0000      -2.913748       -79.2871
  20   1.0000      -2.909917       -79.1829
  21   1.0000      -2.908639       -79.1481
  22   1.0000      -1.155407       -31.4402
  23   1.0000      -1.014127       -27.5958
  24   1.0000      -1.003203       -27.2985
  25   1.0000      -0.930831       -25.3292
  26   1.0000      -0.855921       -23.2908
  27   1.0000      -0.813719       -22.1424
  28   1.0000      -0.759467       -20.6661
  29   1.0000      -0.659252       -17.9392
  30   1.0000      -0.584705       -15.9106
  31   1.0000      -0.577238       -15.7074
  32   1.0000      -0.546690       -14.8762
  33   1.0000      -0.526745       -14.3335
  34   1.0000      -0.519017       -14.1232
  35   1.0000      -0.494749       -13.4628
  36   1.0000      -0.486188       -13.2299
  37   1.0000      -0.470531       -12.8038
  38   1.0000      -0.450012       -12.2455
  39   1.0000      -0.443043       -12.0558
  40   1.0000      -0.430547       -11.7158
  41   1.0000      -0.415823       -11.3151
  42   1.0000      -0.413238       -11.2448
  43   1.0000      -0.407788       -11.0965
  44   1.0000      -0.367417        -9.9979
  45   1.0000      -0.341682        -9.2976
  46   1.0000      -0.335222        -9.1218
  47   1.0000      -0.320823        -8.7300
  48   1.0000      -0.274183        -7.4609
  49   0.0000      -0.031714        -0.8630
  50   0.0000      -0.011488        -0.3126
  51   0.0000       0.012358         0.3363
  52   0.0000       0.046808         1.2737
  53   0.0000       0.057665         1.5691

                 SPIN DOWN ORBITALS
  NO   OCC          E(Eh)            E(eV)
   0   1.0000    -102.325466     -2784.4175
   1   1.0000     -89.627468     -2438.8874
   2   1.0000     -56.688611     -1542.5755
   3   1.0000     -19.478990      -530.0503
   4   1.0000     -14.657396      -398.8480
   5   1.0000     -14.656825      -398.8325
   6   1.0000     -10.576812      -287.8097
   7   1.0000     -10.473458      -284.9973
   8   1.0000     -10.457774      -284.5705
   9   1.0000      -9.792489      -266.4672
  10   1.0000      -8.264517      -224.8889
  11   1.0000      -7.477449      -203.4717
  12   1.0000      -7.473429      -203.3623
  13   1.0000      -7.473183      -203.3556
  14   1.0000      -7.009207      -190.7302
  15   1.0000      -6.155574      -167.5017
  16   1.0000      -6.150319      -167.3587
  17   1.0000      -6.148692      -167.3144
  18   1.0000      -4.421653      -120.3193
  19   1.0000      -2.913706       -79.2860
  20   1.0000      -2.909845       -79.1809
  21   1.0000      -2.908593       -79.1468
  22   1.0000      -1.155146       -31.4331
  23   1.0000      -1.003198       -27.2984
  24   1.0000      -0.977168       -26.5901
  25   1.0000      -0.930825       -25.3290
  26   1.0000      -0.853253       -23.2182
  27   1.0000      -0.812983       -22.1224
  28   1.0000      -0.735898       -20.0248
  29   1.0000      -0.658507       -17.9189
  30   1.0000      -0.581385       -15.8203
  31   1.0000      -0.574092       -15.6218
  32   1.0000      -0.544816       -14.8252
  33   1.0000      -0.525155       -14.2902
  34   1.0000      -0.517593       -14.0844
  35   1.0000      -0.491546       -13.3756
  36   1.0000      -0.484736       -13.1903
  37   1.0000      -0.470292       -12.7973
  38   1.0000      -0.448076       -12.1928
  39   1.0000      -0.427805       -11.6412
  40   1.0000      -0.415763       -11.3135
  41   1.0000      -0.413049       -11.2396
  42   1.0000      -0.401505       -10.9255
  43   1.0000      -0.373746       -10.1702
  44   1.0000      -0.354048        -9.6341
  45   1.0000      -0.339915        -9.2496
  46   1.0000      -0.325016        -8.8441
  47   1.0000      -0.311543        -8.4775
  48   0.0000      -0.075721        -2.0605
  49   0.0000      -0.022171        -0.6033
  50   0.0000      -0.000965        -0.0263
  51   0.0000       0.017493         0.4760
  52   0.0000       0.049448         1.3456

MULLIKEN ATOMIC CHARGES AND SPIN POPULATIONS
--------------------------------------------
   0 C :   -0.769849    0.011920
   1 Cl:   -0.271370    0.000005
   2 N :   -0.775476    0.001500
   3 O :   -0.368977    0.003227
   4 Al:    0.907560    0.003445
   5 C :   -0.969109   -0.008508
   6 S :    0.114995    0.103303
   7 H :    0.226768    0.003527
   8 H :    0.281586   -0.000187
   9 H :    0.260096   -0.001264
  10 N :   -0.572538    0.830265
  11 H :    0.295374    0.003360
  12 C :    0.502160    0.000967
  13 B :    0.440355    0.081656
  14 H :    0.344983   -0.033154
  15 H :    0.353443   -0.000062
Sum of atomic charges         :   -0.0000000

LOEWDIN ATOMIC CHARGES AND SPIN POPULATIONS
-------------------------------------------
   0 C :   -0.382594    0.016276
   1 Cl:   -0.020882   -0.000020
   2 N :   -0.359505    0.001386
   3 O :   -0.230417    0.003211
   4 Al:    0.378233    0.007009
   5 C :   -0.463301   -0.002746
   6 S :    0.383731    0.134868
   7 H :    0.162487    0.002933
   8 H :    0.168701   -0.000039
   9 H :    0.168996   -0.000562
  10 N :   -0.451780    0.791949
  11 H :    0.184827    0.003413
  12 C :    0.148148    0.002255
  13 B :   -0.169285    0.061110
  14 H :    0.220148   -0.021029
  15 H :    0.262492   -0.000015

  Mayer bond orders larger than 0.100000
B(  0-C ,  4-Al) :   0.6851 B(  0-C ,  9-H ) :   0.8845 B(  0-C , 12-C ) :   0.8935
B(  0-C , 13-B ) :   1.0700 B(  1-Cl,  4-Al) :   1.1399 B(  2-N ,  4-Al) :   0.9326
B(  2-N , 12-C ) :   1.0676 B(  2-N , 15-H ) :   0.8182 B(  3-O , 12-C ) :   2.0749
B(  4-Al,  5-C ) :   0.1289 B(  4-Al, 13-B ) :   0.1141 B(  5-C ,  7-H ) :   0.8517
B(  5-C ,  8-H ) :   0.8944 B(  5-C , 11-H ) :   0.8787 B(  5-C , 13-B ) :   0.8732
B(  6-S , 10-N ) :   1.3135 B(  6-S , 13-B ) :   1.1824 B( 10-N , 14-H ) :   0.8097

Dispersion correction           -0.010068655
FINAL SINGLE POINT ENERGY     -1426.443604109016

DIPOLE MOMENT
-------------
                                X             Y             Z
Electronic contribution:      6.15332      -3.46417       6.08408
Nuclear contribution   :     -4.78544       4.15385      -5.54136
                        -----------------------------------------
Total Dipole Moment    :      1.36789       0.68968       0.54272
                        -----------------------------------------
Magnitude (a.u.)       :      1.62521
Magnitude (Debye)      :      4.13096

Rotational constants in cm-1:     0.031799     0.021387     0.015047
Rotational constants in MHz :   953.296934   641.162911   451.099908

                             ****ORCA TERMINATED NORMALLY****
TOTAL RUN TIME: 0 days 0 hours 5 minutes 3 seconds 950 msec
