                         Program Version 5.0.3 -  RELEASE  -
|  1> ! PBEh-3c def2/J TightSCF DefGrid3
|  2>
|  3> %maxcore 60000
|  4>
|  5> %pal
|  6> nprocs 4
|  7> end
|  8>
|  9> *xyzfile 0 1 18b.xyz
| 10>
| 11>                          ****END OF INPUT****

CARTESIAN COORDINATES (ANGSTROEM)
---------------------------------
  H      0.465387    0.806073    0.099714
  H      0.465387   -0.806073    0.099714
  H     -0.930773    0.000000    0.099714
  N      0.000000    0.000000   -0.299143

 Total Charge           Charge          ....    0
 Multiplicity           Mult            ....    1
 Number of Electrons    NEL             ....   10
 Basis Dimension        Dim             ....   21

ORBITAL ENERGIES
----------------

  NO   OCC          E(Eh)            E(eV)
   0   2.0000     -14.597459      -397.2171
   1   2.0000      -0.937609       -25.5136
   2   2.0000      -0.509399       -13.8615
   3   2.0000      -0.509398       -13.8614
   4   2.0000      -0.309834        -8.4310
   5   0.0000       0.141211         3.8426
   6   0.0000       0.224958         6.1214
   7   0.0000       0.224959         6.1214
   8   0.0000       0.759601        20.6698
   9   0.0000       0.759603        20.6698

MULLIKEN ATOMIC CHARGES
-----------------------
   0 H :    0.312472
   1 H :    0.312472
   2 H :    0.312473
   3 N :   -0.937417
Sum of atomic charges:   -0.0000000

LOEWDIN ATOMIC CHARGES
----------------------
   0 H :    0.215456
   1 H :    0.215456
   2 H :    0.215457
   3 N :   -0.646370

  Mayer bond orders larger than 0.100000
B(  0-H ,  3-N ) :   0.8816 B(  1-H ,  3-N ) :   0.8816 B(  2-H ,  3-N ) :   0.8816

Dispersion correction           -0.000444642
FINAL SINGLE POINT ENERGY       -56.428039185113

DIPOLE MOMENT
-------------
                                X             Y             Z
Electronic contribution:     -0.00001      -0.00000      -0.14523
Nuclear contribution   :      0.00000       0.00000       0.92288
                        -----------------------------------------
Total Dipole Moment    :     -0.00001      -0.00000       0.77765
                        -----------------------------------------
Magnitude (a.u.)       :      0.77765
Magnitude (Debye)      :      1.97662

Rotational constants in cm-1:     9.883909     9.883909     6.434687
Rotational constants in MHz : 296312.142031 296312.129963 192907.062454

                             ****ORCA TERMINATED NORMALLY****
TOTAL RUN TIME: 0 days 0 hours 0 minutes 35 seconds 136 msec
