                         Program Version 5.0.3 -  RELEASE  -
|  1> ! PBEh-3c def2/J TightSCF DefGrid3
|  2>
|  3> %maxcore 60000
|  4>
|  5> %pal
|  6> nprocs 4
|  7> end
|  8>
|  9> *xyzfile 0 1 E18.xyz
| 10>
| 11>                          ****END OF INPUT****

CARTESIAN COORDINATES (ANGSTROEM)
---------------------------------
  N      1.323603   -0.040937    0.000000
  C      0.481622    0.250203    1.163048
  C     -0.866261   -0.387588    0.777960
  C     -0.866261   -0.387588   -0.777960
  C      0.481622    0.250203   -1.163048
  H      2.187834    0.488308    0.000000
  H      0.911149   -0.176625    2.071571
  H      0.348182    1.333087    1.327813
  H     -1.706384    0.166268    1.199185
  H     -0.924027   -1.409031    1.155788
  H     -0.924027   -1.409031   -1.155788
  H     -1.706384    0.166268   -1.199185
  H      0.911149   -0.176625   -2.071571
  H      0.348182    1.333087   -1.327813

 Total Charge           Charge          ....    0
 Multiplicity           Mult            ....    1
 Number of Electrons    NEL             ....   40
 Basis Dimension        Dim             ....   93

ORBITAL ENERGIES
----------------

  NO   OCC          E(Eh)            E(eV)
   0   2.0000     -14.608855      -397.5271
   1   2.0000     -10.452053      -284.4148
   2   2.0000     -10.451992      -284.4132
   3   2.0000     -10.429139      -283.7913
   4   2.0000     -10.428973      -283.7868
   5   2.0000      -1.006357       -27.3844
   6   2.0000      -0.839152       -22.8345
   7   2.0000      -0.798860       -21.7381
   8   2.0000      -0.658757       -17.9257
   9   2.0000      -0.639737       -17.4081
  10   2.0000      -0.570387       -15.5210
  11   2.0000      -0.540207       -14.6998
  12   2.0000      -0.481672       -13.1070
  13   2.0000      -0.448350       -12.2002
  14   2.0000      -0.418048       -11.3757
  15   2.0000      -0.417527       -11.3615
  16   2.0000      -0.388884       -10.5821
  17   2.0000      -0.385573       -10.4920
  18   2.0000      -0.363819        -9.9000
  19   2.0000      -0.265113        -7.2141
  20   0.0000       0.129899         3.5347
  21   0.0000       0.151262         4.1160
  22   0.0000       0.187976         5.1151
  23   0.0000       0.190411         5.1813
  24   0.0000       0.208874         5.6838

MULLIKEN ATOMIC CHARGES
-----------------------
   0 N :   -0.571006
   1 C :   -0.271392
   2 C :   -0.441634
   3 C :   -0.441634
   4 C :   -0.271392
   5 H :    0.317413
   6 H :    0.215762
   7 H :    0.179094
   8 H :    0.216674
   9 H :    0.228293
  10 H :    0.228293
  11 H :    0.216674
  12 H :    0.215762
  13 H :    0.179094
Sum of atomic charges:   -0.0000000

LOEWDIN ATOMIC CHARGES
----------------------
   0 N :   -0.344942
   1 C :   -0.155711
   2 C :   -0.247033
   3 C :   -0.247033
   4 C :   -0.155711
   5 H :    0.224369
   6 H :    0.118528
   7 H :    0.091120
   8 H :    0.124121
   9 H :    0.129263
  10 H :    0.129263
  11 H :    0.124121
  12 H :    0.118528
  13 H :    0.091120

  Mayer bond orders larger than 0.100000
B(  0-N ,  1-C ) :   1.0020 B(  0-N ,  4-C ) :   1.0020 B(  0-N ,  5-H ) :   0.8526
B(  1-C ,  2-C ) :   0.9671 B(  1-C ,  6-H ) :   0.9266 B(  1-C ,  7-H ) :   0.9112
B(  2-C ,  3-C ) :   0.9658 B(  2-C ,  8-H ) :   0.9309 B(  2-C ,  9-H ) :   0.9282
B(  3-C ,  4-C ) :   0.9671 B(  3-C , 10-H ) :   0.9282 B(  3-C , 11-H ) :   0.9309
B(  4-C , 12-H ) :   0.9266 B(  4-C , 13-H ) :   0.9112

Dispersion correction           -0.005966748
FINAL SINGLE POINT ENERGY      -212.117051055846

DIPOLE MOMENT
-------------
                                X             Y             Z
Electronic contribution:      1.48430      -0.34240       0.00000
Nuclear contribution   :     -1.55118       0.71833      -0.00000
                        -----------------------------------------
Total Dipole Moment    :     -0.06687       0.37593       0.00000
                        -----------------------------------------
Magnitude (a.u.)       :      0.38183
Magnitude (Debye)      :      0.97054

Rotational constants in cm-1:     0.228454     0.226886     0.129503
Rotational constants in MHz :  6848.870086  6801.865923  3882.415268

                             ****ORCA TERMINATED NORMALLY****
TOTAL RUN TIME: 0 days 0 hours 0 minutes 38 seconds 272 msec
