                         Program Version 5.0.3 -  RELEASE  -
|  1> ! PBEh-3c def2/J TightSCF DefGrid3
|  2>
|  3> %maxcore 60000
|  4>
|  5> %pal
|  6> nprocs 4
|  7> end
|  8>
|  9> *xyzfile 0 1 54.xyz
| 10>
| 11>                          ****END OF INPUT****

CARTESIAN COORDINATES (ANGSTROEM)
---------------------------------
  C      0.756014   -0.574322   -1.207557
  H      0.872059   -1.102047   -2.144144
  C      0.453810    0.786586   -1.207895
  H      0.332832    1.313761   -2.144054
  C      0.303156    1.467461    0.000000
  H      0.067332    2.522732    0.000000
  C      0.453810    0.786586    1.207895
  H      0.332832    1.313761    2.144054
  C      0.756014   -0.574322    1.207557
  H      0.872059   -1.102047    2.144144
  C      0.907516   -1.254388    0.000000
  H      1.144353   -2.309621    0.000000
  O     -2.767964   -0.233670    0.000000
  H     -2.603160   -1.178391    0.000000
  H     -1.880663    0.137921    0.000000

 Total Charge           Charge          ....    0
 Multiplicity           Mult            ....    1
 Number of Electrons    NEL             ....   52
 Basis Dimension        Dim             ....  121

ORBITAL ENERGIES
----------------

  NO   OCC          E(Eh)            E(eV)
   0   2.0000     -19.453538      -529.3577
   1   2.0000     -10.462348      -284.6950
   2   2.0000     -10.462088      -284.6879
   3   2.0000     -10.461937      -284.6838
   4   2.0000     -10.461452      -284.6706
   5   2.0000     -10.461323      -284.6671
   6   2.0000     -10.461140      -284.6621
   7   2.0000      -1.082391       -29.4534
   8   2.0000      -0.966640       -26.3036
   9   2.0000      -0.849218       -23.1084
  10   2.0000      -0.848897       -23.0997
  11   2.0000      -0.691753       -18.8236
  12   2.0000      -0.691658       -18.8210
  13   2.0000      -0.604666       -16.4538
  14   2.0000      -0.558844       -15.2069
  15   2.0000      -0.537520       -14.6267
  16   2.0000      -0.521583       -14.1930
  17   2.0000      -0.494400       -13.4533
  18   2.0000      -0.494262       -13.4496
  19   2.0000      -0.441282       -12.0079
  20   2.0000      -0.411974       -11.2104
  21   2.0000      -0.410657       -11.1745
  22   2.0000      -0.410556       -11.1718
  23   2.0000      -0.338153        -9.2016
  24   2.0000      -0.307729        -8.3737
  25   2.0000      -0.305664        -8.3175
  26   0.0000       0.004501         0.1225
  27   0.0000       0.005283         0.1438
  28   0.0000       0.130646         3.5551
  29   0.0000       0.150498         4.0953
  30   0.0000       0.182688         4.9712

MULLIKEN ATOMIC CHARGES
-----------------------
   0 C :   -0.223806
   1 H :    0.228657
   2 C :   -0.226310
   3 H :    0.231364
   4 C :   -0.246966
   5 H :    0.233252
   6 C :   -0.226310
   7 H :    0.231364
   8 C :   -0.223806
   9 H :    0.228658
  10 C :   -0.232495
  11 H :    0.227581
  12 O :   -0.833220
  13 H :    0.401871
  14 H :    0.430165
Sum of atomic charges:    0.0000000

LOEWDIN ATOMIC CHARGES
----------------------
   0 C :   -0.138020
   1 H :    0.139610
   2 C :   -0.137680
   3 H :    0.141205
   4 C :   -0.144557
   5 H :    0.141705
   6 C :   -0.137680
   7 H :    0.141205
   8 C :   -0.138020
   9 H :    0.139610
  10 C :   -0.140818
  11 H :    0.138631
  12 O :   -0.602256
  13 H :    0.295989
  14 H :    0.301075

  Mayer bond orders larger than 0.100000
B(  0-C ,  1-H ) :   0.9178 B(  0-C ,  2-C ) :   1.4230 B(  0-C , 10-C ) :   1.4229
B(  2-C ,  3-H ) :   0.9173 B(  2-C ,  4-C ) :   1.4202 B(  4-C ,  5-H ) :   0.9168
B(  4-C ,  6-C ) :   1.4202 B(  6-C ,  7-H ) :   0.9173 B(  6-C ,  8-C ) :   1.4230
B(  8-C ,  9-H ) :   0.9178 B(  8-C , 10-C ) :   1.4229 B( 10-C , 11-H ) :   0.9180
B( 12-O , 13-H ) :   0.8207 B( 12-O , 14-H ) :   0.7887

Dispersion correction           -0.007533392
FINAL SINGLE POINT ENERGY      -307.990004088904

DIPOLE MOMENT
-------------
                                X             Y             Z
Electronic contribution:      1.61232       0.29465       0.00000
Nuclear contribution   :     -0.72871      -0.65721       0.00000
                        -----------------------------------------
Total Dipole Moment    :      0.88360      -0.36255       0.00000
                        -----------------------------------------
Magnitude (a.u.)       :      0.95509
Magnitude (Debye)      :      2.42765

Rotational constants in cm-1:     0.095758     0.066595     0.066285
Rotational constants in MHz :  2870.749415  1996.457892  1987.184926

                             ****ORCA TERMINATED NORMALLY****
TOTAL RUN TIME: 0 days 0 hours 1 minutes 28 seconds 723 msec
