                         Program Version 5.0.3 -  RELEASE  -
|  1> ! PBEh-3c def2/J TightSCF DefGrid3
|  2>
|  3> %maxcore 60000
|  4>
|  5> %pal
|  6> nprocs 4
|  7> end
|  8>
|  9> *xyzfile 0 1 H4P2O7_3.xyz
| 10>
| 11>                          ****END OF INPUT****

CARTESIAN COORDINATES (ANGSTROEM)
---------------------------------
  O     -1.324051    0.964687    0.882122
  P     -1.554036   -0.153400   -0.279839
  O     -2.692384    0.079115   -1.164033
  O     -0.087282    0.006680   -0.985469
  P      1.281226   -0.220228   -0.144352
  O      1.162230   -1.353322    0.794833
  O      2.404893   -0.413545   -1.235100
  O      1.614578    1.218023    0.456574
  O     -1.503676   -1.563477    0.425874
  H     -2.161102    1.239770    1.291615
  H      2.579551    0.377806   -1.773061
  H      0.858442    1.563298    0.970966
  H     -0.578390   -1.745408    0.759870

 Total Charge           Charge          ....    0
 Multiplicity           Mult            ....    1
 Number of Electrons    NEL             ....   90
 Basis Dimension        Dim             ....  149

ORBITAL ENERGIES
----------------

  NO   OCC          E(Eh)            E(eV)
   0   2.0000     -77.954998     -2121.2633
   1   2.0000     -77.935143     -2120.7230
   2   2.0000     -19.574359      -532.6454
   3   2.0000     -19.572270      -532.5885
   4   2.0000     -19.566972      -532.4444
   5   2.0000     -19.565305      -532.3990
   6   2.0000     -19.538271      -531.6634
   7   2.0000     -19.496338      -530.5223
   8   2.0000     -19.470879      -529.8296
   9   2.0000      -6.999217      -190.4584
  10   2.0000      -6.979685      -189.9269
  11   2.0000      -5.093723      -138.6073
  12   2.0000      -5.093232      -138.5939
  13   2.0000      -5.091480      -138.5462
  14   2.0000      -5.074513      -138.0845
  15   2.0000      -5.073337      -138.0525
  16   2.0000      -5.071596      -138.0052
  17   2.0000      -1.263935       -34.3934
  18   2.0000      -1.222821       -33.2746
  19   2.0000      -1.181763       -32.1574
  20   2.0000      -1.173124       -31.9223
  21   2.0000      -1.158602       -31.5272
  22   2.0000      -1.112361       -30.2689
  23   2.0000      -1.086960       -29.5777
  24   2.0000      -0.773870       -21.0581
  25   2.0000      -0.722029       -19.6474
  26   2.0000      -0.671853       -18.2820
  27   2.0000      -0.665670       -18.1138
  28   2.0000      -0.652525       -17.7561
  29   2.0000      -0.579967       -15.7817
  30   2.0000      -0.559317       -15.2198
  31   2.0000      -0.537480       -14.6256
  32   2.0000      -0.518682       -14.1141
  33   2.0000      -0.508487       -13.8366
  34   2.0000      -0.498176       -13.5561
  35   2.0000      -0.487848       -13.2750
  36   2.0000      -0.462162       -12.5761
  37   2.0000      -0.455446       -12.3933
  38   2.0000      -0.447334       -12.1726
  39   2.0000      -0.444946       -12.1076
  40   2.0000      -0.419450       -11.4138
  41   2.0000      -0.400479       -10.8976
  42   2.0000      -0.391045       -10.6409
  43   2.0000      -0.379876       -10.3370
  44   2.0000      -0.368717       -10.0333
  45   0.0000       0.047349         1.2884
  46   0.0000       0.084972         2.3122
  47   0.0000       0.109461         2.9786
  48   0.0000       0.122258         3.3268
  49   0.0000       0.130410         3.5486

MULLIKEN ATOMIC CHARGES
-----------------------
   0 O :   -0.768285
   1 P :    1.442552
   2 O :   -0.589239
   3 O :   -0.684601
   4 P :    1.451176
   5 O :   -0.650197
   6 O :   -0.672666
   7 O :   -0.716166
   8 O :   -0.721150
   9 H :    0.471653
  10 H :    0.472055
  11 H :    0.478337
  12 H :    0.486532
Sum of atomic charges:    0.0000000

LOEWDIN ATOMIC CHARGES
----------------------
   0 O :   -0.496638
   1 P :    0.907690
   2 O :   -0.477487
   3 O :   -0.400451
   4 P :    0.913173
   5 O :   -0.511317
   6 O :   -0.416136
   7 O :   -0.451406
   8 O :   -0.453321
   9 H :    0.347033
  10 H :    0.352324
  11 H :    0.346232
  12 H :    0.340304

  Mayer bond orders larger than 0.100000
B(  0-O ,  1-P ) :   0.9767 B(  0-O ,  9-H ) :   0.7391 B(  1-P ,  2-O ) :   1.9600
B(  1-P ,  3-O ) :   0.8696 B(  1-P ,  8-O ) :   1.1590 B(  3-O ,  4-P ) :   0.9509
B(  4-P ,  5-O ) :   1.7671 B(  4-P ,  6-O ) :   1.1274 B(  4-P ,  7-O ) :   1.1003
B(  5-O , 12-H ) :   0.1229 B(  6-O , 10-H ) :   0.7322 B(  7-O , 11-H ) :   0.7090
B(  8-O , 12-H ) :   0.6254

Dispersion correction           -0.007594961
FINAL SINGLE POINT ENERGY     -1210.004123111611

DIPOLE MOMENT
-------------
                                X             Y             Z
Electronic contribution:     -0.35415      -0.48967      -1.29290
Nuclear contribution   :      1.06202       1.98010       1.83058
                        -----------------------------------------
Total Dipole Moment    :      0.70787       1.49043       0.53768
                        -----------------------------------------
Magnitude (a.u.)       :      1.73539
Magnitude (Debye)      :      4.41100

Rotational constants in cm-1:     0.079694     0.029605     0.028652
Rotational constants in MHz :  2389.157947   887.533500   858.960835

                             ****ORCA TERMINATED NORMALLY****
TOTAL RUN TIME: 0 days 0 hours 1 minutes 55 seconds 83 msec
