                         Program Version 5.0.3 -  RELEASE  -
|  1> ! PBEh-3c def2/J TightSCF DefGrid3
|  2>
|  3> %maxcore 60000
|  4>
|  5> %pal
|  6> nprocs 4
|  7> end
|  8>
|  9> *xyzfile 0 1 45B.xyz
| 10>
| 11>                          ****END OF INPUT****

CARTESIAN COORDINATES (ANGSTROEM)
---------------------------------
  C      0.024996   -0.300734   -2.530444
  H      0.919602   -0.924054   -2.538847
  H     -0.837275   -0.965457   -2.582326
  H      0.030985    0.309021   -3.432859
  C     -0.023489    0.552559   -1.269910
  H     -0.912586    1.187178   -1.286524
  H      0.836639    1.225143   -1.244678
  C     -0.027088   -0.286739    0.000000
  H     -0.902187   -0.943538    0.000000
  H      0.851521   -0.937132    0.000000
  C     -0.023489    0.552559    1.269910
  H     -0.912586    1.187178    1.286524
  H      0.836639    1.225143    1.244678
  C      0.024996   -0.300734    2.530444
  H      0.919602   -0.924054    2.538847
  H      0.030985    0.309021    3.432859
  H     -0.837275   -0.965457    2.582326

 Total Charge           Charge          ....    0
 Multiplicity           Mult            ....    1
 Number of Electrons    NEL             ....   42
 Basis Dimension        Dim             ....   99

ORBITAL ENERGIES
----------------

  NO   OCC          E(Eh)            E(eV)
   0   2.0000     -10.426594      -283.7221
   1   2.0000     -10.426568      -283.7213
   2   2.0000     -10.424472      -283.6643
   3   2.0000     -10.418808      -283.5102
   4   2.0000     -10.418798      -283.5099
   5   2.0000      -0.893499       -24.3133
   6   2.0000      -0.836866       -22.7723
   7   2.0000      -0.754523       -20.5316
   8   2.0000      -0.670418       -18.2430
   9   2.0000      -0.644211       -17.5299
  10   2.0000      -0.536636       -14.6026
  11   2.0000      -0.494977       -13.4690
  12   2.0000      -0.488060       -13.2808
  13   2.0000      -0.457615       -12.4523
  14   2.0000      -0.447246       -12.1702
  15   2.0000      -0.427855       -11.6425
  16   2.0000      -0.402157       -10.9432
  17   2.0000      -0.382176       -10.3995
  18   2.0000      -0.373101       -10.1526
  19   2.0000      -0.366714        -9.9788
  20   2.0000      -0.361248        -9.8301
  21   0.0000       0.137247         3.7347
  22   0.0000       0.155205         4.2233
  23   0.0000       0.184890         5.0311
  24   0.0000       0.186828         5.0839
  25   0.0000       0.202739         5.5168

MULLIKEN ATOMIC CHARGES
-----------------------
   0 C :   -0.638727
   1 H :    0.208443
   2 H :    0.208898
   3 H :    0.218406
   4 C :   -0.409826
   5 H :    0.204929
   6 H :    0.203953
   7 C :   -0.391003
   8 H :    0.200094
   9 H :    0.198759
  10 C :   -0.409826
  11 H :    0.204929
  12 H :    0.203953
  13 C :   -0.638727
  14 H :    0.208443
  15 H :    0.218406
  16 H :    0.208898
Sum of atomic charges:    0.0000000

LOEWDIN ATOMIC CHARGES
----------------------
   0 C :   -0.361961
   1 H :    0.123191
   2 H :    0.123337
   3 H :    0.125697
   4 C :   -0.246237
   5 H :    0.119446
   6 H :    0.119092
   7 C :   -0.241519
   8 H :    0.118417
   9 H :    0.117974
  10 C :   -0.246237
  11 H :    0.119446
  12 H :    0.119092
  13 C :   -0.361961
  14 H :    0.123191
  15 H :    0.125697
  16 H :    0.123337

  Mayer bond orders larger than 0.100000
B(  0-C ,  1-H ) :   0.9297 B(  0-C ,  2-H ) :   0.9295 B(  0-C ,  3-H ) :   0.9325
B(  0-C ,  4-C ) :   0.9985 B(  4-C ,  5-H ) :   0.9204 B(  4-C ,  6-H ) :   0.9205
B(  4-C ,  7-C ) :   0.9922 B(  7-C ,  8-H ) :   0.9183 B(  7-C ,  9-H ) :   0.9184
B(  7-C , 10-C ) :   0.9922 B( 10-C , 11-H ) :   0.9204 B( 10-C , 12-H ) :   0.9205
B( 10-C , 13-C ) :   0.9985 B( 13-C , 14-H ) :   0.9297 B( 13-C , 15-H ) :   0.9325
B( 13-C , 16-H ) :   0.9295

Dispersion correction           -0.006821619
FINAL SINGLE POINT ENERGY      -197.333809755322

DIPOLE MOMENT
-------------
                                X             Y             Z
Electronic contribution:     -0.06523       0.59490       0.00000
Nuclear contribution   :      0.06391      -0.57598       0.00000
                        -----------------------------------------
Total Dipole Moment    :     -0.00132       0.01891       0.00000
                        -----------------------------------------
Magnitude (a.u.)       :      0.01896
Magnitude (Debye)      :      0.04819

Rotational constants in cm-1:     0.568436     0.065596     0.062185
Rotational constants in MHz : 17041.278292  1966.532375  1864.254324

                             ****ORCA TERMINATED NORMALLY****
TOTAL RUN TIME: 0 days 0 hours 1 minutes 15 seconds 43 msec
