                         Program Version 5.0.3 -  RELEASE  -
|  1> ! PBEh-3c def2/J TightSCF DefGrid3
|  2>
|  3> %maxcore 60000
|  4>
|  5> %pal
|  6> nprocs 4
|  7> end
|  8>
|  9> *xyzfile 1 1 assp.xyz
| 10>
| 11>                          ****END OF INPUT****

CARTESIAN COORDINATES (ANGSTROEM)
---------------------------------
  C      1.195145    0.285430   -0.193831
  C      0.063460   -0.459036    0.175425
  C      0.106710   -1.838211    0.195300
  C      1.276436   -2.484154   -0.175222
  C      2.402315   -1.766311   -0.561965
  C      2.366075   -0.389478   -0.566402
  C      1.198928    1.730281   -0.169331
  O     -1.052775    0.229073    0.567974
  O      0.266581    2.450241    0.315774
  O      2.210511    2.329939   -0.656558
  C     -2.285183   -0.043342    0.001017
  H      2.172990    3.300187   -0.587575
  O     -2.399947   -0.816338   -0.893584
  C     -3.345156    0.760928    0.666483
  H     -0.752239   -2.415722    0.508991
  H      1.307694   -3.566143   -0.153966
  H      3.308941   -2.283190   -0.846036
  H      3.252096    0.164744   -0.845681
  H     -3.405462    0.498910    1.724121
  H     -4.304682    0.571755    0.193491
  H     -3.122660    1.827604    0.605317
  H     -0.459776    1.912833    0.696260

 Total Charge           Charge          ....    1
 Multiplicity           Mult            ....    1
 Number of Electrons    NEL             ....   94
 Basis Dimension        Dim             ....  213

ORBITAL ENERGIES
----------------

  NO   OCC          E(Eh)            E(eV)
   0   2.0000     -19.772673      -538.0418
   1   2.0000     -19.770884      -537.9931
   2   2.0000     -19.736082      -537.0461
   3   2.0000     -19.646516      -534.6089
   4   2.0000     -10.830649      -294.7169
   5   2.0000     -10.742365      -292.3146
   6   2.0000     -10.705763      -291.3186
   7   2.0000     -10.653216      -289.8888
   8   2.0000     -10.632826      -289.3339
   9   2.0000     -10.624769      -289.1147
  10   2.0000     -10.616074      -288.8780
  11   2.0000     -10.609443      -288.6976
  12   2.0000     -10.586535      -288.0743
  13   2.0000      -1.488837       -40.5133
  14   2.0000      -1.411749       -38.4157
  15   2.0000      -1.395737       -37.9799
  16   2.0000      -1.307238       -35.5718
  17   2.0000      -1.146841       -31.2071
  18   2.0000      -1.058593       -28.8058
  19   2.0000      -1.034641       -28.1540
  20   2.0000      -0.987622       -26.8746
  21   2.0000      -0.966614       -26.3029
  22   2.0000      -0.917554       -24.9679
  23   2.0000      -0.895302       -24.3624
  24   2.0000      -0.878698       -23.9106
  25   2.0000      -0.817983       -22.2584
  26   2.0000      -0.790731       -21.5169
  27   2.0000      -0.762617       -20.7519
  28   2.0000      -0.748675       -20.3725
  29   2.0000      -0.722738       -19.6667
  30   2.0000      -0.716096       -19.4860
  31   2.0000      -0.705968       -19.2104
  32   2.0000      -0.691971       -18.8295
  33   2.0000      -0.673766       -18.3341
  34   2.0000      -0.669998       -18.2316
  35   2.0000      -0.653868       -17.7927
  36   2.0000      -0.633731       -17.2447
  37   2.0000      -0.631252       -17.1772
  38   2.0000      -0.615581       -16.7508
  39   2.0000      -0.605315       -16.4715
  40   2.0000      -0.588627       -16.0174
  41   2.0000      -0.582676       -15.8554
  42   2.0000      -0.578587       -15.7441
  43   2.0000      -0.545108       -14.8331
  44   2.0000      -0.497739       -13.5442
  45   2.0000      -0.478439       -13.0190
  46   2.0000      -0.456963       -12.4346
  47   0.0000      -0.232738        -6.3331
  48   0.0000      -0.148597        -4.0435
  49   0.0000      -0.110325        -3.0021
  50   0.0000      -0.101329        -2.7573
  51   0.0000      -0.059116        -1.6086

MULLIKEN ATOMIC CHARGES
-----------------------
   0 C :   -0.201285
   1 C :    0.467716
   2 C :   -0.258050
   3 C :   -0.193166
   4 C :   -0.207386
   5 C :   -0.222014
   6 C :    0.669523
   7 O :   -0.565929
   8 O :   -0.502533
   9 O :   -0.484083
  10 C :    0.532826
  11 H :    0.506885
  12 O :   -0.299449
  13 C :   -0.766874
  14 H :    0.297132
  15 H :    0.292359
  16 H :    0.285325
  17 H :    0.287808
  18 H :    0.284951
  19 H :    0.308202
  20 H :    0.252936
  21 H :    0.515106
Sum of atomic charges:    1.0000000

LOEWDIN ATOMIC CHARGES
----------------------
   0 C :   -0.140814
   1 C :    0.113388
   2 C :   -0.118871
   3 C :   -0.041925
   4 C :   -0.113324
   5 C :   -0.055524
   6 C :    0.250994
   7 O :   -0.158405
   8 O :   -0.175612
   9 O :   -0.150281
  10 C :    0.159353
  11 H :    0.381963
  12 O :   -0.133766
  13 C :   -0.382788
  14 H :    0.175646
  15 H :    0.170947
  16 H :    0.168412
  17 H :    0.172076
  18 H :    0.174893
  19 H :    0.179738
  20 H :    0.158617
  21 H :    0.365282

  Mayer bond orders larger than 0.100000
B(  0-C ,  1-C ) :   1.2611 B(  0-C ,  5-C ) :   1.2706 B(  0-C ,  6-C ) :   1.1111
B(  1-C ,  2-C ) :   1.4092 B(  1-C ,  7-O ) :   0.8979 B(  2-C ,  3-C ) :   1.3948
B(  2-C , 14-H ) :   0.8839 B(  3-C ,  4-C ) :   1.3734 B(  3-C , 15-H ) :   0.8916
B(  4-C ,  5-C ) :   1.4731 B(  4-C , 16-H ) :   0.8942 B(  5-C , 17-H ) :   0.8959
B(  6-C ,  8-O ) :   1.3751 B(  6-C ,  9-O ) :   1.3498 B(  7-O , 10-C ) :   0.8856
B(  7-O , 21-H ) :   0.1002 B(  8-O , 21-H ) :   0.6293 B(  9-O , 11-H ) :   0.7005
B( 10-C , 12-O ) :   2.1722 B( 10-C , 13-C ) :   0.9500 B( 13-C , 18-H ) :   0.8859
B( 13-C , 19-H ) :   0.8923 B( 13-C , 20-H ) :   0.8986

Dispersion correction           -0.013397286
FINAL SINGLE POINT ENERGY      -647.649818911890

DIPOLE MOMENT
-------------
                                X             Y             Z
Electronic contribution:      3.72961       2.14014      -1.34119
Nuclear contribution   :     -2.74549      -0.70681       1.99844
                        -----------------------------------------
Total Dipole Moment    :      0.98412       1.43333       0.65725
                        -----------------------------------------
Magnitude (a.u.)       :      1.85874
Magnitude (Debye)      :      4.72455

Rotational constants in cm-1:     0.035747     0.024468     0.015442
Rotational constants in MHz :  1071.659761   733.542562   462.929465

                             ****ORCA TERMINATED NORMALLY****
TOTAL RUN TIME: 0 days 0 hours 2 minutes 30 seconds 183 msec
