                         Program Version 5.0.3 -  RELEASE  -
|  1> ! PBEh-3c def2/J TightSCF DefGrid3
|  2>
|  3> %maxcore 60000
|  4>
|  5> %pal
|  6> nprocs 4
|  7> end
|  8>
|  9> *xyzfile 0 1 R56.xyz
| 10>
| 11>                          ****END OF INPUT****

CARTESIAN COORDINATES (ANGSTROEM)
---------------------------------
  C      1.736172   -0.910323   -0.162449
  C      0.229441   -1.110533    0.109606
  C      2.003280    0.590354    0.097955
  C     -0.342272    0.285737   -0.008115
  C      0.636034    1.200663   -0.014955
  C     -1.761230    0.575527   -0.052274
  C     -2.735594   -0.334589    0.008546
  H      1.947039   -1.135919   -1.208120
  H      2.364159   -1.561816    0.442945
  H      0.043609   -1.506257    1.113148
  H     -0.229180   -1.810202   -0.590652
  H      2.721116    1.016859   -0.605630
  H      2.417298    0.761155    1.098411
  H      0.467738    2.268976   -0.053624
  H     -2.026124    1.624680   -0.137283
  H     -2.523903   -1.391770    0.096543
  H     -3.776740   -0.046716   -0.025628

 Total Charge           Charge          ....    0
 Multiplicity           Mult            ....    1
 Number of Electrons    NEL             ....   52
 Basis Dimension        Dim             ....  125

ORBITAL ENERGIES
----------------

  NO   OCC          E(Eh)            E(eV)
   0   2.0000     -10.445609      -284.2395
   1   2.0000     -10.444444      -284.2078
   2   2.0000     -10.438778      -284.0536
   3   2.0000     -10.436499      -283.9916
   4   2.0000     -10.434727      -283.9434
   5   2.0000     -10.434406      -283.9346
   6   2.0000     -10.434071      -283.9255
   7   2.0000      -0.946793       -25.7635
   8   2.0000      -0.866720       -23.5847
   9   2.0000      -0.794627       -21.6229
  10   2.0000      -0.780710       -21.2442
  11   2.0000      -0.670633       -18.2489
  12   2.0000      -0.639034       -17.3890
  13   2.0000      -0.584873       -15.9152
  14   2.0000      -0.553316       -15.0565
  15   2.0000      -0.529704       -14.4140
  16   2.0000      -0.502448       -13.6723
  17   2.0000      -0.455174       -12.3859
  18   2.0000      -0.446771       -12.1572
  19   2.0000      -0.423719       -11.5300
  20   2.0000      -0.403973       -10.9927
  21   2.0000      -0.397913       -10.8278
  22   2.0000      -0.392327       -10.6757
  23   2.0000      -0.382165       -10.3992
  24   2.0000      -0.342720        -9.3259
  25   2.0000      -0.257030        -6.9942
  26   0.0000       0.004228         0.1151
  27   0.0000       0.116173         3.1612
  28   0.0000       0.145634         3.9629
  29   0.0000       0.166540         4.5318
  30   0.0000       0.175813         4.7841

MULLIKEN ATOMIC CHARGES
-----------------------
   0 C :   -0.445544
   1 C :   -0.488844
   2 C :   -0.453525
   3 C :    0.131559
   4 C :   -0.262885
   5 C :   -0.188909
   6 C :   -0.504849
   7 H :    0.228044
   8 H :    0.221980
   9 H :    0.228902
  10 H :    0.225482
  11 H :    0.224668
  12 H :    0.226409
  13 H :    0.212661
  14 H :    0.209613
  15 H :    0.215443
  16 H :    0.219793
Sum of atomic charges:   -0.0000000

LOEWDIN ATOMIC CHARGES
----------------------
   0 C :   -0.230630
   1 C :   -0.231280
   2 C :   -0.237855
   3 C :   -0.064497
   4 C :   -0.138323
   5 C :   -0.132266
   6 C :   -0.268560
   7 H :    0.129283
   8 H :    0.125375
   9 H :    0.131928
  10 H :    0.129255
  11 H :    0.128467
  12 H :    0.130327
  13 H :    0.130863
  14 H :    0.133703
  15 H :    0.130696
  16 H :    0.133514

  Mayer bond orders larger than 0.100000
B(  0-C ,  1-C ) :   0.9759 B(  0-C ,  2-C ) :   0.9705 B(  0-C ,  7-H ) :   0.9254
B(  0-C ,  8-H ) :   0.9298 B(  1-C ,  3-C ) :   0.9669 B(  1-C ,  9-H ) :   0.9097
B(  1-C , 10-H ) :   0.9192 B(  2-C ,  4-C ) :   1.0010 B(  2-C , 11-H ) :   0.9198
B(  2-C , 12-H ) :   0.9080 B(  3-C ,  4-C ) :   1.7575 B(  3-C ,  5-C ) :   1.0985
B(  4-C ,  6-C ) :   0.1091 B(  4-C , 13-H ) :   0.9281 B(  5-C ,  6-C ) :   1.8438
B(  5-C , 14-H ) :   0.9241 B(  6-C , 15-H ) :   0.9257 B(  6-C , 16-H ) :   0.9270

Dispersion correction           -0.008497687
FINAL SINGLE POINT ENERGY      -272.125632827992

DIPOLE MOMENT
-------------
                                X             Y             Z
Electronic contribution:     -1.28450       1.83643      -0.10478
Nuclear contribution   :      1.45728      -1.84727       0.13495
                        -----------------------------------------
Total Dipole Moment    :      0.17278      -0.01083       0.03017
                        -----------------------------------------
Magnitude (a.u.)       :      0.17573
Magnitude (Debye)      :      0.44666

Rotational constants in cm-1:     0.213880     0.061988     0.049616
Rotational constants in MHz :  6411.971108  1858.365812  1487.436377

                             ****ORCA TERMINATED NORMALLY****
TOTAL RUN TIME: 0 days 0 hours 1 minutes 6 seconds 255 msec
