                         Program Version 5.0.3 -  RELEASE  -
|  1> ! PBEh-3c def2/J TightSCF DefGrid3
|  2>
|  3> %maxcore 60000
|  4>
|  5> %pal
|  6> nprocs 4
|  7> end
|  8>
|  9> *xyzfile 0 1 undecan1.xyz
| 10>
| 11>                          ****END OF INPUT****

CARTESIAN COORDINATES (ANGSTROEM)
---------------------------------
  C     -2.530746   -0.396781   -0.666318
  C     -1.350107    0.000878    0.240470
  C      0.000000    0.000000   -0.587921
  C      1.350107   -0.000878    0.240470
  C      2.530746    0.396781   -0.666318
  C     -1.379337   -1.002346    1.398119
  C     -1.719329    1.382765    0.802976
  C      0.005934   -1.231028   -1.509173
  C     -0.005934    1.231028   -1.509173
  C      1.719329   -1.382765    0.802976
  C      1.379337    1.002346    1.398119
  H     -2.500005   -1.450184   -0.942793
  H     -3.461689   -0.230489   -0.120134
  H     -2.580263    0.197202   -1.578966
  H      2.580263   -0.197202   -1.578966
  H      2.500005    1.450184   -0.942793
  H      3.461689    0.230489   -0.120134
  H     -1.136985   -2.012583    1.066794
  H     -0.709054   -0.731378    2.211243
  H     -2.391304   -1.032289    1.809813
  H     -1.920061    2.099285    0.006281
  H     -2.637993    1.286641    1.386970
  H     -0.962345    1.803447    1.457172
  H     -0.233810   -2.151760   -0.976280
  H     -0.716122   -1.111434   -2.316300
  H      0.981491   -1.363347   -1.975916
  H      0.233810    2.151760   -0.976280
  H      0.716122    1.111434   -2.316300
  H     -0.981491    1.363347   -1.975916
  H      1.920061   -2.099285    0.006281
  H      2.637993   -1.286641    1.386970
  H      0.962345   -1.803447    1.457172
  H      1.136985    2.012583    1.066794
  H      0.709054    0.731378    2.211243
  H      2.391304    1.032289    1.809813

 Total Charge           Charge          ....    0
 Multiplicity           Mult            ....    1
 Number of Electrons    NEL             ....   90
 Basis Dimension        Dim             ....  213

ORBITAL ENERGIES
----------------

  NO   OCC          E(Eh)            E(eV)
   0   2.0000     -10.451019      -284.3867
   1   2.0000     -10.450182      -284.3639
   2   2.0000     -10.450133      -284.3626
   3   2.0000     -10.417870      -283.4847
   4   2.0000     -10.417869      -283.4846
   5   2.0000     -10.416811      -283.4558
   6   2.0000     -10.416796      -283.4554
   7   2.0000     -10.415762      -283.4273
   8   2.0000     -10.415713      -283.4260
   9   2.0000     -10.413992      -283.3791
  10   2.0000     -10.413986      -283.3790
  11   2.0000      -0.940571       -25.5942
  12   2.0000      -0.889753       -24.2114
  13   2.0000      -0.835203       -22.7270
  14   2.0000      -0.782662       -21.2973
  15   2.0000      -0.761775       -20.7290
  16   2.0000      -0.754200       -20.5228
  17   2.0000      -0.752959       -20.4891
  18   2.0000      -0.740264       -20.1436
  19   2.0000      -0.681205       -18.5365
  20   2.0000      -0.619451       -16.8561
  21   2.0000      -0.561438       -15.2775
  22   2.0000      -0.537845       -14.6355
  23   2.0000      -0.522627       -14.2214
  24   2.0000      -0.505033       -13.7427
  25   2.0000      -0.497545       -13.5389
  26   2.0000      -0.492120       -13.3913
  27   2.0000      -0.481780       -13.1099
  28   2.0000      -0.458050       -12.4642
  29   2.0000      -0.456136       -12.4121
  30   2.0000      -0.444062       -12.0836
  31   2.0000      -0.431720       -11.7477
  32   2.0000      -0.419633       -11.4188
  33   2.0000      -0.418652       -11.3921
  34   2.0000      -0.413125       -11.2417
  35   2.0000      -0.407932       -11.1004
  36   2.0000      -0.406671       -11.0661
  37   2.0000      -0.405162       -11.0250
  38   2.0000      -0.397464       -10.8155
  39   2.0000      -0.391122       -10.6430
  40   2.0000      -0.370142       -10.0721
  41   2.0000      -0.365734        -9.9521
  42   2.0000      -0.342219        -9.3122
  43   2.0000      -0.335959        -9.1419
  44   2.0000      -0.327125        -8.9015
  45   0.0000       0.110605         3.0097
  46   0.0000       0.152857         4.1595
  47   0.0000       0.155557         4.2329
  48   0.0000       0.161656         4.3989
  49   0.0000       0.166870         4.5408

MULLIKEN ATOMIC CHARGES
-----------------------
   0 C :   -0.637138
   1 C :   -0.069748
   2 C :    0.023693
   3 C :   -0.069747
   4 C :   -0.637139
   5 C :   -0.637459
   6 C :   -0.634877
   7 C :   -0.672105
   8 C :   -0.672105
   9 C :   -0.634877
  10 C :   -0.637459
  11 H :    0.222641
  12 H :    0.216851
  13 H :    0.215252
  14 H :    0.215252
  15 H :    0.222641
  16 H :    0.216851
  17 H :    0.214784
  18 H :    0.219394
  19 H :    0.217376
  20 H :    0.219480
  21 H :    0.211346
  22 H :    0.230762
  23 H :    0.220173
  24 H :    0.230340
  25 H :    0.221080
  26 H :    0.220173
  27 H :    0.230340
  28 H :    0.221080
  29 H :    0.219480
  30 H :    0.211346
  31 H :    0.230762
  32 H :    0.214785
  33 H :    0.219394
  34 H :    0.217376
Sum of atomic charges:   -0.0000000

LOEWDIN ATOMIC CHARGES
----------------------
   0 C :   -0.342094
   1 C :   -0.085199
   2 C :   -0.065239
   3 C :   -0.085199
   4 C :   -0.342094
   5 C :   -0.342456
   6 C :   -0.346104
   7 C :   -0.342316
   8 C :   -0.342316
   9 C :   -0.346104
  10 C :   -0.342456
  11 H :    0.125517
  12 H :    0.124843
  13 H :    0.120807
  14 H :    0.120807
  15 H :    0.125517
  16 H :    0.124843
  17 H :    0.122464
  18 H :    0.121181
  19 H :    0.125170
  20 H :    0.125867
  21 H :    0.123676
  22 H :    0.127794
  23 H :    0.122919
  24 H :    0.127952
  25 H :    0.122601
  26 H :    0.122919
  27 H :    0.127952
  28 H :    0.122601
  29 H :    0.125867
  30 H :    0.123676
  31 H :    0.127794
  32 H :    0.122464
  33 H :    0.121181
  34 H :    0.125170

  Mayer bond orders larger than 0.100000
B(  0-C ,  1-C ) :   0.9771 B(  0-C , 11-H ) :   0.9227 B(  0-C , 12-H ) :   0.9227
B(  0-C , 13-H ) :   0.9210 B(  1-C ,  2-C ) :   0.9377 B(  1-C ,  5-C ) :   0.9825
B(  1-C ,  6-C ) :   0.9844 B(  2-C ,  3-C ) :   0.9377 B(  2-C ,  7-C ) :   0.9693
B(  2-C ,  8-C ) :   0.9693 B(  3-C ,  4-C ) :   0.9771 B(  3-C ,  9-C ) :   0.9844
B(  3-C , 10-C ) :   0.9825 B(  4-C , 14-H ) :   0.9210 B(  4-C , 15-H ) :   0.9227
B(  4-C , 16-H ) :   0.9227 B(  5-C , 17-H ) :   0.9217 B(  5-C , 18-H ) :   0.9159
B(  5-C , 19-H ) :   0.9217 B(  6-C , 20-H ) :   0.9236 B(  6-C , 21-H ) :   0.9243
B(  6-C , 22-H ) :   0.9141 B(  7-C , 23-H ) :   0.9210 B(  7-C , 24-H ) :   0.9187
B(  7-C , 25-H ) :   0.9159 B(  8-C , 26-H ) :   0.9210 B(  8-C , 27-H ) :   0.9187
B(  8-C , 28-H ) :   0.9159 B(  9-C , 29-H ) :   0.9236 B(  9-C , 30-H ) :   0.9243
B(  9-C , 31-H ) :   0.9141 B( 10-C , 32-H ) :   0.9217 B( 10-C , 33-H ) :   0.9159
B( 10-C , 34-H ) :   0.9217

Dispersion correction           -0.024289925
FINAL SINGLE POINT ENERGY      -432.687407076343

DIPOLE MOMENT
-------------
                                X             Y             Z
Electronic contribution:      0.00000       0.00000      -0.14858
Nuclear contribution   :      0.00000       0.00000       0.14072
                        -----------------------------------------
Total Dipole Moment    :      0.00000       0.00000      -0.00786
                        -----------------------------------------
Magnitude (a.u.)       :      0.00786
Magnitude (Debye)      :      0.01997

Rotational constants in cm-1:     0.048420     0.029757     0.028388
Rotational constants in MHz :  1451.610010   892.079457   851.050435

                             ****ORCA TERMINATED NORMALLY****
TOTAL RUN TIME: 0 days 0 hours 3 minutes 1 seconds 731 msec
