                         Program Version 5.0.3 -  RELEASE  -
|  1> ! PBEh-3c def2/J TightSCF DefGrid3
|  2>
|  3> %maxcore 60000
|  4>
|  5> %pal
|  6> nprocs 4
|  7> end
|  8>
|  9> *xyzfile 0 1 h2o2.xyz
| 10>
| 11>                          ****END OF INPUT****

CARTESIAN COORDINATES (ANGSTROEM)
---------------------------------
  O      0.040291   -0.715039   -0.233751
  O     -0.040291    0.715039   -0.233751
  H     -0.770247   -0.938058    0.233757
  H      0.770247    0.938058    0.233757

 Total Charge           Charge          ....    0
 Multiplicity           Mult            ....    1
 Number of Electrons    NEL             ....   18
 Basis Dimension        Dim             ....   34

ORBITAL ENERGIES
----------------

  NO   OCC          E(Eh)            E(eV)
   0   2.0000     -19.543750      -531.8125
   1   2.0000     -19.543712      -531.8114
   2   2.0000      -1.232172       -33.5291
   3   2.0000      -0.990201       -26.9447
   4   2.0000      -0.590372       -16.0648
   5   2.0000      -0.562811       -15.3149
   6   2.0000      -0.480130       -13.0650
   7   2.0000      -0.381610       -10.3841
   8   2.0000      -0.329896        -8.9769
   9   0.0000       0.092927         2.5287
  10   0.0000       0.133921         3.6442
  11   0.0000       0.182715         4.9719
  12   0.0000       0.870449        23.6861
  13   0.0000       0.893592        24.3159

MULLIKEN ATOMIC CHARGES
-----------------------
   0 O :   -0.437394
   1 O :   -0.437394
   2 H :    0.437394
   3 H :    0.437394
Sum of atomic charges:   -0.0000000

LOEWDIN ATOMIC CHARGES
----------------------
   0 O :   -0.305760
   1 O :   -0.305760
   2 H :    0.305760
   3 H :    0.305760

  Mayer bond orders larger than 0.100000
B(  0-O ,  1-O ) :   1.0018 B(  0-O ,  2-H ) :   0.7827 B(  1-O ,  3-H ) :   0.7827

Dispersion correction           -0.000470082
FINAL SINGLE POINT ENERGY      -151.221085295892

DIPOLE MOMENT
-------------
                                X             Y             Z
Electronic contribution:      0.00000       0.00000      -0.12363
Nuclear contribution   :      0.00000       0.00000       0.82440
                        -----------------------------------------
Total Dipole Moment    :      0.00000       0.00000       0.70076
                        -----------------------------------------
Magnitude (a.u.)       :      0.70076
Magnitude (Debye)      :      1.78120

Rotational constants in cm-1:    10.244169     0.908015     0.869760
Rotational constants in MHz : 307112.447688 27221.613230 26074.757293

                             ****ORCA TERMINATED NORMALLY****
TOTAL RUN TIME: 0 days 0 hours 0 minutes 55 seconds 755 msec
