                         Program Version 5.0.3 -  RELEASE  -
|  1> ! PBEh-3c def2/J TightSCF DefGrid3
|  2>
|  3> %maxcore 60000
|  4>
|  5> %pal
|  6> nprocs 4
|  7> end
|  8>
|  9> *xyzfile 0 1 hf_4_ts.xyz
| 10>
| 11>                          ****END OF INPUT****

CARTESIAN COORDINATES (ANGSTROEM)
---------------------------------
  H      0.000000    1.264867    0.000000
  H      1.264867    0.000000    0.000000
  H      0.000000   -1.264867    0.000000
  H     -1.264867    0.000000    0.000000
  F      1.142134    1.142134    0.000000
  F      1.142134   -1.142134    0.000000
  F     -1.142134   -1.142134    0.000000
  F     -1.142134    1.142134    0.000000

 Total Charge           Charge          ....    0
 Multiplicity           Mult            ....    1
 Number of Electrons    NEL             ....   40
 Basis Dimension        Dim             ....   68

ORBITAL ENERGIES
----------------

  NO   OCC          E(Eh)            E(eV)
   0   2.0000     -25.112407      -683.3433
   1   2.0000     -25.112338      -683.3415
   2   2.0000     -25.112338      -683.3415
   3   2.0000     -25.112118      -683.3355
   4   2.0000      -1.374896       -37.4128
   5   2.0000      -1.333411       -36.2840
   6   2.0000      -1.333411       -36.2840
   7   2.0000      -1.289936       -35.1009
   8   2.0000      -0.716312       -19.4918
   9   2.0000      -0.656498       -17.8642
  10   2.0000      -0.656498       -17.8642
  11   2.0000      -0.637081       -17.3358
  12   2.0000      -0.532338       -14.4857
  13   2.0000      -0.511699       -13.9240
  14   2.0000      -0.511699       -13.9240
  15   2.0000      -0.504619       -13.7314
  16   2.0000      -0.504619       -13.7314
  17   2.0000      -0.495706       -13.4888
  18   2.0000      -0.493237       -13.4217
  19   2.0000      -0.485378       -13.2078
  20   0.0000       0.146538         3.9875
  21   0.0000       0.254732         6.9316
  22   0.0000       0.254732         6.9316
  23   0.0000       0.346323         9.4239
  24   0.0000       0.568152        15.4602

MULLIKEN ATOMIC CHARGES
-----------------------
   0 H :    0.557959
   1 H :    0.557959
   2 H :    0.557959
   3 H :    0.557959
   4 F :   -0.557959
   5 F :   -0.557959
   6 F :   -0.557959
   7 F :   -0.557959
Sum of atomic charges:   -0.0000000

LOEWDIN ATOMIC CHARGES
----------------------
   0 H :    0.417319
   1 H :    0.417319
   2 H :    0.417319
   3 H :    0.417319
   4 F :   -0.417319
   5 F :   -0.417319
   6 F :   -0.417319
   7 F :   -0.417319

  Mayer bond orders larger than 0.100000
B(  0-H ,  4-F ) :   0.3441 B(  0-H ,  7-F ) :   0.3441 B(  1-H ,  4-F ) :   0.3441
B(  1-H ,  5-F ) :   0.3441 B(  2-H ,  5-F ) :   0.3441 B(  2-H ,  6-F ) :   0.3441
B(  3-H ,  6-F ) :   0.3441 B(  3-H ,  7-F ) :   0.3441

Dispersion correction           -0.001695309
FINAL SINGLE POINT ENERGY      -401.024412977463

DIPOLE MOMENT
-------------
                                X             Y             Z
Electronic contribution:      0.00000      -0.00000      -0.00000
Nuclear contribution   :      0.00000       0.00000       0.00000
                        -----------------------------------------
Total Dipole Moment    :      0.00000      -0.00000      -0.00000
                        -----------------------------------------
Magnitude (a.u.)       :      0.00000
Magnitude (Debye)      :      0.00000

Rotational constants in cm-1:     0.164698     0.164698     0.082349
Rotational constants in MHz :  4937.533304  4937.533304  2468.766652

                             ****ORCA TERMINATED NORMALLY****
TOTAL RUN TIME: 0 days 0 hours 0 minutes 50 seconds 762 msec
