                         Program Version 5.0.3 -  RELEASE  -
|  1> ! PBEh-3c def2/J TightSCF DefGrid3
|  2>
|  3> %maxcore 60000
|  4>
|  5> %pal
|  6> nprocs 4
|  7> end
|  8>
|  9> *xyzfile -1 1 EA_cl-.xyz
| 10>
| 11>                          ****END OF INPUT****

CARTESIAN COORDINATES (ANGSTROEM)
---------------------------------
  Cl     0.000000    0.000000    0.000000

 Total Charge           Charge          ....   -1
 Multiplicity           Mult            ....    1
 Number of Electrons    NEL             ....   18
 Basis Dimension        Dim             ....   18

ORBITAL ENERGIES
----------------

  NO   OCC          E(Eh)            E(eV)
   0   2.0000    -101.881158     -2772.3273
   1   2.0000      -9.345078      -254.2925
   2   2.0000      -7.028146      -191.2456
   3   2.0000      -7.028146      -191.2456
   4   2.0000      -7.028146      -191.2456
   5   2.0000      -0.481046       -13.0899
   6   2.0000       0.001394         0.0379
   7   2.0000       0.001394         0.0379
   8   2.0000       0.001394         0.0379
   9   0.0000       0.819690        22.3049
  10   0.0000       1.226372        33.3713
  11   0.0000       1.226372        33.3713
  12   0.0000       1.226372        33.3713
  13   0.0000       1.226372        33.3713

MULLIKEN ATOMIC CHARGES
-----------------------
   0 Cl:   -1.000000
Sum of atomic charges:   -1.0000000

LOEWDIN ATOMIC CHARGES
----------------------
   0 Cl:   -1.000000

Dispersion correction            0.000000000
FINAL SINGLE POINT ENERGY      -459.735487333212

DIPOLE MOMENT
-------------
                                X             Y             Z
Electronic contribution:      0.00000      -0.00000       0.00000
Nuclear contribution   :      0.00000       0.00000       0.00000
                        -----------------------------------------
Total Dipole Moment    :      0.00000      -0.00000       0.00000
                        -----------------------------------------
Magnitude (a.u.)       :      0.00000
Magnitude (Debye)      :      0.00000

Rotational constants in cm-1:     0.000000     0.000000     0.000000
Rotational constants in MHz :     0.000000     0.000000     0.000000

                             ****ORCA TERMINATED NORMALLY****
TOTAL RUN TIME: 0 days 0 hours 0 minutes 9 seconds 725 msec
