                         Program Version 5.0.3 -  RELEASE  -
|  1> ! PBEh-3c def2/J TightSCF DefGrid3
|  2>
|  3> %maxcore 60000
|  4>
|  5> %pal
|  6> nprocs 4
|  7> end
|  8>
|  9> *xyzfile 0 1 C15.xyz
| 10>
| 11>                          ****END OF INPUT****

CARTESIAN COORDINATES (ANGSTROEM)
---------------------------------
  C      2.308261    0.567255    0.304239
  C      1.432294   -0.670396    0.130114
  C      0.146160   -0.428901   -0.676825
  C     -0.967740    0.345332    0.077984
  C     -2.134351   -0.660785    0.166478
  O     -2.820207   -0.668652    1.408978
  C     -1.458581   -2.007939   -0.064378
  O      3.493198    0.264365    1.024219
  O     -1.446917    1.505535   -0.588488
  O      2.248573   -1.628242   -0.545194
  O     -0.419037   -1.721757   -1.005903
  C     -0.605233    2.645772   -0.497472
  H      1.786251    1.335314    0.881849
  H      2.548616    0.977927   -0.689336
  H      1.167021   -1.055011    1.128967
  H      0.389729    0.051863   -1.630428
  H     -0.644977    0.610125    1.096952
  H     -2.820162   -0.436372   -0.660692
  H     -3.391180    0.109021    1.456570
  H     -2.113751   -2.759311   -0.508990
  H     -1.058485   -2.396870    0.883745
  H      3.889524   -0.513219    0.603554
  H      1.662236   -2.337439   -0.851493
  H     -0.408132    2.913724    0.550983
  H      0.353256    2.491807   -1.012292
  H     -1.136366    3.466856   -0.983135

 Total Charge           Charge          ....    0
 Multiplicity           Mult            ....    1
 Number of Electrons    NEL             ....   96
 Basis Dimension        Dim             ....  208

ORBITAL ENERGIES
----------------

  NO   OCC          E(Eh)            E(eV)
   0   2.0000     -19.514857      -531.0263
   1   2.0000     -19.513305      -530.9840
   2   2.0000     -19.504318      -530.7395
   3   2.0000     -19.491951      -530.4029
   4   2.0000     -19.481615      -530.1217
   5   2.0000     -10.506810      -285.9048
   6   2.0000     -10.504504      -285.8421
   7   2.0000     -10.503576      -285.8168
   8   2.0000     -10.495609      -285.6000
   9   2.0000     -10.495301      -285.5916
  10   2.0000     -10.493148      -285.5331
  11   2.0000     -10.486277      -285.3461
  12   2.0000      -1.171304       -31.8728
  13   2.0000      -1.150969       -31.3195
  14   2.0000      -1.138157       -30.9708
  15   2.0000      -1.131352       -30.7856
  16   2.0000      -1.107442       -30.1350
  17   2.0000      -0.880236       -23.9524
  18   2.0000      -0.859062       -23.3763
  19   2.0000      -0.808739       -22.0069
  20   2.0000      -0.766023       -20.8445
  21   2.0000      -0.704659       -19.1748
  22   2.0000      -0.680243       -18.5103
  23   2.0000      -0.663223       -18.0472
  24   2.0000      -0.618483       -16.8298
  25   2.0000      -0.596033       -16.2189
  26   2.0000      -0.585192       -15.9239
  27   2.0000      -0.558374       -15.1941
  28   2.0000      -0.552090       -15.0231
  29   2.0000      -0.538492       -14.6531
  30   2.0000      -0.519901       -14.1472
  31   2.0000      -0.513298       -13.9675
  32   2.0000      -0.497205       -13.5296
  33   2.0000      -0.484031       -13.1711
  34   2.0000      -0.479001       -13.0343
  35   2.0000      -0.468038       -12.7360
  36   2.0000      -0.458000       -12.4628
  37   2.0000      -0.431884       -11.7522
  38   2.0000      -0.421514       -11.4700
  39   2.0000      -0.414992       -11.2925
  40   2.0000      -0.399305       -10.8656
  41   2.0000      -0.386597       -10.5198
  42   2.0000      -0.380318       -10.3490
  43   2.0000      -0.351505        -9.5649
  44   2.0000      -0.346235        -9.4215
  45   2.0000      -0.329420        -8.9640
  46   2.0000      -0.320182        -8.7126
  47   2.0000      -0.307187        -8.3590
  48   0.0000       0.092127         2.5069
  49   0.0000       0.108550         2.9538
  50   0.0000       0.126346         3.4380
  51   0.0000       0.130310         3.5459
  52   0.0000       0.146351         3.9824

MULLIKEN ATOMIC CHARGES
-----------------------
   0 C :   -0.127922
   1 C :    0.003607
   2 C :   -0.032668
   3 C :    0.006277
   4 C :   -0.001350
   5 O :   -0.629406
   6 C :   -0.179768
   7 O :   -0.628936
   8 O :   -0.477126
   9 O :   -0.662523
  10 O :   -0.493770
  11 C :   -0.380573
  12 H :    0.197044
  13 H :    0.180734
  14 H :    0.195278
  15 H :    0.237620
  16 H :    0.214070
  17 H :    0.226455
  18 H :    0.425207
  19 H :    0.232829
  20 H :    0.210752
  21 H :    0.428412
  22 H :    0.435236
  23 H :    0.192037
  24 H :    0.195777
  25 H :    0.232704
Sum of atomic charges:    0.0000000

LOEWDIN ATOMIC CHARGES
----------------------
   0 C :   -0.095575
   1 C :   -0.053398
   2 C :   -0.032131
   3 C :   -0.030454
   4 C :   -0.030374
   5 O :   -0.394542
   6 C :   -0.082998
   7 O :   -0.405661
   8 O :   -0.256020
   9 O :   -0.411573
  10 O :   -0.262131
  11 C :   -0.185810
  12 H :    0.116631
  13 H :    0.102581
  14 H :    0.108031
  15 H :    0.133230
  16 H :    0.117216
  17 H :    0.123722
  18 H :    0.319291
  19 H :    0.132265
  20 H :    0.114896
  21 H :    0.316728
  22 H :    0.317753
  23 H :    0.105280
  24 H :    0.104222
  25 H :    0.128821

  Mayer bond orders larger than 0.100000
B(  0-C ,  1-C ) :   0.9590 B(  0-C ,  7-O ) :   1.0359 B(  0-C , 12-H ) :   0.9085
B(  0-C , 13-H ) :   0.8968 B(  1-C ,  2-C ) :   0.9192 B(  1-C ,  9-O ) :   0.9855
B(  1-C , 14-H ) :   0.8899 B(  2-C ,  3-C ) :   0.9062 B(  2-C , 10-O ) :   0.9478
B(  2-C , 15-H ) :   0.9006 B(  3-C ,  4-C ) :   0.9384 B(  3-C ,  8-O ) :   0.9465
B(  3-C , 16-H ) :   0.8868 B(  4-C ,  5-O ) :   1.0294 B(  4-C ,  6-C ) :   0.9465
B(  4-C , 17-H ) :   0.8843 B(  5-O , 18-H ) :   0.7844 B(  6-C , 10-O ) :   0.9618
B(  6-C , 19-H ) :   0.9192 B(  6-C , 20-H ) :   0.8925 B(  7-O , 21-H ) :   0.7700
B(  8-O , 11-C ) :   0.9663 B(  9-O , 22-H ) :   0.7540 B( 11-C , 23-H ) :   0.9115
B( 11-C , 24-H ) :   0.9056 B( 11-C , 25-H ) :   0.9262

Dispersion correction           -0.014505899
FINAL SINGLE POINT ENERGY      -649.844860297614

DIPOLE MOMENT
-------------
                                X             Y             Z
Electronic contribution:     -1.00859      -4.50441      -0.59419
Nuclear contribution   :      0.09567       4.94311       0.38450
                        -----------------------------------------
Total Dipole Moment    :     -0.91292       0.43870      -0.20970
                        -----------------------------------------
Magnitude (a.u.)       :      1.03434
Magnitude (Debye)      :      2.62908

Rotational constants in cm-1:     0.039469     0.021619     0.016699
Rotational constants in MHz :  1183.258491   648.125950   500.636401

                             ****ORCA TERMINATED NORMALLY****
TOTAL RUN TIME: 0 days 0 hours 2 minutes 41 seconds 373 msec
