                         Program Version 5.0.3 -  RELEASE  -
|  1> ! PBEh-3c def2/J TightSCF DefGrid3
|  2>
|  3> %maxcore 60000
|  4>
|  5> %pal
|  6> nprocs 4
|  7> end
|  8>
|  9> *xyzfile 0 1 58B.xyz
| 10>
| 11>                          ****END OF INPUT****

CARTESIAN COORDINATES (ANGSTROEM)
---------------------------------
  N     -1.362931   -0.857205    0.000000
  C     -0.161112   -1.450302    0.000000
  H     -0.166336   -2.533486    0.000000
  C      1.044866   -0.755001    0.000000
  H      1.981336   -1.294489    0.000000
  C      1.012547    0.635580    0.000000
  H      1.927953    1.211101    0.000000
  C     -0.227176    1.265788    0.000000
  H     -0.306951    2.343553    0.000000
  C     -1.381128    0.485429    0.000000
  H     -2.361068    0.949031    0.000000

 Total Charge           Charge          ....    0
 Multiplicity           Mult            ....    1
 Number of Electrons    NEL             ....   42
 Basis Dimension        Dim             ....  100

ORBITAL ENERGIES
----------------

  NO   OCC          E(Eh)            E(eV)
   0   2.0000     -14.640477      -398.3876
   1   2.0000     -10.483771      -285.2779
   2   2.0000     -10.483128      -285.2604
   3   2.0000     -10.471026      -284.9311
   4   2.0000     -10.459342      -284.6132
   5   2.0000     -10.459289      -284.6117
   6   2.0000      -1.045678       -28.4543
   7   2.0000      -0.901851       -24.5406
   8   2.0000      -0.854886       -23.2626
   9   2.0000      -0.710032       -19.3210
  10   2.0000      -0.709363       -19.3027
  11   2.0000      -0.601183       -16.3590
  12   2.0000      -0.547084       -14.8869
  13   2.0000      -0.537523       -14.6267
  14   2.0000      -0.492376       -13.3982
  15   2.0000      -0.468138       -12.7387
  16   2.0000      -0.455927       -12.4064
  17   2.0000      -0.422128       -11.4867
  18   2.0000      -0.333358        -9.0711
  19   2.0000      -0.313619        -8.5340
  20   2.0000      -0.306243        -8.3333
  21   0.0000      -0.004784        -0.1302
  22   0.0000       0.008761         0.2384
  23   0.0000       0.144822         3.9408
  24   0.0000       0.181952         4.9512
  25   0.0000       0.195817         5.3285

MULLIKEN ATOMIC CHARGES
-----------------------
   0 N :   -0.361394
   1 C :   -0.037745
   2 H :    0.233316
   3 C :   -0.297748
   4 H :    0.232180
   5 C :   -0.132983
   6 H :    0.235026
   7 C :   -0.298706
   8 H :    0.231669
   9 C :   -0.037693
  10 H :    0.234079
Sum of atomic charges:   -0.0000000

LOEWDIN ATOMIC CHARGES
----------------------
   0 N :   -0.140348
   1 C :   -0.056840
   2 H :    0.130270
   3 C :   -0.164283
   4 H :    0.142016
   5 C :   -0.103954
   6 H :    0.141129
   7 C :   -0.164335
   8 H :    0.141733
   9 C :   -0.056228
  10 H :    0.130840

  Mayer bond orders larger than 0.100000
B(  0-N ,  1-C ) :   1.4991 B(  0-N ,  9-C ) :   1.4940 B(  1-C ,  2-H ) :   0.9172
B(  1-C ,  3-C ) :   1.3816 B(  3-C ,  4-H ) :   0.9128 B(  3-C ,  5-C ) :   1.4141
B(  5-C ,  6-H ) :   0.9183 B(  5-C ,  7-C ) :   1.4133 B(  7-C ,  8-H ) :   0.9130
B(  7-C ,  9-C ) :   1.3833 B(  9-C , 10-H ) :   0.9169

Dispersion correction           -0.005321862
FINAL SINGLE POINT ENERGY      -247.729257633624

DIPOLE MOMENT
-------------
                                X             Y             Z
Electronic contribution:     -1.12612      -0.70548       0.00000
Nuclear contribution   :      1.86470       1.17221       0.00000
                        -----------------------------------------
Total Dipole Moment    :      0.73858       0.46673       0.00000
                        -----------------------------------------
Magnitude (a.u.)       :      0.87370
Magnitude (Debye)      :      2.22076

Rotational constants in cm-1:     0.201822     0.194021     0.098922
Rotational constants in MHz :  6050.482337  5816.605550  2965.619660

                             ****ORCA TERMINATED NORMALLY****
TOTAL RUN TIME: 0 days 0 hours 1 minutes 15 seconds 486 msec
