                         Program Version 5.0.3 -  RELEASE  -
|  1> ! PBEh-3c def2/J TightSCF DefGrid3
|  2>
|  3> %maxcore 60000
|  4>
|  5> %pal
|  6> nprocs 4
|  7> end
|  8>
|  9> *xyzfile 0 1 19.xyz
| 10>
| 11>                          ****END OF INPUT****

CARTESIAN COORDINATES (ANGSTROEM)
---------------------------------
  N      0.793979   -1.525190    0.000000
  P      0.000000    1.006189    0.000000
  F     -0.014021   -2.675792    0.000000
  F     -0.739593    2.461924    0.000000
  H      1.387530   -1.663292    0.814711
  H     -0.775191    0.417444    1.031710
  H      1.387530   -1.663292   -0.814711
  H     -0.775191    0.417444   -1.031710

 Total Charge           Charge          ....    0
 Multiplicity           Mult            ....    1
 Number of Electrons    NEL             ....   44
 Basis Dimension        Dim             ....   71

ORBITAL ENERGIES
----------------

  NO   OCC          E(Eh)            E(eV)
   0   2.0000     -77.777679     -2116.4382
   1   2.0000     -25.116003      -683.4412
   2   2.0000     -25.056267      -681.8157
   3   2.0000     -14.742633      -401.1674
   4   2.0000      -6.844315      -186.2433
   5   2.0000      -4.936457      -134.3278
   6   2.0000      -4.934120      -134.2642
   7   2.0000      -4.932463      -134.2191
   8   2.0000      -1.348820       -36.7033
   9   2.0000      -1.278452       -34.7885
  10   2.0000      -0.961621       -26.1670
  11   2.0000      -0.700632       -19.0652
  12   2.0000      -0.632203       -17.2031
  13   2.0000      -0.600765       -16.3477
  14   2.0000      -0.543595       -14.7920
  15   2.0000      -0.512225       -13.9384
  16   2.0000      -0.502123       -13.6635
  17   2.0000      -0.476515       -12.9666
  18   2.0000      -0.461561       -12.5597
  19   2.0000      -0.394158       -10.7256
  20   2.0000      -0.365849        -9.9553
  21   2.0000      -0.294878        -8.0241
  22   0.0000       0.051006         1.3880
  23   0.0000       0.087005         2.3675
  24   0.0000       0.101376         2.7586
  25   0.0000       0.111552         3.0355
  26   0.0000       0.169291         4.6066

MULLIKEN ATOMIC CHARGES
-----------------------
   0 N :   -0.349233
   1 P :    0.307166
   2 F :   -0.308293
   3 F :   -0.476815
   4 H :    0.359718
   5 H :    0.053870
   6 H :    0.359718
   7 H :    0.053870
Sum of atomic charges:    0.0000000

LOEWDIN ATOMIC CHARGES
----------------------
   0 N :   -0.153688
   1 P :    0.273504
   2 F :   -0.242250
   3 F :   -0.372267
   4 H :    0.235840
   5 H :    0.011510
   6 H :    0.235840
   7 H :    0.011510

  Mayer bond orders larger than 0.100000
B(  0-N ,  1-P ) :   0.1251 B(  0-N ,  2-F ) :   0.9259 B(  0-N ,  4-H ) :   0.8360
B(  0-N ,  6-H ) :   0.8360 B(  1-P ,  3-F ) :   0.8231 B(  1-P ,  5-H ) :   0.9463
B(  1-P ,  7-H ) :   0.9463

Dispersion correction           -0.002272120
FINAL SINGLE POINT ENERGY      -597.208537236405

DIPOLE MOMENT
-------------
                                X             Y             Z
Electronic contribution:     -0.88680       2.05334      -0.00000
Nuclear contribution   :      1.87439      -3.08444       0.00000
                        -----------------------------------------
Total Dipole Moment    :      0.98759      -1.03110      -0.00000
                        -----------------------------------------
Magnitude (a.u.)       :      1.42776
Magnitude (Debye)      :      3.62908

Rotational constants in cm-1:     0.962591     0.050374     0.048835
Rotational constants in MHz : 28857.738564  1510.167249  1464.035892

                             ****ORCA TERMINATED NORMALLY****
TOTAL RUN TIME: 0 days 0 hours 0 minutes 38 seconds 827 msec
