                         Program Version 5.0.3 -  RELEASE  -
|  1> ! PBEh-3c def2/J TightSCF DefGrid3
|  2>
|  3> %maxcore 60000
|  4>
|  5> %pal
|  6> nprocs 4
|  7> end
|  8>
|  9> *xyzfile 0 1 r11.xyz
| 10>
| 11>                          ****END OF INPUT****

CARTESIAN COORDINATES (ANGSTROEM)
---------------------------------
  C     -0.540085    1.540175   -0.774391
  C     -0.540085    1.540175    0.774391
  C     -0.162894    0.252405   -1.512256
  C     -0.162894    0.252405    1.512256
  C      1.309474   -0.156358    1.304314
  C     -1.150445   -0.898696    1.281360
  C     -1.150445   -0.898696   -1.281360
  C      1.309474   -0.156358   -1.304314
  C      1.950547    0.314420    0.000000
  C     -0.969739   -1.697083    0.000000
  H      0.129587    2.329306   -1.124659
  H     -1.534575    1.825544   -1.123916
  H      0.129587    2.329306    1.124659
  H     -1.534575    1.825544    1.123916
  H     -0.268842    0.502896   -2.571856
  H     -0.268842    0.502896    2.571856
  H      1.406980   -1.241166    1.395568
  H      1.902907    0.264476    2.118951
  H     -1.061746   -1.588973    2.124690
  H     -2.168790   -0.498096    1.317721
  H     -1.061746   -1.588973   -2.124690
  H     -2.168790   -0.498096   -1.317721
  H      1.406980   -1.241166   -1.395568
  H      1.902907    0.264476   -2.118951
  H      2.996910   -0.000176    0.000000
  H      1.971389    1.406671    0.000000
  H      0.015783   -2.166774    0.000000
  H     -1.688035   -2.520084    0.000000

 Total Charge           Charge          ....    0
 Multiplicity           Mult            ....    1
 Number of Electrons    NEL             ....   78
 Basis Dimension        Dim             ....  186

ORBITAL ENERGIES
----------------

  NO   OCC          E(Eh)            E(eV)
   0   2.0000     -10.431292      -283.8499
   1   2.0000     -10.431221      -283.8479
   2   2.0000     -10.424197      -283.6568
   3   2.0000     -10.423399      -283.6351
   4   2.0000     -10.423220      -283.6302
   5   2.0000     -10.422708      -283.6163
   6   2.0000     -10.422639      -283.6144
   7   2.0000     -10.421623      -283.5868
   8   2.0000     -10.421610      -283.5864
   9   2.0000     -10.421199      -283.5752
  10   2.0000      -0.932521       -25.3752
  11   2.0000      -0.867315       -23.6008
  12   2.0000      -0.858531       -23.3618
  13   2.0000      -0.834544       -22.7091
  14   2.0000      -0.749709       -20.4006
  15   2.0000      -0.728653       -19.8277
  16   2.0000      -0.711576       -19.3630
  17   2.0000      -0.649539       -17.6749
  18   2.0000      -0.585797       -15.9403
  19   2.0000      -0.582011       -15.8373
  20   2.0000      -0.552564       -15.0360
  21   2.0000      -0.528057       -14.3692
  22   2.0000      -0.514076       -13.9887
  23   2.0000      -0.481062       -13.0903
  24   2.0000      -0.468888       -12.7591
  25   2.0000      -0.468256       -12.7419
  26   2.0000      -0.460449       -12.5295
  27   2.0000      -0.457319       -12.4443
  28   2.0000      -0.435844       -11.8599
  29   2.0000      -0.402157       -10.9432
  30   2.0000      -0.397871       -10.8266
  31   2.0000      -0.382067       -10.3966
  32   2.0000      -0.381253       -10.3744
  33   2.0000      -0.357166        -9.7190
  34   2.0000      -0.356242        -9.6938
  35   2.0000      -0.346526        -9.4295
  36   2.0000      -0.338421        -9.2089
  37   2.0000      -0.332618        -9.0510
  38   2.0000      -0.326980        -8.8976
  39   0.0000       0.112141         3.0515
  40   0.0000       0.152031         4.1370
  41   0.0000       0.160717         4.3733
  42   0.0000       0.162276         4.4158
  43   0.0000       0.162865         4.4318

MULLIKEN ATOMIC CHARGES
-----------------------
   0 C :   -0.432609
   1 C :   -0.432609
   2 C :   -0.221621
   3 C :   -0.221621
   4 C :   -0.423926
   5 C :   -0.413566
   6 C :   -0.413566
   7 C :   -0.423926
   8 C :   -0.429623
   9 C :   -0.428469
  10 H :    0.215352
  11 H :    0.216295
  12 H :    0.215352
  13 H :    0.216295
  14 H :    0.217412
  15 H :    0.217412
  16 H :    0.211150
  17 H :    0.218090
  18 H :    0.213556
  19 H :    0.202900
  20 H :    0.213556
  21 H :    0.202900
  22 H :    0.211150
  23 H :    0.218090
  24 H :    0.219666
  25 H :    0.207027
  26 H :    0.206258
  27 H :    0.219073
Sum of atomic charges:    0.0000000

LOEWDIN ATOMIC CHARGES
----------------------
   0 C :   -0.239654
   1 C :   -0.239654
   2 C :   -0.155567
   3 C :   -0.155567
   4 C :   -0.235693
   5 C :   -0.232859
   6 C :   -0.232859
   7 C :   -0.235693
   8 C :   -0.239139
   9 C :   -0.244441
  10 H :    0.123038
  11 H :    0.124065
  12 H :    0.123038
  13 H :    0.124065
  14 H :    0.126313
  15 H :    0.126313
  16 H :    0.120761
  17 H :    0.125739
  18 H :    0.122720
  19 H :    0.119160
  20 H :    0.122720
  21 H :    0.119160
  22 H :    0.120761
  23 H :    0.125739
  24 H :    0.125248
  25 H :    0.120012
  26 H :    0.117030
  27 H :    0.125244

  Mayer bond orders larger than 0.100000
B(  0-C ,  1-C ) :   0.9527 B(  0-C ,  2-C ) :   0.9900 B(  0-C , 10-H ) :   0.9272
B(  0-C , 11-H ) :   0.9275 B(  1-C ,  3-C ) :   0.9900 B(  1-C , 12-H ) :   0.9272
B(  1-C , 13-H ) :   0.9275 B(  2-C ,  6-C ) :   0.9808 B(  2-C ,  7-C ) :   0.9468
B(  2-C , 14-H ) :   0.9206 B(  3-C ,  4-C ) :   0.9468 B(  3-C ,  5-C ) :   0.9808
B(  3-C , 15-H ) :   0.9206 B(  4-C ,  8-C ) :   0.9963 B(  4-C , 16-H ) :   0.9200
B(  4-C , 17-H ) :   0.9254 B(  5-C ,  9-C ) :   0.9929 B(  5-C , 18-H ) :   0.9247
B(  5-C , 19-H ) :   0.9208 B(  6-C ,  9-C ) :   0.9929 B(  6-C , 20-H ) :   0.9247
B(  6-C , 21-H ) :   0.9208 B(  7-C ,  8-C ) :   0.9963 B(  7-C , 22-H ) :   0.9200
B(  7-C , 23-H ) :   0.9254 B(  8-C , 24-H ) :   0.9224 B(  8-C , 25-H ) :   0.9113
B(  9-C , 26-H ) :   0.9063 B(  9-C , 27-H ) :   0.9222

Dispersion correction           -0.018422408
FINAL SINGLE POINT ENERGY      -391.059088293279

DIPOLE MOMENT
-------------
                                X             Y             Z
Electronic contribution:     -0.22422       0.22984      -0.00000
Nuclear contribution   :      0.24440      -0.21084       0.00000
                        -----------------------------------------
Total Dipole Moment    :      0.02018       0.01900      -0.00000
                        -----------------------------------------
Magnitude (a.u.)       :      0.02772
Magnitude (Debye)      :      0.07045

Rotational constants in cm-1:     0.051418     0.050196     0.042645
Rotational constants in MHz :  1541.472518  1504.841559  1278.461160

                             ****ORCA TERMINATED NORMALLY****
TOTAL RUN TIME: 0 days 0 hours 2 minutes 26 seconds 555 msec
