                         Program Version 5.0.3 -  RELEASE  -
|  1> ! PBEh-3c def2/J TightSCF DefGrid3
|  2>
|  3> %maxcore 60000
|  4>
|  5> %pal
|  6> nprocs 4
|  7> end
|  8>
|  9> *xyzfile 0 2 EA_23n.xyz
| 10>
| 11>                          ****END OF INPUT****

CARTESIAN COORDINATES (ANGSTROEM)
---------------------------------
  P      0.000000    0.000000    0.745419
  O      0.000000    0.000000   -0.745419

 Total Charge           Charge          ....    0
 Multiplicity           Mult            ....    2
 Number of Electrons    NEL             ....   23
 Basis Dimension        Dim             ....   33

ORBITAL ENERGIES
----------------
                 SPIN UP ORBITALS
  NO   OCC          E(Eh)            E(eV)
   0   1.0000     -77.811443     -2117.3570
   1   1.0000     -19.531490      -531.4789
   2   1.0000      -6.882845      -187.2917
   3   1.0000      -4.975992      -135.4036
   4   1.0000      -4.973053      -135.3237
   5   1.0000      -4.971094      -135.2704
   6   1.0000      -1.125825       -30.6353
   7   1.0000      -0.623880       -16.9766
   8   1.0000      -0.469605       -12.7786
   9   1.0000      -0.443264       -12.0618
  10   1.0000      -0.436362       -11.8740
  11   1.0000      -0.241413        -6.5692
  12   0.0000      -0.093632        -2.5479
  13   0.0000       0.085494         2.3264
  14   0.0000       0.269076         7.3219
  15   0.0000       0.544201        14.8085
  16   0.0000       0.549783        14.9604

                 SPIN DOWN ORBITALS
  NO   OCC          E(Eh)            E(eV)
   0   1.0000     -77.807685     -2117.2547
   1   1.0000     -19.522676      -531.2390
   2   1.0000      -6.878883      -187.1839
   3   1.0000      -4.970822      -135.2629
   4   1.0000      -4.969230      -135.2196
   5   1.0000      -4.961140      -134.9995
   6   1.0000      -1.106644       -30.1133
   7   1.0000      -0.588826       -16.0228
   8   1.0000      -0.429927       -11.6989
   9   1.0000      -0.422137       -11.4869
  10   1.0000      -0.405553       -11.0357
  11   0.0000      -0.081243        -2.2107
  12   0.0000      -0.045936        -1.2500
  13   0.0000       0.099319         2.7026
  14   0.0000       0.284138         7.7318
  15   0.0000       0.557738        15.1768

MULLIKEN ATOMIC CHARGES AND SPIN POPULATIONS
--------------------------------------------
   0 P :    0.471521    0.780190
   1 O :   -0.471521    0.219810
Sum of atomic charges         :   -0.0000000

LOEWDIN ATOMIC CHARGES AND SPIN POPULATIONS
-------------------------------------------
   0 P :    0.352991    0.764276
   1 O :   -0.352991    0.235724

  Mayer bond orders larger than 0.100000
B(  0-P ,  1-O ) :   2.1194

Dispersion correction           -0.000292435
FINAL SINGLE POINT ENERGY      -415.966436881818

DIPOLE MOMENT
-------------
                                X             Y             Z
Electronic contribution:     -0.00000       0.00000       1.32195
Nuclear contribution   :      0.00000       0.00000      -0.46824
                        -----------------------------------------
Total Dipole Moment    :     -0.00000       0.00000       0.85371
                        -----------------------------------------
Magnitude (a.u.)       :      0.85371
Magnitude (Debye)      :      2.16997

Rotational constants in cm-1:     0.000000     0.718942     0.718942
Rotational constants in MHz :     0.000000 21553.336629 21553.336629

                             ****ORCA TERMINATED NORMALLY****
TOTAL RUN TIME: 0 days 0 hours 0 minutes 25 seconds 534 msec
