                         Program Version 5.0.3 -  RELEASE  -
|  1> ! PBEh-3c def2/J TightSCF DefGrid3
|  2>
|  3> %maxcore 60000
|  4>
|  5> %pal
|  6> nprocs 4
|  7> end
|  8>
|  9> *xyzfile 0 1 Corannulene.xyz
| 10>
| 11>                          ****END OF INPUT****

CARTESIAN COORDINATES (ANGSTROEM)
---------------------------------
  C      1.301494    2.967868   -0.260574
  C      2.419428    2.156204   -0.265686
  C     -1.301493    2.967865   -0.260593
  C     -0.000002    2.472145    0.111169
  C      0.000001    1.205477    0.658454
  C      2.350424    0.764005    0.103215
  C     -2.419429    2.156200   -0.265707
  C      3.221345   -0.320883   -0.274762
  C      0.690964   -3.168762   -0.257173
  C     -0.690963   -3.168758   -0.257174
  C      1.451422   -1.999195    0.104765
  C      0.708638   -0.974116    0.655492
  C     -0.708640   -0.974115    0.655502
  C     -1.451423   -1.999197    0.104781
  C     -2.793235   -1.635066   -0.274831
  C     -3.221333   -0.320882   -0.274769
  C     -2.350422    0.764007    0.103212
  C     -1.147062    0.373200    0.656024
  C      2.793225   -1.635060   -0.274868
  C      1.147064    0.373198    0.656024
  H     -4.205849   -0.098704   -0.667850
  H     -3.458058   -2.395931   -0.665046
  H     -1.208260   -4.041780   -0.635500
  H      1.208258   -4.041786   -0.635501
  H      3.458040   -2.395926   -0.665091
  H      4.205861   -0.098704   -0.667843
  H      3.347229    2.558130   -0.654289
  H      1.395244    3.976232   -0.645026
  H     -1.395238    3.976220   -0.645067
  H     -3.347231    2.558117   -0.654318

 Total Charge           Charge          ....    0
 Multiplicity           Mult            ....    1
 Number of Electrons    NEL             ....  130
 Basis Dimension        Dim             ....  320

ORBITAL ENERGIES
----------------

  NO   OCC          E(Eh)            E(eV)
   0   2.0000     -10.470087      -284.9055
   1   2.0000     -10.470074      -284.9052
   2   2.0000     -10.469830      -284.8986
   3   2.0000     -10.469829      -284.8985
   4   2.0000     -10.469758      -284.8966
   5   2.0000     -10.465687      -284.7858
   6   2.0000     -10.465685      -284.7858
   7   2.0000     -10.465656      -284.7850
   8   2.0000     -10.465634      -284.7844
   9   2.0000     -10.465589      -284.7832
  10   2.0000     -10.465090      -284.7696
  11   2.0000     -10.465032      -284.7680
  12   2.0000     -10.465012      -284.7674
  13   2.0000     -10.464964      -284.7662
  14   2.0000     -10.464952      -284.7658
  15   2.0000     -10.449954      -284.3577
  16   2.0000     -10.449683      -284.3503
  17   2.0000     -10.449676      -284.3501
  18   2.0000     -10.449089      -284.3342
  19   2.0000     -10.449052      -284.3332
  20   2.0000      -1.028964       -27.9995
  21   2.0000      -0.965146       -26.2630
  22   2.0000      -0.965000       -26.2590
  23   2.0000      -0.908994       -24.7350
  24   2.0000      -0.901630       -24.5346
  25   2.0000      -0.901593       -24.5336
  26   2.0000      -0.829124       -22.5616
  27   2.0000      -0.829113       -22.5613
  28   2.0000      -0.812188       -22.1008
  29   2.0000      -0.812151       -22.0997
  30   2.0000      -0.724906       -19.7257
  31   2.0000      -0.724901       -19.7256
  32   2.0000      -0.716415       -19.4946
  33   2.0000      -0.676264       -18.4021
  34   2.0000      -0.676234       -18.4013
  35   2.0000      -0.654872       -17.8200
  36   2.0000      -0.590264       -16.0619
  37   2.0000      -0.590043       -16.0559
  38   2.0000      -0.581267       -15.8171
  39   2.0000      -0.571622       -15.5546
  40   2.0000      -0.571578       -15.5534
  41   2.0000      -0.516568       -14.0565
  42   2.0000      -0.516549       -14.0560
  43   2.0000      -0.501656       -13.6507
  44   2.0000      -0.495770       -13.4906
  45   2.0000      -0.495698       -13.4886
  46   2.0000      -0.486546       -13.2396
  47   2.0000      -0.486462       -13.2373
  48   2.0000      -0.476531       -12.9671
  49   2.0000      -0.462371       -12.5818
  50   2.0000      -0.462349       -12.5812
  51   2.0000      -0.443259       -12.0617
  52   2.0000      -0.432458       -11.7678
  53   2.0000      -0.432216       -11.7612
  54   2.0000      -0.396744       -10.7959
  55   2.0000      -0.396329       -10.7847
  56   2.0000      -0.387769       -10.5517
  57   2.0000      -0.387631       -10.5480
  58   2.0000      -0.358264        -9.7489
  59   2.0000      -0.352157        -9.5827
  60   2.0000      -0.352050        -9.5798
  61   2.0000      -0.268331        -7.3017
  62   2.0000      -0.268289        -7.3005
  63   2.0000      -0.264406        -7.1948
  64   2.0000      -0.264335        -7.1929
  65   0.0000      -0.048993        -1.3332
  66   0.0000      -0.048878        -1.3300
  67   0.0000       0.011033         0.3002
  68   0.0000       0.032749         0.8912
  69   0.0000       0.038565         1.0494

MULLIKEN ATOMIC CHARGES
-----------------------
   0 C :   -0.288051
   1 C :   -0.287799
   2 C :   -0.288051
   3 C :    0.119921
   4 C :    0.012641
   5 C :    0.118967
   6 C :   -0.287804
   7 C :   -0.288089
   8 C :   -0.287941
   9 C :   -0.287937
  10 C :    0.120144
  11 C :    0.012887
  12 C :    0.012903
  13 C :    0.120133
  14 C :   -0.288166
  15 C :   -0.288091
  16 C :    0.118973
  17 C :    0.015263
  18 C :   -0.288171
  19 C :    0.015271
  20 H :    0.221208
  21 H :    0.221257
  22 H :    0.221365
  23 H :    0.221366
  24 H :    0.221260
  25 H :    0.221207
  26 H :    0.221432
  27 H :    0.221233
  28 H :    0.221234
  29 H :    0.221434
Sum of atomic charges:   -0.0000000

LOEWDIN ATOMIC CHARGES
----------------------
   0 C :   -0.117068
   1 C :   -0.117202
   2 C :   -0.117068
   3 C :   -0.032746
   4 C :   -0.012970
   5 C :   -0.032479
   6 C :   -0.117201
   7 C :   -0.117286
   8 C :   -0.117104
   9 C :   -0.117104
  10 C :   -0.032794
  11 C :   -0.012987
  12 C :   -0.012988
  13 C :   -0.032793
  14 C :   -0.117030
  15 C :   -0.117285
  16 C :   -0.032480
  17 C :   -0.013169
  18 C :   -0.117029
  19 C :   -0.013170
  20 H :    0.140006
  21 H :    0.139960
  22 H :    0.140014
  23 H :    0.140014
  24 H :    0.139960
  25 H :    0.140006
  26 H :    0.140050
  27 H :    0.139947
  28 H :    0.139947
  29 H :    0.140050

  Mayer bond orders larger than 0.100000
B(  0-C ,  1-C ) :   1.6303 B(  0-C ,  3-C ) :   1.1709 B(  0-C , 27-H ) :   0.9230
B(  1-C ,  5-C ) :   1.1706 B(  1-C , 26-H ) :   0.9230 B(  2-C ,  3-C ) :   1.1709
B(  2-C ,  6-C ) :   1.6303 B(  2-C , 28-H ) :   0.9230 B(  3-C ,  4-C ) :   1.3241
B(  4-C , 17-C ) :   1.1881 B(  4-C , 19-C ) :   1.1881 B(  5-C ,  7-C ) :   1.1722
B(  5-C , 19-C ) :   1.3234 B(  6-C , 16-C ) :   1.1706 B(  6-C , 29-H ) :   0.9230
B(  7-C , 18-C ) :   1.6281 B(  7-C , 25-H ) :   0.9232 B(  8-C ,  9-C ) :   1.6301
B(  8-C , 10-C ) :   1.1704 B(  8-C , 23-H ) :   0.9230 B(  9-C , 13-C ) :   1.1704
B(  9-C , 22-H ) :   0.9230 B( 10-C , 11-C ) :   1.3235 B( 10-C , 18-C ) :   1.1724
B( 11-C , 12-C ) :   1.1886 B( 11-C , 19-C ) :   1.1886 B( 12-C , 13-C ) :   1.3235
B( 12-C , 17-C ) :   1.1886 B( 13-C , 14-C ) :   1.1724 B( 14-C , 15-C ) :   1.6281
B( 14-C , 21-H ) :   0.9231 B( 15-C , 16-C ) :   1.1722 B( 15-C , 20-H ) :   0.9232
B( 16-C , 17-C ) :   1.3234 B( 18-C , 24-H ) :   0.9231

Dispersion correction           -0.026293657
FINAL SINGLE POINT ENERGY      -766.454835259618

DIPOLE MOMENT
-------------
                                X             Y             Z
Electronic contribution:      0.00000       0.00405       5.32325
Nuclear contribution   :     -0.00001      -0.00558      -6.39891
                        -----------------------------------------
Total Dipole Moment    :     -0.00000      -0.00154      -1.07566
                        -----------------------------------------
Magnitude (a.u.)       :      1.07566
Magnitude (Debye)      :      2.73411

Rotational constants in cm-1:     0.017117     0.017080     0.008903
Rotational constants in MHz :   513.145038   512.045011   266.904635

                             ****ORCA TERMINATED NORMALLY****
TOTAL RUN TIME: 0 days 0 hours 4 minutes 46 seconds 23 msec
