                         Program Version 5.0.3 -  RELEASE  -
|  1> ! PBEh-3c def2/J TightSCF DefGrid3
|  2>
|  3> %maxcore 60000
|  4>
|  5> %pal
|  6> nprocs 4
|  7> end
|  8>
|  9> *xyzfile 0 1 5.xyz
| 10>
| 11>                          ****END OF INPUT****

CARTESIAN COORDINATES (ANGSTROEM)
---------------------------------
  C     -3.734626    0.259416    0.975890
  C     -2.999227    0.417846    2.150569
  C     -2.477677   -0.928104    2.483061
  C     -3.628827   -1.134508    0.505610
  C     -2.759674   -1.833220    1.363991
  C     -3.471816   -1.124498   -0.896602
  C     -3.600802    1.116498   -0.160607
  C     -3.496818    0.270612   -1.351418
  C     -2.767203    2.237398   -0.034833
  C     -2.129699    1.569601    2.308639
  C     -2.019474    2.464485    1.198825
  C     -0.972706    1.416114    3.125350
  C     -1.326370   -1.066956    3.209935
  C     -0.688190    0.111731    3.735790
  C     -0.278900   -2.005694    2.773141
  C     -1.721418   -2.671349    0.832343
  C     -0.439723   -2.761961    1.567141
  C     -2.545077   -2.026756   -1.449048
  C     -1.710783   -2.829779   -0.588843
  C     -1.766069   -1.642211   -2.615990
  C     -2.669709    0.655257   -2.402770
  C     -1.828205   -0.324257   -3.087158
  C     -1.953674    2.659416   -1.149565
  C     -1.923389    1.900882   -2.332105
  C     -0.750402    3.048306    0.844327
  C     -0.725330    3.199007   -0.608715
  C      0.278900    2.005694    2.773141
  C      0.439723    2.761961    1.567141
  C      0.688190   -0.111731    3.735790
  C      0.972706   -1.416114    3.125350
  C      1.326370    1.066956    3.209935
  C      2.129699   -1.569601    2.308639
  C      0.750402   -3.048306    0.844327
  C      2.019474   -2.464485    1.198825
  C     -0.464121   -3.067915   -1.304075
  C     -0.494020   -2.328238   -2.553444
  C      0.725330   -3.199007   -0.608715
  C      0.670956   -1.716042   -3.030875
  C     -0.610588    0.342602   -3.508565
  C     -0.670956    1.716042   -3.030875
  C      0.610588   -0.342602   -3.508565
  C      0.464121    3.067915   -1.304075
  C      0.494020    2.328238   -2.553444
  C      1.721418    2.671349    0.832343
  C      1.710783    2.829779   -0.588843
  C      2.477677    0.928104    2.483061
  C      2.999227   -0.417846    2.150569
  C      2.759674    1.833220    1.363991
  C      3.734626   -0.259416    0.975890
  C      3.628827    1.134508    0.505610
  C      2.767203   -2.237398   -0.034833
  C      1.953674   -2.659416   -1.149565
  C      1.923389   -1.900882   -2.332105
  C      3.600802   -1.116498   -0.160607
  C      1.828205    0.324257   -3.087158
  C      1.766069    1.642211   -2.615990
  C      2.545077    2.026756   -1.449048
  C      3.471816    1.124498   -0.896602
  C      2.669709   -0.655257   -2.402770
  C      3.496818   -0.270612   -1.351418

 Total Charge           Charge          ....    0
 Multiplicity           Mult            ....    1
 Number of Electrons    NEL             ....  360
 Basis Dimension        Dim             ....  900

ORBITAL ENERGIES
----------------

  NO   OCC          E(Eh)            E(eV)
   0   2.0000     -10.530072      -286.5378
   1   2.0000     -10.530070      -286.5378
   2   2.0000     -10.526350      -286.4366
   3   2.0000     -10.526350      -286.4365
   4   2.0000     -10.525356      -286.4095
   5   2.0000     -10.525350      -286.4093
   6   2.0000     -10.521308      -286.2994
   7   2.0000     -10.521303      -286.2992
   8   2.0000     -10.520801      -286.2855
   9   2.0000     -10.520800      -286.2855
  10   2.0000     -10.519464      -286.2492
  11   2.0000     -10.519463      -286.2491
  12   2.0000     -10.518755      -286.2299
  13   2.0000     -10.518738      -286.2294
  14   2.0000     -10.517763      -286.2029
  15   2.0000     -10.517763      -286.2029
  16   2.0000     -10.517253      -286.1890
  17   2.0000     -10.517252      -286.1890
  18   2.0000     -10.517164      -286.1866
  19   2.0000     -10.517157      -286.1864
  20   2.0000     -10.516952      -286.1808
  21   2.0000     -10.516950      -286.1808
  22   2.0000     -10.516753      -286.1754
  23   2.0000     -10.516752      -286.1754
  24   2.0000     -10.516747      -286.1752
  25   2.0000     -10.516744      -286.1751
  26   2.0000     -10.516357      -286.1646
  27   2.0000     -10.516354      -286.1645
  28   2.0000     -10.516005      -286.1550
  29   2.0000     -10.516001      -286.1549
  30   2.0000     -10.515879      -286.1516
  31   2.0000     -10.515878      -286.1516
  32   2.0000     -10.515804      -286.1496
  33   2.0000     -10.515300      -286.1359
  34   2.0000     -10.515298      -286.1358
  35   2.0000     -10.515287      -286.1355
  36   2.0000     -10.515049      -286.1290
  37   2.0000     -10.515048      -286.1290
  38   2.0000     -10.514974      -286.1270
  39   2.0000     -10.514973      -286.1270
  40   2.0000     -10.514782      -286.1218
  41   2.0000     -10.514724      -286.1202
  42   2.0000     -10.514572      -286.1160
  43   2.0000     -10.514552      -286.1155
  44   2.0000     -10.514378      -286.1108
  45   2.0000     -10.514370      -286.1106
  46   2.0000     -10.514153      -286.1046
  47   2.0000     -10.514129      -286.1040
  48   2.0000     -10.514078      -286.1026
  49   2.0000     -10.514076      -286.1026
  50   2.0000     -10.513583      -286.0891
  51   2.0000     -10.513580      -286.0891
  52   2.0000     -10.512741      -286.0662
  53   2.0000     -10.512741      -286.0662
  54   2.0000     -10.512600      -286.0624
  55   2.0000     -10.512599      -286.0624
  56   2.0000     -10.509146      -285.9684
  57   2.0000     -10.509146      -285.9684
  58   2.0000     -10.499927      -285.7175
  59   2.0000     -10.499267      -285.6996
  60   2.0000      -1.097887       -29.8750
  61   2.0000      -1.082617       -29.4595
  62   2.0000      -1.077406       -29.3177
  63   2.0000      -1.070334       -29.1253
  64   2.0000      -1.050570       -28.5875
  65   2.0000      -1.037163       -28.2226
  66   2.0000      -1.036029       -28.1918
  67   2.0000      -1.027126       -27.9495
  68   2.0000      -1.025131       -27.8952
  69   2.0000      -0.991587       -26.9825
  70   2.0000      -0.986174       -26.8352
  71   2.0000      -0.981393       -26.7051
  72   2.0000      -0.966976       -26.3128
  73   2.0000      -0.962585       -26.1933
  74   2.0000      -0.957366       -26.0513
  75   2.0000      -0.955782       -26.0081
  76   2.0000      -0.914255       -24.8781
  77   2.0000      -0.914247       -24.8779
  78   2.0000      -0.901937       -24.5430
  79   2.0000      -0.895784       -24.3755
  80   2.0000      -0.895380       -24.3645
  81   2.0000      -0.888220       -24.1697
  82   2.0000      -0.887534       -24.1510
  83   2.0000      -0.883276       -24.0352
  84   2.0000      -0.871513       -23.7151
  85   2.0000      -0.838171       -22.8078
  86   2.0000      -0.833896       -22.6915
  87   2.0000      -0.826501       -22.4902
  88   2.0000      -0.823406       -22.4060
  89   2.0000      -0.814104       -22.1529
  90   2.0000      -0.811136       -22.0721
  91   2.0000      -0.793142       -21.5825
  92   2.0000      -0.788510       -21.4565
  93   2.0000      -0.779168       -21.2022
  94   2.0000      -0.765052       -20.8181
  95   2.0000      -0.751880       -20.4597
  96   2.0000      -0.741150       -20.1677
  97   2.0000      -0.733868       -19.9696
  98   2.0000      -0.725175       -19.7330
  99   2.0000      -0.724545       -19.7159
 100   2.0000      -0.715832       -19.4788
 101   2.0000      -0.705241       -19.1906
 102   2.0000      -0.702440       -19.1144
 103   2.0000      -0.690382       -18.7863
 104   2.0000      -0.671752       -18.2793
 105   2.0000      -0.669576       -18.2201
 106   2.0000      -0.668497       -18.1907
 107   2.0000      -0.651832       -17.7373
 108   2.0000      -0.641518       -17.4566
 109   2.0000      -0.632810       -17.2196
 110   2.0000      -0.631825       -17.1928
 111   2.0000      -0.624578       -16.9956
 112   2.0000      -0.616585       -16.7781
 113   2.0000      -0.607572       -16.5329
 114   2.0000      -0.595053       -16.1922
 115   2.0000      -0.589095       -16.0301
 116   2.0000      -0.584000       -15.8914
 117   2.0000      -0.583601       -15.8806
 118   2.0000      -0.575590       -15.6626
 119   2.0000      -0.574569       -15.6348
 120   2.0000      -0.564466       -15.3599
 121   2.0000      -0.562641       -15.3102
 122   2.0000      -0.553310       -15.0563
 123   2.0000      -0.551218       -14.9994
 124   2.0000      -0.545517       -14.8443
 125   2.0000      -0.541663       -14.7394
 126   2.0000      -0.538340       -14.6490
 127   2.0000      -0.535480       -14.5712
 128   2.0000      -0.533538       -14.5183
 129   2.0000      -0.531258       -14.4563
 130   2.0000      -0.528973       -14.3941
 131   2.0000      -0.523510       -14.2454
 132   2.0000      -0.521153       -14.1813
 133   2.0000      -0.512258       -13.9393
 134   2.0000      -0.509283       -13.8583
 135   2.0000      -0.507721       -13.8158
 136   2.0000      -0.502938       -13.6856
 137   2.0000      -0.500437       -13.6176
 138   2.0000      -0.496901       -13.5214
 139   2.0000      -0.496048       -13.4981
 140   2.0000      -0.495475       -13.4826
 141   2.0000      -0.490180       -13.3385
 142   2.0000      -0.488867       -13.3028
 143   2.0000      -0.482768       -13.1368
 144   2.0000      -0.481820       -13.1110
 145   2.0000      -0.479928       -13.0595
 146   2.0000      -0.479039       -13.0353
 147   2.0000      -0.475296       -12.9334
 148   2.0000      -0.474007       -12.8984
 149   2.0000      -0.446649       -12.1539
 150   2.0000      -0.438569       -11.9341
 151   2.0000      -0.437820       -11.9137
 152   2.0000      -0.433036       -11.7835
 153   2.0000      -0.432461       -11.7679
 154   2.0000      -0.429764       -11.6945
 155   2.0000      -0.429054       -11.6752
 156   2.0000      -0.425623       -11.5818
 157   2.0000      -0.424227       -11.5438
 158   2.0000      -0.423659       -11.5284
 159   2.0000      -0.420017       -11.4293
 160   2.0000      -0.417332       -11.3562
 161   2.0000      -0.415015       -11.2931
 162   2.0000      -0.409663       -11.1475
 163   2.0000      -0.409160       -11.1338
 164   2.0000      -0.402454       -10.9513
 165   2.0000      -0.399689       -10.8761
 166   2.0000      -0.342670        -9.3245
 167   2.0000      -0.342137        -9.3100
 168   2.0000      -0.332174        -9.0389
 169   2.0000      -0.330256        -8.9867
 170   2.0000      -0.329404        -8.9635
 171   2.0000      -0.326035        -8.8719
 172   2.0000      -0.325567        -8.8591
 173   2.0000      -0.313292        -8.5251
 174   2.0000      -0.303878        -8.2689
 175   2.0000      -0.275919        -7.5081
 176   2.0000      -0.273028        -7.4295
 177   2.0000      -0.272182        -7.4065
 178   2.0000      -0.269465        -7.3325
 179   2.0000      -0.245760        -6.6875
 180   0.0000      -0.168509        -4.5854
 181   0.0000      -0.132965        -3.6182
 182   0.0000      -0.112303        -3.0559
 183   0.0000      -0.101300        -2.7565
 184   0.0000      -0.083705        -2.2777

MULLIKEN ATOMIC CHARGES
-----------------------
   0 C :   -0.015217
   1 C :    0.006266
   2 C :   -0.014885
   3 C :   -0.019362
   4 C :    0.015349
   5 C :    0.001099
   6 C :    0.007016
   7 C :   -0.015396
   8 C :    0.001492
   9 C :    0.021553
  10 C :   -0.010242
  11 C :   -0.009960
  12 C :    0.002702
  13 C :   -0.013581
  14 C :   -0.016768
  15 C :    0.028932
  16 C :    0.038163
  17 C :   -0.008995
  18 C :   -0.005589
  19 C :    0.014803
  20 C :   -0.003136
  21 C :    0.005009
  22 C :    0.012371
  23 C :    0.002581
  24 C :   -0.007823
  25 C :   -0.008328
  26 C :   -0.016768
  27 C :    0.038160
  28 C :   -0.013573
  29 C :   -0.009958
  30 C :    0.002703
  31 C :    0.021546
  32 C :   -0.007821
  33 C :   -0.010242
  34 C :    0.000319
  35 C :   -0.005068
  36 C :   -0.008332
  37 C :   -0.002129
  38 C :   -0.001177
  39 C :   -0.002128
  40 C :   -0.001180
  41 C :    0.000327
  42 C :   -0.005069
  43 C :    0.028936
  44 C :   -0.005592
  45 C :   -0.014891
  46 C :    0.006269
  47 C :    0.015349
  48 C :   -0.015218
  49 C :   -0.019362
  50 C :    0.001497
  51 C :    0.012370
  52 C :    0.002588
  53 C :    0.007014
  54 C :    0.005010
  55 C :    0.014798
  56 C :   -0.008998
  57 C :    0.001102
  58 C :   -0.003142
  59 C :   -0.015395
Sum of atomic charges:   -0.0000000

LOEWDIN ATOMIC CHARGES
----------------------
   0 C :    0.011105
   1 C :   -0.008470
   2 C :    0.031338
   3 C :    0.002041
   4 C :   -0.009529
   5 C :   -0.005831
   6 C :   -0.006167
   7 C :    0.005021
   8 C :    0.008187
   9 C :   -0.009569
  10 C :    0.000865
  11 C :    0.001851
  12 C :    0.001068
  13 C :   -0.015701
  14 C :   -0.006497
  15 C :    0.003590
  16 C :    0.000291
  17 C :   -0.001502
  18 C :    0.004399
  19 C :    0.002546
  20 C :   -0.001887
  21 C :    0.003278
  22 C :   -0.006125
  23 C :    0.001305
  24 C :   -0.002984
  25 C :    0.003253
  26 C :   -0.006497
  27 C :    0.000291
  28 C :   -0.015701
  29 C :    0.001851
  30 C :    0.001068
  31 C :   -0.009570
  32 C :   -0.002984
  33 C :    0.000865
  34 C :   -0.000224
  35 C :   -0.001291
  36 C :    0.003253
  37 C :   -0.002180
  38 C :   -0.002180
  39 C :   -0.002180
  40 C :   -0.002180
  41 C :   -0.000224
  42 C :   -0.001291
  43 C :    0.003590
  44 C :    0.004399
  45 C :    0.031338
  46 C :   -0.008470
  47 C :   -0.009529
  48 C :    0.011105
  49 C :    0.002040
  50 C :    0.008187
  51 C :   -0.006125
  52 C :    0.001305
  53 C :   -0.006167
  54 C :    0.003278
  55 C :    0.002546
  56 C :   -0.001502
  57 C :   -0.005830
  58 C :   -0.001887
  59 C :    0.005021

  Mayer bond orders larger than 0.100000
B(  0-C ,  1-C ) :   1.4156 B(  0-C ,  3-C ) :   1.0856 B(  0-C ,  6-C ) :   1.1868
B(  1-C ,  2-C ) :   1.0967 B(  1-C ,  9-C ) :   1.1748 B(  2-C ,  4-C ) :   1.0992
B(  2-C , 12-C ) :   1.4625 B(  3-C ,  4-C ) :   1.3452 B(  3-C ,  5-C ) :   1.2640
B(  4-C , 15-C ) :   1.2396 B(  5-C ,  7-C ) :   1.1374 B(  5-C , 17-C ) :   1.2977
B(  6-C ,  7-C ) :   1.1577 B(  6-C ,  8-C ) :   1.3488 B(  7-C , 20-C ) :   1.4001
B(  8-C , 10-C ) :   1.1751 B(  8-C , 22-C ) :   1.1691 B(  9-C , 10-C ) :   1.2747
B(  9-C , 11-C ) :   1.2337 B( 10-C , 24-C ) :   1.2430 B( 11-C , 13-C ) :   1.1103
B( 11-C , 26-C ) :   1.3385 B( 12-C , 13-C ) :   1.1242 B( 12-C , 14-C ) :   1.1068
B( 13-C , 28-C ) :   1.4446 B( 14-C , 16-C ) :   1.2336 B( 14-C , 29-C ) :   1.3385
B( 15-C , 16-C ) :   1.1195 B( 15-C , 18-C ) :   1.3047 B( 16-C , 32-C ) :   1.3014
B( 17-C , 18-C ) :   1.2537 B( 17-C , 19-C ) :   1.1474 B( 18-C , 34-C ) :   1.1261
B( 19-C , 21-C ) :   1.3836 B( 19-C , 35-C ) :   1.1635 B( 20-C , 21-C ) :   1.1387
B( 20-C , 23-C ) :   1.1636 B( 21-C , 38-C ) :   1.1704 B( 22-C , 23-C ) :   1.3565
B( 22-C , 25-C ) :   1.1688 B( 23-C , 39-C ) :   1.1763 B( 24-C , 25-C ) :   1.1305
B( 24-C , 27-C ) :   1.3014 B( 25-C , 41-C ) :   1.3940 B( 26-C , 27-C ) :   1.2336
B( 26-C , 30-C ) :   1.1068 B( 27-C , 43-C ) :   1.1195 B( 28-C , 29-C ) :   1.1103
B( 28-C , 30-C ) :   1.1242 B( 29-C , 31-C ) :   1.2337 B( 30-C , 45-C ) :   1.4625
B( 31-C , 33-C ) :   1.2747 B( 31-C , 46-C ) :   1.1748 B( 32-C , 33-C ) :   1.2430
B( 32-C , 36-C ) :   1.1305 B( 33-C , 50-C ) :   1.1751 B( 34-C , 35-C ) :   1.1757
B( 34-C , 36-C ) :   1.3940 B( 35-C , 37-C ) :   1.3583 B( 36-C , 51-C ) :   1.1688
B( 37-C , 40-C ) :   1.1673 B( 37-C , 52-C ) :   1.1763 B( 38-C , 39-C ) :   1.1673
B( 38-C , 40-C ) :   1.3629 B( 39-C , 42-C ) :   1.3583 B( 40-C , 54-C ) :   1.1704
B( 41-C , 42-C ) :   1.1757 B( 41-C , 44-C ) :   1.1261 B( 42-C , 55-C ) :   1.1635
B( 43-C , 44-C ) :   1.3047 B( 43-C , 47-C ) :   1.2396 B( 44-C , 56-C ) :   1.2537
B( 45-C , 46-C ) :   1.0967 B( 45-C , 47-C ) :   1.0992 B( 46-C , 48-C ) :   1.4156
B( 47-C , 49-C ) :   1.3452 B( 48-C , 49-C ) :   1.0856 B( 48-C , 53-C ) :   1.1868
B( 49-C , 57-C ) :   1.2640 B( 50-C , 51-C ) :   1.1691 B( 50-C , 53-C ) :   1.3488
B( 51-C , 52-C ) :   1.3565 B( 52-C , 58-C ) :   1.1636 B( 53-C , 59-C ) :   1.1577
B( 54-C , 55-C ) :   1.3836 B( 54-C , 58-C ) :   1.1387 B( 55-C , 56-C ) :   1.1474
B( 56-C , 57-C ) :   1.2977 B( 57-C , 59-C ) :   1.1374 B( 58-C , 59-C ) :   1.4001

Dispersion correction           -0.096916115
FINAL SINGLE POINT ENERGY     -2281.104092869642

DIPOLE MOMENT
-------------
                                X             Y             Z
Electronic contribution:      0.00000      -0.00000      -0.16354
Nuclear contribution   :      0.00000      -0.00000      -0.00000
                        -----------------------------------------
Total Dipole Moment    :      0.00000      -0.00000      -0.16354
                        -----------------------------------------
Magnitude (a.u.)       :      0.16354
Magnitude (Debye)      :      0.41568

Rotational constants in cm-1:     0.002954     0.002808     0.002571
Rotational constants in MHz :    88.554634    84.168236    77.065972

                             ****ORCA TERMINATED NORMALLY****
TOTAL RUN TIME: 0 days 0 hours 56 minutes 31 seconds 955 msec
