                         Program Version 5.0.3 -  RELEASE  -
|  1> ! PBEh-3c def2/J TightSCF DefGrid3
|  2>
|  3> %maxcore 60000
|  4>
|  5> %pal
|  6> nprocs 4
|  7> end
|  8>
|  9> *xyzfile 0 1 ts3.xyz
| 10>
| 11>                          ****END OF INPUT****

CARTESIAN COORDINATES (ANGSTROEM)
---------------------------------
  C     -0.110274    0.529476    0.046417
  H     -0.295808    1.601222    0.124294
  O     -1.106394   -0.268578   -0.020297
  C      1.104116   -0.175658   -0.047198
  H      1.271359   -0.824225    0.811942
  H     -0.098402   -1.028334   -0.338969
  H      2.010950    0.277049   -0.430205

 Total Charge           Charge          ....    0
 Multiplicity           Mult            ....    1
 Number of Electrons    NEL             ....   24
 Basis Dimension        Dim             ....   53

ORBITAL ENERGIES
----------------

  NO   OCC          E(Eh)            E(eV)
   0   2.0000     -19.527033      -531.3576
   1   2.0000     -10.554378      -287.1992
   2   2.0000     -10.426308      -283.7143
   3   2.0000      -1.185483       -32.2586
   4   2.0000      -0.831718       -22.6322
   5   2.0000      -0.683377       -18.5956
   6   2.0000      -0.580667       -15.8007
   7   2.0000      -0.519350       -14.1322
   8   2.0000      -0.494553       -13.4575
   9   2.0000      -0.442438       -12.0394
  10   2.0000      -0.386778       -10.5248
  11   2.0000      -0.278522        -7.5790
  12   0.0000      -0.020385        -0.5547
  13   0.0000       0.114716         3.1216
  14   0.0000       0.170275         4.6334
  15   0.0000       0.198738         5.4079
  16   0.0000       0.237104         6.4519

MULLIKEN ATOMIC CHARGES
-----------------------
   0 C :    0.219274
   1 H :    0.229415
   2 O :   -0.460804
   3 C :   -0.886018
   4 H :    0.282292
   5 H :    0.380269
   6 H :    0.235571
Sum of atomic charges:   -0.0000000

LOEWDIN ATOMIC CHARGES
----------------------
   0 C :    0.077104
   1 H :    0.125519
   2 O :   -0.294765
   3 C :   -0.569661
   4 H :    0.173953
   5 H :    0.347223
   6 H :    0.140627

  Mayer bond orders larger than 0.100000
B(  0-C ,  1-H ) :   0.8937 B(  0-C ,  2-O ) :   1.5934 B(  0-C ,  3-C ) :   1.2314
B(  2-O ,  3-C ) :   0.1063 B(  2-O ,  5-H ) :   0.3973 B(  3-C ,  4-H ) :   0.8653
B(  3-C ,  5-H ) :   0.4110 B(  3-C ,  6-H ) :   0.9179

Dispersion correction           -0.001869618
FINAL SINGLE POINT ENERGY      -153.375317939036

DIPOLE MOMENT
-------------
                                X             Y             Z
Electronic contribution:     -2.51669       0.41107      -0.00617
Nuclear contribution   :      2.93717       0.02198       0.17061
                        -----------------------------------------
Total Dipole Moment    :      0.42048       0.43305       0.16444
                        -----------------------------------------
Magnitude (a.u.)       :      0.62560
Magnitude (Debye)      :      1.59015

Rotational constants in cm-1:     1.633314     0.410670     0.341913
Rotational constants in MHz : 48965.524300 12311.591027 10250.290919

                             ****ORCA TERMINATED NORMALLY****
TOTAL RUN TIME: 0 days 0 hours 0 minutes 50 seconds 864 msec
