                         Program Version 5.0.3 -  RELEASE  -
|  1> ! PBEh-3c def2/J TightSCF DefGrid3
|  2>
|  3> %maxcore 60000
|  4>
|  5> %pal
|  6> nprocs 4
|  7> end
|  8>
|  9> *xyzfile 0 1 03.xyz
| 10>
| 11>                          ****END OF INPUT****

CARTESIAN COORDINATES (ANGSTROEM)
---------------------------------
  O     -2.474978   -0.777821   -0.005565
  H     -2.833634    0.109862    0.026767
  H     -1.513470   -0.640226    0.010563
  N      0.446463   -0.562894    0.019914
  H      0.741828   -1.115532   -0.774877
  H      0.756544   -1.073615    0.836773
  C      1.105798    0.745470   -0.020328
  H      0.795256    1.327195    0.844188
  H      2.197108    0.706175   -0.029283
  H      0.779086    1.281387   -0.908151

 Total Charge           Charge          ....    0
 Multiplicity           Mult            ....    1
 Number of Electrons    NEL             ....   28
 Basis Dimension        Dim             ....   59

ORBITAL ENERGIES
----------------

  NO   OCC          E(Eh)            E(eV)
   0   2.0000     -19.424393      -528.5646
   1   2.0000     -14.636025      -398.2665
   2   2.0000     -10.466001      -284.7944
   3   2.0000      -1.054238       -28.6873
   4   2.0000      -0.992733       -27.0136
   5   2.0000      -0.757511       -20.6129
   6   2.0000      -0.571458       -15.5502
   7   2.0000      -0.537958       -14.6386
   8   2.0000      -0.517033       -14.0692
   9   2.0000      -0.475191       -12.9306
  10   2.0000      -0.438484       -11.9317
  11   2.0000      -0.395281       -10.7561
  12   2.0000      -0.313672        -8.5355
  13   2.0000      -0.312162        -8.4944
  14   0.0000       0.115562         3.1446
  15   0.0000       0.183645         4.9972
  16   0.0000       0.186709         5.0806
  17   0.0000       0.194292         5.2869
  18   0.0000       0.210179         5.7193

MULLIKEN ATOMIC CHARGES
-----------------------
   0 O :   -0.872934
   1 H :    0.386246
   2 H :    0.435741
   3 N :   -0.766468
   4 H :    0.336213
   5 H :    0.335679
   6 C :   -0.503326
   7 H :    0.225033
   8 H :    0.197942
   9 H :    0.225874
Sum of atomic charges:   -0.0000000

LOEWDIN ATOMIC CHARGES
----------------------
   0 O :   -0.639286
   1 H :    0.286183
   2 H :    0.283028
   3 N :   -0.463378
   4 H :    0.230499
   5 H :    0.230125
   6 C :   -0.279160
   7 H :    0.124587
   8 H :    0.102405
   9 H :    0.124996

  Mayer bond orders larger than 0.100000
B(  0-O ,  1-H ) :   0.8322 B(  0-O ,  2-H ) :   0.7256 B(  3-N ,  4-H ) :   0.8546
B(  3-N ,  5-H ) :   0.8549 B(  3-N ,  6-C ) :   1.0075 B(  6-C ,  7-H ) :   0.9240
B(  6-C ,  8-H ) :   0.9175 B(  6-C ,  9-H ) :   0.9237

Dispersion correction           -0.002483144
FINAL SINGLE POINT ENERGY      -171.914292614915

DIPOLE MOMENT
-------------
                                X             Y             Z
Electronic contribution:     -1.99787      -1.34791       0.01965
Nuclear contribution   :      3.39976       1.99027       0.01211
                        -----------------------------------------
Total Dipole Moment    :      1.40189       0.64235       0.03176
                        -----------------------------------------
Magnitude (a.u.)       :      1.54237
Magnitude (Debye)      :      3.92040

Rotational constants in cm-1:     1.007913     0.120512     0.111726
Rotational constants in MHz : 30216.459948  3612.850645  3349.455234

                             ****ORCA TERMINATED NORMALLY****
TOTAL RUN TIME: 0 days 0 hours 0 minutes 57 seconds 792 msec
