                         Program Version 5.0.3 -  RELEASE  -
|  1> ! PBEh-3c def2/J TightSCF DefGrid3
|  2>
|  3> %maxcore 60000
|  4>
|  5> %pal
|  6> nprocs 4
|  7> end
|  8>
|  9> *xyzfile 1 1 p6p.xyz
| 10>
| 11>                          ****END OF INPUT****

CARTESIAN COORDINATES (ANGSTROEM)
---------------------------------
  C     -2.915372   -0.133603    0.000000
  C     -1.547928    0.393652    0.000000
  C     -0.402217   -0.365056    0.000000
  C      0.852193    0.242766    0.000000
  C      2.081682   -0.456500    0.000000
  C      3.259654    0.211472    0.000000
  H     -3.459846    0.263892   -0.867559
  H     -3.459846    0.263892    0.867559
  H     -2.963770   -1.220556    0.000000
  H     -1.440556    1.477101    0.000000
  H     -0.471491   -1.447995    0.000000
  H      0.893879    1.330045    0.000000
  H      2.067442   -1.541031    0.000000
  H      3.298964    1.295657    0.000000
  H      4.207210   -0.313736    0.000000

 Total Charge           Charge          ....    1
 Multiplicity           Mult            ....    1
 Number of Electrons    NEL             ....   44
 Basis Dimension        Dim             ....  108

ORBITAL ENERGIES
----------------

  NO   OCC          E(Eh)            E(eV)
   0   2.0000     -10.703470      -291.2562
   1   2.0000     -10.697547      -291.0951
   2   2.0000     -10.669538      -290.3329
   3   2.0000     -10.650638      -289.8186
   4   2.0000     -10.648286      -289.7546
   5   2.0000     -10.610488      -288.7261
   6   2.0000      -1.135905       -30.9096
   7   2.0000      -1.083045       -29.4711
   8   2.0000      -1.011043       -27.5119
   9   2.0000      -0.922117       -25.0921
  10   2.0000      -0.837700       -22.7950
  11   2.0000      -0.830347       -22.5949
  12   2.0000      -0.756681       -20.5903
  13   2.0000      -0.725887       -19.7524
  14   2.0000      -0.677713       -18.4415
  15   2.0000      -0.661578       -18.0025
  16   2.0000      -0.650151       -17.6915
  17   2.0000      -0.623369       -16.9627
  18   2.0000      -0.615210       -16.7407
  19   2.0000      -0.604589       -16.4517
  20   2.0000      -0.586190       -15.9510
  21   2.0000      -0.497148       -13.5281
  22   0.0000      -0.296398        -8.0654
  23   0.0000      -0.153471        -4.1762
  24   0.0000      -0.085767        -2.3339
  25   0.0000      -0.029718        -0.8087
  26   0.0000      -0.009706        -0.2641

MULLIKEN ATOMIC CHARGES
-----------------------
   0 C :   -0.721066
   1 C :   -0.082728
   2 C :   -0.212333
   3 C :   -0.111080
   4 C :   -0.184319
   5 C :   -0.380074
   6 H :    0.304426
   7 H :    0.304426
   8 H :    0.279940
   9 H :    0.299508
  10 H :    0.296505
  11 H :    0.299225
  12 H :    0.300110
  13 H :    0.293838
  14 H :    0.313622
Sum of atomic charges:    1.0000000

LOEWDIN ATOMIC CHARGES
----------------------
   0 C :   -0.355103
   1 C :    0.074109
   2 C :   -0.162013
   3 C :    0.070616
   4 C :   -0.156775
   5 C :   -0.044909
   6 H :    0.191512
   7 H :    0.191512
   8 H :    0.163773
   9 H :    0.167976
  10 H :    0.169592
  11 H :    0.170994
  12 H :    0.170400
  13 H :    0.168214
  14 H :    0.180101

  Mayer bond orders larger than 0.100000
B(  0-C ,  1-C ) :   1.0336 B(  0-C ,  6-H ) :   0.8592 B(  0-C ,  7-H ) :   0.8592
B(  0-C ,  8-H ) :   0.9069 B(  1-C ,  2-C ) :   1.4621 B(  1-C ,  3-C ) :   0.1151
B(  1-C ,  9-H ) :   0.8871 B(  2-C ,  3-C ) :   1.3328 B(  2-C , 10-H ) :   0.8935
B(  3-C ,  4-C ) :   1.2273 B(  3-C , 11-H ) :   0.8884 B(  4-C ,  5-C ) :   1.5965
B(  4-C , 12-H ) :   0.8924 B(  5-C , 13-H ) :   0.9020 B(  5-C , 14-H ) :   0.8923

Dispersion correction           -0.006246837
FINAL SINGLE POINT ENERGY      -233.207985346891

DIPOLE MOMENT
-------------
                                X             Y             Z
Electronic contribution:      2.96816       0.17309       0.00000
Nuclear contribution   :     -2.76651       0.22346       0.00000
                        -----------------------------------------
Total Dipole Moment    :      0.20165       0.39655       0.00000
                        -----------------------------------------
Magnitude (a.u.)       :      0.44488
Magnitude (Debye)      :      1.13079

Rotational constants in cm-1:     0.808612     0.043301     0.041406
Rotational constants in MHz : 24241.584981  1298.121966  1241.325861

                             ****ORCA TERMINATED NORMALLY****
TOTAL RUN TIME: 0 days 0 hours 1 minutes 13 seconds 229 msec
