                         Program Version 5.0.3 -  RELEASE  -
|  1> ! PBEh-3c def2/J TightSCF DefGrid3
|  2>
|  3> %maxcore 60000
|  4>
|  5> %pal
|  6> nprocs 4
|  7> end
|  8>
|  9> *xyzfile 0 1 13ts_9a.xyz
| 10>
| 11>                          ****END OF INPUT****

CARTESIAN COORDINATES (ANGSTROEM)
---------------------------------
  C      1.433624   -0.071723    0.682001
  C      1.433624   -0.071723   -0.682001
  C     -0.965829    0.171833   -1.199581
  N     -1.342659   -0.307346    0.000000
  C     -0.965829    0.171833    1.199581
  H      1.473497   -0.996497    1.244155
  H      1.659326    0.827211    1.242876
  H      1.473497   -0.996497   -1.244155
  H      1.659326    0.827211   -1.242876
  H     -0.816227    1.237067   -1.285514
  H     -1.295519   -0.375993   -2.070481
  H     -1.635083   -1.276449    0.000000
  H     -0.816227    1.237067    1.285514
  H     -1.295519   -0.375993    2.070481

 Total Charge           Charge          ....    0
 Multiplicity           Mult            ....    1
 Number of Electrons    NEL             ....   40
 Basis Dimension        Dim             ....   93

ORBITAL ENERGIES
----------------

  NO   OCC          E(Eh)            E(eV)
   0   2.0000     -14.702179      -400.0666
   1   2.0000     -10.454891      -284.4921
   2   2.0000     -10.454825      -284.4903
   3   2.0000     -10.411884      -283.3218
   4   2.0000     -10.411130      -283.3012
   5   2.0000      -1.065198       -28.9855
   6   2.0000      -0.812127       -22.0991
   7   2.0000      -0.793866       -21.6022
   8   2.0000      -0.695474       -18.9248
   9   2.0000      -0.624125       -16.9833
  10   2.0000      -0.589985       -16.0543
  11   2.0000      -0.532223       -14.4825
  12   2.0000      -0.497728       -13.5439
  13   2.0000      -0.455586       -12.3971
  14   2.0000      -0.453466       -12.3394
  15   2.0000      -0.442261       -12.0345
  16   2.0000      -0.436592       -11.8803
  17   2.0000      -0.377956       -10.2847
  18   2.0000      -0.263830        -7.1792
  19   2.0000      -0.209682        -5.7057
  20   0.0000       0.035324         0.9612
  21   0.0000       0.096256         2.6192
  22   0.0000       0.117334         3.1928
  23   0.0000       0.169478         4.6117
  24   0.0000       0.194368         5.2890

MULLIKEN ATOMIC CHARGES
-----------------------
   0 C :   -0.456736
   1 C :   -0.456735
   2 C :   -0.401021
   3 N :   -0.343023
   4 C :   -0.401021
   5 H :    0.202127
   6 H :    0.203089
   7 H :    0.202127
   8 H :    0.203089
   9 H :    0.226776
  10 H :    0.213233
  11 H :    0.368087
  12 H :    0.226776
  13 H :    0.213233
Sum of atomic charges:   -0.0000000

LOEWDIN ATOMIC CHARGES
----------------------
   0 C :   -0.305583
   1 C :   -0.305583
   2 C :   -0.294119
   3 N :   -0.065677
   4 C :   -0.294119
   5 H :    0.122732
   6 H :    0.122410
   7 H :    0.122732
   8 H :    0.122410
   9 H :    0.130761
  10 H :    0.125196
  11 H :    0.262881
  12 H :    0.130761
  13 H :    0.125196

  Mayer bond orders larger than 0.100000
B(  0-C ,  1-C ) :   1.6765 B(  0-C ,  4-C ) :   0.2723 B(  0-C ,  5-H ) :   0.9339
B(  0-C ,  6-H ) :   0.9322 B(  1-C ,  2-C ) :   0.2723 B(  1-C ,  7-H ) :   0.9339
B(  1-C ,  8-H ) :   0.9322 B(  2-C ,  3-N ) :   1.3055 B(  2-C ,  4-C ) :   0.2644
B(  2-C ,  9-H ) :   0.9230 B(  2-C , 10-H ) :   0.9278 B(  3-N ,  4-C ) :   1.3055
B(  3-N , 11-H ) :   0.8246 B(  4-C , 12-H ) :   0.9230 B(  4-C , 13-H ) :   0.9278

Dispersion correction           -0.006340893
FINAL SINGLE POINT ENERGY      -211.992870619683

DIPOLE MOMENT
-------------
                                X             Y             Z
Electronic contribution:     -2.02744      -0.63504       0.00000
Nuclear contribution   :      1.22496       0.31171      -0.00000
                        -----------------------------------------
Total Dipole Moment    :     -0.80248      -0.32332       0.00000
                        -----------------------------------------
Magnitude (a.u.)       :      0.86517
Magnitude (Debye)      :      2.19908

Rotational constants in cm-1:     0.226416     0.135768     0.094914
Rotational constants in MHz :  6787.785858  4070.233675  2845.453107

                             ****ORCA TERMINATED NORMALLY****
TOTAL RUN TIME: 0 days 0 hours 1 minutes 37 seconds 702 msec
