                         Program Version 5.0.3 -  RELEASE  -
|  1> ! PBEh-3c def2/J TightSCF DefGrid3
|  2>
|  3> %maxcore 60000
|  4>
|  5> %pal
|  6> nprocs 4
|  7> end
|  8>
|  9> *xyzfile 0 1 ethyl-g-butyrolactone.xyz
| 10>
| 11>                          ****END OF INPUT****

CARTESIAN COORDINATES (ANGSTROEM)
---------------------------------
  C     -0.879856   -2.031966   -0.203643
  O      0.524524   -2.064865   -0.562670
  C      0.997613   -0.791619   -0.780423
  C     -0.132094    0.221584   -0.571181
  C     -1.390799   -0.655187   -0.651990
  H     -1.368608   -2.873626   -0.709829
  H     -0.959296   -2.178607    0.884853
  H     -0.081836    0.961422   -1.383186
  H     -2.212317   -0.291470   -0.019958
  H     -1.757269   -0.708138   -1.686757
  C      0.029286    0.957990    0.780362
  H     -0.893833    1.536305    0.949037
  H      0.080272    0.217268    1.596512
  C      1.240974    1.888939    0.845531
  H      1.298937    2.380391    1.826836
  H      2.178154    1.342754    0.677601
  H      1.174578    2.675989    0.079391
  O      2.151569   -0.587163   -1.070486

 Total Charge           Charge          ....    0
 Multiplicity           Mult            ....    1
 Number of Electrons    NEL             ....   62
 Basis Dimension        Dim             ....  140

ORBITAL ENERGIES
----------------

  NO   OCC          E(Eh)            E(eV)
   0   2.0000     -19.537749      -531.6492
   1   2.0000     -19.480880      -530.1017
   2   2.0000     -10.575902      -287.7849
   3   2.0000     -10.511182      -286.0238
   4   2.0000     -10.472295      -284.9656
   5   2.0000     -10.464364      -284.7498
   6   2.0000     -10.458260      -284.5837
   7   2.0000     -10.430660      -283.8327
   8   2.0000      -1.206849       -32.8400
   9   2.0000      -1.125689       -30.6316
  10   2.0000      -0.922508       -25.1027
  11   2.0000      -0.852224       -23.1902
  12   2.0000      -0.801977       -21.8229
  13   2.0000      -0.711514       -19.3613
  14   2.0000      -0.684074       -18.6146
  15   2.0000      -0.631342       -17.1797
  16   2.0000      -0.571087       -15.5401
  17   2.0000      -0.567055       -15.4303
  18   2.0000      -0.529159       -14.3992
  19   2.0000      -0.506510       -13.7828
  20   2.0000      -0.491119       -13.3640
  21   2.0000      -0.483475       -13.1560
  22   2.0000      -0.465502       -12.6670
  23   2.0000      -0.453895       -12.3511
  24   2.0000      -0.427528       -11.6336
  25   2.0000      -0.420565       -11.4442
  26   2.0000      -0.404533       -11.0079
  27   2.0000      -0.396632       -10.7929
  28   2.0000      -0.382535       -10.4093
  29   2.0000      -0.348145        -9.4735
  30   2.0000      -0.320630        -8.7248
  31   0.0000       0.039217         1.0671
  32   0.0000       0.112816         3.0699
  33   0.0000       0.140666         3.8277
  34   0.0000       0.148755         4.0478
  35   0.0000       0.164319         4.4713

MULLIKEN ATOMIC CHARGES
-----------------------
   0 C :   -0.153191
   1 O :   -0.439864
   2 C :    0.576367
   3 C :   -0.397728
   4 C :   -0.480349
   5 H :    0.232401
   6 H :    0.216159
   7 H :    0.267445
   8 H :    0.239133
   9 H :    0.247514
  10 C :   -0.418337
  11 H :    0.223336
  12 H :    0.218289
  13 C :   -0.642451
  14 H :    0.218907
  15 H :    0.251278
  16 H :    0.210900
  17 O :   -0.369811
Sum of atomic charges:   -0.0000000

LOEWDIN ATOMIC CHARGES
----------------------
   0 C :   -0.066878
   1 O :   -0.186388
   2 C :    0.162848
   3 C :   -0.188611
   4 C :   -0.248190
   5 H :    0.128955
   6 H :    0.118151
   7 H :    0.149637
   8 H :    0.136529
   9 H :    0.137952
  10 C :   -0.228407
  11 H :    0.126262
  12 H :    0.125262
  13 C :   -0.363662
  14 H :    0.128868
  15 H :    0.143262
  16 H :    0.126350
  17 O :   -0.201939

  Mayer bond orders larger than 0.100000
B(  0-C ,  1-O ) :   0.9285 B(  0-C ,  4-C ) :   0.9498 B(  0-C ,  5-H ) :   0.9157
B(  0-C ,  6-H ) :   0.9059 B(  1-O ,  2-C ) :   1.0835 B(  2-C ,  3-C ) :   0.9091
B(  2-C , 17-O ) :   2.0822 B(  3-C ,  4-C ) :   0.9573 B(  3-C ,  7-H ) :   0.8996
B(  3-C , 10-C ) :   0.9547 B(  4-C ,  8-H ) :   0.9177 B(  4-C ,  9-H ) :   0.9155
B( 10-C , 11-H ) :   0.9165 B( 10-C , 12-H ) :   0.9176 B( 10-C , 13-C ) :   0.9945
B( 13-C , 14-H ) :   0.9265 B( 13-C , 15-H ) :   0.9081 B( 13-C , 16-H ) :   0.9287

Dispersion correction           -0.009054774
FINAL SINGLE POINT ENERGY      -384.298678469824

DIPOLE MOMENT
-------------
                                X             Y             Z
Electronic contribution:      3.81842      -6.11665      -4.15745
Nuclear contribution   :     -5.52990       6.48392       4.59947
                        -----------------------------------------
Total Dipole Moment    :     -1.71148       0.36727       0.44202
                        -----------------------------------------
Magnitude (a.u.)       :      1.80539
Magnitude (Debye)      :      4.58894

Rotational constants in cm-1:     0.101008     0.060892     0.043769
Rotational constants in MHz :  3028.142861  1825.501726  1312.170607

                             ****ORCA TERMINATED NORMALLY****
TOTAL RUN TIME: 0 days 0 hours 1 minutes 44 seconds 751 msec
