                         Program Version 5.0.3 -  RELEASE  -
|  1> ! PBEh-3c def2/J TightSCF DefGrid3
|  2>
|  3> %maxcore 60000
|  4>
|  5> %pal
|  6> nprocs 4
|  7> end
|  8>
|  9> *xyzfile 0 1 i2e.xyz
| 10>
| 11>                          ****END OF INPUT****

CARTESIAN COORDINATES (ANGSTROEM)
---------------------------------
  C     -0.383589    0.186342   -0.192100
  C     -1.141395   -0.331261    1.063061
  C     -0.283508   -0.210644    2.304035
  C      1.004395    0.146911    2.322064
  C      1.823470    0.367567    1.082485
  C      1.124921   -0.190093   -0.167028
  C      1.875347    0.274857   -1.442354
  C      3.395687    0.447046   -1.204486
  C      3.899060   -0.549065   -0.149316
  C      3.231914   -0.278838    1.223225
  C     -2.506574    0.396704    1.297790
  C     -3.334198   -0.311225    2.387642
  C     -3.371205    0.511374    0.030100
  C     -0.960528   -0.404892   -1.470905
  O     -1.206408   -1.581088   -1.644062
  O     -1.109367    0.541674   -2.441392
  C     -1.587624    0.052641   -3.718272
  H     -0.457361    1.281030   -0.235820
  H     -1.371713   -1.395251    0.891243
  H     -0.778418   -0.405790    3.253417
  H      1.520818    0.244868    3.278990
  H      1.445572    1.223727   -1.789656
  H      1.704801   -0.458998   -2.241644
  H      3.939238    0.322269   -2.149869
  H      3.601090    1.468792   -0.853791
  H      4.991651   -0.500314   -0.055104
  H      3.654400   -1.567525   -0.483080
  H      3.135788   -1.222391    1.778035
  H      3.861827    0.386713    1.829626
  H     -2.271601    1.416128    1.642698
  H     -2.830388   -0.336714    3.360039
  H     -3.545424   -1.346429    2.083143
  H     -4.294402    0.203257    2.524411
  H     -3.559749   -0.481469   -0.400152
  H     -2.903652    1.139273   -0.735405
  H     -4.340276    0.960901    0.284148
  H     -1.629555    0.931026   -4.367152
  H     -2.581204   -0.396946   -3.604026
  H     -0.898873   -0.699274   -4.121287
  H      1.171375   -1.286919   -0.103618
  H      1.965659    1.452024    0.934366

 Total Charge           Charge          ....    0
 Multiplicity           Mult            ....    1
 Number of Electrons    NEL             ....  130
 Basis Dimension        Dim             ....  303

ORBITAL ENERGIES
----------------

  NO   OCC          E(Eh)            E(eV)
   0   2.0000     -19.540541      -531.7251
   1   2.0000     -19.482115      -530.1353
   2   2.0000     -10.574350      -287.7427
   3   2.0000     -10.493301      -285.5372
   4   2.0000     -10.456601      -284.5386
   5   2.0000     -10.449570      -284.3472
   6   2.0000     -10.448350      -284.3141
   7   2.0000     -10.446465      -284.2628
   8   2.0000     -10.444952      -284.2216
   9   2.0000     -10.437822      -284.0276
  10   2.0000     -10.436778      -283.9992
  11   2.0000     -10.435102      -283.9536
  12   2.0000     -10.434111      -283.9266
  13   2.0000     -10.433536      -283.9109
  14   2.0000     -10.433458      -283.9088
  15   2.0000     -10.424420      -283.6629
  16   2.0000     -10.422004      -283.5971
  17   2.0000      -1.207120       -32.8474
  18   2.0000      -1.117505       -30.4089
  19   2.0000      -0.952386       -25.9157
  20   2.0000      -0.909482       -24.7483
  21   2.0000      -0.867298       -23.6004
  22   2.0000      -0.862774       -23.4773
  23   2.0000      -0.814146       -22.1540
  24   2.0000      -0.809437       -22.0259
  25   2.0000      -0.788689       -21.4613
  26   2.0000      -0.759347       -20.6629
  27   2.0000      -0.715740       -19.4763
  28   2.0000      -0.692106       -18.8332
  29   2.0000      -0.681611       -18.5476
  30   2.0000      -0.636999       -17.3336
  31   2.0000      -0.625418       -17.0185
  32   2.0000      -0.603876       -16.4323
  33   2.0000      -0.593061       -16.1380
  34   2.0000      -0.570261       -15.5176
  35   2.0000      -0.551390       -15.0041
  36   2.0000      -0.536844       -14.6083
  37   2.0000      -0.535964       -14.5843
  38   2.0000      -0.521143       -14.1810
  39   2.0000      -0.517707       -14.0875
  40   2.0000      -0.501429       -13.6446
  41   2.0000      -0.493926       -13.4404
  42   2.0000      -0.484404       -13.1813
  43   2.0000      -0.474556       -12.9133
  44   2.0000      -0.462248       -12.5784
  45   2.0000      -0.447133       -12.1671
  46   2.0000      -0.445913       -12.1339
  47   2.0000      -0.435436       -11.8488
  48   2.0000      -0.432029       -11.7561
  49   2.0000      -0.426643       -11.6095
  50   2.0000      -0.420612       -11.4454
  51   2.0000      -0.415480       -11.3058
  52   2.0000      -0.408166       -11.1068
  53   2.0000      -0.407861       -11.0985
  54   2.0000      -0.397329       -10.8119
  55   2.0000      -0.393870       -10.7178
  56   2.0000      -0.377365       -10.2686
  57   2.0000      -0.370916       -10.0931
  58   2.0000      -0.368105       -10.0167
  59   2.0000      -0.354402        -9.6438
  60   2.0000      -0.347567        -9.4578
  61   2.0000      -0.343678        -9.3519
  62   2.0000      -0.335461        -9.1283
  63   2.0000      -0.322329        -8.7710
  64   2.0000      -0.280785        -7.6406
  65   0.0000       0.042732         1.1628
  66   0.0000       0.053014         1.4426
  67   0.0000       0.124930         3.3995
  68   0.0000       0.128152         3.4872
  69   0.0000       0.144759         3.9391

MULLIKEN ATOMIC CHARGES
-----------------------
   0 C :   -0.342854
   1 C :   -0.239354
   2 C :   -0.180030
   3 C :   -0.174922
   4 C :   -0.271700
   5 C :   -0.229654
   6 C :   -0.423075
   7 C :   -0.434320
   8 C :   -0.432611
   9 C :   -0.416244
  10 C :   -0.219436
  11 C :   -0.637488
  12 C :   -0.672957
  13 C :    0.593526
  14 O :   -0.400264
  15 O :   -0.469419
  16 C :   -0.395019
  17 H :    0.241752
  18 H :    0.245273
  19 H :    0.211270
  20 H :    0.209764
  21 H :    0.226374
  22 H :    0.221722
  23 H :    0.223489
  24 H :    0.209314
  25 H :    0.222303
  26 H :    0.215108
  27 H :    0.223458
  28 H :    0.213512
  29 H :    0.213654
  30 H :    0.217970
  31 H :    0.212804
  32 H :    0.217946
  33 H :    0.223475
  34 H :    0.233061
  35 H :    0.222718
  36 H :    0.225507
  37 H :    0.227561
  38 H :    0.226838
  39 H :    0.239015
  40 H :    0.221934
Sum of atomic charges:   -0.0000000

LOEWDIN ATOMIC CHARGES
----------------------
   0 C :   -0.151221
   1 C :   -0.131452
   2 C :   -0.140761
   3 C :   -0.144007
   4 C :   -0.144768
   5 C :   -0.124073
   6 C :   -0.237135
   7 C :   -0.239202
   8 C :   -0.240907
   9 C :   -0.229294
  10 C :   -0.147121
  11 C :   -0.353097
  12 C :   -0.362691
  13 C :    0.160524
  14 O :   -0.230149
  15 O :   -0.191723
  16 C :   -0.178642
  17 H :    0.140133
  18 H :    0.143484
  19 H :    0.131415
  20 H :    0.131092
  21 H :    0.129338
  22 H :    0.127403
  23 H :    0.126786
  24 H :    0.119674
  25 H :    0.126365
  26 H :    0.122585
  27 H :    0.128531
  28 H :    0.124001
  29 H :    0.122104
  30 H :    0.122546
  31 H :    0.127004
  32 H :    0.127101
  33 H :    0.131822
  34 H :    0.130250
  35 H :    0.127889
  36 H :    0.127956
  37 H :    0.127900
  38 H :    0.127400
  39 H :    0.134967
  40 H :    0.127971

  Mayer bond orders larger than 0.100000
B(  0-C ,  1-C ) :   0.9584 B(  0-C ,  5-C ) :   0.9747 B(  0-C , 13-C ) :   0.9146
B(  0-C , 17-H ) :   0.8933 B(  1-C ,  2-C ) :   0.9862 B(  1-C , 10-C ) :   0.9514
B(  1-C , 18-H ) :   0.8803 B(  2-C ,  3-C ) :   1.9196 B(  2-C , 19-H ) :   0.9109
B(  3-C ,  4-C ) :   0.9920 B(  3-C , 20-H ) :   0.9189 B(  4-C ,  5-C ) :   0.9690
B(  4-C ,  9-C ) :   0.9670 B(  4-C , 40-H ) :   0.8977 B(  5-C ,  6-C ) :   0.9646
B(  5-C , 39-H ) :   0.8951 B(  6-C ,  7-C ) :   0.9753 B(  6-C , 21-H ) :   0.9160
B(  6-C , 22-H ) :   0.9203 B(  7-C ,  8-C ) :   0.9773 B(  7-C , 23-H ) :   0.9278
B(  7-C , 24-H ) :   0.9222 B(  8-C ,  9-C ) :   0.9718 B(  8-C , 25-H ) :   0.9279
B(  8-C , 26-H ) :   0.9219 B(  9-C , 27-H ) :   0.9224 B(  9-C , 28-H ) :   0.9237
B( 10-C , 11-C ) :   0.9882 B( 10-C , 12-C ) :   0.9840 B( 10-C , 29-H ) :   0.9068
B( 11-C , 30-H ) :   0.9230 B( 11-C , 31-H ) :   0.9240 B( 11-C , 32-H ) :   0.9278
B( 12-C , 33-H ) :   0.9170 B( 12-C , 34-H ) :   0.9127 B( 12-C , 35-H ) :   0.9266
B( 13-C , 14-O ) :   2.0036 B( 13-C , 15-O ) :   1.0470 B( 15-O , 16-C ) :   0.8996
B( 16-C , 36-H ) :   0.9225 B( 16-C , 37-H ) :   0.9124 B( 16-C , 38-H ) :   0.9126

Dispersion correction           -0.028667873
FINAL SINGLE POINT ENERGY      -734.916479155396

DIPOLE MOMENT
-------------
                                X             Y             Z
Electronic contribution:      0.25148      -1.64365      -3.15559
Nuclear contribution   :     -0.08833       2.23260       2.92395
                        -----------------------------------------
Total Dipole Moment    :      0.16315       0.58894      -0.23164
                        -----------------------------------------
Magnitude (a.u.)       :      0.65355
Magnitude (Debye)      :      1.66120

Rotational constants in cm-1:     0.020025     0.013015     0.008600
Rotational constants in MHz :   600.330657   390.173174   257.828428

                             ****ORCA TERMINATED NORMALLY****
TOTAL RUN TIME: 0 days 0 hours 5 minutes 18 seconds 430 msec
