                         Program Version 5.0.3 -  RELEASE  -
|  1> ! PBEh-3c def2/J TightSCF DefGrid3
|  2>
|  3> %maxcore 60000
|  4>
|  5> %pal
|  6> nprocs 4
|  7> end
|  8>
|  9> *xyzfile 0 2 P2.xyz
| 10>
| 11>                          ****END OF INPUT****

CARTESIAN COORDINATES (ANGSTROEM)
---------------------------------
  C      0.000000    0.000000    0.920033
  C      1.215106    0.000000    0.177886
  C      1.208385    0.000000   -1.203440
  C      0.000000    0.000000   -1.907345
  C     -1.208385    0.000000   -1.203440
  C     -1.215106    0.000000    0.177886
  C      0.000000    0.000000    2.322639
  H      2.155861    0.000000    0.716719
  H      2.146970    0.000000   -1.745431
  H      0.000000    0.000000   -2.990359
  H     -2.146970    0.000000   -1.745431
  H     -2.155861    0.000000    0.716719
  H      0.926381    0.000000    2.881783
  H     -0.926381    0.000000    2.881783

 Total Charge           Charge          ....    0
 Multiplicity           Mult            ....    2
 Number of Electrons    NEL             ....   49
 Basis Dimension        Dim             ....  119

ORBITAL ENERGIES
----------------
                 SPIN UP ORBITALS
  NO   OCC          E(Eh)            E(eV)
   0   1.0000     -10.458411      -284.5878
   1   1.0000     -10.451746      -284.4065
   2   1.0000     -10.451720      -284.4058
   3   1.0000     -10.451569      -284.4016
   4   1.0000     -10.450949      -284.3848
   5   1.0000     -10.447582      -284.2932
   6   1.0000     -10.447554      -284.2924
   7   1.0000      -0.959452       -26.1080
   8   1.0000      -0.870590       -23.6900
   9   1.0000      -0.840439       -22.8695
  10   1.0000      -0.765650       -20.8344
  11   1.0000      -0.683186       -18.5904
  12   1.0000      -0.656608       -17.8672
  13   1.0000      -0.580924       -15.8078
  14   1.0000      -0.533758       -14.5243
  15   1.0000      -0.526565       -14.3286
  16   1.0000      -0.483423       -13.1546
  17   1.0000      -0.478122       -13.0104
  18   1.0000      -0.456120       -12.4117
  19   1.0000      -0.436076       -11.8662
  20   1.0000      -0.410682       -11.1752
  21   1.0000      -0.391134       -10.6433
  22   1.0000      -0.345591        -9.4040
  23   1.0000      -0.304402        -8.2832
  24   1.0000      -0.227807        -6.1989
  25   0.0000       0.017918         0.4876
  26   0.0000       0.042013         1.1432
  27   0.0000       0.142718         3.8836
  28   0.0000       0.174823         4.7572
  29   0.0000       0.187485         5.1017

                 SPIN DOWN ORBITALS
  NO   OCC          E(Eh)            E(eV)
   0   1.0000     -10.462575      -284.7011
   1   1.0000     -10.450637      -284.3763
   2   1.0000     -10.450612      -284.3756
   3   1.0000     -10.446984      -284.2769
   4   1.0000     -10.446974      -284.2766
   5   1.0000     -10.446506      -284.2639
   6   1.0000     -10.438727      -284.0522
   7   1.0000      -0.954824       -25.9821
   8   1.0000      -0.860528       -23.4162
   9   1.0000      -0.836841       -22.7716
  10   1.0000      -0.739897       -20.1336
  11   1.0000      -0.680884       -18.5278
  12   1.0000      -0.650304       -17.6957
  13   1.0000      -0.576365       -15.6837
  14   1.0000      -0.529995       -14.4219
  15   1.0000      -0.523658       -14.2495
  16   1.0000      -0.482556       -13.1310
  17   1.0000      -0.474191       -12.9034
  18   1.0000      -0.449800       -12.2397
  19   1.0000      -0.421072       -11.4579
  20   1.0000      -0.407574       -11.0906
  21   1.0000      -0.390162       -10.6168
  22   1.0000      -0.309860        -8.4317
  23   1.0000      -0.292583        -7.9616
  24   0.0000      -0.054152        -1.4735
  25   0.0000       0.027875         0.7585
  26   0.0000       0.070623         1.9218
  27   0.0000       0.144759         3.9391
  28   0.0000       0.183989         5.0066

MULLIKEN ATOMIC CHARGES AND SPIN POPULATIONS
--------------------------------------------
   0 C :    0.202851   -0.285307
   1 C :   -0.278524    0.321139
   2 C :   -0.199983   -0.215483
   3 C :   -0.239294    0.350577
   4 C :   -0.199983   -0.215483
   5 C :   -0.278524    0.321139
   6 C :   -0.541872    0.855852
   7 H :    0.213374   -0.018400
   8 H :    0.219742    0.010692
   9 H :    0.221403   -0.020483
  10 H :    0.219743    0.010692
  11 H :    0.213374   -0.018401
  12 H :    0.223846   -0.048268
  13 H :    0.223846   -0.048268
Sum of atomic charges         :   -0.0000000

LOEWDIN ATOMIC CHARGES AND SPIN POPULATIONS
-------------------------------------------
   0 C :   -0.066411   -0.158729
   1 C :   -0.121968    0.245982
   2 C :   -0.135340   -0.140226
   3 C :   -0.136730    0.269131
   4 C :   -0.135340   -0.140226
   5 C :   -0.121968    0.245982
   6 C :   -0.232735    0.740171
   7 H :    0.135973   -0.008647
   8 H :    0.136825    0.004923
   9 H :    0.136401   -0.009358
  10 H :    0.136825    0.004923
  11 H :    0.135973   -0.008647
  12 H :    0.134248   -0.022640
  13 H :    0.134248   -0.022640

  Mayer bond orders larger than 0.100000
B(  0-C ,  1-C ) :   1.2472 B(  0-C ,  5-C ) :   1.2472 B(  0-C ,  6-C ) :   1.2365
B(  1-C ,  2-C ) :   1.4725 B(  1-C ,  7-H ) :   0.9232 B(  2-C ,  3-C ) :   1.3699
B(  2-C ,  8-H ) :   0.9197 B(  3-C ,  4-C ) :   1.3699 B(  3-C ,  9-H ) :   0.9184
B(  4-C ,  5-C ) :   1.4725 B(  4-C , 10-H ) :   0.9197 B(  5-C , 11-H ) :   0.9232
B(  6-C , 12-H ) :   0.9278 B(  6-C , 13-H ) :   0.9278

Dispersion correction           -0.007345502
FINAL SINGLE POINT ENERGY      -270.307421310541

DIPOLE MOMENT
-------------
                                X             Y             Z
Electronic contribution:     -0.00000      -0.00000      -1.25938
Nuclear contribution   :     -0.00000       0.00000       1.23907
                        -----------------------------------------
Total Dipole Moment    :     -0.00000      -0.00000      -0.02030
                        -----------------------------------------
Magnitude (a.u.)       :      0.02030
Magnitude (Debye)      :      0.05161

Rotational constants in cm-1:     0.185376     0.090409     0.060771
Rotational constants in MHz :  5557.436413  2710.379344  1821.854925

                             ****ORCA TERMINATED NORMALLY****
TOTAL RUN TIME: 0 days 0 hours 3 minutes 33 seconds 673 msec
