                         Program Version 5.0.3 -  RELEASE  -
|  1> ! PBEh-3c def2/J TightSCF DefGrid3
|  2>
|  3> %maxcore 60000
|  4>
|  5> %pal
|  6> nprocs 4
|  7> end
|  8>
|  9> *xyzfile 0 1 nh2oh_st1.xyz
| 10>
| 11>                          ****END OF INPUT****

CARTESIAN COORDINATES (ANGSTROEM)
---------------------------------
  N     -0.035850   -0.043274   -0.019096
  O     -0.005066    0.042284    1.402589
  H      0.936684   -0.003242   -0.299703
  H     -0.451775    0.830357   -0.312994
  H     -0.416648   -0.778767    1.673874

 Total Charge           Charge          ....    0
 Multiplicity           Mult            ....    1
 Number of Electrons    NEL             ....   18
 Basis Dimension        Dim             ....   36

ORBITAL ENERGIES
----------------

  NO   OCC          E(Eh)            E(eV)
   0   2.0000     -19.504262      -530.7380
   1   2.0000     -14.659193      -398.8969
   2   2.0000      -1.157592       -31.4997
   3   2.0000      -0.886131       -24.1128
   4   2.0000      -0.563089       -15.3224
   5   2.0000      -0.551727       -15.0132
   6   2.0000      -0.492928       -13.4132
   7   2.0000      -0.344148        -9.3647
   8   2.0000      -0.304052        -8.2737
   9   0.0000       0.145197         3.9510
  10   0.0000       0.148252         4.0341
  11   0.0000       0.213680         5.8145
  12   0.0000       0.222348         6.0504
  13   0.0000       0.724279        19.7086

MULLIKEN ATOMIC CHARGES
-----------------------
   0 N :   -0.523457
   1 O :   -0.568106
   2 H :    0.329335
   3 H :    0.332158
   4 H :    0.430070
Sum of atomic charges:   -0.0000000

LOEWDIN ATOMIC CHARGES
----------------------
   0 N :   -0.348201
   1 O :   -0.387240
   2 H :    0.213897
   3 H :    0.215820
   4 H :    0.305724

  Mayer bond orders larger than 0.100000
B(  0-N ,  1-O ) :   0.9945 B(  0-N ,  2-H ) :   0.8573 B(  0-N ,  3-H ) :   0.8570
B(  1-O ,  4-H ) :   0.7911

Dispersion correction           -0.000786786
FINAL SINGLE POINT ENERGY      -131.427222536250

DIPOLE MOMENT
-------------
                                X             Y             Z
Electronic contribution:     -0.04584      -0.03437       0.73537
Nuclear contribution   :      0.10792       0.03552      -0.97857
                        -----------------------------------------
Total Dipole Moment    :      0.06207       0.00115      -0.24320
                        -----------------------------------------
Magnitude (a.u.)       :      0.25100
Magnitude (Debye)      :      0.63799

Rotational constants in cm-1:     6.516019     0.868455     0.862270
Rotational constants in MHz : 195345.346151 26035.631500 25850.195715

                             ****ORCA TERMINATED NORMALLY****
TOTAL RUN TIME: 0 days 0 hours 0 minutes 51 seconds 678 msec
