                         Program Version 5.0.3 -  RELEASE  -
|  1> ! PBEh-3c def2/J TightSCF DefGrid3
|  2>
|  3> %maxcore 60000
|  4>
|  5> %pal
|  6> nprocs 4
|  7> end
|  8>
|  9> *xyzfile 0 1 MET_xbf.xyz
| 10>
| 11>                          ****END OF INPUT****

CARTESIAN COORDINATES (ANGSTROEM)
---------------------------------
  N      1.797055    0.551681    0.164592
  H      2.087679    1.457788    0.498578
  C      0.375096    0.335910    0.066129
  H      0.169135   -0.208427   -0.854932
  C     -0.124898   -0.490699    1.257260
  H      0.077162    0.072263    2.171520
  H      0.485398   -1.393104    1.287711
  C     -1.602511   -0.863661    1.225371
  H     -1.818465   -1.571089    2.026421
  H     -2.233040    0.011467    1.382801
  S     -2.181971   -1.568163   -0.346644
  C     -0.958069   -2.881776   -0.570957
  H     -1.248505   -3.421372   -1.469108
  H     -0.988447   -3.566802    0.274160
  H      0.047484   -2.485285   -0.697780
  C     -0.284691    1.705469    0.030043
  O      0.234622    2.674839    0.579907
  N     -1.469016    1.734822   -0.616334
  H     -1.794305    0.868424   -1.022406
  C      2.676502   -0.422178   -0.166604
  O      2.310214   -1.530330   -0.555045
  C      4.134490   -0.054932   -0.044901
  H      4.573528   -0.048208   -1.040310
  H      4.639329   -0.823987    0.533597
  H      4.291673    0.914483    0.421074
  C     -2.283766    2.928537   -0.691022
  H     -2.421882    3.241024   -1.724176
  H     -3.259292    2.763115   -0.237217
  H     -1.764347    3.712251   -0.148698

 Total Charge           Charge          ....    0
 Multiplicity           Mult            ....    1
 Number of Electrons    NEL             ....  110
 Basis Dimension        Dim             ....  230

ORBITAL ENERGIES
----------------

  NO   OCC          E(Eh)            E(eV)
   0   2.0000     -89.583807     -2437.6993
   1   2.0000     -19.466384      -529.7072
   2   2.0000     -19.455090      -529.3999
   3   2.0000     -14.667882      -399.1334
   4   2.0000     -14.659969      -398.9180
   5   2.0000     -10.552740      -287.1546
   6   2.0000     -10.548321      -287.0344
   7   2.0000     -10.489623      -285.4372
   8   2.0000     -10.475155      -285.0435
   9   2.0000     -10.470440      -284.9152
  10   2.0000     -10.455828      -284.5176
  11   2.0000     -10.451001      -284.3862
  12   2.0000     -10.440890      -284.1111
  13   2.0000      -8.222018      -223.7325
  14   2.0000      -6.113326      -166.3521
  15   2.0000      -6.110011      -166.2619
  16   2.0000      -6.104558      -166.1135
  17   2.0000      -1.152848       -31.3706
  18   2.0000      -1.138661       -30.9845
  19   2.0000      -1.029496       -28.0140
  20   2.0000      -1.025893       -27.9160
  21   2.0000      -0.919308       -25.0157
  22   2.0000      -0.865999       -23.5650
  23   2.0000      -0.827053       -22.5052
  24   2.0000      -0.811492       -22.0818
  25   2.0000      -0.773810       -21.0564
  26   2.0000      -0.723364       -19.6837
  27   2.0000      -0.667866       -18.1736
  28   2.0000      -0.664744       -18.0886
  29   2.0000      -0.638500       -17.3745
  30   2.0000      -0.607513       -16.5313
  31   2.0000      -0.560629       -15.2555
  32   2.0000      -0.544431       -14.8147
  33   2.0000      -0.539321       -14.6757
  34   2.0000      -0.521009       -14.1774
  35   2.0000      -0.515757       -14.0345
  36   2.0000      -0.510744       -13.8980
  37   2.0000      -0.492619       -13.4048
  38   2.0000      -0.489407       -13.3174
  39   2.0000      -0.475645       -12.9429
  40   2.0000      -0.468247       -12.7417
  41   2.0000      -0.460929       -12.5425
  42   2.0000      -0.458015       -12.4632
  43   2.0000      -0.451474       -12.2852
  44   2.0000      -0.441617       -12.0170
  45   2.0000      -0.434922       -11.8348
  46   2.0000      -0.423481       -11.5235
  47   2.0000      -0.405639       -11.0380
  48   2.0000      -0.393768       -10.7150
  49   2.0000      -0.359205        -9.7745
  50   2.0000      -0.323884        -8.8133
  51   2.0000      -0.311222        -8.4688
  52   2.0000      -0.307817        -8.3761
  53   2.0000      -0.301672        -8.2089
  54   2.0000      -0.272075        -7.4035
  55   0.0000       0.048942         1.3318
  56   0.0000       0.067176         1.8280
  57   0.0000       0.078089         2.1249
  58   0.0000       0.124193         3.3795
  59   0.0000       0.126606         3.4451

MULLIKEN ATOMIC CHARGES
-----------------------
   0 N :   -0.639975
   1 H :    0.381782
   2 C :   -0.168813
   3 H :    0.266535
   4 C :   -0.435901
   5 H :    0.247163
   6 H :    0.267209
   7 C :   -0.565891
   8 H :    0.266349
   9 H :    0.261343
  10 S :   -0.020064
  11 C :   -0.778192
  12 H :    0.259473
  13 H :    0.245156
  14 H :    0.299761
  15 C :    0.536666
  16 O :   -0.447667
  17 N :   -0.637784
  18 H :    0.380632
  19 C :    0.532277
  20 O :   -0.452336
  21 C :   -0.747084
  22 H :    0.257028
  23 H :    0.256481
  24 H :    0.219478
  25 C :   -0.496634
  26 H :    0.226327
  27 H :    0.221724
  28 H :    0.264958
Sum of atomic charges:   -0.0000000

LOEWDIN ATOMIC CHARGES
----------------------
   0 N :   -0.216598
   1 H :    0.268564
   2 C :   -0.096901
   3 H :    0.144403
   4 C :   -0.251909
   5 H :    0.141466
   6 H :    0.146681
   7 C :   -0.343460
   8 H :    0.136948
   9 H :    0.138749
  10 S :    0.139092
  11 C :   -0.472101
  12 H :    0.143476
  13 H :    0.132329
  14 H :    0.150066
  15 C :    0.110194
  16 O :   -0.296275
  17 N :   -0.237883
  18 H :    0.252369
  19 C :    0.108914
  20 O :   -0.301942
  21 C :   -0.385953
  22 H :    0.157206
  23 H :    0.155474
  24 H :    0.130935
  25 C :   -0.256915
  26 H :    0.125681
  27 H :    0.123609
  28 H :    0.153780

  Mayer bond orders larger than 0.100000
B(  0-N ,  1-H ) :   0.7826 B(  0-N ,  2-C ) :   0.9346 B(  0-N , 19-C ) :   1.1679
B(  2-C ,  3-H ) :   0.8722 B(  2-C ,  4-C ) :   0.9557 B(  2-C , 15-C ) :   0.9049
B(  4-C ,  5-H ) :   0.9009 B(  4-C ,  6-H ) :   0.8944 B(  4-C ,  7-C ) :   0.9417
B(  7-C ,  8-H ) :   0.8905 B(  7-C ,  9-H ) :   0.8930 B(  7-C , 10-S ) :   1.0168
B( 10-S , 11-C ) :   1.0002 B( 11-C , 12-H ) :   0.9069 B( 11-C , 13-H ) :   0.8994
B( 11-C , 14-H ) :   0.8458 B( 15-C , 16-O ) :   1.9585 B( 15-C , 17-N ) :   1.1669
B( 16-O , 17-N ) :   0.1005 B( 17-N , 18-H ) :   0.7716 B( 17-N , 25-C ) :   0.9505
B( 19-C , 20-O ) :   1.9263 B( 19-C , 21-C ) :   0.9291 B( 21-C , 22-H ) :   0.9087
B( 21-C , 23-H ) :   0.9119 B( 21-C , 24-H ) :   0.9207 B( 25-C , 26-H ) :   0.9196
B( 25-C , 27-H ) :   0.9209 B( 25-C , 28-H ) :   0.8998

Dispersion correction           -0.018537921
FINAL SINGLE POINT ENERGY      -970.995974771126

DIPOLE MOMENT
-------------
                                X             Y             Z
Electronic contribution:     -1.23199       0.76304      -1.32508
Nuclear contribution   :      0.93678      -0.56895       1.49568
                        -----------------------------------------
Total Dipole Moment    :     -0.29521       0.19409       0.17060
                        -----------------------------------------
Magnitude (a.u.)       :      0.39233
Magnitude (Debye)      :      0.99723

Rotational constants in cm-1:     0.024485     0.018657     0.011905
Rotational constants in MHz :   734.055425   559.323420   356.891959

                             ****ORCA TERMINATED NORMALLY****
TOTAL RUN TIME: 0 days 0 hours 3 minutes 30 seconds 322 msec
