                         Program Version 5.0.3 -  RELEASE  -
|  1> ! PBEh-3c def2/J TightSCF DefGrid3
|  2>
|  3> %maxcore 60000
|  4>
|  5> %pal
|  6> nprocs 4
|  7> end
|  8>
|  9> *xyzfile 0 1 P_TT.xyz
| 10>
| 11>                          ****END OF INPUT****

CARTESIAN COORDINATES (ANGSTROEM)
---------------------------------
  C      0.000000    2.532996    0.301659
  C      0.000000    1.271828   -0.551882
  C      0.000000    0.000000    0.285280
  C      0.000000   -1.271828   -0.551882
  C      0.000000   -2.532996    0.301659
  H      0.000000    3.433871   -0.309890
  H      0.874443   -1.269244   -1.206537
  H     -0.874443   -1.269244   -1.206537
  H      0.879627    2.565141    0.944372
  H     -0.879627    2.565141    0.944372
  H     -0.875133    0.000000    0.941803
  H      0.875133    0.000000    0.941803
  H     -0.874443    1.269244   -1.206537
  H      0.874443    1.269244   -1.206537
  H      0.000000   -3.433871   -0.309890
  H      0.879627   -2.565141    0.944372
  H     -0.879627   -2.565141    0.944372

 Total Charge           Charge          ....    0
 Multiplicity           Mult            ....    1
 Number of Electrons    NEL             ....   42
 Basis Dimension        Dim             ....   99

ORBITAL ENERGIES
----------------

  NO   OCC          E(Eh)            E(eV)
   0   2.0000     -10.426661      -283.7239
   1   2.0000     -10.426636      -283.7232
   2   2.0000     -10.424618      -283.6683
   3   2.0000     -10.418756      -283.5088
   4   2.0000     -10.418746      -283.5085
   5   2.0000      -0.893201       -24.3052
   6   2.0000      -0.836979       -22.7754
   7   2.0000      -0.754645       -20.5349
   8   2.0000      -0.670570       -18.2471
   9   2.0000      -0.644191       -17.5293
  10   2.0000      -0.536174       -14.5900
  11   2.0000      -0.494990       -13.4694
  12   2.0000      -0.488231       -13.2854
  13   2.0000      -0.457643       -12.4531
  14   2.0000      -0.447185       -12.1685
  15   2.0000      -0.427984       -11.6460
  16   2.0000      -0.402175       -10.9437
  17   2.0000      -0.382293       -10.4027
  18   2.0000      -0.373046       -10.1511
  19   2.0000      -0.366271        -9.9667
  20   2.0000      -0.361552        -9.8383
  21   0.0000       0.137452         3.7403
  22   0.0000       0.155167         4.2223
  23   0.0000       0.185497         5.0476
  24   0.0000       0.186723         5.0810
  25   0.0000       0.202795         5.5183

MULLIKEN ATOMIC CHARGES
-----------------------
   0 C :   -0.638729
   1 C :   -0.410028
   2 C :   -0.391010
   3 C :   -0.410028
   4 C :   -0.638729
   5 H :    0.218430
   6 H :    0.204466
   7 H :    0.204466
   8 H :    0.208805
   9 H :    0.208805
  10 H :    0.199290
  11 H :    0.199290
  12 H :    0.204466
  13 H :    0.204466
  14 H :    0.218430
  15 H :    0.208805
  16 H :    0.208805
Sum of atomic charges:    0.0000000

LOEWDIN ATOMIC CHARGES
----------------------
   0 C :   -0.361959
   1 C :   -0.246245
   2 C :   -0.241577
   3 C :   -0.246245
   4 C :   -0.361959
   5 H :    0.125758
   6 H :    0.119265
   7 H :    0.119265
   8 H :    0.123312
   9 H :    0.123312
  10 H :    0.118081
  11 H :    0.118081
  12 H :    0.119265
  13 H :    0.119265
  14 H :    0.125758
  15 H :    0.123312
  16 H :    0.123312

  Mayer bond orders larger than 0.100000
B(  0-C ,  1-C ) :   0.9987 B(  0-C ,  5-H ) :   0.9324 B(  0-C ,  8-H ) :   0.9296
B(  0-C ,  9-H ) :   0.9296 B(  1-C ,  2-C ) :   0.9924 B(  1-C , 12-H ) :   0.9204
B(  1-C , 13-H ) :   0.9204 B(  2-C ,  3-C ) :   0.9924 B(  2-C , 10-H ) :   0.9182
B(  2-C , 11-H ) :   0.9182 B(  3-C ,  4-C ) :   0.9987 B(  3-C ,  6-H ) :   0.9204
B(  3-C ,  7-H ) :   0.9204 B(  4-C , 14-H ) :   0.9324 B(  4-C , 15-H ) :   0.9296
B(  4-C , 16-H ) :   0.9296

Dispersion correction           -0.006816516
FINAL SINGLE POINT ENERGY      -197.333891140320

DIPOLE MOMENT
-------------
                                X             Y             Z
Electronic contribution:      0.00000      -0.00000      -0.59112
Nuclear contribution   :      0.00000       0.00000       0.57127
                        -----------------------------------------
Total Dipole Moment    :      0.00000      -0.00000      -0.01985
                        -----------------------------------------
Magnitude (a.u.)       :      0.01985
Magnitude (Debye)      :      0.05046

Rotational constants in cm-1:     0.569588     0.065460     0.062061
Rotational constants in MHz : 17075.819123  1962.427904  1860.541432

                             ****ORCA TERMINATED NORMALLY****
TOTAL RUN TIME: 0 days 0 hours 1 minutes 29 seconds 666 msec
