                         Program Version 5.0.3 -  RELEASE  -
|  1> ! PBEh-3c def2/J TightSCF DefGrid3
|  2>
|  3> %maxcore 60000
|  4>
|  5> %pal
|  6> nprocs 4
|  7> end
|  8>
|  9> *xyzfile 0 1 02A.xyz
| 10>
| 11>                          ****END OF INPUT****

CARTESIAN COORDINATES (ANGSTROEM)
---------------------------------
  O      0.000000    0.000000   -0.395951
  H      0.755201    0.000000    0.197975
  H     -0.755201    0.000000    0.197975

 Total Charge           Charge          ....    0
 Multiplicity           Mult            ....    1
 Number of Electrons    NEL             ....   10
 Basis Dimension        Dim             ....   19

ORBITAL ENERGIES
----------------

  NO   OCC          E(Eh)            E(eV)
   0   2.0000     -19.474750      -529.9349
   1   2.0000      -1.103047       -30.0154
   2   2.0000      -0.580191       -15.7878
   3   2.0000      -0.436060       -11.8658
   4   2.0000      -0.356717        -9.7068
   5   0.0000       0.131166         3.5692
   6   0.0000       0.208979         5.6866
   7   0.0000       0.870630        23.6910
   8   0.0000       0.982909        26.7463
   9   0.0000       0.991448        26.9787

MULLIKEN ATOMIC CHARGES
-----------------------
   0 O :   -0.815548
   1 H :    0.407774
   2 H :    0.407774
Sum of atomic charges:   -0.0000000

LOEWDIN ATOMIC CHARGES
----------------------
   0 O :   -0.596818
   1 H :    0.298409
   2 H :    0.298409

  Mayer bond orders larger than 0.100000
B(  0-O ,  1-H ) :   0.8164 B(  0-O ,  2-H ) :   0.8164

Dispersion correction           -0.000209590
FINAL SINGLE POINT ENERGY       -76.257989663181

DIPOLE MOMENT
-------------
                                X             Y             Z
Electronic contribution:     -0.00000       0.00000      -0.13365
Nuclear contribution   :      0.00000       0.00000       0.98872
                        -----------------------------------------
Total Dipole Moment    :     -0.00000       0.00000       0.85507
                        -----------------------------------------
Magnitude (a.u.)       :      0.85507
Magnitude (Debye)      :      2.17342

Rotational constants in cm-1:    26.692106    14.661608     9.463459
Rotational constants in MHz : 800209.193403 439543.951830 283707.375546

                             ****ORCA TERMINATED NORMALLY****
TOTAL RUN TIME: 0 days 0 hours 0 minutes 50 seconds 855 msec
