                         Program Version 5.0.3 -  RELEASE  -
|  1> ! PBEh-3c def2/J TightSCF DefGrid3
|  2>
|  3> %maxcore 60000
|  4>
|  5> %pal
|  6> nprocs 4
|  7> end
|  8>
|  9> *xyzfile 0 1 3CL_B.xyz
| 10>
| 11>                          ****END OF INPUT****

CARTESIAN COORDINATES (ANGSTROEM)
---------------------------------
  Si     0.000000    0.000000   -0.684537
  H      1.094704    0.000000    0.342268
  H     -1.094704    0.000000    0.342268

 Total Charge           Charge          ....    0
 Multiplicity           Mult            ....    1
 Number of Electrons    NEL             ....   16
 Basis Dimension        Dim             ....   22

ORBITAL ENERGIES
----------------

  NO   OCC          E(Eh)            E(eV)
   0   2.0000     -66.753040     -1816.4426
   1   2.0000      -5.531673      -150.5245
   2   2.0000      -3.826299      -104.1189
   3   2.0000      -3.818544      -103.9079
   4   2.0000      -3.816783      -103.8599
   5   2.0000      -0.570329       -15.5194
   6   2.0000      -0.382003       -10.3948
   7   2.0000      -0.275094        -7.4857
   8   0.0000      -0.091683        -2.4948
   9   0.0000       0.074983         2.0404
  10   0.0000       0.152836         4.1589
  11   0.0000       0.184507         5.0207
  12   0.0000       0.416847        11.3430

MULLIKEN ATOMIC CHARGES
-----------------------
   0 Si:    0.092030
   1 H :   -0.046015
   2 H :   -0.046015
Sum of atomic charges:   -0.0000000

LOEWDIN ATOMIC CHARGES
----------------------
   0 Si:    0.085590
   1 H :   -0.042795
   2 H :   -0.042795

  Mayer bond orders larger than 0.100000
B(  0-Si,  1-H ) :   0.9707 B(  0-Si,  2-H ) :   0.9707

Dispersion correction           -0.000444864
FINAL SINGLE POINT ENERGY      -290.236770914306

DIPOLE MOMENT
-------------
                                X             Y             Z
Electronic contribution:     -0.00000       0.00000      -1.54865
Nuclear contribution   :      0.00000       0.00000       1.80153
                        -----------------------------------------
Total Dipole Moment    :     -0.00000       0.00000       0.25289
                        -----------------------------------------
Magnitude (a.u.)       :      0.25289
Magnitude (Debye)      :      0.64278

Rotational constants in cm-1:     8.500324     6.977708     3.832062
Rotational constants in MHz : 254833.291385 209186.429643 114882.329270

                             ****ORCA TERMINATED NORMALLY****
TOTAL RUN TIME: 0 days 0 hours 0 minutes 9 seconds 99 msec
