                         Program Version 5.0.3 -  RELEASE  -
|  1> ! PBEh-3c def2/J TightSCF DefGrid3
|  2>
|  3> %maxcore 60000
|  4>
|  5> %pal
|  6> nprocs 4
|  7> end
|  8>
|  9> *xyzfile -1 1 213B.xyz
| 10>
| 11>                          ****END OF INPUT****

CARTESIAN COORDINATES (ANGSTROEM)
---------------------------------
  O      2.568620   -0.279380   -0.681600
  N      3.051810   -1.062050    0.265610
  O      4.245950   -1.378820    0.244510
  O      2.247600   -1.467770    1.177260

 Total Charge           Charge          ....   -1
 Multiplicity           Mult            ....    1
 Number of Electrons    NEL             ....   32
 Basis Dimension        Dim             ....   60

ORBITAL ENERGIES
----------------

  NO   OCC          E(Eh)            E(eV)
   0   2.0000     -19.272486      -524.4310
   1   2.0000     -19.259264      -524.0712
   2   2.0000     -19.246639      -523.7277
   3   2.0000     -14.663432      -399.0123
   4   2.0000      -1.095920       -29.8215
   5   2.0000      -0.888355       -24.1734
   6   2.0000      -0.847292       -23.0560
   7   2.0000      -0.443922       -12.0797
   8   2.0000      -0.355232        -9.6664
   9   2.0000      -0.340326        -9.2607
  10   2.0000      -0.336586        -9.1590
  11   2.0000      -0.137180        -3.7328
  12   2.0000      -0.134065        -3.6481
  13   2.0000      -0.117359        -3.1935
  14   2.0000      -0.098952        -2.6926
  15   2.0000      -0.068305        -1.8587
  16   0.0000       0.236572         6.4375
  17   0.0000       0.460444        12.5293
  18   0.0000       0.590114        16.0578
  19   0.0000       0.646035        17.5795
  20   0.0000       0.953408        25.9435

MULLIKEN ATOMIC CHARGES
-----------------------
   0 O :   -0.573835
   1 N :    0.629255
   2 O :   -0.508608
   3 O :   -0.546811
Sum of atomic charges:   -1.0000000

LOEWDIN ATOMIC CHARGES
----------------------
   0 O :   -0.469448
   1 N :    0.266644
   2 O :   -0.371142
   3 O :   -0.426054

  Mayer bond orders larger than 0.100000
B(  0-O ,  1-N ) :   1.4631 B(  0-O ,  2-O ) :   0.1416 B(  0-O ,  3-O ) :   0.1355
B(  1-N ,  2-O ) :   1.5849 B(  1-N ,  3-O ) :   1.5187 B(  2-O ,  3-O ) :   0.1490

Dispersion correction           -0.000858809
FINAL SINGLE POINT ENERGY      -279.753947167241

DIPOLE MOMENT
-------------
                                X             Y             Z
Electronic contribution:      0.14893      -0.09197       0.07633
Nuclear contribution   :     -0.00018       0.00012      -0.00011
                        -----------------------------------------
Total Dipole Moment    :      0.14875      -0.09185       0.07622
                        -----------------------------------------
Magnitude (a.u.)       :      0.19072
Magnitude (Debye)      :      0.48477

Rotational constants in cm-1:     0.434922     0.423873     0.214663
Rotational constants in MHz : 13038.638498 12707.395409  6435.445632

                             ****ORCA TERMINATED NORMALLY****
TOTAL RUN TIME: 0 days 0 hours 0 minutes 45 seconds 541 msec
