                         Program Version 5.0.3 -  RELEASE  -
|  1> ! PBEh-3c def2/J TightSCF DefGrid3
|  2>
|  3> %maxcore 60000
|  4>
|  5> %pal
|  6> nprocs 4
|  7> end
|  8>
|  9> *xyzfile 0 2 cn.xyz
| 10>
| 11>                          ****END OF INPUT****

CARTESIAN COORDINATES (ANGSTROEM)
---------------------------------
  C     -0.630853    0.000000    0.000000
  N      0.540968    0.000000    0.000000

 Total Charge           Charge          ....    0
 Multiplicity           Mult            ....    2
 Number of Electrons    NEL             ....   13
 Basis Dimension        Dim             ....   30

ORBITAL ENERGIES
----------------
                 SPIN UP ORBITALS
  NO   OCC          E(Eh)            E(eV)
   0   1.0000     -14.708588      -400.2410
   1   1.0000     -10.574427      -287.7448
   2   1.0000      -1.057586       -28.7784
   3   1.0000      -0.574893       -15.6436
   4   1.0000      -0.466039       -12.6816
   5   1.0000      -0.438923       -11.9437
   6   1.0000      -0.438923       -11.9437
   7   0.0000       0.024495         0.6665
   8   0.0000       0.024495         0.6665
   9   0.0000       0.282798         7.6953
  10   0.0000       0.492948        13.4138
  11   0.0000       0.492948        13.4138

                 SPIN DOWN ORBITALS
  NO   OCC          E(Eh)            E(eV)
   0   1.0000     -14.706893      -400.1949
   1   1.0000     -10.553475      -287.1747
   2   1.0000      -1.033667       -28.1275
   3   1.0000      -0.484357       -13.1800
   4   1.0000      -0.430244       -11.7075
   5   1.0000      -0.430244       -11.7075
   6   0.0000      -0.201364        -5.4794
   7   0.0000       0.052176         1.4198
   8   0.0000       0.052176         1.4198
   9   0.0000       0.304868         8.2959
  10   0.0000       0.516388        14.0516

MULLIKEN ATOMIC CHARGES AND SPIN POPULATIONS
--------------------------------------------
   0 C :    0.153728    1.025952
   1 N :   -0.153728   -0.025952
Sum of atomic charges         :   -0.0000000

LOEWDIN ATOMIC CHARGES AND SPIN POPULATIONS
-------------------------------------------
   0 C :    0.059107    0.972984
   1 N :   -0.059107    0.027016

  Mayer bond orders larger than 0.100000
B(  0-C ,  1-N ) :   3.0875

Dispersion correction           -0.000272025
FINAL SINGLE POINT ENERGY       -92.491045338215

DIPOLE MOMENT
-------------
                                X             Y             Z
Electronic contribution:     -0.62492       0.00000      -0.00000
Nuclear contribution   :      0.00298       0.00000       0.00000
                        -----------------------------------------
Total Dipole Moment    :     -0.62194       0.00000      -0.00000
                        -----------------------------------------
Magnitude (a.u.)       :      0.62194
Magnitude (Debye)      :      1.58085

Rotational constants in cm-1:     0.000000     1.898562     1.898562
Rotational constants in MHz :     0.000000 56917.446185 56917.446185

                             ****ORCA TERMINATED NORMALLY****
TOTAL RUN TIME: 0 days 0 hours 1 minutes 25 seconds 764 msec
