                         Program Version 5.0.3 -  RELEASE  -
|  1> ! PBEh-3c def2/J TightSCF DefGrid3
|  2>
|  3> %maxcore 60000
|  4>
|  5> %pal
|  6> nprocs 4
|  7> end
|  8>
|  9> *xyzfile 0 1 R29.xyz
| 10>
| 11>                          ****END OF INPUT****

CARTESIAN COORDINATES (ANGSTROEM)
---------------------------------
  C      0.000000    0.606549    0.000000
  C     -0.644611    1.729705    0.000000
  C      0.856012    1.840406    0.000000
  C      0.014545   -0.831017    0.000000
  C      1.179851   -1.486594    0.000000
  H     -1.570312    2.273867    0.000000
  H      2.117614   -0.949042    0.000000
  H      1.374615    2.133057    0.911461
  H      1.220025   -2.567248    0.000000
  C     -1.322024   -1.519668    0.000000
  H     -1.904056   -1.228698    0.876639
  H     -1.904056   -1.228698   -0.876639
  H     -1.211089   -2.602582    0.000000
  H      1.374615    2.133057   -0.911461

 Total Charge           Charge          ....    0
 Multiplicity           Mult            ....    1
 Number of Electrons    NEL             ....   44
 Basis Dimension        Dim             ....  106

ORBITAL ENERGIES
----------------

  NO   OCC          E(Eh)            E(eV)
   0   2.0000     -10.466559      -284.8096
   1   2.0000     -10.459072      -284.6058
   2   2.0000     -10.453759      -284.4612
   3   2.0000     -10.445338      -284.2321
   4   2.0000     -10.441247      -284.1208
   5   2.0000     -10.435465      -283.9634
   6   2.0000      -0.973575       -26.4923
   7   2.0000      -0.893252       -24.3066
   8   2.0000      -0.776731       -21.1359
   9   2.0000      -0.693811       -18.8795
  10   2.0000      -0.660085       -17.9618
  11   2.0000      -0.589700       -16.0466
  12   2.0000      -0.547678       -14.9031
  13   2.0000      -0.501886       -13.6570
  14   2.0000      -0.499229       -13.5847
  15   2.0000      -0.471418       -12.8279
  16   2.0000      -0.448666       -12.2088
  17   2.0000      -0.424143       -11.5415
  18   2.0000      -0.389729       -10.6051
  19   2.0000      -0.341593        -9.2952
  20   2.0000      -0.336721        -9.1626
  21   2.0000      -0.265672        -7.2293
  22   0.0000      -0.005670        -0.1543
  23   0.0000       0.117265         3.1909
  24   0.0000       0.159829         4.3492
  25   0.0000       0.162869         4.4319
  26   0.0000       0.180556         4.9132

MULLIKEN ATOMIC CHARGES
-----------------------
   0 C :    0.205891
   1 C :   -0.301685
   2 C :   -0.461677
   3 C :    0.016888
   4 C :   -0.524786
   5 H :    0.209858
   6 H :    0.231511
   7 H :    0.207174
   8 H :    0.218014
   9 C :   -0.700635
  10 H :    0.232640
  11 H :    0.232640
  12 H :    0.226993
  13 H :    0.207174
Sum of atomic charges:   -0.0000000

LOEWDIN ATOMIC CHARGES
----------------------
   0 C :   -0.024719
   1 C :   -0.135309
   2 C :   -0.241446
   3 C :   -0.070183
   4 C :   -0.241820
   5 H :    0.143019
   6 H :    0.141002
   7 H :    0.111685
   8 H :    0.132226
   9 C :   -0.340672
  10 H :    0.140289
  11 H :    0.140289
  12 H :    0.133955
  13 H :    0.111685

  Mayer bond orders larger than 0.100000
B(  0-C ,  1-C ) :   1.7144 B(  0-C ,  2-C ) :   0.9221 B(  0-C ,  3-C ) :   1.0359
B(  1-C ,  2-C ) :   0.9607 B(  1-C ,  4-C ) :   0.1125 B(  1-C ,  5-H ) :   0.9302
B(  2-C ,  7-H ) :   0.9131 B(  2-C , 13-H ) :   0.9131 B(  3-C ,  4-C ) :   1.8113
B(  3-C ,  9-C ) :   0.9920 B(  4-C ,  6-H ) :   0.9246 B(  4-C ,  8-H ) :   0.9270
B(  9-C , 10-H ) :   0.9156 B(  9-C , 11-H ) :   0.9156 B(  9-C , 12-H ) :   0.9302

Dispersion correction           -0.006107146
FINAL SINGLE POINT ENERGY      -232.823409195437

DIPOLE MOMENT
-------------
                                X             Y             Z
Electronic contribution:      0.28833       1.88374       0.00000
Nuclear contribution   :     -0.51836      -2.09995       0.00000
                        -----------------------------------------
Total Dipole Moment    :     -0.23003      -0.21621       0.00000
                        -----------------------------------------
Magnitude (a.u.)       :      0.31569
Magnitude (Debye)      :      0.80243

Rotational constants in cm-1:     0.227508     0.093484     0.067981
Rotational constants in MHz :  6820.510999  2802.576030  2038.021188

                             ****ORCA TERMINATED NORMALLY****
TOTAL RUN TIME: 0 days 0 hours 1 minutes 15 seconds 252 msec
