                         Program Version 5.0.3 -  RELEASE  -
|  1> ! PBEh-3c def2/J TightSCF DefGrid3
|  2>
|  3> %maxcore 60000
|  4>
|  5> %pal
|  6> nprocs 4
|  7> end
|  8>
|  9> *xyzfile 0 1 ALA_xac.xyz
| 10>
| 11>                          ****END OF INPUT****

CARTESIAN COORDINATES (ANGSTROEM)
---------------------------------
  N      0.475270   -1.850983   -2.138810
  H      0.116929   -2.575261   -2.735663
  C      0.798311   -2.234700   -0.763585
  H      0.668781   -3.313565   -0.724602
  C      2.236221   -1.894953   -0.385059
  C     -0.193338   -1.709798    0.281652
  H      2.432629   -2.257403    0.622514
  H      2.927650   -2.381097   -1.071633
  H      2.407111   -0.823400   -0.416248
  O     -0.742638   -2.487627    1.056728
  C      0.630697   -0.624248   -2.691210
  C      0.352677   -0.543913   -4.172401
  H      1.302443   -0.449768   -4.695799
  H     -0.224951    0.354831   -4.367372
  H     -0.177822   -1.410440   -4.559220
  O      0.990024    0.367129   -2.054472
  N     -0.354001   -0.370646    0.302470
  H      0.129071    0.171079   -0.405819
  C     -1.242897    0.263610    1.250789
  H     -1.331778   -0.379293    2.121369
  H     -0.833277    1.225430    1.547843
  H     -2.238611    0.417615    0.834427

 Total Charge           Charge          ....    0
 Multiplicity           Mult            ....    1
 Number of Electrons    NEL             ....   78
 Basis Dimension        Dim             ....  174

ORBITAL ENERGIES
----------------

  NO   OCC          E(Eh)            E(eV)
   0   2.0000     -19.475618      -529.9585
   1   2.0000     -19.445327      -529.1343
   2   2.0000     -14.682207      -399.5232
   3   2.0000     -14.642583      -398.4449
   4   2.0000     -10.568230      -287.5761
   5   2.0000     -10.533897      -286.6419
   6   2.0000     -10.495358      -285.5932
   7   2.0000     -10.455630      -284.5121
   8   2.0000     -10.454456      -284.4802
   9   2.0000     -10.433541      -283.9111
  10   2.0000      -1.160684       -31.5838
  11   2.0000      -1.128888       -30.7186
  12   2.0000      -1.042131       -28.3578
  13   2.0000      -1.005793       -27.3690
  14   2.0000      -0.881987       -24.0001
  15   2.0000      -0.828632       -22.5482
  16   2.0000      -0.782995       -21.3064
  17   2.0000      -0.734186       -19.9782
  18   2.0000      -0.669562       -18.2197
  19   2.0000      -0.636262       -17.3136
  20   2.0000      -0.605894       -16.4872
  21   2.0000      -0.580421       -15.7940
  22   2.0000      -0.538147       -14.6437
  23   2.0000      -0.524336       -14.2679
  24   2.0000      -0.506508       -13.7828
  25   2.0000      -0.502273       -13.6675
  26   2.0000      -0.486164       -13.2292
  27   2.0000      -0.478152       -13.0112
  28   2.0000      -0.474599       -12.9145
  29   2.0000      -0.465789       -12.6748
  30   2.0000      -0.442558       -12.0426
  31   2.0000      -0.436957       -11.8902
  32   2.0000      -0.426557       -11.6072
  33   2.0000      -0.415358       -11.3025
  34   2.0000      -0.404637       -11.0107
  35   2.0000      -0.337625        -9.1873
  36   2.0000      -0.325290        -8.8516
  37   2.0000      -0.289807        -7.8861
  38   2.0000      -0.286961        -7.8086
  39   0.0000       0.038160         1.0384
  40   0.0000       0.070820         1.9271
  41   0.0000       0.100276         2.7286
  42   0.0000       0.163211         4.4412
  43   0.0000       0.167256         4.5513

MULLIKEN ATOMIC CHARGES
-----------------------
   0 N :   -0.628740
   1 H :    0.364898
   2 C :   -0.212714
   3 H :    0.266161
   4 C :   -0.649625
   5 C :    0.539073
   6 H :    0.239792
   7 H :    0.222837
   8 H :    0.254071
   9 O :   -0.438768
  10 C :    0.546160
  11 C :   -0.740868
  12 H :    0.261702
  13 H :    0.265442
  14 H :    0.216923
  15 O :   -0.467073
  16 N :   -0.651824
  17 H :    0.412885
  18 C :   -0.488293
  19 H :    0.253064
  20 H :    0.217697
  21 H :    0.217202
Sum of atomic charges:   -0.0000000

LOEWDIN ATOMIC CHARGES
----------------------
   0 N :   -0.218556
   1 H :    0.260873
   2 C :   -0.092748
   3 H :    0.147584
   4 C :   -0.357277
   5 C :    0.097987
   6 H :    0.141834
   7 H :    0.130704
   8 H :    0.146166
   9 O :   -0.287654
  10 C :    0.116209
  11 C :   -0.383282
  12 H :    0.160183
  13 H :    0.159011
  14 H :    0.130033
  15 O :   -0.300266
  16 N :   -0.252108
  17 H :    0.266696
  18 C :   -0.254383
  19 H :    0.145522
  20 H :    0.124362
  21 H :    0.119109

  Mayer bond orders larger than 0.100000
B(  0-N ,  1-H ) :   0.8283 B(  0-N ,  2-C ) :   0.9009 B(  0-N , 10-C ) :   1.1773
B(  2-C ,  3-H ) :   0.9051 B(  2-C ,  4-C ) :   0.9822 B(  2-C ,  5-C ) :   0.8930
B(  4-C ,  6-H ) :   0.9143 B(  4-C ,  7-H ) :   0.9232 B(  4-C ,  8-H ) :   0.9022
B(  5-C ,  9-O ) :   1.9761 B(  5-C , 16-N ) :   1.1892 B(  9-O , 16-N ) :   0.1019
B( 10-C , 11-C ) :   0.9346 B( 10-C , 15-O ) :   1.8611 B( 11-C , 12-H ) :   0.9044
B( 11-C , 13-H ) :   0.9086 B( 11-C , 14-H ) :   0.9209 B( 16-N , 17-H ) :   0.7163
B( 16-N , 18-C ) :   0.9615 B( 18-C , 19-H ) :   0.9069 B( 18-C , 20-H ) :   0.9257
B( 18-C , 21-H ) :   0.9200

Dispersion correction           -0.011870781
FINAL SINGLE POINT ENERGY      -494.790797707781

DIPOLE MOMENT
-------------
                                X             Y             Z
Electronic contribution:     -1.36636      -1.69723       1.06571
Nuclear contribution   :      1.57993       1.58891      -2.55859
                        -----------------------------------------
Total Dipole Moment    :      0.21358      -0.10831      -1.49288
                        -----------------------------------------
Magnitude (a.u.)       :      1.51197
Magnitude (Debye)      :      3.84311

Rotational constants in cm-1:     0.065472     0.030448     0.025821
Rotational constants in MHz :  1962.806227   912.815218   774.086759

                             ****ORCA TERMINATED NORMALLY****
TOTAL RUN TIME: 0 days 0 hours 2 minutes 26 seconds 876 msec
