                         Program Version 5.0.3 -  RELEASE  -
|  1> ! PBEh-3c def2/J TightSCF DefGrid3
|  2>
|  3> %maxcore 60000
|  4>
|  5> %pal
|  6> nprocs 4
|  7> end
|  8>
|  9> *xyzfile 0 2 c2h5.xyz
| 10>
| 11>                          ****END OF INPUT****

CARTESIAN COORDINATES (ANGSTROEM)
---------------------------------
  C     -0.025682   -0.624910    0.000000
  C     -0.025682    0.866132    0.000000
  H      0.993976   -1.028736    0.000000
  H     -0.523727   -1.024534    0.883419
  H     -0.523727   -1.024534   -0.883419
  H      0.052422    1.418291   -0.924319
  H      0.052422    1.418291    0.924319

 Total Charge           Charge          ....    0
 Multiplicity           Mult            ....    2
 Number of Electrons    NEL             ....   17
 Basis Dimension        Dim             ....   40

ORBITAL ENERGIES
----------------
                 SPIN UP ORBITALS
  NO   OCC          E(Eh)            E(eV)
   0   1.0000     -10.441927      -284.1393
   1   1.0000     -10.429207      -283.7932
   2   1.0000      -0.844464       -22.9790
   3   1.0000      -0.685085       -18.6421
   4   1.0000      -0.510318       -13.8865
   5   1.0000      -0.471070       -12.8185
   6   1.0000      -0.444457       -12.0943
   7   1.0000      -0.409453       -11.1418
   8   1.0000      -0.252096        -6.8599
   9   0.0000       0.165150         4.4940
  10   0.0000       0.185598         5.0504
  11   0.0000       0.200080         5.4445
  12   0.0000       0.223978         6.0948
  13   0.0000       0.274110         7.4589

                 SPIN DOWN ORBITALS
  NO   OCC          E(Eh)            E(eV)
   0   1.0000     -10.430482      -283.8279
   1   1.0000     -10.425877      -283.7025
   2   1.0000      -0.822643       -22.3852
   3   1.0000      -0.653368       -17.7790
   4   1.0000      -0.502214       -13.6659
   5   1.0000      -0.451304       -12.2806
   6   1.0000      -0.434557       -11.8249
   7   1.0000      -0.404300       -11.0015
   8   0.0000      -0.000475        -0.0129
   9   0.0000       0.170620         4.6428
  10   0.0000       0.202041         5.4978
  11   0.0000       0.202323         5.5055
  12   0.0000       0.233242         6.3468

MULLIKEN ATOMIC CHARGES AND SPIN POPULATIONS
--------------------------------------------
   0 C :   -0.664668   -0.101894
   1 C :   -0.433864    1.130584
   2 H :    0.225339    0.063081
   3 H :    0.223500    0.015401
   4 H :    0.223500    0.015401
   5 H :    0.213097   -0.061286
   6 H :    0.213097   -0.061286
Sum of atomic charges         :   -0.0000000

LOEWDIN ATOMIC CHARGES AND SPIN POPULATIONS
-------------------------------------------
   0 C :   -0.381849   -0.029426
   1 C :   -0.266201    1.004774
   2 H :    0.133690    0.056765
   3 H :    0.132522    0.013617
   4 H :    0.132522    0.013617
   5 H :    0.124658   -0.029673
   6 H :    0.124658   -0.029673

  Mayer bond orders larger than 0.100000
B(  0-C ,  1-C ) :   1.0123 B(  0-C ,  2-H ) :   0.9067 B(  0-C ,  3-H ) :   0.9256
B(  0-C ,  4-H ) :   0.9256 B(  1-C ,  5-H ) :   0.9261 B(  1-C ,  6-H ) :   0.9261

Dispersion correction           -0.001575440
FINAL SINGLE POINT ENERGY       -78.979931500627

DIPOLE MOMENT
-------------
                                X             Y             Z
Electronic contribution:     -0.08038       0.56643       0.00000
Nuclear contribution   :      0.13941      -0.65472       0.00000
                        -----------------------------------------
Total Dipole Moment    :      0.05903      -0.08828       0.00000
                        -----------------------------------------
Magnitude (a.u.)       :      0.10620
Magnitude (Debye)      :      0.26994

Rotational constants in cm-1:     3.473409     0.757445     0.702575
Rotational constants in MHz : 104130.168155 22707.621538 21062.664685

                             ****ORCA TERMINATED NORMALLY****
TOTAL RUN TIME: 0 days 0 hours 0 minutes 56 seconds 926 msec
