                         Program Version 5.0.3 -  RELEASE  -
|  1> ! PBEh-3c def2/J TightSCF DefGrid3
|  2>
|  3> %maxcore 60000
|  4>
|  5> %pal
|  6> nprocs 4
|  7> end
|  8>
|  9> *xyzfile 0 1 h11.xyz
| 10>
| 11>                          ****END OF INPUT****

CARTESIAN COORDINATES (ANGSTROEM)
---------------------------------
  C     -1.224760   -1.165232    0.000000
  C     -0.598621    0.229015    0.000000
  C      0.949146    0.177004    0.000000
  C      1.538150   -0.491789    1.241162
  C      1.538150   -0.491789   -1.241162
  C     -1.088313    0.987726    1.235100
  C     -1.088313    0.987726   -1.235100
  H     -0.940162   -1.735569    0.883791
  H     -2.312513   -1.079567    0.000000
  H     -0.940162   -1.735569   -0.883791
  H      1.278634    1.222625    0.000000
  H      1.263852   -1.546314    1.284591
  H      1.215797   -0.017424    2.165380
  H      2.626325   -0.441333    1.207369
  H      1.263852   -1.546314   -1.284591
  H      2.626325   -0.441333   -1.207369
  H      1.215797   -0.017424   -2.165380
  H     -0.883723    0.443127    2.155362
  H     -2.166437    1.142418    1.176845
  H     -0.611432    1.967236    1.304569
  H     -0.883723    0.443127   -2.155362
  H     -0.611432    1.967236   -1.304569
  H     -2.166437    1.142418   -1.176845

 Total Charge           Charge          ....    0
 Multiplicity           Mult            ....    1
 Number of Electrons    NEL             ....   58
 Basis Dimension        Dim             ....  137

ORBITAL ENERGIES
----------------

  NO   OCC          E(Eh)            E(eV)
   0   2.0000     -10.445127      -284.2264
   1   2.0000     -10.435797      -283.9725
   2   2.0000     -10.416866      -283.4573
   3   2.0000     -10.416807      -283.4557
   4   2.0000     -10.416561      -283.4490
   5   2.0000     -10.416524      -283.4480
   6   2.0000     -10.416415      -283.4451
   7   2.0000      -0.925223       -25.1766
   8   2.0000      -0.843086       -22.9415
   9   2.0000      -0.772960       -21.0333
  10   2.0000      -0.762348       -20.7445
  11   2.0000      -0.745074       -20.2745
  12   2.0000      -0.675014       -18.3681
  13   2.0000      -0.582822       -15.8594
  14   2.0000      -0.529658       -14.4127
  15   2.0000      -0.510479       -13.8908
  16   2.0000      -0.495885       -13.4937
  17   2.0000      -0.486571       -13.2403
  18   2.0000      -0.461008       -12.5447
  19   2.0000      -0.446071       -12.1382
  20   2.0000      -0.428579       -11.6622
  21   2.0000      -0.425463       -11.5774
  22   2.0000      -0.416042       -11.3211
  23   2.0000      -0.408326       -11.1111
  24   2.0000      -0.393877       -10.7179
  25   2.0000      -0.387293       -10.5388
  26   2.0000      -0.355854        -9.6833
  27   2.0000      -0.352161        -9.5828
  28   2.0000      -0.345953        -9.4139
  29   0.0000       0.117922         3.2088
  30   0.0000       0.170369         4.6360
  31   0.0000       0.174009         4.7350
  32   0.0000       0.174797         4.7565
  33   0.0000       0.178175         4.8484

MULLIKEN ATOMIC CHARGES
-----------------------
   0 C :   -0.629054
   1 C :   -0.077273
   2 C :   -0.193331
   3 C :   -0.643965
   4 C :   -0.643965
   5 C :   -0.621616
   6 C :   -0.621616
   7 H :    0.216052
   8 H :    0.215383
   9 H :    0.216052
  10 H :    0.202327
  11 H :    0.208425
  12 H :    0.221626
  13 H :    0.218579
  14 H :    0.208425
  15 H :    0.218579
  16 H :    0.221626
  17 H :    0.216185
  18 H :    0.213982
  19 H :    0.211708
  20 H :    0.216185
  21 H :    0.211708
  22 H :    0.213982
Sum of atomic charges:    0.0000000

LOEWDIN ATOMIC CHARGES
----------------------
   0 C :   -0.345140
   1 C :   -0.103993
   2 C :   -0.148519
   3 C :   -0.354355
   4 C :   -0.354355
   5 C :   -0.342549
   6 C :   -0.342549
   7 H :    0.124515
   8 H :    0.126955
   9 H :    0.124515
  10 H :    0.118338
  11 H :    0.123349
  12 H :    0.125231
  13 H :    0.126813
  14 H :    0.123349
  15 H :    0.126813
  16 H :    0.125231
  17 H :    0.124030
  18 H :    0.124710
  19 H :    0.124435
  20 H :    0.124030
  21 H :    0.124435
  22 H :    0.124710

  Mayer bond orders larger than 0.100000
B(  0-C ,  1-C ) :   0.9767 B(  0-C ,  7-H ) :   0.9267 B(  0-C ,  8-H ) :   0.9274
B(  0-C ,  9-H ) :   0.9267 B(  1-C ,  2-C ) :   0.9499 B(  1-C ,  5-C ) :   0.9846
B(  1-C ,  6-C ) :   0.9846 B(  2-C ,  3-C ) :   0.9922 B(  2-C ,  4-C ) :   0.9922
B(  2-C , 10-H ) :   0.9106 B(  3-C , 11-H ) :   0.9239 B(  3-C , 12-H ) :   0.9261
B(  3-C , 13-H ) :   0.9280 B(  4-C , 14-H ) :   0.9239 B(  4-C , 15-H ) :   0.9280
B(  4-C , 16-H ) :   0.9261 B(  5-C , 17-H ) :   0.9263 B(  5-C , 18-H ) :   0.9280
B(  5-C , 19-H ) :   0.9292 B(  6-C , 20-H ) :   0.9263 B(  6-C , 21-H ) :   0.9292
B(  6-C , 22-H ) :   0.9280

Dispersion correction           -0.012535244
FINAL SINGLE POINT ENERGY      -275.793645679397

DIPOLE MOMENT
-------------
                                X             Y             Z
Electronic contribution:      0.07693       0.62230       0.00000
Nuclear contribution   :     -0.06580      -0.60176      -0.00000
                        -----------------------------------------
Total Dipole Moment    :      0.01113       0.02054       0.00000
                        -----------------------------------------
Magnitude (a.u.)       :      0.02336
Magnitude (Debye)      :      0.05938

Rotational constants in cm-1:     0.101291     0.073156     0.060842
Rotational constants in MHz :  3036.625679  2193.158165  1824.010251

                             ****ORCA TERMINATED NORMALLY****
TOTAL RUN TIME: 0 days 0 hours 1 minutes 49 seconds 806 msec
