                         Program Version 5.0.3 -  RELEASE  -
|  1> ! PBEh-3c def2/J TightSCF DefGrid3
|  2>
|  3> %maxcore 60000
|  4>
|  5> %pal
|  6> nprocs 4
|  7> end
|  8>
|  9> *xyzfile 0 1 EA_25n.xyz
| 10>
| 11>                          ****END OF INPUT****

CARTESIAN COORDINATES (ANGSTROEM)
---------------------------------
  Cl     0.000000    0.000000    1.021049
  Cl     0.000000    0.000000   -1.021049

 Total Charge           Charge          ....    0
 Multiplicity           Mult            ....    1
 Number of Electrons    NEL             ....   34
 Basis Dimension        Dim             ....   36

ORBITAL ENERGIES
----------------

  NO   OCC          E(Eh)            E(eV)
   0   2.0000    -102.359429     -2785.3417
   1   2.0000    -102.359383     -2785.3404
   2   2.0000      -9.824060      -267.3263
   3   2.0000      -9.824055      -267.3261
   4   2.0000      -7.514748      -204.4867
   5   2.0000      -7.514657      -204.4842
   6   2.0000      -7.501594      -204.1287
   7   2.0000      -7.501594      -204.1287
   8   2.0000      -7.501590      -204.1286
   9   2.0000      -7.501590      -204.1286
  10   2.0000      -1.018694       -27.7201
  11   2.0000      -0.852562       -23.1994
  12   2.0000      -0.515856       -14.0371
  13   2.0000      -0.460116       -12.5204
  14   2.0000      -0.460116       -12.5204
  15   2.0000      -0.359595        -9.7851
  16   2.0000      -0.359595        -9.7851
  17   0.0000      -0.101874        -2.7721
  18   0.0000       0.446669        12.1545
  19   0.0000       0.556325        15.1384
  20   0.0000       0.604574        16.4513
  21   0.0000       0.641194        17.4478

MULLIKEN ATOMIC CHARGES
-----------------------
   0 Cl:    0.000000
   1 Cl:   -0.000000
Sum of atomic charges:   -0.0000000

LOEWDIN ATOMIC CHARGES
----------------------
   0 Cl:   -0.000000
   1 Cl:    0.000000

  Mayer bond orders larger than 0.100000
B(  0-Cl,  1-Cl) :   1.0295

Dispersion correction           -0.000447586
FINAL SINGLE POINT ENERGY      -919.358806301580

DIPOLE MOMENT
-------------
                                X             Y             Z
Electronic contribution:     -0.00000       0.00000      -0.00000
Nuclear contribution   :      0.00000       0.00000       0.00000
                        -----------------------------------------
Total Dipole Moment    :     -0.00000       0.00000      -0.00000
                        -----------------------------------------
Magnitude (a.u.)       :      0.00000
Magnitude (Debye)      :      0.00000

Rotational constants in cm-1:     0.000000     0.228045     0.228045
Rotational constants in MHz :     0.000000  6836.613427  6836.613427

                             ****ORCA TERMINATED NORMALLY****
TOTAL RUN TIME: 0 days 0 hours 0 minutes 18 seconds 185 msec
