                         Program Version 5.0.3 -  RELEASE  -
|  1> ! PBEh-3c def2/J TightSCF DefGrid3
|  2>
|  3> %maxcore 60000
|  4>
|  5> %pal
|  6> nprocs 4
|  7> end
|  8>
|  9> *xyzfile 0 1 Dibenzocarbazole_TS.xyz
| 10>
| 11>                          ****END OF INPUT****

CARTESIAN COORDINATES (ANGSTROEM)
---------------------------------
  N     -2.404552   -0.218140    0.412431
  C     -1.761981   -0.248789   -0.793106
  C     -0.399961    0.090829   -0.619532
  C     -0.231701    0.304604    0.834619
  C     -1.509041    0.082553    1.399364
  C     -1.822700    0.128399    2.767234
  C     -0.819406    0.394235    3.643257
  C      0.501080    0.640677    3.180644
  C      0.821749    0.622432    1.776504
  C      1.503996    0.914971    4.135158
  C      2.797390    1.180153    3.768734
  C      3.120439    1.187951    2.405980
  C      2.162447    0.922249    1.455569
  C     -2.373852   -0.594617   -2.007871
  C     -1.604237   -0.619716   -3.126672
  C     -0.226754   -0.277525   -3.067389
  C      0.400850    0.105220   -1.828169
  C      0.519871   -0.311787   -4.265359
  C      1.847341    0.026277   -4.300533
  C      2.464158    0.431097   -3.110442
  C      1.761466    0.471820   -1.928717
  H      2.285804    0.823185   -1.066185
  H     -3.355657   -0.499354    0.565541
  H     -2.027217   -0.899823   -4.082287
  H     -3.424583   -0.853371   -2.033253
  H      3.504093    0.730305   -3.115446
  H      0.009217   -0.613557   -5.171116
  H      2.403948   -0.005919   -5.227148
  H     -1.007745    0.424378    4.708145
  H     -2.835402   -0.058020    3.100623
  H      2.466620    0.950812    0.432482
  H      4.131257    1.410024    2.090444
  H      3.552149    1.388554    4.514419
  H      1.221829    0.913921    5.180440

 Total Charge           Charge          ....    0
 Multiplicity           Mult            ....    1
 Number of Electrons    NEL             ....  140
 Basis Dimension        Dim             ....  341

ORBITAL ENERGIES
----------------

  NO   OCC          E(Eh)            E(eV)
   0   2.0000     -14.690123      -399.7386
   1   2.0000     -10.491321      -285.4834
   2   2.0000     -10.491230      -285.4809
   3   2.0000     -10.468991      -284.8757
   4   2.0000     -10.468120      -284.8520
   5   2.0000     -10.464008      -284.7401
   6   2.0000     -10.463542      -284.7275
   7   2.0000     -10.457256      -284.5564
   8   2.0000     -10.456967      -284.5485
   9   2.0000     -10.455441      -284.5070
  10   2.0000     -10.455356      -284.5047
  11   2.0000     -10.453009      -284.4408
  12   2.0000     -10.452976      -284.4399
  13   2.0000     -10.447248      -284.2841
  14   2.0000     -10.446987      -284.2770
  15   2.0000     -10.445753      -284.2434
  16   2.0000     -10.445620      -284.2398
  17   2.0000     -10.443414      -284.1798
  18   2.0000     -10.442841      -284.1642
  19   2.0000     -10.442700      -284.1603
  20   2.0000     -10.442632      -284.1585
  21   2.0000      -1.102948       -30.0127
  22   2.0000      -0.973233       -26.4830
  23   2.0000      -0.971491       -26.4356
  24   2.0000      -0.922829       -25.1114
  25   2.0000      -0.910501       -24.7760
  26   2.0000      -0.889416       -24.2023
  27   2.0000      -0.854485       -23.2517
  28   2.0000      -0.839443       -22.8424
  29   2.0000      -0.831786       -22.6340
  30   2.0000      -0.818923       -22.2840
  31   2.0000      -0.794516       -21.6199
  32   2.0000      -0.727661       -19.8007
  33   2.0000      -0.713274       -19.4092
  34   2.0000      -0.693958       -18.8836
  35   2.0000      -0.686586       -18.6829
  36   2.0000      -0.683613       -18.6020
  37   2.0000      -0.645435       -17.5632
  38   2.0000      -0.630977       -17.1698
  39   2.0000      -0.602688       -16.4000
  40   2.0000      -0.599760       -16.3203
  41   2.0000      -0.563813       -15.3421
  42   2.0000      -0.560650       -15.2561
  43   2.0000      -0.558716       -15.2034
  44   2.0000      -0.533039       -14.5047
  45   2.0000      -0.523632       -14.2488
  46   2.0000      -0.506319       -13.7776
  47   2.0000      -0.504190       -13.7197
  48   2.0000      -0.493338       -13.4244
  49   2.0000      -0.484844       -13.1933
  50   2.0000      -0.483909       -13.1678
  51   2.0000      -0.475919       -12.9504
  52   2.0000      -0.471762       -12.8373
  53   2.0000      -0.464627       -12.6431
  54   2.0000      -0.443382       -12.0650
  55   2.0000      -0.438749       -11.9390
  56   2.0000      -0.438499       -11.9322
  57   2.0000      -0.431548       -11.7430
  58   2.0000      -0.407551       -11.0900
  59   2.0000      -0.393027       -10.6948
  60   2.0000      -0.386598       -10.5199
  61   2.0000      -0.382937       -10.4202
  62   2.0000      -0.379335       -10.3222
  63   2.0000      -0.354379        -9.6432
  64   2.0000      -0.346751        -9.4356
  65   2.0000      -0.314216        -8.5503
  66   2.0000      -0.286755        -7.8030
  67   2.0000      -0.273887        -7.4528
  68   2.0000      -0.246414        -6.7053
  69   2.0000      -0.228028        -6.2049
  70   0.0000      -0.031983        -0.8703
  71   0.0000      -0.006337        -0.1724
  72   0.0000       0.012728         0.3463
  73   0.0000       0.024188         0.6582
  74   0.0000       0.043840         1.1929

MULLIKEN ATOMIC CHARGES
-----------------------
   0 N :   -0.777543
   1 C :    0.326527
   2 C :    0.126364
   3 C :    0.124397
   4 C :    0.326381
   5 C :   -0.278447
   6 C :   -0.318615
   7 C :    0.093107
   8 C :    0.063080
   9 C :   -0.262941
  10 C :   -0.247232
  11 C :   -0.191453
  12 C :   -0.361652
  13 C :   -0.278429
  14 C :   -0.317998
  15 C :    0.093754
  16 C :    0.063036
  17 C :   -0.263388
  18 C :   -0.246204
  19 C :   -0.191452
  20 C :   -0.371130
  21 H :    0.194471
  22 H :    0.359934
  23 H :    0.215586
  24 H :    0.213465
  25 H :    0.217698
  26 H :    0.210961
  27 H :    0.217669
  28 H :    0.215602
  29 H :    0.213665
  30 H :    0.185304
  31 H :    0.217145
  32 H :    0.217496
  33 H :    0.210843
Sum of atomic charges:   -0.0000000

LOEWDIN ATOMIC CHARGES
----------------------
   0 N :   -0.143792
   1 C :    0.030921
   2 C :   -0.052763
   3 C :   -0.052723
   4 C :    0.030710
   5 C :   -0.157644
   6 C :   -0.115463
   7 C :   -0.040656
   8 C :   -0.015231
   9 C :   -0.118372
  10 C :   -0.146118
  11 C :   -0.129903
  12 C :   -0.130751
  13 C :   -0.157593
  14 C :   -0.115487
  15 C :   -0.040489
  16 C :   -0.014952
  17 C :   -0.118096
  18 C :   -0.146231
  19 C :   -0.130001
  20 C :   -0.131514
  21 H :    0.130320
  22 H :    0.265082
  23 H :    0.138844
  24 H :    0.138318
  25 H :    0.136247
  26 H :    0.135606
  27 H :    0.136517
  28 H :    0.138812
  29 H :    0.138391
  30 H :    0.129772
  31 H :    0.136303
  32 H :    0.136353
  33 H :    0.135585

  Mayer bond orders larger than 0.100000
B(  0-N ,  1-C ) :   1.0475 B(  0-N ,  4-C ) :   1.0467 B(  0-N , 22-H ) :   0.8325
B(  1-C ,  2-C ) :   1.2892 B(  1-C , 13-C ) :   1.1999 B(  2-C ,  3-C ) :   1.1313
B(  2-C ,  8-C ) :  -0.1171 B(  2-C , 16-C ) :   1.0470 B(  2-C , 20-C ) :  -0.1027
B(  3-C ,  4-C ) :   1.2894 B(  3-C ,  8-C ) :   1.0474 B(  3-C , 12-C ) :  -0.1033
B(  3-C , 16-C ) :  -0.1164 B(  4-C ,  5-C ) :   1.1994 B(  5-C ,  6-C ) :   1.5866
B(  5-C , 29-H ) :   0.9201 B(  6-C ,  7-C ) :   1.2037 B(  6-C , 28-H ) :   0.9232
B(  7-C ,  8-C ) :   1.2566 B(  7-C ,  9-C ) :   1.2613 B(  8-C , 12-C ) :   1.2981
B(  9-C , 10-C ) :   1.5127 B(  9-C , 33-H ) :   0.9265 B( 10-C , 11-C ) :   1.3197
B( 10-C , 32-H ) :   0.9188 B( 11-C , 12-C ) :   1.5237 B( 11-C , 31-H ) :   0.9196
B( 12-C , 30-H ) :   0.9070 B( 13-C , 14-C ) :   1.5864 B( 13-C , 24-H ) :   0.9202
B( 14-C , 15-C ) :   1.2035 B( 14-C , 23-H ) :   0.9232 B( 15-C , 16-C ) :   1.2594
B( 15-C , 17-C ) :   1.2604 B( 16-C , 20-C ) :   1.2910 B( 17-C , 18-C ) :   1.5127
B( 17-C , 26-H ) :   0.9265 B( 18-C , 19-C ) :   1.3211 B( 18-C , 27-H ) :   0.9187
B( 19-C , 20-C ) :   1.5247 B( 19-C , 25-H ) :   0.9192 B( 20-C , 21-H ) :   0.9073

Dispersion correction           -0.027635130
FINAL SINGLE POINT ENERGY      -822.926893214811

DIPOLE MOMENT
-------------
                                X             Y             Z
Electronic contribution:     -4.69400      -0.72136       0.66773
Nuclear contribution   :      3.78130       0.46086      -0.52863
                        -----------------------------------------
Total Dipole Moment    :     -0.91270      -0.26050       0.13909
                        -----------------------------------------
Magnitude (a.u.)       :      0.95929
Magnitude (Debye)      :      2.43832

Rotational constants in cm-1:     0.019443     0.008135     0.005740
Rotational constants in MHz :   582.888209   243.868137   172.087010

                             ****ORCA TERMINATED NORMALLY****
TOTAL RUN TIME: 0 days 0 hours 5 minutes 28 seconds 327 msec
