                         Program Version 5.0.3 -  RELEASE  -
|  1> ! PBEh-3c def2/J TightSCF DefGrid3
|  2>
|  3> %maxcore 60000
|  4>
|  5> %pal
|  6> nprocs 4
|  7> end
|  8>
|  9> *xyzfile 0 2 CH2OH.xyz
| 10>
| 11>                          ****END OF INPUT****

CARTESIAN COORDINATES (ANGSTROEM)
---------------------------------
  C      0.430111   -0.120548   -0.097708
  O     -0.924165   -0.273132   -0.011284
  H     -1.344548    0.582745   -0.095754
  H      0.859485    0.842619    0.136400
  H      0.979116   -1.031684    0.068345

 Total Charge           Charge          ....    0
 Multiplicity           Mult            ....    2
 Number of Electrons    NEL             ....   17
 Basis Dimension        Dim             ....   36

ORBITAL ENERGIES
----------------
                 SPIN UP ORBITALS
  NO   OCC          E(Eh)            E(eV)
   0   1.0000     -19.521077      -531.1955
   1   1.0000     -10.479527      -285.1624
   2   1.0000      -1.163449       -31.6591
   3   1.0000      -0.752912       -20.4878
   4   1.0000      -0.594448       -16.1757
   5   1.0000      -0.511385       -13.9155
   6   1.0000      -0.464734       -12.6461
   7   1.0000      -0.411502       -11.1975
   8   1.0000      -0.224308        -6.1037
   9   0.0000       0.125679         3.4199
  10   0.0000       0.187143         5.0924
  11   0.0000       0.240117         6.5339
  12   0.0000       0.278432         7.5765
  13   0.0000       0.519700        14.1418

                 SPIN DOWN ORBITALS
  NO   OCC          E(Eh)            E(eV)
   0   1.0000     -19.514890      -531.0271
   1   1.0000     -10.464111      -284.7429
   2   1.0000      -1.147799       -31.2332
   3   1.0000      -0.718174       -19.5425
   4   1.0000      -0.581623       -15.8268
   5   1.0000      -0.500324       -13.6145
   6   1.0000      -0.413682       -11.2569
   7   1.0000      -0.394235       -10.7277
   8   0.0000       0.022478         0.6117
   9   0.0000       0.130102         3.5402
  10   0.0000       0.204183         5.5561
  11   0.0000       0.251881         6.8540
  12   0.0000       0.290569         7.9068

MULLIKEN ATOMIC CHARGES AND SPIN POPULATIONS
--------------------------------------------
   0 C :   -0.265323    0.973016
   1 O :   -0.556526    0.130772
   2 H :    0.431846   -0.007129
   3 H :    0.182350   -0.045807
   4 H :    0.207654   -0.050852
Sum of atomic charges         :    0.0000000

LOEWDIN ATOMIC CHARGES AND SPIN POPULATIONS
-------------------------------------------
   0 C :   -0.210014    0.879066
   1 O :   -0.330790    0.171136
   2 H :    0.320366   -0.004756
   3 H :    0.100903   -0.021306
   4 H :    0.119535   -0.024140

  Mayer bond orders larger than 0.100000
B(  0-C ,  1-O ) :   1.1832 B(  0-C ,  3-H ) :   0.9157 B(  0-C ,  4-H ) :   0.9198
B(  1-O ,  2-H ) :   0.7804

Dispersion correction           -0.000833354
FINAL SINGLE POINT ENERGY      -114.808412592623

DIPOLE MOMENT
-------------
                                X             Y             Z
Electronic contribution:     -1.26757      -0.23180      -0.12217
Nuclear contribution   :      1.28145       0.85952       0.21552
                        -----------------------------------------
Total Dipole Moment    :      0.01388       0.62772       0.09335
                        -----------------------------------------
Magnitude (a.u.)       :      0.63477
Magnitude (Debye)      :      1.61347

Rotational constants in cm-1:     6.474904     0.998858     0.873459
Rotational constants in MHz : 194112.743031 29945.009725 26185.647571

                             ****ORCA TERMINATED NORMALLY****
TOTAL RUN TIME: 0 days 0 hours 1 minutes 41 seconds 270 msec
