                         Program Version 5.0.3 -  RELEASE  -
|  1> ! PBEh-3c def2/J TightSCF DefGrid3
|  2>
|  3> %maxcore 60000
|  4>
|  5> %pal
|  6> nprocs 4
|  7> end
|  8>
|  9> *xyzfile 0 1 18.xyz
| 10>
| 11>                          ****END OF INPUT****

CARTESIAN COORDINATES (ANGSTROEM)
---------------------------------
  N     -1.889747   -2.937049   -0.031753
  C     -0.527958   -3.038042   -0.230169
  C      0.028004   -1.784284   -0.334455
  C     -1.056088   -0.849076   -0.193261
  C     -1.117260    0.552529   -0.217735
  C     -2.354702    1.166412   -0.059612
  C     -3.529878    0.402454    0.123263
  C     -3.482668   -0.987882    0.149359
  C     -2.241660   -1.604273   -0.009890
  H     -2.523592   -3.710504    0.044238
  H     -0.053372   -4.004469   -0.290127
  H     -0.232635    1.162282   -0.354707
  H     -4.485537    0.888199    0.245419
  H     -4.390293   -1.561161    0.288479
  O     -2.345087    2.538074   -0.093959
  C     -3.589383    3.195388    0.060995
  H     -4.044049    2.972451    1.029143
  H     -4.287483    2.927443   -0.735586
  H     -3.372945    4.258092    0.004097
  C      1.468770   -1.429831   -0.519365
  C      2.068526   -0.841326    0.766149
  N      3.396506   -0.284169    0.566065
  C      3.560646    0.942752   -0.003561
  C      4.995164    1.372922   -0.235003
  H      1.569165   -0.682920   -1.309338
  H      2.042547   -2.309224   -0.821300
  H      2.128145   -1.607936    1.538736
  H      1.426146   -0.042924    1.132528
  H      4.204194   -0.860396    0.715644
  O      2.612968    1.655800   -0.306871
  H      5.167391    1.447577   -1.307510
  H      5.724352    0.689763    0.197041
  H      5.131814    2.363323    0.193036

 Total Charge           Charge          ....    0
 Multiplicity           Mult            ....    1
 Number of Electrons    NEL             ....  124
 Basis Dimension        Dim             ....  287

ORBITAL ENERGIES
----------------

  NO   OCC          E(Eh)            E(eV)
   0   2.0000     -19.507292      -530.8204
   1   2.0000     -19.447708      -529.1991
   2   2.0000     -14.675921      -399.3521
   3   2.0000     -14.656302      -398.8182
   4   2.0000     -10.541392      -286.8459
   5   2.0000     -10.489413      -285.4314
   6   2.0000     -10.477647      -285.1113
   7   2.0000     -10.472414      -284.9689
   8   2.0000     -10.468183      -284.8538
   9   2.0000     -10.466213      -284.8001
  10   2.0000     -10.444041      -284.1968
  11   2.0000     -10.438658      -284.0503
  12   2.0000     -10.435922      -283.9759
  13   2.0000     -10.435372      -283.9609
  14   2.0000     -10.434646      -283.9412
  15   2.0000     -10.433083      -283.8986
  16   2.0000     -10.424548      -283.6664
  17   2.0000      -1.155645       -31.4467
  18   2.0000      -1.133627       -30.8476
  19   2.0000      -1.077944       -29.3324
  20   2.0000      -1.015625       -27.6366
  21   2.0000      -0.928010       -25.2524
  22   2.0000      -0.892011       -24.2729
  23   2.0000      -0.844609       -22.9830
  24   2.0000      -0.828061       -22.5327
  25   2.0000      -0.812784       -22.1170
  26   2.0000      -0.790710       -21.5163
  27   2.0000      -0.762158       -20.7394
  28   2.0000      -0.717233       -19.5169
  29   2.0000      -0.693254       -18.8644
  30   2.0000      -0.655377       -17.8337
  31   2.0000      -0.649450       -17.6724
  32   2.0000      -0.622029       -16.9263
  33   2.0000      -0.601789       -16.3755
  34   2.0000      -0.569839       -15.5061
  35   2.0000      -0.564327       -15.3561
  36   2.0000      -0.548126       -14.9153
  37   2.0000      -0.532919       -14.5015
  38   2.0000      -0.518969       -14.1219
  39   2.0000      -0.518615       -14.1122
  40   2.0000      -0.506608       -13.7855
  41   2.0000      -0.500161       -13.6101
  42   2.0000      -0.484039       -13.1714
  43   2.0000      -0.478380       -13.0174
  44   2.0000      -0.467576       -12.7234
  45   2.0000      -0.462985       -12.5985
  46   2.0000      -0.453577       -12.3425
  47   2.0000      -0.451113       -12.2754
  48   2.0000      -0.443353       -12.0643
  49   2.0000      -0.435732       -11.8569
  50   2.0000      -0.427560       -11.6345
  51   2.0000      -0.408855       -11.1255
  52   2.0000      -0.405079       -11.0228
  53   2.0000      -0.397218       -10.8088
  54   2.0000      -0.384245       -10.4558
  55   2.0000      -0.365513        -9.9461
  56   2.0000      -0.342667        -9.3244
  57   2.0000      -0.312748        -8.5103
  58   2.0000      -0.301900        -8.2151
  59   2.0000      -0.294106        -8.0030
  60   2.0000      -0.240130        -6.5343
  61   2.0000      -0.223607        -6.0846
  62   0.0000       0.013614         0.3704
  63   0.0000       0.066815         1.8181
  64   0.0000       0.069777         1.8987
  65   0.0000       0.101957         2.7744
  66   0.0000       0.119787         3.2596

MULLIKEN ATOMIC CHARGES
-----------------------
   0 N :   -0.705787
   1 C :   -0.061849
   2 C :    0.021905
   3 C :    0.068104
   4 C :   -0.458319
   5 C :    0.397051
   6 C :   -0.362376
   7 C :   -0.260673
   8 C :    0.364221
   9 H :    0.354843
  10 H :    0.232195
  11 H :    0.264851
  12 H :    0.227622
  13 H :    0.209562
  14 O :   -0.464364
  15 C :   -0.402072
  16 H :    0.200238
  17 H :    0.200759
  18 H :    0.238763
  19 C :   -0.531500
  20 C :   -0.278183
  21 N :   -0.630757
  22 C :    0.525372
  23 C :   -0.750087
  24 H :    0.257199
  25 H :    0.210362
  26 H :    0.224071
  27 H :    0.268368
  28 H :    0.349265
  29 O :   -0.431869
  30 H :    0.254605
  31 H :    0.207161
  32 H :    0.261320
Sum of atomic charges:    0.0000000

LOEWDIN ATOMIC CHARGES
----------------------
   0 N :   -0.165138
   1 C :   -0.084775
   2 C :   -0.105734
   3 C :   -0.049347
   4 C :   -0.157423
   5 C :    0.058652
   6 C :   -0.193061
   7 C :   -0.154076
   8 C :    0.005799
   9 H :    0.259433
  10 H :    0.132363
  11 H :    0.161487
  12 H :    0.138656
  13 H :    0.134367
  14 O :   -0.191262
  15 C :   -0.180686
  16 H :    0.110098
  17 H :    0.110372
  18 H :    0.129591
  19 C :   -0.234472
  20 C :   -0.144228
  21 N :   -0.243460
  22 C :    0.106549
  23 C :   -0.390367
  24 H :    0.146759
  25 H :    0.125404
  26 H :    0.124149
  27 H :    0.146524
  28 H :    0.250498
  29 O :   -0.283814
  30 H :    0.155134
  31 H :    0.124515
  32 H :    0.157496

  Mayer bond orders larger than 0.100000
B(  0-N ,  1-C ) :   1.1300 B(  0-N ,  8-C ) :   0.9989 B(  0-N ,  9-H ) :   0.8357
B(  1-C ,  2-C ) :   1.5666 B(  1-C , 10-H ) :   0.9133 B(  2-C ,  3-C ) :   1.2287
B(  2-C , 19-C ) :   0.9613 B(  3-C ,  4-C ) :   1.2968 B(  3-C ,  8-C ) :   1.2307
B(  4-C ,  5-C ) :   1.4329 B(  4-C ,  7-C ) :   0.1026 B(  4-C , 11-H ) :   0.8957
B(  5-C ,  6-C ) :   1.2860 B(  5-C , 14-O ) :   1.0123 B(  6-C ,  7-C ) :   1.4711
B(  6-C , 12-H ) :   0.9067 B(  7-C ,  8-C ) :   1.3184 B(  7-C , 13-H ) :   0.9219
B( 14-O , 15-C ) :   0.9625 B( 15-C , 16-H ) :   0.9079 B( 15-C , 17-H ) :   0.9078
B( 15-C , 18-H ) :   0.9239 B( 19-C , 20-C ) :   0.9476 B( 19-C , 24-H ) :   0.9040
B( 19-C , 25-H ) :   0.9311 B( 20-C , 21-N ) :   0.9301 B( 20-C , 26-H ) :   0.9217
B( 20-C , 27-H ) :   0.8951 B( 21-N , 22-C ) :   1.1444 B( 21-N , 28-H ) :   0.8316
B( 22-C , 23-C ) :   0.9261 B( 22-C , 29-O ) :   1.9691 B( 23-C , 30-H ) :   0.9101
B( 23-C , 31-H ) :   0.9231 B( 23-C , 32-H ) :   0.9108

Dispersion correction           -0.021076478
FINAL SINGLE POINT ENERGY      -763.326648610863

DIPOLE MOMENT
-------------
                                X             Y             Z
Electronic contribution:     -6.11931      -4.25648      -0.51155
Nuclear contribution   :      6.35909       2.56320       0.97230
                        -----------------------------------------
Total Dipole Moment    :      0.23979      -1.69328       0.46075
                        -----------------------------------------
Magnitude (a.u.)       :      1.77115
Magnitude (Debye)      :      4.50192

Rotational constants in cm-1:     0.021120     0.009463     0.006695
Rotational constants in MHz :   633.156364   283.706356   200.713111

                             ****ORCA TERMINATED NORMALLY****
TOTAL RUN TIME: 0 days 0 hours 4 minutes 9 seconds 951 msec
