                         Program Version 5.0.3 -  RELEASE  -
|  1> ! PBEh-3c def2/J TightSCF DefGrid3
|  2>
|  3> %maxcore 60000
|  4>
|  5> %pal
|  6> nprocs 4
|  7> end
|  8>
|  9> *xyzfile 0 1 HCl.xyz
| 10>
| 11>                          ****END OF INPUT****

CARTESIAN COORDINATES (ANGSTROEM)
---------------------------------
  Cl     0.000000    0.000000    0.644712
  H      0.000000    0.000000   -0.644712

 Total Charge           Charge          ....    0
 Multiplicity           Mult            ....    1
 Number of Electrons    NEL             ....   18
 Basis Dimension        Dim             ....   20

ORBITAL ENERGIES
----------------

  NO   OCC          E(Eh)            E(eV)
   0   2.0000    -102.298849     -2783.6932
   1   2.0000      -9.767691      -265.7924
   2   2.0000      -7.455589      -202.8769
   3   2.0000      -7.446794      -202.6376
   4   2.0000      -7.446794      -202.6376
   5   2.0000      -0.925968       -25.1969
   6   2.0000      -0.521070       -14.1790
   7   2.0000      -0.375232       -10.2106
   8   2.0000      -0.375232       -10.2106
   9   0.0000       0.063527         1.7287
  10   0.0000       0.500368        13.6157
  11   0.0000       0.629035        17.1169
  12   0.0000       0.803584        21.8666
  13   0.0000       0.803584        21.8666

MULLIKEN ATOMIC CHARGES
-----------------------
   0 Cl:   -0.288133
   1 H :    0.288133
Sum of atomic charges:   -0.0000000

LOEWDIN ATOMIC CHARGES
----------------------
   0 Cl:   -0.182364
   1 H :    0.182364

  Mayer bond orders larger than 0.100000
B(  0-Cl,  1-H ) :   0.8906

Dispersion correction           -0.000168146
FINAL SINGLE POINT ENERGY      -460.296519182471

DIPOLE MOMENT
-------------
                                X             Y             Z
Electronic contribution:      0.00000       0.00000       0.62663
Nuclear contribution   :      0.00000       0.00000      -1.22411
                        -----------------------------------------
Total Dipole Moment    :      0.00000       0.00000      -0.59748
                        -----------------------------------------
Magnitude (a.u.)       :      0.59748
Magnitude (Debye)      :      1.51868

Rotational constants in cm-1:     0.000000    10.344748    10.344748
Rotational constants in MHz :     0.000000 310127.743374 310127.743374

                             ****ORCA TERMINATED NORMALLY****
TOTAL RUN TIME: 0 days 0 hours 0 minutes 50 seconds 253 msec
