                         Program Version 5.0.3 -  RELEASE  -
|  1> ! PBEh-3c def2/J TightSCF DefGrid3
|  2>
|  3> %maxcore 60000
|  4>
|  5> %pal
|  6> nprocs 4
|  7> end
|  8>
|  9> *xyzfile 0 1 FI_PCH.xyz
| 10>
| 11>                          ****END OF INPUT****

CARTESIAN COORDINATES (ANGSTROEM)
---------------------------------
  F      0.000000    0.000000    2.693559
  I      0.000000    0.000000    0.765094
  P      0.000000    0.000000   -2.412384
  C      0.000000    0.000000   -3.933518
  H      0.000000    0.000000   -5.005149

 Total Charge           Charge          ....    0
 Multiplicity           Mult            ....    1
 Number of Electrons    NEL             ....   56
 Basis Dimension        Dim             ....   76

ORBITAL ENERGIES
----------------

  NO   OCC          E(Eh)            E(eV)
   0   2.0000     -77.776650     -2116.4103
   1   2.0000     -25.080237      -682.4680
   2   2.0000     -10.512666      -286.0642
   3   2.0000      -7.144974      -194.4246
   4   2.0000      -6.854347      -186.5163
   5   2.0000      -5.135461      -139.7430
   6   2.0000      -5.107854      -138.9918
   7   2.0000      -5.107854      -138.9918
   8   2.0000      -4.943957      -134.5319
   9   2.0000      -4.943957      -134.5319
  10   2.0000      -4.943768      -134.5268
  11   2.0000      -2.088459       -56.8299
  12   2.0000      -2.079366       -56.5824
  13   2.0000      -2.079366       -56.5824
  14   2.0000      -2.056074       -55.9486
  15   2.0000      -2.056071       -55.9485
  16   2.0000      -1.271267       -34.5929
  17   2.0000      -0.832080       -22.6420
  18   2.0000      -0.782843       -21.3022
  19   2.0000      -0.633704       -17.2440
  20   2.0000      -0.519429       -14.1344
  21   2.0000      -0.486020       -13.2253
  22   2.0000      -0.486020       -13.2253
  23   2.0000      -0.435088       -11.8393
  24   2.0000      -0.357410        -9.7256
  25   2.0000      -0.357410        -9.7256
  26   2.0000      -0.320691        -8.7265
  27   2.0000      -0.320691        -8.7264
  28   0.0000      -0.087262        -2.3745
  29   0.0000      -0.047723        -1.2986
  30   0.0000      -0.047723        -1.2986
  31   0.0000       0.134846         3.6694
  32   0.0000       0.147489         4.0134

MULLIKEN ATOMIC CHARGES
-----------------------
   0 F :   -0.463888
   1 I :    0.435902
   2 P :    0.140838
   3 C :   -0.375933
   4 H :    0.263082
Sum of atomic charges:    0.0000000

LOEWDIN ATOMIC CHARGES
----------------------
   0 F :   -0.419249
   1 I :    0.357574
   2 P :    0.252026
   3 C :   -0.352352
   4 H :    0.162001

  Mayer bond orders larger than 0.100000
B(  0-F ,  1-I ) :   0.8126 B(  1-I ,  2-P ) :   0.1152 B(  2-P ,  3-C ) :   2.9349
B(  3-C ,  4-H ) :   0.8879

Dispersion correction           -0.001665224
FINAL SINGLE POINT ENERGY      -776.847187529585

DIPOLE MOMENT
-------------
                                X             Y             Z
Electronic contribution:      0.00000       0.00000      50.85788
Nuclear contribution   :      0.00000       0.00000     -52.32581
                        -----------------------------------------
Total Dipole Moment    :      0.00000       0.00000      -1.46792
                        -----------------------------------------
Magnitude (a.u.)       :      1.46792
Magnitude (Debye)      :      3.73117

Rotational constants in cm-1:     0.000000     0.028045     0.028045
Rotational constants in MHz :     0.000000   840.772399   840.772399

                             ****ORCA TERMINATED NORMALLY****
TOTAL RUN TIME: 0 days 0 hours 1 minutes 33 seconds 588 msec
