                         Program Version 5.0.3 -  RELEASE  -
|  1> ! PBEh-3c def2/J TightSCF DefGrid3
|  2>
|  3> %maxcore 60000
|  4>
|  5> %pal
|  6> nprocs 4
|  7> end
|  8>
|  9> *xyzfile -1 1 16.xyz
| 10>
| 11>                          ****END OF INPUT****

CARTESIAN COORDINATES (ANGSTROEM)
---------------------------------
  S     -0.512411   -0.441973   -0.047508
  H      0.794158   -0.153724   -0.138124
  H     -1.093928    1.613540    0.510306
  O     -1.385188    2.563167    0.558947
  H     -1.494099    2.757559   -0.376179

 Total Charge           Charge          ....   -1
 Multiplicity           Mult            ....    1
 Number of Electrons    NEL             ....   28
 Basis Dimension        Dim             ....   39

ORBITAL ENERGIES
----------------

  NO   OCC          E(Eh)            E(eV)
   0   2.0000     -89.262822     -2428.9649
   1   2.0000     -19.265791      -524.2488
   2   2.0000      -7.900752      -214.9904
   3   2.0000      -5.792794      -157.6299
   4   2.0000      -5.786887      -157.4692
   5   2.0000      -5.785622      -157.4348
   6   2.0000      -0.889738       -24.2110
   7   2.0000      -0.481897       -13.1131
   8   2.0000      -0.359859        -9.7922
   9   2.0000      -0.243343        -6.6217
  10   2.0000      -0.160746        -4.3741
  11   2.0000      -0.152928        -4.1614
  12   2.0000      -0.016962        -0.4616
  13   2.0000      -0.010073        -0.2741
  14   0.0000       0.331352         9.0165
  15   0.0000       0.344628         9.3778
  16   0.0000       0.458429        12.4745
  17   0.0000       0.716407        19.4944
  18   0.0000       0.853566        23.2267

MULLIKEN ATOMIC CHARGES
-----------------------
   0 S :   -0.921143
   1 H :    0.042829
   2 H :    0.414504
   3 O :   -0.896687
   4 H :    0.360497
Sum of atomic charges:   -1.0000000

LOEWDIN ATOMIC CHARGES
----------------------
   0 S :   -0.869849
   1 H :    0.015535
   2 H :    0.265021
   3 O :   -0.680107
   4 H :    0.269401

  Mayer bond orders larger than 0.100000
B(  0-S ,  1-H ) :   0.9543 B(  0-S ,  2-H ) :   0.2141 B(  2-H ,  3-O ) :   0.6641
B(  3-O ,  4-H ) :   0.8458

Dispersion correction           -0.000965194
FINAL SINGLE POINT ENERGY      -474.631661219889

DIPOLE MOMENT
-------------
                                X             Y             Z
Electronic contribution:     -0.49349      -1.50951      -0.02186
Nuclear contribution   :      0.52598       2.30301      -0.40062
                        -----------------------------------------
Total Dipole Moment    :      0.03250       0.79350      -0.42248
                        -----------------------------------------
Magnitude (a.u.)       :      0.89955
Magnitude (Debye)      :      2.28649

Rotational constants in cm-1:     6.363460     0.144452     0.143423
Rotational constants in MHz : 190771.734870  4330.555888  4299.703929

                             ****ORCA TERMINATED NORMALLY****
TOTAL RUN TIME: 0 days 0 hours 0 minutes 42 seconds 217 msec
