                         Program Version 5.0.3 -  RELEASE  -
|  1> ! PBEh-3c def2/J TightSCF DefGrid3
|  2>
|  3> %maxcore 60000
|  4>
|  5> %pal
|  6> nprocs 4
|  7> end
|  8>
|  9> *xyzfile 0 1 ch2nh.xyz
| 10>
| 11>                          ****END OF INPUT****

CARTESIAN COORDINATES (ANGSTROEM)
---------------------------------
  C      0.631828    0.017967    0.000000
  N     -0.638442   -0.081517    0.000000
  H     -1.060004    0.847291    0.000000
  H      1.176576    0.963788    0.000000
  H      1.226390   -0.892349    0.000000

 Total Charge           Charge          ....    0
 Multiplicity           Mult            ....    1
 Number of Electrons    NEL             ....   16
 Basis Dimension        Dim             ....   36

ORBITAL ENERGIES
----------------

  NO   OCC          E(Eh)            E(eV)
   0   2.0000     -14.634761      -398.2321
   1   2.0000     -10.488560      -285.4082
   2   2.0000      -1.001602       -27.2550
   3   2.0000      -0.696877       -18.9630
   4   2.0000      -0.565709       -15.3937
   5   2.0000      -0.488531       -13.2936
   6   2.0000      -0.378084       -10.2882
   7   2.0000      -0.324454        -8.8289
   8   0.0000       0.020971         0.5706
   9   0.0000       0.146464         3.9855
  10   0.0000       0.189802         5.1648
  11   0.0000       0.248420         6.7598
  12   0.0000       0.320338         8.7168

MULLIKEN ATOMIC CHARGES
-----------------------
   0 C :   -0.265724
   1 N :   -0.435386
   2 H :    0.308139
   3 H :    0.184184
   4 H :    0.208785
Sum of atomic charges:    0.0000000

LOEWDIN ATOMIC CHARGES
----------------------
   0 C :   -0.146191
   1 N :   -0.287540
   2 H :    0.221547
   3 H :    0.094278
   4 H :    0.117905

  Mayer bond orders larger than 0.100000
B(  0-C ,  1-N ) :   2.0998 B(  0-C ,  3-H ) :   0.8955 B(  0-C ,  4-H ) :   0.8971
B(  1-N ,  2-H ) :   0.8519

Dispersion correction           -0.000967287
FINAL SINGLE POINT ENERGY       -94.412124707796

DIPOLE MOMENT
-------------
                                X             Y             Z
Electronic contribution:     -0.73821      -0.23833       0.00000
Nuclear contribution   :      1.25643       0.86148       0.00000
                        -----------------------------------------
Total Dipole Moment    :      0.51821       0.62314       0.00000
                        -----------------------------------------
Magnitude (a.u.)       :      0.81047
Magnitude (Debye)      :      2.06004

Rotational constants in cm-1:     6.586110     1.158736     0.985373
Rotational constants in MHz : 197446.598545 34738.018012 29540.731847

                             ****ORCA TERMINATED NORMALLY****
TOTAL RUN TIME: 0 days 0 hours 0 minutes 40 seconds 804 msec
