                         Program Version 5.0.3 -  RELEASE  -
|  1> ! PBEh-3c def2/J TightSCF DefGrid3
|  2>
|  3> %maxcore 60000
|  4>
|  5> %pal
|  6> nprocs 4
|  7> end
|  8>
|  9> *xyzfile 0 2 P13.xyz
| 10>
| 11>                          ****END OF INPUT****

CARTESIAN COORDINATES (ANGSTROEM)
---------------------------------
  H      0.934511    0.000000   -1.110367
  C      0.000000    0.000000   -0.567027
  C      0.000000    0.000000    0.810281
  H     -0.934511    0.000000   -1.110367
  N      0.000000    0.000000    1.977480

 Total Charge           Charge          ....    0
 Multiplicity           Mult            ....    2
 Number of Electrons    NEL             ....   21
 Basis Dimension        Dim             ....   49

ORBITAL ENERGIES
----------------
                 SPIN UP ORBITALS
  NO   OCC          E(Eh)            E(eV)
   0   1.0000     -14.666997      -399.1093
   1   1.0000     -10.514359      -286.1103
   2   1.0000     -10.500632      -285.7367
   3   1.0000      -1.030572       -28.0433
   4   1.0000      -0.873582       -23.7714
   5   1.0000      -0.604578       -16.4514
   6   1.0000      -0.553854       -15.0711
   7   1.0000      -0.459417       -12.5014
   8   1.0000      -0.450224       -12.2512
   9   1.0000      -0.397011       -10.8032
  10   1.0000      -0.319761        -8.7011
  11   0.0000       0.047446         1.2911
  12   0.0000       0.108949         2.9647
  13   0.0000       0.138863         3.7786
  14   0.0000       0.252031         6.8581
  15   0.0000       0.253940         6.9101

                 SPIN DOWN ORBITALS
  NO   OCC          E(Eh)            E(eV)
   0   1.0000     -14.656822      -398.8324
   1   1.0000     -10.505732      -285.8755
   2   1.0000     -10.500459      -285.7320
   3   1.0000      -1.012303       -27.5462
   4   1.0000      -0.835052       -22.7229
   5   1.0000      -0.594212       -16.1693
   6   1.0000      -0.545417       -14.8415
   7   1.0000      -0.434232       -11.8161
   8   1.0000      -0.410627       -11.1737
   9   1.0000      -0.389784       -10.6066
  10   0.0000      -0.096807        -2.6343
  11   0.0000       0.050286         1.3684
  12   0.0000       0.150767         4.1026
  13   0.0000       0.153797         4.1850
  14   0.0000       0.257744         7.0136

MULLIKEN ATOMIC CHARGES AND SPIN POPULATIONS
--------------------------------------------
   0 H :    0.278043   -0.052518
   1 C :   -0.480458    0.951805
   2 C :    0.106952   -0.316214
   3 H :    0.278043   -0.052518
   4 N :   -0.182582    0.469445
Sum of atomic charges         :    0.0000000

LOEWDIN ATOMIC CHARGES AND SPIN POPULATIONS
-------------------------------------------
   0 H :    0.167791   -0.027051
   1 C :   -0.233416    0.816464
   2 C :   -0.041231   -0.178753
   3 H :    0.167791   -0.027051
   4 N :   -0.060935    0.416390

  Mayer bond orders larger than 0.100000
B(  0-H ,  1-C ) :   0.8958 B(  1-C ,  2-C ) :   1.1822 B(  1-C ,  3-H ) :   0.8958
B(  2-C ,  4-N ) :   2.9284

Dispersion correction           -0.001248562
FINAL SINGLE POINT ENERGY      -131.792925146484

DIPOLE MOMENT
-------------
                                X             Y             Z
Electronic contribution:      0.00000       0.00000       2.05087
Nuclear contribution   :      0.00000       0.00000      -3.40631
                        -----------------------------------------
Total Dipole Moment    :      0.00000       0.00000      -1.35545
                        -----------------------------------------
Magnitude (a.u.)       :      1.35545
Magnitude (Debye)      :      3.44527

Rotational constants in cm-1:     9.574962     0.344800     0.332815
Rotational constants in MHz : 287050.148525 10336.853582  9977.555626

                             ****ORCA TERMINATED NORMALLY****
TOTAL RUN TIME: 0 days 0 hours 2 minutes 33 seconds 921 msec
