                         Program Version 5.0.3 -  RELEASE  -
|  1> ! PBEh-3c def2/J TightSCF DefGrid3
|  2>
|  3> %maxcore 60000
|  4>
|  5> %pal
|  6> nprocs 4
|  7> end
|  8>
|  9> *xyzfile 0 1 hocn.xyz
| 10>
| 11>                          ****END OF INPUT****

CARTESIAN COORDINATES (ANGSTROEM)
---------------------------------
  C      0.144988   -0.007702    0.000000
  N      1.306451   -0.005409    0.000000
  O     -1.156553    0.062692    0.000000
  H     -1.524321   -0.828219    0.000000

 Total Charge           Charge          ....    0
 Multiplicity           Mult            ....    1
 Number of Electrons    NEL             ....   22
 Basis Dimension        Dim             ....   47

ORBITAL ENERGIES
----------------

  NO   OCC          E(Eh)            E(eV)
   0   2.0000     -19.611199      -533.6479
   1   2.0000     -14.648935      -398.6178
   2   2.0000     -10.553441      -287.1737
   3   2.0000      -1.259537       -34.2737
   4   2.0000      -1.011021       -27.5113
   5   2.0000      -0.745156       -20.2767
   6   2.0000      -0.581559       -15.8250
   7   2.0000      -0.536000       -14.5853
   8   2.0000      -0.437454       -11.9037
   9   2.0000      -0.388157       -10.5623
  10   2.0000      -0.365394        -9.9429
  11   0.0000       0.057629         1.5682
  12   0.0000       0.085553         2.3280
  13   0.0000       0.107836         2.9344
  14   0.0000       0.190849         5.1933
  15   0.0000       0.420906        11.4534

MULLIKEN ATOMIC CHARGES
-----------------------
   0 C :    0.311656
   1 N :   -0.263396
   2 O :   -0.530658
   3 H :    0.482398
Sum of atomic charges:    0.0000000

LOEWDIN ATOMIC CHARGES
----------------------
   0 C :    0.036000
   1 N :   -0.153277
   2 O :   -0.247346
   3 H :    0.364622

  Mayer bond orders larger than 0.100000
B(  0-C ,  1-N ) :   2.9873 B(  0-C ,  2-O ) :   1.1832 B(  1-N ,  2-O ) :   0.1214
B(  2-O ,  3-H ) :   0.7325

Dispersion correction           -0.000798004
FINAL SINGLE POINT ENERGY      -168.270062366171

DIPOLE MOMENT
-------------
                                X             Y             Z
Electronic contribution:      0.05291       0.07575       0.00000
Nuclear contribution   :     -1.44001      -0.77612       0.00000
                        -----------------------------------------
Total Dipole Moment    :     -1.38710      -0.70036       0.00000
                        -----------------------------------------
Magnitude (a.u.)       :      1.55388
Magnitude (Debye)      :      3.94965

Rotational constants in cm-1:    22.315114     0.351916     0.346452
Rotational constants in MHz : 668990.274480 10550.167862 10386.371809

                             ****ORCA TERMINATED NORMALLY****
TOTAL RUN TIME: 0 days 0 hours 0 minutes 54 seconds 591 msec
