                         Program Version 5.0.3 -  RELEASE  -
|  1> ! PBEh-3c def2/J TightSCF DefGrid3
|  2>
|  3> %maxcore 60000
|  4>
|  5> %pal
|  6> nprocs 4
|  7> end
|  8>
|  9> *xyzfile 0 2 RKT20.xyz
| 10>
| 11>                          ****END OF INPUT****

CARTESIAN COORDINATES (ANGSTROEM)
---------------------------------
  C     -1.373224   -0.518437   -0.000046
  C     -0.392564    0.631461    0.000002
  N      1.977637   -0.410448   -0.000084
  H     -1.241713   -1.146786   -0.880530
  H     -1.241681   -1.146892    0.880360
  H     -2.404548   -0.156454   -0.000002
  H     -0.409746    1.245836   -0.897247
  H     -0.409727    1.245751    0.897310
  H      0.777527    0.077680   -0.000061
  H      2.359121    0.089436   -0.804831
  H      2.358920    0.088852    0.805127

 Total Charge           Charge          ....    0
 Multiplicity           Mult            ....    2
 Number of Electrons    NEL             ....   27
 Basis Dimension        Dim             ....   61

ORBITAL ENERGIES
----------------
                 SPIN UP ORBITALS
  NO   OCC          E(Eh)            E(eV)
   0   1.0000     -14.626759      -398.0144
   1   1.0000     -10.441261      -284.1211
   2   1.0000     -10.425422      -283.6902
   3   1.0000      -0.942868       -25.6567
   4   1.0000      -0.845310       -23.0021
   5   1.0000      -0.693309       -18.8659
   6   1.0000      -0.521147       -14.1811
   7   1.0000      -0.518291       -14.1034
   8   1.0000      -0.500563       -13.6210
   9   1.0000      -0.444877       -12.1057
  10   1.0000      -0.428403       -11.6574
  11   1.0000      -0.401905       -10.9364
  12   1.0000      -0.348204        -9.4751
  13   1.0000      -0.264263        -7.1910
  14   0.0000       0.137079         3.7301
  15   0.0000       0.172845         4.7034
  16   0.0000       0.198763         5.4086
  17   0.0000       0.205653         5.5961
  18   0.0000       0.219911         5.9841

                 SPIN DOWN ORBITALS
  NO   OCC          E(Eh)            E(eV)
   0   1.0000     -14.611680      -397.6040
   1   1.0000     -10.430948      -283.8405
   2   1.0000     -10.425798      -283.7004
   3   1.0000      -0.900769       -24.5112
   4   1.0000      -0.830553       -22.6005
   5   1.0000      -0.676802       -18.4167
   6   1.0000      -0.508626       -13.8404
   7   1.0000      -0.494695       -13.4613
   8   1.0000      -0.486888       -13.2489
   9   1.0000      -0.426499       -11.6056
  10   1.0000      -0.413604       -11.2547
  11   1.0000      -0.398801       -10.8519
  12   1.0000      -0.313580        -8.5329
  13   0.0000      -0.045449        -1.2367
  14   0.0000       0.144402         3.9294
  15   0.0000       0.177107         4.8193
  16   0.0000       0.206553         5.6206
  17   0.0000       0.209868         5.7108

MULLIKEN ATOMIC CHARGES AND SPIN POPULATIONS
--------------------------------------------
   0 C :   -0.623924   -0.031135
   1 C :   -0.625314    0.547063
   2 N :   -0.772559    0.655378
   3 H :    0.225382    0.004681
   4 H :    0.225374    0.004681
   5 H :    0.218950    0.028134
   6 H :    0.222988   -0.020313
   7 H :    0.222983   -0.020314
   8 H :    0.283474   -0.122243
   9 H :    0.311324   -0.022966
  10 H :    0.311322   -0.022966
Sum of atomic charges         :    0.0000000

LOEWDIN ATOMIC CHARGES AND SPIN POPULATIONS
-------------------------------------------
   0 C :   -0.368253   -0.008168
   1 C :   -0.350311    0.468427
   2 N :   -0.559579    0.617026
   3 H :    0.132244    0.004190
   4 H :    0.132240    0.004191
   5 H :    0.129398    0.024448
   6 H :    0.125820   -0.011155
   7 H :    0.125817   -0.011156
   8 H :    0.208128   -0.056526
   9 H :    0.212248   -0.015639
  10 H :    0.212248   -0.015639

  Mayer bond orders larger than 0.100000
B(  0-C ,  1-C ) :   0.9960 B(  0-C ,  3-H ) :   0.9260 B(  0-C ,  4-H ) :   0.9260
B(  0-C ,  5-H ) :   0.9196 B(  1-C ,  2-N ) :   0.1754 B(  1-C ,  6-H ) :   0.9182
B(  1-C ,  7-H ) :   0.9182 B(  1-C ,  8-H ) :   0.4758 B(  2-N ,  8-H ) :   0.4187
B(  2-N ,  9-H ) :   0.8730 B(  2-N , 10-H ) :   0.8730

Dispersion correction           -0.003169552
FINAL SINGLE POINT ENERGY      -135.384973922642

DIPOLE MOMENT
-------------
                                X             Y             Z
Electronic contribution:      1.20742      -0.24634      -0.00011
Nuclear contribution   :     -1.21093       0.94354       0.00037
                        -----------------------------------------
Total Dipole Moment    :     -0.00351       0.69720       0.00027
                        -----------------------------------------
Magnitude (a.u.)       :      0.69721
Magnitude (Debye)      :      1.77218

Rotational constants in cm-1:     0.832196     0.161938     0.146116
Rotational constants in MHz : 24948.603641  4854.769774  4380.435775

                             ****ORCA TERMINATED NORMALLY****
TOTAL RUN TIME: 0 days 0 hours 2 minutes 46 seconds 131 msec
