                         Program Version 5.0.3 -  RELEASE  -
|  1> ! PBEh-3c def2/J TightSCF DefGrid3
|  2>
|  3> %maxcore 60000
|  4>
|  5> %pal
|  6> nprocs 4
|  7> end
|  8>
|  9> *xyzfile 0 1 NH3_FBr.xyz
| 10>
| 11>                          ****END OF INPUT****

CARTESIAN COORDINATES (ANGSTROEM)
---------------------------------
  N      0.000000    0.000000   -2.203939
  H      0.000000    0.948700   -2.552491
  H      0.821598   -0.474350   -2.552491
  H     -0.821598   -0.474350   -2.552491
  Br     0.000000    0.000000    0.152975
  F      0.000000    0.000000    1.970104

 Total Charge           Charge          ....    0
 Multiplicity           Mult            ....    1
 Number of Electrons    NEL             ....   54
 Basis Dimension        Dim             ....   68

ORBITAL ENERGIES
----------------

  NO   OCC          E(Eh)            E(eV)
   0   2.0000    -484.543703    -13185.1045
   1   2.0000     -63.202400     -1719.8247
   2   2.0000     -56.908473     -1548.5583
   3   2.0000     -56.903364     -1548.4193
   4   2.0000     -56.903364     -1548.4193
   5   2.0000     -25.026033      -680.9930
   6   2.0000     -14.685215      -399.6050
   7   2.0000      -9.029815      -245.7138
   8   2.0000      -6.810518      -185.3236
   9   2.0000      -6.787509      -184.6975
  10   2.0000      -6.787509      -184.6975
  11   2.0000      -2.823450       -76.8300
  12   2.0000      -2.816386       -76.6378
  13   2.0000      -2.816386       -76.6378
  14   2.0000      -2.796607       -76.0996
  15   2.0000      -2.796604       -76.0995
  16   2.0000      -1.224072       -33.3087
  17   2.0000      -1.016265       -27.6540
  18   2.0000      -0.815631       -22.1945
  19   2.0000      -0.591917       -16.1069
  20   2.0000      -0.591916       -16.1069
  21   2.0000      -0.507260       -13.8032
  22   2.0000      -0.441566       -12.0156
  23   2.0000      -0.441566       -12.0156
  24   2.0000      -0.369038       -10.0420
  25   2.0000      -0.307542        -8.3686
  26   2.0000      -0.307541        -8.3686
  27   0.0000       0.003530         0.0961
  28   0.0000       0.102624         2.7926
  29   0.0000       0.170911         4.6507
  30   0.0000       0.170911         4.6507
  31   0.0000       0.365786         9.9535

MULLIKEN ATOMIC CHARGES
-----------------------
   0 N :   -0.945834
   1 H :    0.373551
   2 H :    0.373554
   3 H :    0.373554
   4 Br:    0.303447
   5 F :   -0.478272
Sum of atomic charges:    0.0000000

LOEWDIN ATOMIC CHARGES
----------------------
   0 N :   -0.536474
   1 H :    0.249259
   2 H :    0.249260
   3 H :    0.249260
   4 Br:    0.217877
   5 F :   -0.429181

  Mayer bond orders larger than 0.100000
B(  0-N ,  1-H ) :   0.8406 B(  0-N ,  2-H ) :   0.8406 B(  0-N ,  3-H ) :   0.8406
B(  0-N ,  4-Br) :   0.2612 B(  4-Br,  5-F ) :   0.7575

Dispersion correction           -0.001451238
FINAL SINGLE POINT ENERGY     -2729.051695516899

DIPOLE MOMENT
-------------
                                X             Y             Z
Electronic contribution:     -0.00000       0.00000       7.14399
Nuclear contribution   :      0.00000      -0.00000      -9.73667
                        -----------------------------------------
Total Dipole Moment    :     -0.00000      -0.00000      -2.59268
                        -----------------------------------------
Magnitude (a.u.)       :      2.59268
Magnitude (Debye)      :      6.59008

Rotational constants in cm-1:     6.193805     0.103010     0.103010
Rotational constants in MHz : 185685.614067  3088.151322  3088.151301

                             ****ORCA TERMINATED NORMALLY****
TOTAL RUN TIME: 0 days 0 hours 1 minutes 23 seconds 998 msec
