                         Program Version 5.0.3 -  RELEASE  -
|  1> ! PBEh-3c def2/J TightSCF DefGrid3
|  2>
|  3> %maxcore 60000
|  4>
|  5> %pal
|  6> nprocs 4
|  7> end
|  8>
|  9> *xyzfile 0 1 HCO2C5H11.xyz
| 10>
| 11>                          ****END OF INPUT****

CARTESIAN COORDINATES (ANGSTROEM)
---------------------------------
  C     -2.590809   -0.939513   -1.828868
  H     -2.384494   -2.019172   -1.883569
  H     -2.201890   -0.480987   -2.750546
  H     -3.682136   -0.809118   -1.827075
  C     -1.951406   -0.315125   -0.586465
  H     -2.203077    0.757678   -0.539926
  H     -2.384606   -0.768413    0.320763
  C     -0.427319   -0.475896   -0.549105
  H      0.006768   -0.023316   -1.458035
  H     -0.175469   -1.550032   -0.594211
  C      0.216589    0.148290    0.694644
  H     -0.201851   -0.307457    1.606068
  H     -0.021060    1.223824    0.742975
  C      1.728195   -0.028589    0.709147
  H      2.197062    0.477967   -0.152720
  H      2.004882   -1.092226    0.669977
  O      2.296644    0.487082    1.938993
  C      3.054890    1.607568    1.857495
  H      3.164711    1.977966    0.810646
  O      3.554376    2.129469    2.819811

 Total Charge           Charge          ....    0
 Multiplicity           Mult            ....    1
 Number of Electrons    NEL             ....   64
 Basis Dimension        Dim             ....  144

ORBITAL ENERGIES
----------------

  NO   OCC          E(Eh)            E(eV)
   0   2.0000     -19.547478      -531.9139
   1   2.0000     -19.489539      -530.3373
   2   2.0000     -10.581185      -287.9287
   3   2.0000     -10.516061      -286.1566
   4   2.0000     -10.454208      -284.4735
   5   2.0000     -10.452428      -284.4250
   6   2.0000     -10.447026      -284.2780
   7   2.0000     -10.435330      -283.9598
   8   2.0000      -1.212157       -32.9845
   9   2.0000      -1.132944       -30.8290
  10   2.0000      -0.911488       -24.8029
  11   2.0000      -0.856515       -23.3070
  12   2.0000      -0.780889       -21.2491
  13   2.0000      -0.707217       -19.2444
  14   2.0000      -0.686908       -18.6917
  15   2.0000      -0.662742       -18.0341
  16   2.0000      -0.598348       -16.2819
  17   2.0000      -0.564820       -15.3695
  18   2.0000      -0.532428       -14.4881
  19   2.0000      -0.529202       -14.4003
  20   2.0000      -0.497926       -13.5493
  21   2.0000      -0.490644       -13.3511
  22   2.0000      -0.471002       -12.8166
  23   2.0000      -0.458443       -12.4749
  24   2.0000      -0.435869       -11.8606
  25   2.0000      -0.424610       -11.5542
  26   2.0000      -0.402708       -10.9582
  27   2.0000      -0.400960       -10.9107
  28   2.0000      -0.392969       -10.6932
  29   2.0000      -0.384189       -10.4543
  30   2.0000      -0.351472        -9.5640
  31   2.0000      -0.339390        -9.2353
  32   0.0000       0.038999         1.0612
  33   0.0000       0.116232         3.1628
  34   0.0000       0.130066         3.5393
  35   0.0000       0.140428         3.8212
  36   0.0000       0.158002         4.2994

MULLIKEN ATOMIC CHARGES
-----------------------
   0 C :   -0.636530
   1 H :    0.210369
   2 H :    0.209538
   3 H :    0.223466
   4 C :   -0.406698
   5 H :    0.208929
   6 H :    0.210744
   7 C :   -0.411977
   8 H :    0.203804
   9 H :    0.207064
  10 C :   -0.435845
  11 H :    0.234764
  12 H :    0.217345
  13 C :   -0.150149
  14 H :    0.194201
  15 H :    0.228221
  16 O :   -0.423797
  17 C :    0.322634
  18 H :    0.141035
  19 O :   -0.347118
Sum of atomic charges:   -0.0000000

LOEWDIN ATOMIC CHARGES
----------------------
   0 C :   -0.361251
   1 H :    0.124573
   2 H :    0.124179
   3 H :    0.129461
   4 C :   -0.243271
   5 H :    0.121933
   6 H :    0.122765
   7 C :   -0.241087
   8 H :    0.119931
   9 H :    0.121865
  10 C :   -0.253350
  11 H :    0.136223
  12 H :    0.128338
  13 C :   -0.073205
  14 H :    0.111211
  15 H :    0.127210
  16 O :   -0.181474
  17 C :    0.107783
  18 H :    0.074183
  19 O :   -0.196014

  Mayer bond orders larger than 0.100000
B(  0-C ,  1-H ) :   0.9284 B(  0-C ,  2-H ) :   0.9286 B(  0-C ,  3-H ) :   0.9301
B(  0-C ,  4-C ) :   0.9943 B(  4-C ,  5-H ) :   0.9191 B(  4-C ,  6-H ) :   0.9185
B(  4-C ,  7-C ) :   0.9857 B(  7-C ,  8-H ) :   0.9165 B(  7-C ,  9-H ) :   0.9152
B(  7-C , 10-C ) :   0.9690 B( 10-C , 11-H ) :   0.9093 B( 10-C , 12-H ) :   0.9148
B( 10-C , 13-C ) :   0.9778 B( 13-C , 14-H ) :   0.9038 B( 13-C , 15-H ) :   0.9083
B( 13-C , 16-O ) :   0.9001 B( 16-O , 17-C ) :   1.0913 B( 17-C , 18-H ) :   0.8664
B( 17-C , 19-O ) :   2.0986

Dispersion correction           -0.008754923
FINAL SINGLE POINT ENERGY      -385.479669810272

DIPOLE MOMENT
-------------
                                X             Y             Z
Electronic contribution:     13.15986       5.64398      10.40700
Nuclear contribution   :    -13.98662      -6.22114     -11.92240
                        -----------------------------------------
Total Dipole Moment    :     -0.82676      -0.57716      -1.51540
                        -----------------------------------------
Magnitude (a.u.)       :      1.82018
Magnitude (Debye)      :      4.62654

Rotational constants in cm-1:     0.326243     0.018617     0.018355
Rotational constants in MHz :  9780.524702   558.118670   550.272911

                             ****ORCA TERMINATED NORMALLY****
TOTAL RUN TIME: 0 days 0 hours 1 minutes 47 seconds 256 msec
