                         Program Version 5.0.3 -  RELEASE  -
|  1> ! PBEh-3c def2/J TightSCF DefGrid3
|  2>
|  3> %maxcore 60000
|  4>
|  5> %pal
|  6> nprocs 4
|  7> end
|  8>
|  9> *xyzfile 0 1 58.xyz
| 10>
| 11>                          ****END OF INPUT****

CARTESIAN COORDINATES (ANGSTROEM)
---------------------------------
  N     -1.737298    0.870304    0.000000
  C     -1.718841   -0.472323    0.000000
  H     -0.738847   -0.935752    0.000000
  C     -2.872603   -1.252898    0.000000
  H     -2.792613   -2.330643    0.000000
  C     -4.112395   -0.622922    0.000000
  H     -5.027655   -1.198605    0.000000
  C     -4.144978    0.767655    0.000000
  H     -5.081525    1.306976    0.000000
  C     -2.939188    1.463180    0.000000
  H     -2.934185    2.546362    0.000000
  N      1.737125   -0.870038    0.000000
  C      2.938905   -1.463148    0.000000
  H      2.933681   -2.546330    0.000000
  C      4.144844   -0.767860    0.000000
  H      5.081283   -1.307357    0.000000
  C      4.112526    0.622721    0.000000
  H      5.027903    1.198231    0.000000
  C      2.872844    1.252941    0.000000
  H      2.793072    2.330706    0.000000
  C      1.718929    0.472595    0.000000
  H      0.739017    0.936206    0.000000

 Total Charge           Charge          ....    0
 Multiplicity           Mult            ....    1
 Number of Electrons    NEL             ....   84
 Basis Dimension        Dim             ....  200

ORBITAL ENERGIES
----------------

  NO   OCC          E(Eh)            E(eV)
   0   2.0000     -14.638215      -398.3261
   1   2.0000     -14.638205      -398.3258
   2   2.0000     -10.479977      -285.1747
   3   2.0000     -10.479964      -285.1743
   4   2.0000     -10.473968      -285.0112
   5   2.0000     -10.473956      -285.0108
   6   2.0000     -10.466463      -284.8069
   7   2.0000     -10.466455      -284.8067
   8   2.0000     -10.454992      -284.4948
   9   2.0000     -10.454985      -284.4946
  10   2.0000     -10.452879      -284.4373
  11   2.0000     -10.452865      -284.4369
  12   2.0000      -1.042326       -28.3631
  13   2.0000      -1.041200       -28.3325
  14   2.0000      -0.897520       -24.4228
  15   2.0000      -0.897199       -24.4140
  16   2.0000      -0.850124       -23.1330
  17   2.0000      -0.848627       -23.0923
  18   2.0000      -0.706873       -19.2350
  19   2.0000      -0.705316       -19.1926
  20   2.0000      -0.703824       -19.1520
  21   2.0000      -0.702394       -19.1131
  22   2.0000      -0.600014       -16.3272
  23   2.0000      -0.592101       -16.1119
  24   2.0000      -0.542601       -14.7649
  25   2.0000      -0.542454       -14.7609
  26   2.0000      -0.531747       -14.4696
  27   2.0000      -0.530730       -14.4419
  28   2.0000      -0.488468       -13.2919
  29   2.0000      -0.485112       -13.2006
  30   2.0000      -0.467688       -12.7264
  31   2.0000      -0.458569       -12.4783
  32   2.0000      -0.452255       -12.3065
  33   2.0000      -0.450882       -12.2691
  34   2.0000      -0.416123       -11.3233
  35   2.0000      -0.415116       -11.2959
  36   2.0000      -0.330169        -8.9844
  37   2.0000      -0.329021        -8.9531
  38   2.0000      -0.320622        -8.7246
  39   2.0000      -0.303034        -8.2460
  40   2.0000      -0.301104        -8.1934
  41   2.0000      -0.300062        -8.1651
  42   0.0000      -0.001560        -0.0424
  43   0.0000       0.000276         0.0075
  44   0.0000       0.012016         0.3270
  45   0.0000       0.016569         0.4509
  46   0.0000       0.144434         3.9302

MULLIKEN ATOMIC CHARGES
-----------------------
   0 N :   -0.398319
   1 C :   -0.062732
   2 H :    0.292305
   3 C :   -0.293177
   4 H :    0.232302
   5 C :   -0.130800
   6 H :    0.233092
   7 C :   -0.308432
   8 H :    0.230049
   9 C :   -0.024276
  10 H :    0.229977
  11 N :   -0.398327
  12 C :   -0.024262
  13 H :    0.229980
  14 C :   -0.308436
  15 H :    0.230053
  16 C :   -0.130800
  17 H :    0.233097
  18 C :   -0.293176
  19 H :    0.232306
  20 C :   -0.062708
  21 H :    0.292285
Sum of atomic charges:   -0.0000000

LOEWDIN ATOMIC CHARGES
----------------------
   0 N :   -0.151273
   1 C :   -0.057313
   2 H :    0.146979
   3 C :   -0.162245
   4 H :    0.142572
   5 C :   -0.103217
   6 H :    0.140090
   7 C :   -0.167716
   8 H :    0.141064
   9 C :   -0.057592
  10 H :    0.128640
  11 N :   -0.151272
  12 C :   -0.057587
  13 H :    0.128641
  14 C :   -0.167715
  15 H :    0.141066
  16 C :   -0.103215
  17 H :    0.140092
  18 C :   -0.162244
  19 H :    0.142574
  20 C :   -0.057308
  21 H :    0.146978

  Mayer bond orders larger than 0.100000
B(  0-N ,  1-C ) :   1.4543 B(  0-N ,  9-C ) :   1.4961 B(  1-C ,  2-H ) :   0.8636
B(  1-C ,  3-C ) :   1.3820 B(  3-C ,  4-H ) :   0.9146 B(  3-C ,  5-C ) :   1.4150
B(  5-C ,  6-H ) :   0.9186 B(  5-C ,  7-C ) :   1.4099 B(  7-C ,  8-H ) :   0.9139
B(  7-C ,  9-C ) :   1.3847 B(  9-C , 10-H ) :   0.9174 B( 11-N , 12-C ) :   1.4961
B( 11-N , 20-C ) :   1.4543 B( 12-C , 13-H ) :   0.9174 B( 12-C , 14-C ) :   1.3847
B( 14-C , 15-H ) :   0.9139 B( 14-C , 16-C ) :   1.4099 B( 16-C , 17-H ) :   0.9186
B( 16-C , 18-C ) :   1.4150 B( 18-C , 19-H ) :   0.9146 B( 18-C , 20-C ) :   1.3820
B( 20-C , 21-H ) :   0.8636

Dispersion correction           -0.012314500
FINAL SINGLE POINT ENERGY      -495.465584552751

DIPOLE MOMENT
-------------
                                X             Y             Z
Electronic contribution:      0.00001       0.00020      -0.00000
Nuclear contribution   :      0.00023      -0.00036       0.00000
                        -----------------------------------------
Total Dipole Moment    :      0.00023      -0.00015      -0.00000
                        -----------------------------------------
Magnitude (a.u.)       :      0.00028
Magnitude (Debye)      :      0.00071

Rotational constants in cm-1:     0.099773     0.011092     0.009982
Rotational constants in MHz :  2991.104693   332.532828   299.262629

                             ****ORCA TERMINATED NORMALLY****
TOTAL RUN TIME: 0 days 0 hours 2 minutes 18 seconds 618 msec
