                         Program Version 5.0.3 -  RELEASE  -
|  1> ! PBEh-3c def2/J TightSCF DefGrid3
|  2>
|  3> %maxcore 60000
|  4>
|  5> %pal
|  6> nprocs 4
|  7> end
|  8>
|  9> *xyzfile 0 1 MET_xag.xyz
| 10>
| 11>                          ****END OF INPUT****

CARTESIAN COORDINATES (ANGSTROEM)
---------------------------------
  N     -0.241193    0.841005    0.120332
  H     -1.070539    0.368943   -0.219625
  C      0.573819    0.145467    1.105908
  H      0.913170    0.900868    1.819075
  C     -0.239039   -0.911532    1.841694
  H     -0.988349   -0.418046    2.463840
  H      0.447034   -1.432933    2.507157
  C     -0.908919   -1.955487    0.946311
  H     -0.265447   -2.198212    0.103113
  H     -1.086079   -2.870174    1.510914
  S     -2.518369   -1.364699    0.329181
  C     -2.838652   -2.681675   -0.863873
  H     -3.797848   -2.475385   -1.331529
  H     -2.889898   -3.643140   -0.357688
  H     -2.063537   -2.706846   -1.626228
  C      1.835045   -0.467948    0.469801
  O      2.052094   -1.677944    0.475465
  N      2.659662    0.456873   -0.062634
  H      2.361120    1.425684   -0.005741
  C     -0.000497    2.115859   -0.255545
  O      0.989023    2.748073    0.124991
  C     -1.020815    2.723772   -1.183383
  H     -1.380937    3.648112   -0.738175
  H     -1.861870    2.064086   -1.380992
  H     -0.531356    2.979065   -2.120668
  C      3.882070    0.094290   -0.744050
  H      4.731724    0.619643   -0.312613
  H      4.023846   -0.975180   -0.623578
  H      3.826595    0.328628   -1.806368

 Total Charge           Charge          ....    0
 Multiplicity           Mult            ....    1
 Number of Electrons    NEL             ....  110
 Basis Dimension        Dim             ....  230

ORBITAL ENERGIES
----------------

  NO   OCC          E(Eh)            E(eV)
   0   2.0000     -89.587992     -2437.8132
   1   2.0000     -19.465734      -529.6895
   2   2.0000     -19.453100      -529.3458
   3   2.0000     -14.667031      -399.1102
   4   2.0000     -14.646223      -398.5440
   5   2.0000     -10.556719      -287.2629
   6   2.0000     -10.538556      -286.7687
   7   2.0000     -10.492262      -285.5090
   8   2.0000     -10.470854      -284.9264
   9   2.0000     -10.469733      -284.8959
  10   2.0000     -10.456726      -284.5420
  11   2.0000     -10.454183      -284.4728
  12   2.0000     -10.445618      -284.2397
  13   2.0000      -8.226600      -223.8572
  14   2.0000      -6.117605      -166.4685
  15   2.0000      -6.114619      -166.3872
  16   2.0000      -6.109266      -166.2416
  17   2.0000      -1.151404       -31.3313
  18   2.0000      -1.133946       -30.8562
  19   2.0000      -1.034062       -28.1382
  20   2.0000      -1.009551       -27.4713
  21   2.0000      -0.917015       -24.9533
  22   2.0000      -0.875336       -23.8191
  23   2.0000      -0.833114       -22.6702
  24   2.0000      -0.805448       -21.9174
  25   2.0000      -0.770923       -20.9779
  26   2.0000      -0.711651       -19.3650
  27   2.0000      -0.672506       -18.2998
  28   2.0000      -0.661304       -17.9950
  29   2.0000      -0.640113       -17.4184
  30   2.0000      -0.600388       -16.3374
  31   2.0000      -0.561817       -15.2878
  32   2.0000      -0.550514       -14.9802
  33   2.0000      -0.527976       -14.3670
  34   2.0000      -0.514642       -14.0041
  35   2.0000      -0.510051       -13.8792
  36   2.0000      -0.506568       -13.7844
  37   2.0000      -0.500775       -13.6268
  38   2.0000      -0.492972       -13.4144
  39   2.0000      -0.487817       -13.2742
  40   2.0000      -0.470173       -12.7941
  41   2.0000      -0.467733       -12.7277
  42   2.0000      -0.460811       -12.5393
  43   2.0000      -0.440247       -11.9797
  44   2.0000      -0.434608       -11.8263
  45   2.0000      -0.419782       -11.4229
  46   2.0000      -0.415876       -11.3166
  47   2.0000      -0.411109       -11.1868
  48   2.0000      -0.398129       -10.8336
  49   2.0000      -0.368530       -10.0282
  50   2.0000      -0.333570        -9.0769
  51   2.0000      -0.319345        -8.6898
  52   2.0000      -0.292524        -7.9600
  53   2.0000      -0.290452        -7.9036
  54   2.0000      -0.276419        -7.5217
  55   0.0000       0.044912         1.2221
  56   0.0000       0.065586         1.7847
  57   0.0000       0.070646         1.9224
  58   0.0000       0.122365         3.3297
  59   0.0000       0.127711         3.4752

MULLIKEN ATOMIC CHARGES
-----------------------
   0 N :   -0.632415
   1 H :    0.390592
   2 C :   -0.223217
   3 H :    0.277753
   4 C :   -0.452753
   5 H :    0.246568
   6 H :    0.268023
   7 C :   -0.550038
   8 H :    0.284605
   9 H :    0.264347
  10 S :   -0.023158
  11 C :   -0.745202
  12 H :    0.259207
  13 H :    0.251504
  14 H :    0.250979
  15 C :    0.567001
  16 O :   -0.448718
  17 N :   -0.657370
  18 H :    0.410754
  19 C :    0.537776
  20 O :   -0.475301
  21 C :   -0.745165
  22 H :    0.260615
  23 H :    0.227170
  24 H :    0.255285
  25 C :   -0.493912
  26 H :    0.220766
  27 H :    0.257475
  28 H :    0.216827
Sum of atomic charges:   -0.0000000

LOEWDIN ATOMIC CHARGES
----------------------
   0 N :   -0.225775
   1 H :    0.248464
   2 C :   -0.094869
   3 H :    0.152509
   4 C :   -0.245056
   5 H :    0.135501
   6 H :    0.154727
   7 C :   -0.333850
   8 H :    0.146408
   9 H :    0.136662
  10 S :    0.143728
  11 C :   -0.464021
  12 H :    0.142832
  13 H :    0.134702
  14 H :    0.133453
  15 C :    0.102031
  16 O :   -0.293691
  17 N :   -0.245491
  18 H :    0.269167
  19 C :    0.112004
  20 O :   -0.311389
  21 C :   -0.383386
  22 H :    0.158662
  23 H :    0.134198
  24 H :    0.156104
  25 C :   -0.256440
  26 H :    0.123329
  27 H :    0.149320
  28 H :    0.120165

  Mayer bond orders larger than 0.100000
B(  0-N ,  1-H ) :   0.7424 B(  0-N ,  2-C ) :   0.9213 B(  0-N , 19-C ) :   1.2002
B(  2-C ,  3-H ) :   0.8805 B(  2-C ,  4-C ) :   0.9794 B(  2-C , 15-C ) :   0.8766
B(  4-C ,  5-H ) :   0.9063 B(  4-C ,  6-H ) :   0.9029 B(  4-C ,  7-C ) :   0.9466
B(  7-C ,  8-H ) :   0.8635 B(  7-C ,  9-H ) :   0.8958 B(  7-C , 10-S ) :   0.9837
B( 10-S , 11-C ) :   1.0119 B( 11-C , 12-H ) :   0.9078 B( 11-C , 13-H ) :   0.8955
B( 11-C , 14-H ) :   0.8957 B( 15-C , 16-O ) :   1.9329 B( 15-C , 17-N ) :   1.2049
B( 16-O , 17-N ) :   0.1080 B( 17-N , 18-H ) :   0.7204 B( 17-N , 25-C ) :   0.9594
B( 19-C , 20-O ) :   1.8537 B( 19-C , 21-C ) :   0.9350 B( 21-C , 22-H ) :   0.9083
B( 21-C , 23-H ) :   0.9173 B( 21-C , 24-H ) :   0.9087 B( 25-C , 26-H ) :   0.9224
B( 25-C , 27-H ) :   0.9027 B( 25-C , 28-H ) :   0.9215

Dispersion correction           -0.017810032
FINAL SINGLE POINT ENERGY      -970.990718313838

DIPOLE MOMENT
-------------
                                X             Y             Z
Electronic contribution:     -0.04335       2.08513       3.93814
Nuclear contribution   :     -0.81609      -2.27696      -4.53638
                        -----------------------------------------
Total Dipole Moment    :     -0.85944      -0.19183      -0.59824
                        -----------------------------------------
Magnitude (a.u.)       :      1.06458
Magnitude (Debye)      :      2.70594

Rotational constants in cm-1:     0.027948     0.015660     0.011684
Rotational constants in MHz :   837.872565   469.488314   350.279257

                             ****ORCA TERMINATED NORMALLY****
TOTAL RUN TIME: 0 days 0 hours 3 minutes 23 seconds 227 msec
