                         Program Version 5.0.3 -  RELEASE  -
|  1> ! PBEh-3c def2/J TightSCF DefGrid3
|  2>
|  3> %maxcore 60000
|  4>
|  5> %pal
|  6> nprocs 4
|  7> end
|  8>
|  9> *xyzfile 0 2 lio.xyz
| 10>
| 11>                          ****END OF INPUT****

CARTESIAN COORDINATES (ANGSTROEM)
---------------------------------
  Li     0.000000    0.000000    0.794323
  O      0.000000    0.000000   -0.794323

 Total Charge           Charge          ....    0
 Multiplicity           Mult            ....    2
 Number of Electrons    NEL             ....   11
 Basis Dimension        Dim             ....   24

ORBITAL ENERGIES
----------------
                 SPIN UP ORBITALS
  NO   OCC          E(Eh)            E(eV)
   0   1.0000     -19.424476      -528.5669
   1   1.0000      -2.128200       -57.9113
   2   1.0000      -0.938068       -25.5261
   3   1.0000      -0.382587       -10.4107
   4   1.0000      -0.289322        -7.8728
   5   1.0000      -0.289321        -7.8728
   6   0.0000      -0.028916        -0.7868
   7   0.0000       0.070398         1.9156
   8   0.0000       0.089150         2.4259
   9   0.0000       0.089151         2.4259
  10   0.0000       0.191893         5.2217

                 SPIN DOWN ORBITALS
  NO   OCC          E(Eh)            E(eV)
   0   1.0000     -19.397064      -527.8209
   1   1.0000      -2.122564       -57.7579
   2   1.0000      -0.837320       -22.7846
   3   1.0000      -0.255709        -6.9582
   4   1.0000      -0.255707        -6.9582
   5   0.0000      -0.030159        -0.8207
   6   0.0000      -0.006920        -0.1883
   7   0.0000       0.074563         2.0290
   8   0.0000       0.092403         2.5144
   9   0.0000       0.092404         2.5144

MULLIKEN ATOMIC CHARGES AND SPIN POPULATIONS
--------------------------------------------
   0 Li:    0.586397   -0.012367
   1 O :   -0.586397    1.012367
Sum of atomic charges         :   -0.0000000

LOEWDIN ATOMIC CHARGES AND SPIN POPULATIONS
-------------------------------------------
   0 Li:    0.383772    0.005094
   1 O :   -0.383772    0.994906

  Mayer bond orders larger than 0.100000
B(  0-Li,  1-O ) :   0.7891

Dispersion correction           -0.000146741
FINAL SINGLE POINT ENERGY       -82.479367562067

DIPOLE MOMENT
-------------
                                X             Y             Z
Electronic contribution:      0.00000      -0.00000       3.08221
Nuclear contribution   :      0.00000       0.00000      -0.98557
                        -----------------------------------------
Total Dipole Moment    :      0.00000      -0.00000       2.09665
                        -----------------------------------------
Magnitude (a.u.)       :      2.09665
Magnitude (Debye)      :      5.32925

Rotational constants in cm-1:     0.000000     1.379816     1.379816
Rotational constants in MHz :     0.000000 41365.831462 41365.831462

                             ****ORCA TERMINATED NORMALLY****
TOTAL RUN TIME: 0 days 0 hours 0 minutes 23 seconds 492 msec
