                         Program Version 5.0.3 -  RELEASE  -
|  1> ! PBEh-3c def2/J TightSCF DefGrid3
|  2>
|  3> %maxcore 60000
|  4>
|  5> %pal
|  6> nprocs 4
|  7> end
|  8>
|  9> *xyzfile 0 1 ts2.xyz
| 10>
| 11>                          ****END OF INPUT****

CARTESIAN COORDINATES (ANGSTROEM)
---------------------------------
  C     -0.718442   -0.300262   -1.341510
  C      0.599098   -0.195924   -1.246208
  B     -1.058632    0.478089    0.000000
  N      0.907079    0.466643    0.000000
  C      0.599098   -0.195924    1.246208
  C     -0.718442   -0.300262    1.341510
  H     -1.504056    1.587758    0.000000
  H     -1.269386   -0.829694    2.105199
  H      1.401693   -0.530701    1.896323
  H      1.649142    1.150665    0.000000
  H      1.401693   -0.530701   -1.896323
  H     -1.269386   -0.829694   -2.105199

 Total Charge           Charge          ....    0
 Multiplicity           Mult            ....    1
 Number of Electrons    NEL             ....   42
 Basis Dimension        Dim             ....  102

ORBITAL ENERGIES
----------------

  NO   OCC          E(Eh)            E(eV)
   0   2.0000     -14.666265      -399.0894
   1   2.0000     -10.472509      -284.9715
   2   2.0000     -10.472447      -284.9698
   3   2.0000     -10.418368      -283.4982
   4   2.0000     -10.418322      -283.4970
   5   2.0000      -6.957688      -189.3283
   6   2.0000      -1.052433       -28.6382
   7   2.0000      -0.857090       -23.3226
   8   2.0000      -0.818315       -22.2675
   9   2.0000      -0.649578       -17.6759
  10   2.0000      -0.635794       -17.3008
  11   2.0000      -0.614164       -16.7122
  12   2.0000      -0.538418       -14.6511
  13   2.0000      -0.498556       -13.5664
  14   2.0000      -0.485168       -13.2021
  15   2.0000      -0.474448       -12.9104
  16   2.0000      -0.405846       -11.0436
  17   2.0000      -0.357575        -9.7301
  18   2.0000      -0.346098        -9.4178
  19   2.0000      -0.288728        -7.8567
  20   2.0000      -0.276002        -7.5104
  21   0.0000       0.015620         0.4251
  22   0.0000       0.065653         1.7865
  23   0.0000       0.069943         1.9032
  24   0.0000       0.150385         4.0922
  25   0.0000       0.176972         4.8157

MULLIKEN ATOMIC CHARGES
-----------------------
   0 C :   -0.375039
   1 C :   -0.071527
   2 B :    0.307207
   3 N :   -0.693400
   4 C :   -0.071526
   5 C :   -0.375039
   6 H :    0.055126
   7 H :    0.217789
   8 H :    0.215260
   9 H :    0.358101
  10 H :    0.215260
  11 H :    0.217789
Sum of atomic charges:   -0.0000000

LOEWDIN ATOMIC CHARGES
----------------------
   0 C :   -0.217178
   1 C :   -0.081401
   2 B :    0.033343
   3 N :   -0.239464
   4 C :   -0.081401
   5 C :   -0.217178
   6 H :    0.016695
   7 H :    0.143653
   8 H :    0.122253
   9 H :    0.254772
  10 H :    0.122253
  11 H :    0.143653

  Mayer bond orders larger than 0.100000
B(  0-C ,  1-C ) :   1.9157 B(  0-C ,  2-B ) :   0.9054 B(  0-C , 11-H ) :   0.9148
B(  1-C ,  3-N ) :   0.9231 B(  1-C , 10-H ) :   0.9019 B(  2-B ,  3-N ) :   0.3255
B(  2-B ,  5-C ) :   0.9054 B(  2-B ,  6-H ) :   0.9628 B(  3-N ,  4-C ) :   0.9231
B(  3-N ,  9-H ) :   0.8256 B(  4-C ,  5-C ) :   1.9157 B(  4-C ,  8-H ) :   0.9019
B(  5-C ,  7-H ) :   0.9148

Dispersion correction           -0.005680063
FINAL SINGLE POINT ENERGY      -235.014681237764

DIPOLE MOMENT
-------------
                                X             Y             Z
Electronic contribution:     -0.53585       0.20380       0.00000
Nuclear contribution   :      1.26339      -0.33012       0.00000
                        -----------------------------------------
Total Dipole Moment    :      0.72753      -0.12632       0.00000
                        -----------------------------------------
Magnitude (a.u.)       :      0.73842
Magnitude (Debye)      :      1.87691

Rotational constants in cm-1:     0.236388     0.151927     0.109608
Rotational constants in MHz :  7086.727453  4554.671705  3285.955163

                             ****ORCA TERMINATED NORMALLY****
TOTAL RUN TIME: 0 days 0 hours 1 minutes 25 seconds 726 msec
