                         Program Version 5.0.3 -  RELEASE  -
|  1> ! PBEh-3c def2/J TightSCF DefGrid3
|  2>
|  3> %maxcore 60000
|  4>
|  5> %pal
|  6> nprocs 4
|  7> end
|  8>
|  9> *xyzfile 0 1 P_TG.xyz
| 10>
| 11>                          ****END OF INPUT****

CARTESIAN COORDINATES (ANGSTROEM)
---------------------------------
  C      2.406082   -0.141625    0.108142
  C      0.963221   -0.333516   -0.341232
  C      0.036784    0.731275    0.233880
  C     -1.403814    0.636051   -0.261159
  C     -2.105144   -0.650118    0.160535
  H      3.061711   -0.907664   -0.302920
  H     -1.413270    0.718718   -1.350631
  H     -1.966819    1.490789    0.117548
  H      2.480724   -0.185610    1.194683
  H      2.784781    0.829696   -0.209614
  H      0.439428    1.715689   -0.017930
  H      0.047889    0.664060    1.325980
  H      0.908545   -0.301180   -1.432346
  H      0.620699   -1.325143   -0.042902
  H     -3.150132   -0.647771   -0.145525
  H     -1.635608   -1.527207   -0.280938
  H     -2.075078   -0.766443    1.244430

 Total Charge           Charge          ....    0
 Multiplicity           Mult            ....    1
 Number of Electrons    NEL             ....   42
 Basis Dimension        Dim             ....   99

ORBITAL ENERGIES
----------------

  NO   OCC          E(Eh)            E(eV)
   0   2.0000     -10.427023      -283.7337
   1   2.0000     -10.426238      -283.7124
   2   2.0000     -10.424919      -283.6765
   3   2.0000     -10.418722      -283.5078
   4   2.0000     -10.418347      -283.4976
   5   2.0000      -0.893367       -24.3098
   6   2.0000      -0.834193       -22.6996
   7   2.0000      -0.754372       -20.5275
   8   2.0000      -0.682341       -18.5674
   9   2.0000      -0.632760       -17.2183
  10   2.0000      -0.527730       -14.3603
  11   2.0000      -0.504117       -13.7177
  12   2.0000      -0.489861       -13.3298
  13   2.0000      -0.465708       -12.6726
  14   2.0000      -0.437217       -11.8973
  15   2.0000      -0.422834       -11.5059
  16   2.0000      -0.407085       -11.0774
  17   2.0000      -0.389280       -10.5928
  18   2.0000      -0.367838       -10.0094
  19   2.0000      -0.366292        -9.9673
  20   2.0000      -0.358201        -9.7471
  21   0.0000       0.138412         3.7664
  22   0.0000       0.160658         4.3717
  23   0.0000       0.177549         4.8314
  24   0.0000       0.190657         5.1880
  25   0.0000       0.204855         5.5744

MULLIKEN ATOMIC CHARGES
-----------------------
   0 C :   -0.636536
   1 C :   -0.416876
   2 C :   -0.401154
   3 C :   -0.416977
   4 C :   -0.646017
   5 H :    0.218331
   6 H :    0.204254
   7 H :    0.214062
   8 H :    0.208973
   9 H :    0.208373
  10 H :    0.208313
  11 H :    0.199475
  12 H :    0.203587
  13 H :    0.210337
  14 H :    0.220242
  15 H :    0.213785
  16 H :    0.207828
Sum of atomic charges:    0.0000000

LOEWDIN ATOMIC CHARGES
----------------------
   0 C :   -0.361230
   1 C :   -0.248340
   2 C :   -0.242249
   3 C :   -0.246355
   4 C :   -0.364955
   5 H :    0.125594
   6 H :    0.119022
   7 H :    0.122057
   8 H :    0.123511
   9 H :    0.122814
  10 H :    0.120650
  11 H :    0.117954
  12 H :    0.118771
  13 H :    0.120013
  14 H :    0.126457
  15 H :    0.123339
  16 H :    0.122946

  Mayer bond orders larger than 0.100000
B(  0-C ,  1-C ) :   0.9982 B(  0-C ,  5-H ) :   0.9326 B(  0-C ,  8-H ) :   0.9294
B(  0-C ,  9-H ) :   0.9298 B(  1-C ,  2-C ) :   0.9827 B(  1-C , 12-H ) :   0.9206
B(  1-C , 13-H ) :   0.9180 B(  2-C ,  3-C ) :   0.9944 B(  2-C , 10-H ) :   0.9234
B(  2-C , 11-H ) :   0.9184 B(  3-C ,  4-C ) :   0.9902 B(  3-C ,  6-H ) :   0.9204
B(  3-C ,  7-H ) :   0.9255 B(  4-C , 14-H ) :   0.9312 B(  4-C , 15-H ) :   0.9270
B(  4-C , 16-H ) :   0.9295

Dispersion correction           -0.007019395
FINAL SINGLE POINT ENERGY      -197.333186851764

DIPOLE MOMENT
-------------
                                X             Y             Z
Electronic contribution:     -0.28487       0.65620      -0.27519
Nuclear contribution   :      0.27313      -0.64270       0.26506
                        -----------------------------------------
Total Dipole Moment    :     -0.01174       0.01351      -0.01013
                        -----------------------------------------
Magnitude (a.u.)       :      0.02056
Magnitude (Debye)      :      0.05227

Rotational constants in cm-1:     0.391746     0.077450     0.071367
Rotational constants in MHz : 11744.236088  2321.879658  2139.525920

                             ****ORCA TERMINATED NORMALLY****
TOTAL RUN TIME: 0 days 0 hours 1 minutes 21 seconds 583 msec
