                         Program Version 5.0.3 -  RELEASE  -
|  1> ! PBEh-3c def2/J TightSCF DefGrid3
|  2>
|  3> %maxcore 60000
|  4>
|  5> %pal
|  6> nprocs 4
|  7> end
|  8>
|  9> *xyzfile 0 1 15.xyz
| 10>
| 11>                          ****END OF INPUT****

CARTESIAN COORDINATES (ANGSTROEM)
---------------------------------
  N     -0.150519    2.624483   -0.124594
  C      0.901092    1.990160   -0.753704
  C      0.530955    0.717452   -1.125096
  C     -0.832311    0.557655   -0.698986
  C     -1.759273   -0.498815   -0.792969
  C     -3.032744   -0.309891   -0.284620
  C     -3.413168    0.908175    0.321339
  C     -2.518588    1.961419    0.429407
  C     -1.229234    1.771829   -0.082541
  H     -0.147074    3.576410    0.192756
  H      1.842689    2.495145   -0.898305
  H     -1.512698   -1.438735   -1.269352
  H     -4.427956    1.013042    0.680845
  H     -2.817056    2.897904    0.882876
  O     -3.968312   -1.321466   -0.414838
  C     -4.180060   -2.029157    0.803361
  H     -4.540651   -1.364410    1.591508
  H     -3.256868   -2.508873    1.138035
  H     -4.931194   -2.787489    0.598475
  C      1.402893   -0.311270   -1.772023
  C      1.780457   -1.442259   -0.801027
  N      2.422210   -0.952068    0.406591
  C      3.719602   -0.531076    0.389600
  C      4.206592    0.127180    1.665265
  H      2.322027    0.151775   -2.132155
  H      0.898417   -0.752150   -2.636236
  H      2.469039   -2.129812   -1.288757
  H      0.892042   -1.996806   -0.499986
  H      1.832895   -0.624381    1.151285
  O      4.449898   -0.685215   -0.580183
  H      5.134896   -0.351062    1.969326
  H      3.486690    0.069100    2.479547
  H      4.425312    1.173201    1.455149

 Total Charge           Charge          ....    0
 Multiplicity           Mult            ....    1
 Number of Electrons    NEL             ....  124
 Basis Dimension        Dim             ....  287

ORBITAL ENERGIES
----------------

  NO   OCC          E(Eh)            E(eV)
   0   2.0000     -19.506286      -530.7930
   1   2.0000     -19.448022      -529.2076
   2   2.0000     -14.688518      -399.6949
   3   2.0000     -14.654263      -398.7628
   4   2.0000     -10.541547      -286.8501
   5   2.0000     -10.495449      -285.5957
   6   2.0000     -10.483351      -285.2665
   7   2.0000     -10.482398      -285.2405
   8   2.0000     -10.480950      -285.2011
   9   2.0000     -10.470194      -284.9085
  10   2.0000     -10.456309      -284.5306
  11   2.0000     -10.449112      -284.3348
  12   2.0000     -10.446875      -284.2739
  13   2.0000     -10.445360      -284.2327
  14   2.0000     -10.443264      -284.1756
  15   2.0000     -10.439440      -284.0716
  16   2.0000     -10.439374      -284.0698
  17   2.0000      -1.154737       -31.4220
  18   2.0000      -1.134008       -30.8579
  19   2.0000      -1.090744       -29.6806
  20   2.0000      -1.016236       -27.6532
  21   2.0000      -0.940166       -25.5832
  22   2.0000      -0.899446       -24.4752
  23   2.0000      -0.849985       -23.1293
  24   2.0000      -0.832451       -22.6521
  25   2.0000      -0.820240       -22.3199
  26   2.0000      -0.798129       -21.7182
  27   2.0000      -0.767842       -20.8941
  28   2.0000      -0.722505       -19.6604
  29   2.0000      -0.700917       -19.0729
  30   2.0000      -0.669994       -18.2315
  31   2.0000      -0.651278       -17.7222
  32   2.0000      -0.627794       -17.0831
  33   2.0000      -0.610853       -16.6222
  34   2.0000      -0.574565       -15.6347
  35   2.0000      -0.561934       -15.2910
  36   2.0000      -0.558133       -15.1876
  37   2.0000      -0.530787       -14.4434
  38   2.0000      -0.524692       -14.2776
  39   2.0000      -0.518569       -14.1110
  40   2.0000      -0.511674       -13.9234
  41   2.0000      -0.508007       -13.8236
  42   2.0000      -0.496456       -13.5093
  43   2.0000      -0.492040       -13.3891
  44   2.0000      -0.478401       -13.0180
  45   2.0000      -0.472824       -12.8662
  46   2.0000      -0.463448       -12.6111
  47   2.0000      -0.457913       -12.4604
  48   2.0000      -0.453212       -12.3325
  49   2.0000      -0.447146       -12.1675
  50   2.0000      -0.425159       -11.5692
  51   2.0000      -0.417587       -11.3631
  52   2.0000      -0.405992       -11.0476
  53   2.0000      -0.401132       -10.9154
  54   2.0000      -0.387466       -10.5435
  55   2.0000      -0.377049       -10.2600
  56   2.0000      -0.328404        -8.9363
  57   2.0000      -0.324319        -8.8252
  58   2.0000      -0.304549        -8.2872
  59   2.0000      -0.294059        -8.0017
  60   2.0000      -0.257594        -7.0095
  61   2.0000      -0.244569        -6.6550
  62   0.0000       0.001794         0.0488
  63   0.0000       0.046347         1.2612
  64   0.0000       0.066396         1.8067
  65   0.0000       0.088346         2.4040
  66   0.0000       0.122323         3.3286

MULLIKEN ATOMIC CHARGES
-----------------------
   0 N :   -0.700753
   1 C :   -0.063290
   2 C :    0.022258
   3 C :    0.064257
   4 C :   -0.435124
   5 C :    0.362333
   6 C :   -0.312601
   7 C :   -0.263701
   8 C :    0.362492
   9 H :    0.359027
  10 H :    0.245571
  11 H :    0.217916
  12 H :    0.228417
  13 H :    0.214991
  14 O :   -0.484690
  15 C :   -0.376133
  16 H :    0.197472
  17 H :    0.199698
  18 H :    0.221348
  19 C :   -0.542843
  20 C :   -0.288372
  21 N :   -0.616787
  22 C :    0.517970
  23 C :   -0.748033
  24 H :    0.258144
  25 H :    0.230978
  26 H :    0.259289
  27 H :    0.223968
  28 H :    0.359845
  29 O :   -0.432982
  30 H :    0.260558
  31 H :    0.212018
  32 H :    0.246761
Sum of atomic charges:    0.0000000

LOEWDIN ATOMIC CHARGES
----------------------
   0 N :   -0.159963
   1 C :   -0.084940
   2 C :   -0.106522
   3 C :   -0.059242
   4 C :   -0.154040
   5 C :    0.042421
   6 C :   -0.159602
   7 C :   -0.153718
   8 C :    0.011691
   9 H :    0.261813
  10 H :    0.138052
  11 H :    0.143910
  12 H :    0.142328
  13 H :    0.137067
  14 O :   -0.219947
  15 C :   -0.172408
  16 H :    0.107419
  17 H :    0.109089
  18 H :    0.124583
  19 C :   -0.236354
  20 C :   -0.143993
  21 N :   -0.239388
  22 C :    0.104450
  23 C :   -0.390557
  24 H :    0.147658
  25 H :    0.136551
  26 H :    0.143371
  27 H :    0.123698
  28 H :    0.255542
  29 O :   -0.284034
  30 H :    0.156924
  31 H :    0.126696
  32 H :    0.151447

  Mayer bond orders larger than 0.100000
B(  0-N ,  1-C ) :   1.1291 B(  0-N ,  8-C ) :   1.0167 B(  0-N ,  9-H ) :   0.8330
B(  1-C ,  2-C ) :   1.5677 B(  1-C , 10-H ) :   0.9074 B(  2-C ,  3-C ) :   1.2320
B(  2-C , 19-C ) :   0.9549 B(  3-C ,  4-C ) :   1.2422 B(  3-C ,  8-C ) :   1.2428
B(  4-C ,  5-C ) :   1.4829 B(  4-C , 11-H ) :   0.9284 B(  5-C ,  6-C ) :   1.3192
B(  5-C , 14-O ) :   0.9528 B(  6-C ,  7-C ) :   1.4833 B(  6-C , 12-H ) :   0.9122
B(  7-C ,  8-C ) :   1.2908 B(  7-C , 13-H ) :   0.9206 B( 14-O , 15-C ) :   0.9532
B( 15-C , 16-H ) :   0.9118 B( 15-C , 17-H ) :   0.9130 B( 15-C , 18-H ) :   0.9281
B( 19-C , 20-C ) :   0.9555 B( 19-C , 24-H ) :   0.9111 B( 19-C , 25-H ) :   0.9135
B( 20-C , 21-N ) :   0.9543 B( 20-C , 26-H ) :   0.9024 B( 20-C , 27-H ) :   0.9167
B( 21-N , 22-C ) :   1.1418 B( 21-N , 28-H ) :   0.8232 B( 22-C , 23-C ) :   0.9269
B( 22-C , 29-O ) :   1.9812 B( 23-C , 30-H ) :   0.9113 B( 23-C , 31-H ) :   0.9221
B( 23-C , 32-H ) :   0.9131

Dispersion correction           -0.021524657
FINAL SINGLE POINT ENERGY      -763.326487908134

DIPOLE MOMENT
-------------
                                X             Y             Z
Electronic contribution:     -3.00178       4.93111      -4.30465
Nuclear contribution   :      2.35963      -3.97345       5.84618
                        -----------------------------------------
Total Dipole Moment    :     -0.64215       0.95766       1.54153
                        -----------------------------------------
Magnitude (a.u.)       :      1.92504
Magnitude (Debye)      :      4.89307

Rotational constants in cm-1:     0.028035     0.008280     0.007318
Rotational constants in MHz :   840.473860   248.236870   219.375363

                             ****ORCA TERMINATED NORMALLY****
TOTAL RUN TIME: 0 days 0 hours 4 minutes 27 seconds 249 msec
