                         Program Version 5.0.3 -  RELEASE  -
|  1> ! PBEh-3c def2/J TightSCF DefGrid3
|  2>
|  3> %maxcore 60000
|  4>
|  5> %pal
|  6> nprocs 4
|  7> end
|  8>
|  9> *xyzfile 0 1 hf.xyz
| 10>
| 11>                          ****END OF INPUT****

CARTESIAN COORDINATES (ANGSTROEM)
---------------------------------
  F      0.046136    0.000000    0.000000
  H     -0.869633    0.000000    0.000000

 Total Charge           Charge          ....    0
 Multiplicity           Mult            ....    1
 Number of Electrons    NEL             ....   10
 Basis Dimension        Dim             ....   17

ORBITAL ENERGIES
----------------

  NO   OCC          E(Eh)            E(eV)
   0   2.0000     -25.064177      -682.0309
   1   2.0000      -1.302210       -35.4349
   2   2.0000      -0.599488       -16.3129
   3   2.0000      -0.463872       -12.6226
   4   2.0000      -0.463872       -12.6226
   5   0.0000       0.130190         3.5426
   6   0.0000       0.840421        22.8690
   7   0.0000       1.159755        31.5585
   8   0.0000       1.159755        31.5585
   9   0.0000       1.255365        34.1602

MULLIKEN ATOMIC CHARGES
-----------------------
   0 F :   -0.510027
   1 H :    0.510027
Sum of atomic charges:   -0.0000000

LOEWDIN ATOMIC CHARGES
----------------------
   0 F :   -0.382751
   1 H :    0.382751

  Mayer bond orders larger than 0.100000
B(  0-F ,  1-H ) :   0.7316

Dispersion correction           -0.000066326
FINAL SINGLE POINT ENERGY      -100.241662947916

DIPOLE MOMENT
-------------
                                X             Y             Z
Electronic contribution:      0.13798      -0.00000      -0.00000
Nuclear contribution   :     -0.85862       0.00000       0.00000
                        -----------------------------------------
Total Dipole Moment    :     -0.72063      -0.00000      -0.00000
                        -----------------------------------------
Magnitude (a.u.)       :      0.72063
Magnitude (Debye)      :      1.83171

Rotational constants in cm-1:     0.000000    20.999888    20.999888
Rotational constants in MHz :     0.000000 629560.790226 629560.790226

                             ****ORCA TERMINATED NORMALLY****
TOTAL RUN TIME: 0 days 0 hours 0 minutes 33 seconds 107 msec
