                         Program Version 5.0.3 -  RELEASE  -
|  1> ! PBEh-3c def2/J TightSCF DefGrid3
|  2>
|  3> %maxcore 60000
|  4>
|  5> %pal
|  6> nprocs 4
|  7> end
|  8>
|  9> *xyzfile 0 1 3.xyz
| 10>
| 11>                          ****END OF INPUT****

CARTESIAN COORDINATES (ANGSTROEM)
---------------------------------
  C     -0.646760   -2.662162   -2.625563
  C     -1.182957   -1.424911   -3.054357
  C     -0.059627   -0.620007   -3.542257
  C      0.814718   -2.582863   -2.658136
  C      1.179625   -1.338532   -3.224850
  C      1.328804   -3.040346   -1.425381
  C     -1.036707   -3.290280   -1.422302
  C      0.197468   -3.613935   -0.685812
  C     -2.131020   -2.751351   -0.731275
  C     -2.248938   -0.806035   -2.313179
  C     -2.752591   -1.540842   -1.192012
  C     -2.328706    0.663067   -2.280438
  C     -0.098035    0.753417   -3.424581
  C     -1.266535    1.424334   -2.866693
  C      1.092260    1.497737   -3.026350
  C      2.250497   -0.647792   -2.648217
  C      2.233832    0.803541   -2.608854
  C      2.345255   -2.280764   -0.736547
  C      2.854745   -1.135139   -1.423604
  C      2.345255   -2.280764    0.736547
  C      0.197468   -3.613935    0.685812
  C      1.328804   -3.040346    1.425381
  C     -2.131020   -2.751351    0.731275
  C     -1.036707   -3.290280    1.422302
  C     -3.227588   -0.845434    0.000000
  C     -2.752591   -1.540842    1.192012
  C     -3.032091    1.285986   -1.192667
  C     -3.390598    0.512301    0.000000
  C     -2.658218    2.564331   -0.733290
  C     -0.807341    2.660723   -2.277662
  C      0.648347    2.667347   -2.303413
  C     -1.486533    3.220918   -1.183984
  C      1.360611    3.110554   -1.180695
  C      2.937839    1.228483   -1.420571
  C      3.327509    0.028159   -0.693781
  C      2.520653    2.368268   -0.727244
  C      2.854745   -1.135139    1.423604
  C      3.327509    0.028159    0.693781
  C      2.250497   -0.647792    2.648217
  C      0.814718   -2.582863    2.658136
  C     -0.646760   -2.662162    2.625563
  C      1.179625   -1.338532    3.224850
  C     -2.248938   -0.806035    2.313179
  C     -1.182957   -1.424911    3.054357
  C     -0.059627   -0.620007    3.542257
  C     -3.032091    1.285986    1.192667
  C     -2.658218    2.564331    0.733290
  C     -2.328706    0.663067    2.280438
  C     -0.741467    3.662714    0.000000
  C      0.647448    3.586610    0.000000
  C     -1.486533    3.220918    1.183984
  C      2.520653    2.368268    0.727244
  C      2.937839    1.228483    1.420571
  C      2.233832    0.803541    2.608854
  C      1.360611    3.110554    1.180695
  C     -0.098035    0.753417    3.424581
  C     -1.266535    1.424334    2.866693
  C     -0.807341    2.660723    2.277662
  C      1.092260    1.497737    3.026350
  C      0.648347    2.667347    2.303413

 Total Charge           Charge          ....    0
 Multiplicity           Mult            ....    1
 Number of Electrons    NEL             ....  360
 Basis Dimension        Dim             ....  900

ORBITAL ENERGIES
----------------

  NO   OCC          E(Eh)            E(eV)
   0   2.0000     -10.528113      -286.4845
   1   2.0000     -10.527931      -286.4796
   2   2.0000     -10.527929      -286.4795
   3   2.0000     -10.527801      -286.4760
   4   2.0000     -10.527051      -286.4556
   5   2.0000     -10.527050      -286.4556
   6   2.0000     -10.520576      -286.2794
   7   2.0000     -10.520080      -286.2659
   8   2.0000     -10.519843      -286.2595
   9   2.0000     -10.519776      -286.2577
  10   2.0000     -10.519403      -286.2475
  11   2.0000     -10.519289      -286.2444
  12   2.0000     -10.519283      -286.2443
  13   2.0000     -10.518587      -286.2253
  14   2.0000     -10.518546      -286.2242
  15   2.0000     -10.518497      -286.2228
  16   2.0000     -10.518459      -286.2218
  17   2.0000     -10.517865      -286.2056
  18   2.0000     -10.517095      -286.1847
  19   2.0000     -10.517034      -286.1830
  20   2.0000     -10.516944      -286.1806
  21   2.0000     -10.516935      -286.1803
  22   2.0000     -10.516928      -286.1802
  23   2.0000     -10.516754      -286.1754
  24   2.0000     -10.516625      -286.1719
  25   2.0000     -10.516623      -286.1719
  26   2.0000     -10.516060      -286.1565
  27   2.0000     -10.515861      -286.1511
  28   2.0000     -10.515853      -286.1509
  29   2.0000     -10.515713      -286.1471
  30   2.0000     -10.515683      -286.1463
  31   2.0000     -10.515571      -286.1432
  32   2.0000     -10.515495      -286.1412
  33   2.0000     -10.515493      -286.1411
  34   2.0000     -10.515322      -286.1365
  35   2.0000     -10.514986      -286.1273
  36   2.0000     -10.514977      -286.1271
  37   2.0000     -10.514862      -286.1239
  38   2.0000     -10.514851      -286.1236
  39   2.0000     -10.514838      -286.1233
  40   2.0000     -10.514822      -286.1228
  41   2.0000     -10.514777      -286.1216
  42   2.0000     -10.514549      -286.1154
  43   2.0000     -10.514391      -286.1111
  44   2.0000     -10.514034      -286.1014
  45   2.0000     -10.513446      -286.0854
  46   2.0000     -10.513330      -286.0823
  47   2.0000     -10.513323      -286.0821
  48   2.0000     -10.512801      -286.0679
  49   2.0000     -10.512793      -286.0676
  50   2.0000     -10.512742      -286.0663
  51   2.0000     -10.512737      -286.0661
  52   2.0000     -10.511376      -286.0291
  53   2.0000     -10.511368      -286.0289
  54   2.0000     -10.506576      -285.8985
  55   2.0000     -10.506568      -285.8983
  56   2.0000     -10.506222      -285.8888
  57   2.0000     -10.506018      -285.8833
  58   2.0000     -10.506005      -285.8829
  59   2.0000     -10.505864      -285.8791
  60   2.0000      -1.097675       -29.8693
  61   2.0000      -1.080421       -29.3997
  62   2.0000      -1.077726       -29.3264
  63   2.0000      -1.073977       -29.2244
  64   2.0000      -1.044846       -28.4317
  65   2.0000      -1.037089       -28.2206
  66   2.0000      -1.035510       -28.1777
  67   2.0000      -1.032461       -28.0947
  68   2.0000      -1.025100       -27.8944
  69   2.0000      -0.992562       -27.0090
  70   2.0000      -0.978331       -26.6217
  71   2.0000      -0.978109       -26.6157
  72   2.0000      -0.969720       -26.3874
  73   2.0000      -0.968307       -26.3490
  74   2.0000      -0.958156       -26.0728
  75   2.0000      -0.956293       -26.0220
  76   2.0000      -0.914185       -24.8762
  77   2.0000      -0.904937       -24.6246
  78   2.0000      -0.901724       -24.5372
  79   2.0000      -0.895850       -24.3773
  80   2.0000      -0.891408       -24.2564
  81   2.0000      -0.890416       -24.2295
  82   2.0000      -0.890308       -24.2265
  83   2.0000      -0.886973       -24.1358
  84   2.0000      -0.876358       -23.8469
  85   2.0000      -0.832608       -22.6564
  86   2.0000      -0.828300       -22.5392
  87   2.0000      -0.827036       -22.5048
  88   2.0000      -0.821489       -22.3539
  89   2.0000      -0.818675       -22.2773
  90   2.0000      -0.811062       -22.0701
  91   2.0000      -0.797756       -21.7081
  92   2.0000      -0.794186       -21.6109
  93   2.0000      -0.776319       -21.1247
  94   2.0000      -0.767774       -20.8922
  95   2.0000      -0.752054       -20.4644
  96   2.0000      -0.739165       -20.1137
  97   2.0000      -0.729171       -19.8418
  98   2.0000      -0.721216       -19.6253
  99   2.0000      -0.717187       -19.5156
 100   2.0000      -0.715345       -19.4655
 101   2.0000      -0.715330       -19.4651
 102   2.0000      -0.701581       -19.0910
 103   2.0000      -0.696228       -18.9453
 104   2.0000      -0.673731       -18.3332
 105   2.0000      -0.673386       -18.3238
 106   2.0000      -0.663324       -18.0500
 107   2.0000      -0.654232       -17.8026
 108   2.0000      -0.641801       -17.4643
 109   2.0000      -0.626911       -17.0591
 110   2.0000      -0.625104       -17.0099
 111   2.0000      -0.621652       -16.9160
 112   2.0000      -0.619187       -16.8489
 113   2.0000      -0.600391       -16.3375
 114   2.0000      -0.599891       -16.3239
 115   2.0000      -0.593752       -16.1568
 116   2.0000      -0.593246       -16.1431
 117   2.0000      -0.581328       -15.8187
 118   2.0000      -0.571569       -15.5532
 119   2.0000      -0.570578       -15.5262
 120   2.0000      -0.568364       -15.4660
 121   2.0000      -0.562080       -15.2950
 122   2.0000      -0.557128       -15.1602
 123   2.0000      -0.552634       -15.0379
 124   2.0000      -0.543886       -14.7999
 125   2.0000      -0.539891       -14.6912
 126   2.0000      -0.538665       -14.6578
 127   2.0000      -0.535763       -14.5788
 128   2.0000      -0.533228       -14.5099
 129   2.0000      -0.528974       -14.3941
 130   2.0000      -0.526247       -14.3199
 131   2.0000      -0.523225       -14.2377
 132   2.0000      -0.514909       -14.0114
 133   2.0000      -0.513889       -13.9836
 134   2.0000      -0.511379       -13.9153
 135   2.0000      -0.506395       -13.7797
 136   2.0000      -0.503197       -13.6927
 137   2.0000      -0.502854       -13.6833
 138   2.0000      -0.499874       -13.6023
 139   2.0000      -0.496168       -13.5014
 140   2.0000      -0.494435       -13.4543
 141   2.0000      -0.490960       -13.3597
 142   2.0000      -0.487214       -13.2578
 143   2.0000      -0.487049       -13.2533
 144   2.0000      -0.486637       -13.2421
 145   2.0000      -0.483514       -13.1571
 146   2.0000      -0.480769       -13.0824
 147   2.0000      -0.472895       -12.8681
 148   2.0000      -0.463646       -12.6165
 149   2.0000      -0.441438       -12.0122
 150   2.0000      -0.438990       -11.9455
 151   2.0000      -0.438037       -11.9196
 152   2.0000      -0.437684       -11.9100
 153   2.0000      -0.434953       -11.8357
 154   2.0000      -0.428397       -11.6573
 155   2.0000      -0.427919       -11.6443
 156   2.0000      -0.425241       -11.5714
 157   2.0000      -0.423165       -11.5149
 158   2.0000      -0.419713       -11.4210
 159   2.0000      -0.417255       -11.3541
 160   2.0000      -0.415765       -11.3136
 161   2.0000      -0.415484       -11.3059
 162   2.0000      -0.410451       -11.1689
 163   2.0000      -0.410236       -11.1631
 164   2.0000      -0.407590       -11.0911
 165   2.0000      -0.400649       -10.9022
 166   2.0000      -0.341376        -9.2893
 167   2.0000      -0.331507        -9.0208
 168   2.0000      -0.331055        -9.0085
 169   2.0000      -0.329015        -8.9529
 170   2.0000      -0.328387        -8.9359
 171   2.0000      -0.327978        -8.9247
 172   2.0000      -0.326497        -8.8844
 173   2.0000      -0.323936        -8.8147
 174   2.0000      -0.306932        -8.3520
 175   2.0000      -0.275453        -7.4955
 176   2.0000      -0.273692        -7.4475
 177   2.0000      -0.270277        -7.3546
 178   2.0000      -0.263294        -7.1646
 179   2.0000      -0.259816        -7.0699
 180   0.0000      -0.150217        -4.0876
 181   0.0000      -0.138789        -3.7767
 182   0.0000      -0.115649        -3.1470
 183   0.0000      -0.094806        -2.5798
 184   0.0000      -0.076789        -2.0895

MULLIKEN ATOMIC CHARGES
-----------------------
   0 C :   -0.020337
   1 C :    0.003472
   2 C :   -0.019160
   3 C :   -0.017951
   4 C :   -0.001159
   5 C :    0.008852
   6 C :    0.004937
   7 C :   -0.017246
   8 C :    0.002248
   9 C :    0.027962
  10 C :    0.007040
  11 C :    0.030531
  12 C :   -0.005235
  13 C :    0.000684
  14 C :    0.003814
  15 C :   -0.008166
  16 C :    0.011970
  17 C :    0.030607
  18 C :   -0.002643
  19 C :    0.030614
  20 C :   -0.017245
  21 C :    0.008850
  22 C :    0.002252
  23 C :    0.004925
  24 C :   -0.010669
  25 C :    0.007038
  26 C :    0.003439
  27 C :   -0.021462
  28 C :   -0.018991
  29 C :   -0.010039
  30 C :    0.009664
  31 C :    0.002564
  32 C :    0.004105
  33 C :   -0.001124
  34 C :   -0.004384
  35 C :   -0.001371
  36 C :   -0.002645
  37 C :   -0.004379
  38 C :   -0.008167
  39 C :   -0.017947
  40 C :   -0.020332
  41 C :   -0.001156
  42 C :    0.027965
  43 C :    0.003469
  44 C :   -0.019159
  45 C :    0.003444
  46 C :   -0.018988
  47 C :    0.030530
  48 C :   -0.014577
  49 C :   -0.001479
  50 C :    0.002564
  51 C :   -0.001369
  52 C :   -0.001134
  53 C :    0.011975
  54 C :    0.004101
  55 C :   -0.005236
  56 C :    0.000693
  57 C :   -0.010038
  58 C :    0.003812
  59 C :    0.009666
Sum of atomic charges:   -0.0000000

LOEWDIN ATOMIC CHARGES
----------------------
   0 C :    0.000577
   1 C :   -0.002472
   2 C :    0.003945
   3 C :   -0.001734
   4 C :   -0.007643
   5 C :   -0.000652
   6 C :   -0.009934
   7 C :    0.008723
   8 C :    0.004418
   9 C :    0.000091
  10 C :    0.000766
  11 C :   -0.001694
  12 C :    0.002485
  13 C :    0.004527
  14 C :   -0.002600
  15 C :    0.000241
  16 C :    0.004387
  17 C :   -0.003878
  18 C :    0.007147
  19 C :   -0.003878
  20 C :    0.008723
  21 C :   -0.000652
  22 C :    0.004418
  23 C :   -0.009934
  24 C :    0.007725
  25 C :    0.000766
  26 C :   -0.001680
  27 C :   -0.000872
  28 C :    0.001402
  29 C :   -0.007800
  30 C :    0.002503
  31 C :   -0.006751
  32 C :   -0.000979
  33 C :   -0.000497
  34 C :   -0.001715
  35 C :   -0.000452
  36 C :    0.007147
  37 C :   -0.001715
  38 C :    0.000241
  39 C :   -0.001734
  40 C :    0.000576
  41 C :   -0.007643
  42 C :    0.000091
  43 C :   -0.002471
  44 C :    0.003945
  45 C :   -0.001680
  46 C :    0.001402
  47 C :   -0.001694
  48 C :    0.010040
  49 C :    0.001649
  50 C :   -0.006751
  51 C :   -0.000452
  52 C :   -0.000497
  53 C :    0.004387
  54 C :   -0.000979
  55 C :    0.002485
  56 C :    0.004527
  57 C :   -0.007800
  58 C :   -0.002600
  59 C :    0.002503

  Mayer bond orders larger than 0.100000
B(  0-C ,  1-C ) :   1.3236 B(  0-C ,  3-C ) :   1.1126 B(  0-C ,  6-C ) :   1.2578
B(  1-C ,  2-C ) :   1.1251 B(  1-C ,  9-C ) :   1.2388 B(  2-C ,  4-C ) :   1.1429
B(  2-C , 12-C ) :   1.4257 B(  3-C ,  4-C ) :   1.2321 B(  3-C ,  5-C ) :   1.3499
B(  4-C , 15-C ) :   1.3300 B(  5-C ,  7-C ) :   1.1107 B(  5-C , 17-C ) :   1.2204
B(  6-C ,  7-C ) :   1.1184 B(  6-C ,  8-C ) :   1.3208 B(  7-C , 20-C ) :   1.4644
B(  8-C , 10-C ) :   1.2524 B(  8-C , 22-C ) :   1.1209 B(  9-C , 10-C ) :   1.3019
B(  9-C , 11-C ) :   1.1302 B( 10-C , 24-C ) :   1.1213 B( 11-C , 13-C ) :   1.3086
B( 11-C , 26-C ) :   1.2328 B( 12-C , 13-C ) :   1.1260 B( 12-C , 14-C ) :   1.1458
B( 13-C , 29-C ) :   1.2459 B( 14-C , 16-C ) :   1.3771 B( 14-C , 30-C ) :   1.1715
B( 15-C , 16-C ) :   1.1482 B( 15-C , 18-C ) :   1.2231 B( 16-C , 33-C ) :   1.1699
B( 17-C , 18-C ) :   1.3077 B( 17-C , 19-C ) :   1.1395 B( 18-C , 34-C ) :   1.1483
B( 19-C , 21-C ) :   1.2204 B( 19-C , 36-C ) :   1.3077 B( 20-C , 21-C ) :   1.1107
B( 20-C , 23-C ) :   1.1184 B( 21-C , 39-C ) :   1.3499 B( 22-C , 23-C ) :   1.3208
B( 22-C , 25-C ) :   1.2524 B( 23-C , 40-C ) :   1.2578 B( 24-C , 25-C ) :   1.1213
B( 24-C , 27-C ) :   1.4442 B( 25-C , 42-C ) :   1.3019 B( 26-C , 27-C ) :   1.1213
B( 26-C , 28-C ) :   1.3339 B( 27-C , 45-C ) :   1.1213 B( 28-C , 31-C ) :   1.2538
B( 28-C , 46-C ) :   1.1041 B( 29-C , 30-C ) :   1.1520 B( 29-C , 31-C ) :   1.3064
B( 30-C , 32-C ) :   1.3726 B( 31-C , 48-C ) :   1.1392 B( 32-C , 35-C ) :   1.1795
B( 32-C , 49-C ) :   1.1422 B( 33-C , 34-C ) :   1.1586 B( 33-C , 35-C ) :   1.3693
B( 34-C , 37-C ) :   1.3881 B( 35-C , 51-C ) :   1.1529 B( 36-C , 37-C ) :   1.1483
B( 36-C , 38-C ) :   1.2231 B( 37-C , 52-C ) :   1.1586 B( 38-C , 41-C ) :   1.3300
B( 38-C , 53-C ) :   1.1482 B( 39-C , 40-C ) :   1.1126 B( 39-C , 41-C ) :   1.2321
B( 40-C , 43-C ) :   1.3236 B( 41-C , 44-C ) :   1.1429 B( 42-C , 43-C ) :   1.2388
B( 42-C , 47-C ) :   1.1302 B( 43-C , 44-C ) :   1.1251 B( 44-C , 55-C ) :   1.4257
B( 45-C , 46-C ) :   1.3339 B( 45-C , 47-C ) :   1.2328 B( 46-C , 50-C ) :   1.2538
B( 47-C , 56-C ) :   1.3086 B( 48-C , 49-C ) :   1.4150 B( 48-C , 50-C ) :   1.1392
B( 49-C , 54-C ) :   1.1422 B( 50-C , 57-C ) :   1.3064 B( 51-C , 52-C ) :   1.3693
B( 51-C , 54-C ) :   1.1795 B( 52-C , 53-C ) :   1.1699 B( 53-C , 58-C ) :   1.3771
B( 54-C , 59-C ) :   1.3726 B( 55-C , 56-C ) :   1.1260 B( 55-C , 58-C ) :   1.1459
B( 56-C , 57-C ) :   1.2459 B( 57-C , 59-C ) :   1.1520 B( 58-C , 59-C ) :   1.1715

Dispersion correction           -0.096869046
FINAL SINGLE POINT ENERGY     -2281.127946607874

DIPOLE MOMENT
-------------
                                X             Y             Z
Electronic contribution:      0.04002      -0.00592       0.00000
Nuclear contribution   :     -0.00000      -0.00000       0.00000
                        -----------------------------------------
Total Dipole Moment    :      0.04002      -0.00592       0.00000
                        -----------------------------------------
Magnitude (a.u.)       :      0.04046
Magnitude (Debye)      :      0.10283

Rotational constants in cm-1:     0.002903     0.002779     0.002649
Rotational constants in MHz :    87.039958    83.319216    79.428453

                             ****ORCA TERMINATED NORMALLY****
TOTAL RUN TIME: 0 days 0 hours 53 minutes 45 seconds 125 msec
