                         Program Version 5.0.3 -  RELEASE  -
|  1> ! PBEh-3c def2/J TightSCF DefGrid3
|  2>
|  3> %maxcore 60000
|  4>
|  5> %pal
|  6> nprocs 4
|  7> end
|  8>
|  9> *xyzfile 0 1 hocl.xyz
| 10>
| 11>                          ****END OF INPUT****

CARTESIAN COORDINATES (ANGSTROEM)
---------------------------------
  O      1.139304   -0.062740    0.000000
  H      1.387120    0.868759   -0.000000
  Cl    -0.553585    0.003615    0.000000

 Total Charge           Charge          ....    0
 Multiplicity           Mult            ....    1
 Number of Electrons    NEL             ....   26
 Basis Dimension        Dim             ....   35

ORBITAL ENERGIES
----------------

  NO   OCC          E(Eh)            E(eV)
   0   2.0000    -102.341155     -2784.8444
   1   2.0000     -19.563604      -532.3527
   2   2.0000      -9.805102      -266.8104
   3   2.0000      -7.496041      -203.9776
   4   2.0000      -7.482859      -203.6190
   5   2.0000      -7.482524      -203.6098
   6   2.0000      -1.177047       -32.0291
   7   2.0000      -0.879917       -23.9438
   8   2.0000      -0.593224       -16.1424
   9   2.0000      -0.498405       -13.5623
  10   2.0000      -0.471647       -12.8342
  11   2.0000      -0.367508       -10.0004
  12   2.0000      -0.334092        -9.0911
  13   0.0000      -0.020378        -0.5545
  14   0.0000       0.138600         3.7715
  15   0.0000       0.491442        13.3728
  16   0.0000       0.702134        19.1060
  17   0.0000       0.742170        20.1955

MULLIKEN ATOMIC CHARGES
-----------------------
   0 O :   -0.602088
   1 H :    0.454877
   2 Cl:    0.147211
Sum of atomic charges:   -0.0000000

LOEWDIN ATOMIC CHARGES
----------------------
   0 O :   -0.475683
   1 H :    0.315306
   2 Cl:    0.160377

  Mayer bond orders larger than 0.100000
B(  0-O ,  1-H ) :   0.7677 B(  0-O ,  2-Cl) :   0.9889

Dispersion correction           -0.000465392
FINAL SINGLE POINT ENERGY      -535.294086598516

DIPOLE MOMENT
-------------
                                X             Y             Z
Electronic contribution:     -1.96112      -0.12137      -0.00000
Nuclear contribution   :      2.06124       0.80927       0.00000
                        -----------------------------------------
Total Dipole Moment    :      0.10011       0.68790      -0.00000
                        -----------------------------------------
Magnitude (a.u.)       :      0.69515
Magnitude (Debye)      :      1.76692

Rotational constants in cm-1:    20.452850     0.502145     0.490112
Rotational constants in MHz : 613161.028372 15053.937116 14693.199096

                             ****ORCA TERMINATED NORMALLY****
TOTAL RUN TIME: 0 days 0 hours 0 minutes 53 seconds 170 msec
