                         Program Version 5.0.3 -  RELEASE  -
|  1> ! PBEh-3c def2/J TightSCF DefGrid3
|  2>
|  3> %maxcore 60000
|  4>
|  5> %pal
|  6> nprocs 4
|  7> end
|  8>
|  9> *xyzfile 0 1 10A.xyz
| 10>
| 11>                          ****END OF INPUT****

CARTESIAN COORDINATES (ANGSTROEM)
---------------------------------
  N      0.359012    0.182101   -0.826971
  H      1.187608   -0.402753   -0.877313
  H     -0.302816   -0.207559   -1.485208
  C     -0.201005    0.102583    0.520407
  H     -1.095084    0.720429    0.581627
  H     -0.465092   -0.904659    0.857912
  H      0.517378    0.509859    1.229547

 Total Charge           Charge          ....    0
 Multiplicity           Mult            ....    1
 Number of Electrons    NEL             ....   18
 Basis Dimension        Dim             ....   40

ORBITAL ENERGIES
----------------

  NO   OCC          E(Eh)            E(eV)
   0   2.0000     -14.604529      -397.4094
   1   2.0000     -10.445594      -284.2391
   2   2.0000      -0.965511       -26.2729
   3   2.0000      -0.734039       -19.9742
   4   2.0000      -0.546522       -14.8716
   5   2.0000      -0.493224       -13.4213
   6   2.0000      -0.452484       -12.3127
   7   2.0000      -0.416069       -11.3218
   8   2.0000      -0.283550        -7.7158
   9   0.0000       0.137678         3.7464
  10   0.0000       0.201312         5.4780
  11   0.0000       0.212353         5.7784
  12   0.0000       0.228286         6.2120
  13   0.0000       0.233622         6.3572

MULLIKEN ATOMIC CHARGES
-----------------------
   0 N :   -0.734762
   1 H :    0.312789
   2 H :    0.313589
   3 C :   -0.503356
   4 H :    0.216008
   5 H :    0.179861
   6 H :    0.215871
Sum of atomic charges:   -0.0000000

LOEWDIN ATOMIC CHARGES
----------------------
   0 N :   -0.485582
   1 H :    0.218364
   2 H :    0.218003
   3 C :   -0.280531
   4 H :    0.119798
   5 H :    0.090214
   6 H :    0.119735

  Mayer bond orders larger than 0.100000
B(  0-N ,  1-H ) :   0.8680 B(  0-N ,  2-H ) :   0.8674 B(  0-N ,  3-C ) :   1.0356
B(  3-C ,  4-H ) :   0.9264 B(  3-C ,  5-H ) :   0.9173 B(  3-C ,  6-H ) :   0.9266

Dispersion correction           -0.001525947
FINAL SINGLE POINT ENERGY       -95.642744861283

DIPOLE MOMENT
-------------
                                X             Y             Z
Electronic contribution:      0.40968       0.21251      -0.96091
Nuclear contribution   :     -0.51751      -0.79470       1.04272
                        -----------------------------------------
Total Dipole Moment    :     -0.10783      -0.58219       0.08181
                        -----------------------------------------
Magnitude (a.u.)       :      0.59771
Magnitude (Debye)      :      1.51926

Rotational constants in cm-1:     3.461793     0.763552     0.734632
Rotational constants in MHz : 103781.935125 22890.712495 22023.703106

                             ****ORCA TERMINATED NORMALLY****
TOTAL RUN TIME: 0 days 0 hours 0 minutes 47 seconds 185 msec
