                         Program Version 5.0.3 -  RELEASE  -
|  1> ! PBEh-3c def2/J TightSCF DefGrid3
|  2>
|  3> %maxcore 60000
|  4>
|  5> %pal
|  6> nprocs 4
|  7> end
|  8>
|  9> *xyzfile 0 1 pbh4.xyz
| 10>
| 11>                          ****END OF INPUT****

CARTESIAN COORDINATES (ANGSTROEM)
---------------------------------
  Pb     0.000000    0.000000    0.000000
  H      0.994448   -0.994448    0.994448
  H     -0.994448    0.994448    0.994448
  H      0.994448    0.994448   -0.994448
  H     -0.994448   -0.994448   -0.994448

 Total Charge           Charge          ....    0
 Multiplicity           Mult            ....    1
 Number of Electrons    NEL             ....   26
 Basis Dimension        Dim             ....   34

ORBITAL ENERGIES
----------------

  NO   OCC          E(Eh)            E(eV)
   0   2.0000      -5.698700      -155.0695
   1   2.0000      -3.491076       -94.9970
   2   2.0000      -3.491076       -94.9970
   3   2.0000      -3.491076       -94.9970
   4   2.0000      -0.934159       -25.4198
   5   2.0000      -0.934159       -25.4198
   6   2.0000      -0.934159       -25.4198
   7   2.0000      -0.922713       -25.1083
   8   2.0000      -0.922713       -25.1083
   9   2.0000      -0.626210       -17.0400
  10   2.0000      -0.363020        -9.8783
  11   2.0000      -0.363020        -9.8783
  12   2.0000      -0.363020        -9.8783
  13   0.0000       0.051235         1.3942
  14   0.0000       0.078256         2.1294
  15   0.0000       0.078256         2.1294
  16   0.0000       0.078256         2.1294
  17   0.0000       0.234378         6.3778

MULLIKEN ATOMIC CHARGES
-----------------------
   0 Pb:   -0.025757
   1 H :    0.006439
   2 H :    0.006439
   3 H :    0.006439
   4 H :    0.006439
Sum of atomic charges:    0.0000000

LOEWDIN ATOMIC CHARGES
----------------------
   0 Pb:   -0.060390
   1 H :    0.015098
   2 H :    0.015098
   3 H :    0.015098
   4 H :    0.015098

  Mayer bond orders larger than 0.100000
B(  0-Pb,  1-H ) :   0.9434 B(  0-Pb,  2-H ) :   0.9434 B(  0-Pb,  3-H ) :   0.9434
B(  0-Pb,  4-H ) :   0.9434

Dispersion correction           -0.000938604
FINAL SINGLE POINT ENERGY      -195.183940097527

DIPOLE MOMENT
-------------
                                X             Y             Z
Electronic contribution:      0.00000      -0.00000       0.00000
Nuclear contribution   :      0.00000       0.00000       0.00000
                        -----------------------------------------
Total Dipole Moment    :      0.00000      -0.00000       0.00000
                        -----------------------------------------
Magnitude (a.u.)       :      0.00000
Magnitude (Debye)      :      0.00000

Rotational constants in cm-1:     2.113890     2.113890     2.113890
Rotational constants in MHz : 63372.817349 63372.817349 63372.817349

                             ****ORCA TERMINATED NORMALLY****
TOTAL RUN TIME: 0 days 0 hours 0 minutes 32 seconds 451 msec
