                         Program Version 5.0.3 -  RELEASE  -
|  1> ! PBEh-3c def2/J TightSCF DefGrid3
|  2>
|  3> %maxcore 60000
|  4>
|  5> %pal
|  6> nprocs 4
|  7> end
|  8>
|  9> *xyzfile 0 1 B21.xyz
| 10>
| 11>                          ****END OF INPUT****

CARTESIAN COORDINATES (ANGSTROEM)
---------------------------------
  C      2.046373    0.354631    0.321390
  H      2.044382    0.240010    1.410792
  O      2.462541   -0.852415   -0.311477
  C      0.679427    0.834504   -0.151869
  H      0.486140    1.813229    0.297770
  H      0.716190    0.975438   -1.234491
  C     -0.449077   -0.128363    0.210783
  H     -0.469658   -0.295035    1.290804
  H     -0.292182   -1.097521   -0.267034
  H      1.897684   -1.559049    0.010687
  H      2.807259    1.091009    0.068123
  C     -1.807219    0.388704   -0.223631
  H     -2.011490    1.347766    0.263948
  H     -1.809647    0.553967   -1.306023
  O     -2.780715   -0.585286    0.144620
  H     -3.640316   -0.265062   -0.139761

 Total Charge           Charge          ....    0
 Multiplicity           Mult            ....    1
 Number of Electrons    NEL             ....   50
 Basis Dimension        Dim             ....  110

ORBITAL ENERGIES
----------------

  NO   OCC          E(Eh)            E(eV)
   0   2.0000     -19.486294      -530.2490
   1   2.0000     -19.482537      -530.1468
   2   2.0000     -10.484038      -285.2852
   3   2.0000     -10.479757      -285.1687
   4   2.0000     -10.435779      -283.9720
   5   2.0000     -10.435474      -283.9637
   6   2.0000      -1.122998       -30.5583
   7   2.0000      -1.119203       -30.4551
   8   2.0000      -0.886391       -24.1199
   9   2.0000      -0.799974       -21.7684
  10   2.0000      -0.706300       -19.2194
  11   2.0000      -0.656812       -17.8728
  12   2.0000      -0.573912       -15.6169
  13   2.0000      -0.571509       -15.5515
  14   2.0000      -0.543040       -14.7769
  15   2.0000      -0.507583       -13.8120
  16   2.0000      -0.483760       -13.1638
  17   2.0000      -0.464448       -12.6383
  18   2.0000      -0.437427       -11.9030
  19   2.0000      -0.410813       -11.1788
  20   2.0000      -0.393098       -10.6967
  21   2.0000      -0.385876       -10.5002
  22   2.0000      -0.370880       -10.0922
  23   2.0000      -0.327777        -8.9193
  24   2.0000      -0.322861        -8.7855
  25   0.0000       0.118675         3.2293
  26   0.0000       0.130355         3.5471
  27   0.0000       0.153724         4.1830
  28   0.0000       0.172157         4.6846
  29   0.0000       0.190629         5.1873

MULLIKEN ATOMIC CHARGES
-----------------------
   0 C :   -0.154086
   1 H :    0.178055
   2 O :   -0.626183
   3 C :   -0.447843
   4 H :    0.202561
   5 H :    0.222751
   6 C :   -0.457633
   7 H :    0.220870
   8 H :    0.215133
   9 H :    0.415315
  10 H :    0.218025
  11 C :   -0.128116
  12 H :    0.175686
  13 H :    0.178504
  14 O :   -0.629180
  15 H :    0.416143
Sum of atomic charges:    0.0000000

LOEWDIN ATOMIC CHARGES
----------------------
   0 C :   -0.091635
   1 H :    0.097590
   2 O :   -0.413174
   3 C :   -0.265540
   4 H :    0.124269
   5 H :    0.129044
   6 C :   -0.258615
   7 H :    0.127808
   8 H :    0.124998
   9 H :    0.306372
  10 H :    0.120962
  11 C :   -0.087990
  12 H :    0.096535
  13 H :    0.098111
  14 O :   -0.417359
  15 H :    0.308624

  Mayer bond orders larger than 0.100000
B(  0-C ,  1-H ) :   0.9128 B(  0-C ,  2-O ) :   1.0207 B(  0-C ,  3-C ) :   0.9700
B(  0-C , 10-H ) :   0.9209 B(  2-O ,  9-H ) :   0.7891 B(  3-C ,  4-H ) :   0.9108
B(  3-C ,  5-H ) :   0.9103 B(  3-C ,  6-C ) :   0.9667 B(  6-C ,  7-H ) :   0.9106
B(  6-C ,  8-H ) :   0.9080 B(  6-C , 11-C ) :   1.0029 B( 11-C , 12-H ) :   0.9049
B( 11-C , 13-H ) :   0.9042 B( 11-C , 14-O ) :   1.0253 B( 14-O , 15-H ) :   0.7928

Dispersion correction           -0.006468210
FINAL SINGLE POINT ENERGY      -308.206619617277

DIPOLE MOMENT
-------------
                                X             Y             Z
Electronic contribution:     -0.41590      -2.31458      -0.30683
Nuclear contribution   :     -0.28826       2.89883       0.40864
                        -----------------------------------------
Total Dipole Moment    :     -0.70416       0.58425       0.10181
                        -----------------------------------------
Magnitude (a.u.)       :      0.92063
Magnitude (Debye)      :      2.34005

Rotational constants in cm-1:     0.323640     0.045868     0.042540
Rotational constants in MHz :  9702.497433  1375.075120  1275.316976

                             ****ORCA TERMINATED NORMALLY****
TOTAL RUN TIME: 0 days 0 hours 1 minutes 32 seconds 744 msec
