                         Program Version 5.0.3 -  RELEASE  -
|  1> ! PBEh-3c def2/J TightSCF DefGrid3
|  2>
|  3> %maxcore 60000
|  4>
|  5> %pal
|  6> nprocs 4
|  7> end
|  8>
|  9> *xyzfile 0 1 07r.xyz
| 10>
| 11>                          ****END OF INPUT****

CARTESIAN COORDINATES (ANGSTROEM)
---------------------------------
  P     -0.295837   -1.586516    0.000000
  C     -0.082861   -0.322824    1.286018
  C     -0.082861   -0.322824   -1.286018
  C     -0.082861    0.909393    0.728948
  C     -0.082861    0.909393   -0.728948
  H      0.991643   -2.192298    0.000000
  H     -0.098673   -0.527340    2.347812
  H     -0.098673   -0.527340   -2.347812
  H     -0.083509    1.830178    1.302405
  H     -0.083509    1.830178   -1.302405

 Total Charge           Charge          ....    0
 Multiplicity           Mult            ....    1
 Number of Electrons    NEL             ....   44
 Basis Dimension        Dim             ....   88

ORBITAL ENERGIES
----------------

  NO   OCC          E(Eh)            E(eV)
   0   2.0000     -77.742243     -2115.4740
   1   2.0000     -10.456745      -284.5425
   2   2.0000     -10.456416      -284.5335
   3   2.0000     -10.452993      -284.4404
   4   2.0000     -10.452951      -284.4393
   5   2.0000      -6.817540      -185.5147
   6   2.0000      -4.908272      -133.5609
   7   2.0000      -4.908005      -133.5536
   8   2.0000      -4.906502      -133.5127
   9   2.0000      -0.937156       -25.5013
  10   2.0000      -0.804680       -21.8965
  11   2.0000      -0.749411       -20.3925
  12   2.0000      -0.619773       -16.8649
  13   2.0000      -0.597034       -16.2461
  14   2.0000      -0.571252       -15.5446
  15   2.0000      -0.469629       -12.7793
  16   2.0000      -0.455331       -12.3902
  17   2.0000      -0.432086       -11.7576
  18   2.0000      -0.397864       -10.8264
  19   2.0000      -0.378513       -10.2999
  20   2.0000      -0.292835        -7.9684
  21   2.0000      -0.276715        -7.5298
  22   0.0000      -0.019787        -0.5384
  23   0.0000       0.071595         1.9482
  24   0.0000       0.098348         2.6762
  25   0.0000       0.103828         2.8253
  26   0.0000       0.154464         4.2032

MULLIKEN ATOMIC CHARGES
-----------------------
   0 P :    0.288722
   1 C :   -0.503525
   2 C :   -0.503525
   3 C :   -0.160535
   4 C :   -0.160536
   5 H :    0.105065
   6 H :    0.239202
   7 H :    0.239202
   8 H :    0.227965
   9 H :    0.227965
Sum of atomic charges:    0.0000000

LOEWDIN ATOMIC CHARGES
----------------------
   0 P :    0.302126
   1 C :   -0.305667
   2 C :   -0.305667
   3 C :   -0.150746
   4 C :   -0.150746
   5 H :    0.051733
   6 H :    0.143044
   7 H :    0.143044
   8 H :    0.136439
   9 H :    0.136439

  Mayer bond orders larger than 0.100000
B(  0-P ,  1-C ) :   1.0482 B(  0-P ,  2-C ) :   1.0482 B(  0-P ,  5-H ) :   0.9182
B(  1-C ,  3-C ) :   1.7123 B(  1-C ,  6-H ) :   0.9154 B(  2-C ,  4-C ) :   1.7123
B(  2-C ,  7-H ) :   0.9154 B(  3-C ,  4-C ) :   1.1475 B(  3-C ,  8-H ) :   0.9149
B(  4-C ,  9-H ) :   0.9149

Dispersion correction           -0.004892899
FINAL SINGLE POINT ENERGY      -495.991929539596

DIPOLE MOMENT
-------------
                                X             Y             Z
Electronic contribution:     -1.18804      -3.12405       0.00000
Nuclear contribution   :      1.41806       3.36996       0.00000
                        -----------------------------------------
Total Dipole Moment    :      0.23002       0.24591       0.00000
                        -----------------------------------------
Magnitude (a.u.)       :      0.33672
Magnitude (Debye)      :      0.85588

Rotational constants in cm-1:     0.244750     0.167865     0.101799
Rotational constants in MHz :  7337.412178  5032.476444  3051.858149

                             ****ORCA TERMINATED NORMALLY****
TOTAL RUN TIME: 0 days 0 hours 1 minutes 25 seconds 530 msec
