                         Program Version 5.0.3 -  RELEASE  -
|  1> ! PBEh-3c def2/J TightSCF DefGrid3
|  2>
|  3> %maxcore 60000
|  4>
|  5> %pal
|  6> nprocs 4
|  7> end
|  8>
|  9> *xyzfile 0 2 cloo.xyz
| 10>
| 11>                          ****END OF INPUT****

CARTESIAN COORDINATES (ANGSTROEM)
---------------------------------
  Cl    -1.115126   -0.069751    0.000000
  O      0.828596    0.523718    0.000000
  O      1.642407   -0.369157    0.000000

 Total Charge           Charge          ....    0
 Multiplicity           Mult            ....    2
 Number of Electrons    NEL             ....   33
 Basis Dimension        Dim             ....   48

ORBITAL ENERGIES
----------------
                 SPIN UP ORBITALS
  NO   OCC          E(Eh)            E(eV)
   0   1.0000    -102.313482     -2784.0914
   1   1.0000     -19.722006      -536.6631
   2   1.0000     -19.683556      -535.6168
   3   1.0000      -9.778896      -266.0973
   4   1.0000      -7.460721      -203.0165
   5   1.0000      -7.458482      -202.9556
   6   1.0000      -7.458217      -202.9484
   7   1.0000      -1.469404       -39.9845
   8   1.0000      -0.992179       -26.9986
   9   1.0000      -0.857965       -23.3464
  10   1.0000      -0.684596       -18.6288
  11   1.0000      -0.666971       -18.1492
  12   1.0000      -0.652930       -17.7671
  13   1.0000      -0.422979       -11.5098
  14   1.0000      -0.410678       -11.1751
  15   1.0000      -0.369750       -10.0614
  16   1.0000      -0.361158        -9.8276
  17   0.0000      -0.132384        -3.6023
  18   0.0000       0.226917         6.1747
  19   0.0000       0.506170        13.7736
  20   0.0000       0.706331        19.2203
  21   0.0000       0.744937        20.2708

                 SPIN DOWN ORBITALS
  NO   OCC          E(Eh)            E(eV)
   0   1.0000    -102.318984     -2784.2411
   1   1.0000     -19.697510      -535.9965
   2   1.0000     -19.651602      -534.7473
   3   1.0000      -9.784232      -266.2425
   4   1.0000      -7.480736      -203.5612
   5   1.0000      -7.461409      -203.0353
   6   1.0000      -7.461229      -203.0304
   7   1.0000      -1.410936       -38.3935
   8   1.0000      -0.945373       -25.7249
   9   1.0000      -0.854224       -23.2446
  10   1.0000      -0.625614       -17.0238
  11   1.0000      -0.583454       -15.8766
  12   1.0000      -0.554975       -15.1016
  13   1.0000      -0.381939       -10.3931
  14   1.0000      -0.379238       -10.3196
  15   1.0000      -0.377977       -10.2853
  16   0.0000      -0.101557        -2.7635
  17   0.0000      -0.099681        -2.7125
  18   0.0000       0.268141         7.2965
  19   0.0000       0.491868        13.3844
  20   0.0000       0.694756        18.9053

MULLIKEN ATOMIC CHARGES AND SPIN POPULATIONS
--------------------------------------------
   0 Cl:   -0.059891   -0.650700
   1 O :    0.020158    0.721169
   2 O :    0.039733    0.929531
Sum of atomic charges         :   -0.0000000

LOEWDIN ATOMIC CHARGES AND SPIN POPULATIONS
-------------------------------------------
   0 Cl:   -0.051323   -0.614194
   1 O :    0.026510    0.699447
   2 O :    0.024813    0.914747

  Mayer bond orders larger than 0.100000
B(  0-Cl,  1-O ) :   0.4361 B(  0-Cl,  2-O ) :   0.1609 B(  1-O ,  2-O ) :   1.8158

Dispersion correction           -0.000578580
FINAL SINGLE POINT ENERGY      -609.649627724142

DIPOLE MOMENT
-------------
                                X             Y             Z
Electronic contribution:     -1.17348      -0.04967      -0.00000
Nuclear contribution   :      1.53326       0.09591       0.00000
                        -----------------------------------------
Total Dipole Moment    :      0.35977       0.04623      -0.00000
                        -----------------------------------------
Magnitude (a.u.)       :      0.36273
Magnitude (Debye)      :      0.92199

Rotational constants in cm-1:     2.500761     0.171618     0.160597
Rotational constants in MHz : 74970.919583  5144.973445  4814.567694

                             ****ORCA TERMINATED NORMALLY****
TOTAL RUN TIME: 0 days 0 hours 1 minutes 51 seconds 612 msec
