                         Program Version 5.0.3 -  RELEASE  -
|  1> ! PBEh-3c def2/J TightSCF DefGrid3
|  2>
|  3> %maxcore 60000
|  4>
|  5> %pal
|  6> nprocs 4
|  7> end
|  8>
|  9> *xyzfile 1 1 al+.xyz
| 10>
| 11>                          ****END OF INPUT****

CARTESIAN COORDINATES (ANGSTROEM)
---------------------------------
  Al     0.000000    0.000000    0.000000

 Total Charge           Charge          ....    1
 Multiplicity           Mult            ....    1
 Number of Electrons    NEL             ....   12
 Basis Dimension        Dim             ....   18

ORBITAL ENERGIES
----------------

  NO   OCC          E(Eh)            E(eV)
   0   2.0000     -56.952773     -1549.7637
   1   2.0000      -4.682982      -127.4304
   2   2.0000      -3.167794       -86.2000
   3   2.0000      -3.167794       -86.2000
   4   2.0000      -3.167793       -86.2000
   5   2.0000      -0.604183       -16.4406
   6   0.0000      -0.285185        -7.7603
   7   0.0000      -0.285185        -7.7603
   8   0.0000      -0.285185        -7.7603
   9   0.0000      -0.068316        -1.8590
  10   0.0000       0.118742         3.2311

MULLIKEN ATOMIC CHARGES
-----------------------
   0 Al:    1.000000
Sum of atomic charges:    1.0000000

LOEWDIN ATOMIC CHARGES
----------------------
   0 Al:    1.000000

Dispersion correction            0.000000000
FINAL SINGLE POINT ENERGY      -241.803162141232

DIPOLE MOMENT
-------------
                                X             Y             Z
Electronic contribution:      0.00000       0.00000      -0.00001
Nuclear contribution   :      0.00000       0.00000       0.00000
                        -----------------------------------------
Total Dipole Moment    :      0.00000       0.00000      -0.00001
                        -----------------------------------------
Magnitude (a.u.)       :      0.00001
Magnitude (Debye)      :      0.00002

Rotational constants in cm-1:     0.000000     0.000000     0.000000
Rotational constants in MHz :     0.000000     0.000000     0.000000

                             ****ORCA TERMINATED NORMALLY****
TOTAL RUN TIME: 0 days 0 hours 0 minutes 5 seconds 608 msec
