                         Program Version 5.0.3 -  RELEASE  -
|  1> ! PBEh-3c def2/J TightSCF DefGrid3
|  2>
|  3> %maxcore 60000
|  4>
|  5> %pal
|  6> nprocs 4
|  7> end
|  8>
|  9> *xyzfile 1 1 008A.xyz
| 10>
| 11>                          ****END OF INPUT****

CARTESIAN COORDINATES (ANGSTROEM)
---------------------------------
  C      0.025550    0.030260    0.091820
  N      0.025550    0.030260    1.474120
  C      1.302270    0.030260    1.904800
  N      2.112150   -0.117010    0.838030
  C      1.344510   -0.062760   -0.310280
  C     -1.090660    0.438170    2.330270
  C      3.556990    0.111390    0.913180
  H      1.618640    0.037540    2.940750
  H      1.782390   -0.109900   -1.302790
  H     -0.891480    0.078610   -0.487630
  H     -2.030360    0.200550    1.816460
  H     -1.038330   -0.115050    3.276770
  H     -0.984090    1.518930    2.512250
  H      3.968550   -0.464490    1.752010
  H      4.013760   -0.227100   -0.025070
  H      3.708630    1.189430    1.078440

 Total Charge           Charge          ....    1
 Multiplicity           Mult            ....    1
 Number of Electrons    NEL             ....   52
 Basis Dimension        Dim             ....  123

ORBITAL ENERGIES
----------------

  NO   OCC          E(Eh)            E(eV)
   0   2.0000     -14.914697      -405.8495
   1   2.0000     -14.914638      -405.8479
   2   2.0000     -10.723690      -291.8064
   3   2.0000     -10.674897      -290.4787
   4   2.0000     -10.674220      -290.4603
   5   2.0000     -10.654410      -289.9212
   6   2.0000     -10.654395      -289.9208
   7   2.0000      -1.355071       -36.8734
   8   2.0000      -1.233046       -33.5529
   9   2.0000      -1.062578       -28.9142
  10   2.0000      -1.021010       -27.7831
  11   2.0000      -0.960230       -26.1292
  12   2.0000      -0.887021       -24.1371
  13   2.0000      -0.859209       -23.3803
  14   2.0000      -0.795187       -21.6381
  15   2.0000      -0.743327       -20.2269
  16   2.0000      -0.711107       -19.3502
  17   2.0000      -0.709951       -19.3187
  18   2.0000      -0.693304       -18.8658
  19   2.0000      -0.687908       -18.7189
  20   2.0000      -0.678487       -18.4626
  21   2.0000      -0.634161       -17.2564
  22   2.0000      -0.629587       -17.1319
  23   2.0000      -0.620912       -16.8959
  24   2.0000      -0.528295       -14.3756
  25   2.0000      -0.476189       -12.9578
  26   0.0000      -0.176513        -4.8032
  27   0.0000      -0.127424        -3.4674
  28   0.0000      -0.037829        -1.0294
  29   0.0000      -0.027201        -0.7402
  30   0.0000      -0.008779        -0.2389

MULLIKEN ATOMIC CHARGES
-----------------------
   0 C :   -0.055738
   1 N :   -0.410753
   2 C :    0.275114
   3 N :   -0.410743
   4 C :   -0.055784
   5 C :   -0.519011
   6 C :   -0.519014
   7 H :    0.336152
   8 H :    0.323783
   9 H :    0.323765
  10 H :    0.286433
  11 H :    0.283279
  12 H :    0.286420
  13 H :    0.283203
  14 H :    0.286453
  15 H :    0.286441
Sum of atomic charges:    1.0000000

LOEWDIN ATOMIC CHARGES
----------------------
   0 C :   -0.062913
   1 N :    0.009930
   2 C :    0.046775
   3 N :    0.009900
   4 C :   -0.062939
   5 C :   -0.230492
   6 C :   -0.230481
   7 H :    0.181400
   8 H :    0.180261
   9 H :    0.180254
  10 H :    0.165467
  11 H :    0.162187
  12 H :    0.161514
  13 H :    0.162163
  14 H :    0.165466
  15 H :    0.161508

  Mayer bond orders larger than 0.100000
B(  0-C ,  1-N ) :   1.1512 B(  0-C ,  4-C ) :   1.6235 B(  0-C ,  9-H ) :   0.8698
B(  1-N ,  2-C ) :   1.2849 B(  1-N ,  5-C ) :   0.8705 B(  2-C ,  3-N ) :   1.2848
B(  2-C ,  7-H ) :   0.8628 B(  3-N ,  4-C ) :   1.1513 B(  3-N ,  6-C ) :   0.8706
B(  4-C ,  8-H ) :   0.8698 B(  5-C , 10-H ) :   0.9006 B(  5-C , 11-H ) :   0.8966
B(  5-C , 12-H ) :   0.8896 B(  6-C , 13-H ) :   0.8966 B(  6-C , 14-H ) :   0.9005
B(  6-C , 15-H ) :   0.8895

Dispersion correction           -0.007542202
FINAL SINGLE POINT ENERGY      -304.545284438018

DIPOLE MOMENT
-------------
                                X             Y             Z
Electronic contribution:     -0.54287      -1.08280      -1.53062
Nuclear contribution   :      0.66400       1.32631       1.87273
                        -----------------------------------------
Total Dipole Moment    :      0.12114       0.24351       0.34211
                        -----------------------------------------
Magnitude (a.u.)       :      0.43705
Magnitude (Debye)      :      1.11088

Rotational constants in cm-1:     0.217516     0.069583     0.054304
Rotational constants in MHz :  6520.979168  2086.052856  1627.978534

                             ****ORCA TERMINATED NORMALLY****
TOTAL RUN TIME: 0 days 0 hours 1 minutes 24 seconds 191 msec
