                         Program Version 5.0.3 -  RELEASE  -
|  1> ! PBEh-3c def2/J TightSCF DefGrid3
|  2>
|  3> %maxcore 60000
|  4>
|  5> %pal
|  6> nprocs 4
|  7> end
|  8>
|  9> *xyzfile 1 1 s4o42.xyz
| 10>
| 11>                          ****END OF INPUT****

CARTESIAN COORDINATES (ANGSTROEM)
---------------------------------
  S     -2.345068    0.451855    0.000000
  O     -1.609914   -0.317114   -1.291320
  S     -0.356850    0.386046   -2.063477
  O      0.979081   -0.354709   -1.280720
  S      1.573622    0.396878    0.000000
  O      0.979081   -0.354709    1.280720
  S     -0.356850    0.386046    2.063477
  O     -1.609914   -0.317114    1.291320
  H      2.746811   -0.277178    0.000000

 Total Charge           Charge          ....    1
 Multiplicity           Mult            ....    1
 Number of Electrons    NEL             ....   96
 Basis Dimension        Dim             ....  134

ORBITAL ENERGIES
----------------

  NO   OCC          E(Eh)            E(eV)
   0   2.0000     -90.003874     -2449.1299
   1   2.0000     -89.889208     -2446.0097
   2   2.0000     -89.889199     -2446.0094
   3   2.0000     -89.865244     -2445.3576
   4   2.0000     -19.807417      -538.9872
   5   2.0000     -19.807361      -538.9857
   6   2.0000     -19.770174      -537.9738
   7   2.0000     -19.770165      -537.9735
   8   2.0000      -8.629702      -234.8261
   9   2.0000      -8.518363      -231.7964
  10   2.0000      -8.518360      -231.7964
  11   2.0000      -8.495064      -231.1624
  12   2.0000      -6.521095      -177.4480
  13   2.0000      -6.518103      -177.3666
  14   2.0000      -6.511910      -177.1981
  15   2.0000      -6.412719      -174.4990
  16   2.0000      -6.412717      -174.4989
  17   2.0000      -6.407725      -174.3631
  18   2.0000      -6.407722      -174.3630
  19   2.0000      -6.394770      -174.0105
  20   2.0000      -6.394766      -174.0104
  21   2.0000      -6.388953      -173.8523
  22   2.0000      -6.384725      -173.7372
  23   2.0000      -6.371659      -173.3817
  24   2.0000      -1.473752       -40.1028
  25   2.0000      -1.414565       -38.4923
  26   2.0000      -1.402311       -38.1588
  27   2.0000      -1.356672       -36.9169
  28   2.0000      -1.119945       -30.4752
  29   2.0000      -1.021827       -27.8053
  30   2.0000      -1.003581       -27.3088
  31   2.0000      -0.898226       -24.4420
  32   2.0000      -0.840126       -22.8610
  33   2.0000      -0.835754       -22.7420
  34   2.0000      -0.792248       -21.5582
  35   2.0000      -0.781806       -21.2740
  36   2.0000      -0.736601       -20.0439
  37   2.0000      -0.717670       -19.5288
  38   2.0000      -0.697837       -18.9891
  39   2.0000      -0.690999       -18.8030
  40   2.0000      -0.676164       -18.3994
  41   2.0000      -0.632067       -17.1994
  42   2.0000      -0.610415       -16.6102
  43   2.0000      -0.603841       -16.4314
  44   2.0000      -0.602974       -16.4078
  45   2.0000      -0.497534       -13.5386
  46   2.0000      -0.485491       -13.2109
  47   2.0000      -0.472076       -12.8458
  48   0.0000      -0.244228        -6.6458
  49   0.0000      -0.234538        -6.3821
  50   0.0000      -0.205448        -5.5905
  51   0.0000      -0.184580        -5.0227
  52   0.0000      -0.173350        -4.7171

MULLIKEN ATOMIC CHARGES
-----------------------
   0 S :    0.696984
   1 O :   -0.586906
   2 S :    0.712779
   3 O :   -0.593501
   4 S :    0.935998
   5 O :   -0.593501
   6 S :    0.712779
   7 O :   -0.586906
   8 H :    0.302275
Sum of atomic charges:    1.0000000

LOEWDIN ATOMIC CHARGES
----------------------
   0 S :    0.555702
   1 O :   -0.446636
   2 S :    0.578070
   3 O :   -0.452429
   4 S :    0.912653
   5 O :   -0.452429
   6 S :    0.578070
   7 O :   -0.446636
   8 H :    0.173636

  Mayer bond orders larger than 0.100000
B(  0-S ,  1-O ) :   0.8881 B(  0-S ,  7-O ) :   0.8881 B(  1-O ,  2-S ) :   1.0054
B(  2-S ,  3-O ) :   0.7726 B(  3-O ,  4-S ) :   1.0848 B(  4-S ,  5-O ) :   1.0848
B(  4-S ,  8-H ) :   0.8402 B(  5-O ,  6-S ) :   0.7726 B(  6-S ,  7-O ) :   1.0054

Dispersion correction           -0.006518456
FINAL SINGLE POINT ENERGY     -1891.351275425745

DIPOLE MOMENT
-------------
                                X             Y             Z
Electronic contribution:     -0.90437       1.52059      -0.00000
Nuclear contribution   :      2.89798      -0.46454      -0.00000
                        -----------------------------------------
Total Dipole Moment    :      1.99362       1.05605      -0.00000
                        -----------------------------------------
Magnitude (a.u.)       :      2.25605
Magnitude (Debye)      :      5.73442

Rotational constants in cm-1:     0.043566     0.041891     0.022712
Rotational constants in MHz :  1306.063226  1255.848021   680.876419

                             ****ORCA TERMINATED NORMALLY****
TOTAL RUN TIME: 0 days 0 hours 1 minutes 30 seconds 711 msec
