                         Program Version 5.0.3 -  RELEASE  -
|  1> ! PBEh-3c def2/J TightSCF DefGrid3
|  2>
|  3> %maxcore 60000
|  4>
|  5> %pal
|  6> nprocs 4
|  7> end
|  8>
|  9> *xyzfile 0 1 B42.xyz
| 10>
| 11>                          ****END OF INPUT****

CARTESIAN COORDINATES (ANGSTROEM)
---------------------------------
  C     -1.836876    0.228475   -0.105175
  H     -2.584714    0.375113   -0.890392
  O     -1.569303   -1.164858    0.070665
  C     -0.552649    0.940735   -0.491676
  H     -0.163231    0.514253   -1.416564
  H     -0.818638    1.978864   -0.704550
  C      0.539917    0.908565    0.583341
  H      0.091444    1.020906    1.574478
  H      1.214585    1.754900    0.439648
  H     -2.395636   -1.591964    0.310123
  H     -2.230942    0.660279    0.821619
  C      1.387079   -0.354190    0.568468
  H      2.080413   -0.337201    1.415443
  H      0.750705   -1.234177    0.650718
  O      2.114641   -0.364409   -0.663805
  H      2.468475   -1.248349   -0.785150

 Total Charge           Charge          ....    0
 Multiplicity           Mult            ....    1
 Number of Electrons    NEL             ....   50
 Basis Dimension        Dim             ....  110

ORBITAL ENERGIES
----------------

  NO   OCC          E(Eh)            E(eV)
   0   2.0000     -19.484303      -530.1948
   1   2.0000     -19.471456      -529.8452
   2   2.0000     -10.478166      -285.1254
   3   2.0000     -10.463641      -284.7302
   4   2.0000     -10.423077      -283.6263
   5   2.0000     -10.422842      -283.6200
   6   2.0000      -1.119516       -30.4636
   7   2.0000      -1.106538       -30.1104
   8   2.0000      -0.872117       -23.7315
   9   2.0000      -0.791472       -21.5371
  10   2.0000      -0.696850       -18.9623
  11   2.0000      -0.632733       -17.2175
  12   2.0000      -0.580471       -15.7954
  13   2.0000      -0.567983       -15.4556
  14   2.0000      -0.521445       -14.1892
  15   2.0000      -0.500171       -13.6103
  16   2.0000      -0.466116       -12.6837
  17   2.0000      -0.454193       -12.3592
  18   2.0000      -0.424311       -11.5461
  19   2.0000      -0.409641       -11.1469
  20   2.0000      -0.387003       -10.5309
  21   2.0000      -0.370149       -10.0723
  22   2.0000      -0.356690        -9.7060
  23   2.0000      -0.327937        -8.9236
  24   2.0000      -0.306770        -8.3476
  25   0.0000       0.126332         3.4377
  26   0.0000       0.143761         3.9119
  27   0.0000       0.174432         4.7465
  28   0.0000       0.190326         5.1790
  29   0.0000       0.197750         5.3810

MULLIKEN ATOMIC CHARGES
-----------------------
   0 C :   -0.151993
   1 H :    0.187462
   2 O :   -0.633150
   3 C :   -0.453387
   4 H :    0.250174
   5 H :    0.212049
   6 C :   -0.439849
   7 H :    0.201462
   8 H :    0.228585
   9 H :    0.416626
  10 H :    0.173009
  11 C :   -0.161283
  12 H :    0.176565
  13 H :    0.215813
  14 O :   -0.637074
  15 H :    0.414991
Sum of atomic charges:   -0.0000000

LOEWDIN ATOMIC CHARGES
----------------------
   0 C :   -0.091400
   1 H :    0.099538
   2 O :   -0.421483
   3 C :   -0.254482
   4 H :    0.141540
   5 H :    0.127335
   6 C :   -0.249585
   7 H :    0.122108
   8 H :    0.130988
   9 H :    0.307671
  10 H :    0.093754
  11 C :   -0.096846
  12 H :    0.094763
  13 H :    0.113945
  14 O :   -0.424884
  15 H :    0.307039

  Mayer bond orders larger than 0.100000
B(  0-C ,  1-H ) :   0.9113 B(  0-C ,  2-O ) :   1.0018 B(  0-C ,  3-C ) :   0.9874
B(  0-C , 10-H ) :   0.9065 B(  2-O ,  9-H ) :   0.7932 B(  3-C ,  4-H ) :   0.8982
B(  3-C ,  5-H ) :   0.9244 B(  3-C ,  6-C ) :   0.9708 B(  6-C ,  7-H ) :   0.9228
B(  6-C ,  8-H ) :   0.9178 B(  6-C , 11-C ) :   0.9848 B( 11-C , 12-H ) :   0.9084
B( 11-C , 13-H ) :   0.8915 B( 11-C , 14-O ) :   0.9984 B( 14-O , 15-H ) :   0.7960

Dispersion correction           -0.006622066
FINAL SINGLE POINT ENERGY      -308.204354543567

DIPOLE MOMENT
-------------
                                X             Y             Z
Electronic contribution:      0.96185      -2.26745      -1.06991
Nuclear contribution   :     -1.64520       1.94692       1.46502
                        -----------------------------------------
Total Dipole Moment    :     -0.68334      -0.32053       0.39511
                        -----------------------------------------
Magnitude (a.u.)       :      0.85194
Magnitude (Debye)      :      2.16547

Rotational constants in cm-1:     0.189235     0.070079     0.061576
Rotational constants in MHz :  5673.130784  2100.921260  1846.008934

                             ****ORCA TERMINATED NORMALLY****
TOTAL RUN TIME: 0 days 0 hours 1 minutes 27 seconds 416 msec
