                         Program Version 5.0.3 -  RELEASE  -
|  1> ! PBEh-3c def2/J TightSCF DefGrid3
|  2>
|  3> %maxcore 60000
|  4>
|  5> %pal
|  6> nprocs 4
|  7> end
|  8>
|  9> *xyzfile 0 1 al2h6.xyz
| 10>
| 11>                          ****END OF INPUT****

CARTESIAN COORDINATES (ANGSTROEM)
---------------------------------
  Al     0.000000    0.000000   -1.306564
  Al     0.000000    0.000000    1.306564
  H      0.000000    1.145493    0.000000
  H      0.000000   -1.145493    0.000000
  H      1.410721    0.000000   -1.996773
  H     -1.410721    0.000000   -1.996773
  H     -1.410721    0.000000    1.996773
  H      1.410721    0.000000    1.996773

 Total Charge           Charge          ....    0
 Multiplicity           Mult            ....    1
 Number of Electrons    NEL             ....   32
 Basis Dimension        Dim             ....   48

ORBITAL ENERGIES
----------------

  NO   OCC          E(Eh)            E(eV)
   0   2.0000     -56.613410     -1540.5292
   1   2.0000     -56.613355     -1540.5277
   2   2.0000      -4.356807      -118.5547
   3   2.0000      -4.356754      -118.5533
   4   2.0000      -2.848136       -77.5017
   5   2.0000      -2.848029       -77.4988
   6   2.0000      -2.845588       -77.4324
   7   2.0000      -2.844931       -77.4145
   8   2.0000      -2.841595       -77.3237
   9   2.0000      -2.841555       -77.3227
  10   2.0000      -0.580241       -15.7892
  11   2.0000      -0.444819       -12.1041
  12   2.0000      -0.402130       -10.9425
  13   2.0000      -0.381284       -10.3753
  14   2.0000      -0.370041       -10.0693
  15   2.0000      -0.354677        -9.6512
  16   0.0000      -0.024766        -0.6739
  17   0.0000       0.048502         1.3198
  18   0.0000       0.048600         1.3225
  19   0.0000       0.051006         1.3879
  20   0.0000       0.056395         1.5346

MULLIKEN ATOMIC CHARGES
-----------------------
   0 Al:    0.341475
   1 Al:    0.341475
   2 H :   -0.173849
   3 H :   -0.173849
   4 H :   -0.083813
   5 H :   -0.083813
   6 H :   -0.083813
   7 H :   -0.083813
Sum of atomic charges:    0.0000000

LOEWDIN ATOMIC CHARGES
----------------------
   0 Al:    0.143011
   1 Al:    0.143011
   2 H :   -0.017287
   3 H :   -0.017287
   4 H :   -0.062862
   5 H :   -0.062862
   6 H :   -0.062862
   7 H :   -0.062862

  Mayer bond orders larger than 0.100000
B(  0-Al,  1-Al) :   0.3113 B(  0-Al,  2-H ) :   0.4549 B(  0-Al,  3-H ) :   0.4549
B(  0-Al,  4-H ) :   0.9644 B(  0-Al,  5-H ) :   0.9644 B(  1-Al,  2-H ) :   0.4549
B(  1-Al,  3-H ) :   0.4549 B(  1-Al,  6-H ) :   0.9644 B(  1-Al,  7-H ) :   0.9644

Dispersion correction           -0.002148252
FINAL SINGLE POINT ENERGY      -487.785528096440

DIPOLE MOMENT
-------------
                                X             Y             Z
Electronic contribution:     -0.00000      -0.00000      -0.00000
Nuclear contribution   :      0.00000       0.00000       0.00000
                        -----------------------------------------
Total Dipole Moment    :     -0.00000      -0.00000      -0.00000
                        -----------------------------------------
Magnitude (a.u.)       :      0.00000
Magnitude (Debye)      :      0.00000

Rotational constants in cm-1:     1.579981     0.152085     0.145046
Rotational constants in MHz : 47366.653274  4559.386754  4348.373189

                             ****ORCA TERMINATED NORMALLY****
TOTAL RUN TIME: 0 days 0 hours 0 minutes 23 seconds 131 msec
