                         Program Version 5.0.3 -  RELEASE  -
|  1> ! PBEh-3c def2/J TightSCF DefGrid3
|  2>
|  3> %maxcore 60000
|  4>
|  5> %pal
|  6> nprocs 4
|  7> end
|  8>
|  9> *xyzfile 0 1 4b.xyz
| 10>
| 11>                          ****END OF INPUT****

CARTESIAN COORDINATES (ANGSTROEM)
---------------------------------
  P     -0.134083   -1.477467    0.000000
  H     -1.098446   -1.417328   -1.034272
  H     -1.098446   -1.417328    1.034272
  Cl     0.134083   -3.541032    0.000000

 Total Charge           Charge          ....    0
 Multiplicity           Mult            ....    1
 Number of Electrons    NEL             ....   34
 Basis Dimension        Dim             ....   40

ORBITAL ENERGIES
----------------

  NO   OCC          E(Eh)            E(eV)
   0   2.0000    -102.297856     -2783.6662
   1   2.0000     -77.785243     -2116.6441
   2   2.0000      -9.765238      -265.7256
   3   2.0000      -7.452748      -202.7996
   4   2.0000      -7.444784      -202.5829
   5   2.0000      -7.444366      -202.5715
   6   2.0000      -6.861569      -186.7128
   7   2.0000      -4.952540      -134.7655
   8   2.0000      -4.950855      -134.7196
   9   2.0000      -4.949117      -134.6723
  10   2.0000      -0.924992       -25.1703
  11   2.0000      -0.710340       -19.3293
  12   2.0000      -0.479080       -13.0364
  13   2.0000      -0.467094       -12.7103
  14   2.0000      -0.402425       -10.9505
  15   2.0000      -0.365288        -9.9400
  16   2.0000      -0.313281        -8.5248
  17   0.0000      -0.006999        -0.1905
  18   0.0000       0.053753         1.4627
  19   0.0000       0.116292         3.1645
  20   0.0000       0.341787         9.3005
  21   0.0000       0.446152        12.1404

MULLIKEN ATOMIC CHARGES
-----------------------
   0 P :    0.073584
   1 H :    0.094608
   2 H :    0.094608
   3 Cl:   -0.262799
Sum of atomic charges:   -0.0000000

LOEWDIN ATOMIC CHARGES
----------------------
   0 P :    0.085276
   1 H :    0.032510
   2 H :    0.032510
   3 Cl:   -0.150296

  Mayer bond orders larger than 0.100000
B(  0-P ,  1-H ) :   0.9421 B(  0-P ,  2-H ) :   0.9421 B(  0-P ,  3-Cl) :   0.9919

Dispersion correction           -0.001194293
FINAL SINGLE POINT ENERGY      -801.853583139236

DIPOLE MOMENT
-------------
                                X             Y             Z
Electronic contribution:      1.65441      -1.94002      -0.00000
Nuclear contribution   :     -2.12971       2.49910       0.00000
                        -----------------------------------------
Total Dipole Moment    :     -0.47530       0.55908      -0.00000
                        -----------------------------------------
Magnitude (a.u.)       :      0.73381
Magnitude (Debye)      :      1.86520

Rotational constants in cm-1:     4.392055     0.220007     0.218652
Rotational constants in MHz : 131670.509748  6595.638628  6555.012284

                             ****ORCA TERMINATED NORMALLY****
TOTAL RUN TIME: 0 days 0 hours 1 minutes 2 seconds 123 msec
