                         Program Version 5.0.3 -  RELEASE  -
|  1> ! PBEh-3c def2/J TightSCF DefGrid3
|  2>
|  3> %maxcore 60000
|  4>
|  5> %pal
|  6> nprocs 4
|  7> end
|  8>
|  9> *xyzfile 0 1 114.xyz
| 10>
| 11>                          ****END OF INPUT****

CARTESIAN COORDINATES (ANGSTROEM)
---------------------------------
  O      4.143459    1.298973   -0.441000
  C      3.732460    0.186973   -0.207000
  O      4.068460   -0.872027   -0.950000
  H      3.656459   -1.678027   -0.557000
  C      2.808460   -0.122027    0.968000
  H      2.585459    0.806973    1.480000
  H      3.332459   -0.796027    1.649000
  N      1.559459   -0.752027    0.581000
  H      0.736460   -0.180027    0.450000
  C      1.518460   -2.050027    0.240000
  O      2.531459   -2.758027    0.184000
  C      0.164460   -2.643027   -0.084000
  H      0.127460   -3.615027    0.408000
  H      0.116459   -2.816027   -1.159000
  N     -0.955540   -1.813027    0.263000
  H     -1.127540   -1.504027    1.210000
  C     -1.888540   -1.447027   -0.652000
  O     -1.850540   -1.746027   -1.839000
  C     -2.994541   -0.559027   -0.096000
  N     -2.972541   -0.530027    1.368000
  H     -3.456541   -1.341027    1.736000
  H     -3.486541    0.275973    1.703000
  H     -3.929541   -0.951027   -0.505000
  C     -2.793541    0.848973   -0.679000
  H     -2.998541    0.784973   -1.747000
  H     -3.544541    1.510973   -0.240000
  C     -1.415541    1.412973   -0.473000
  C     -0.454540    1.296973   -1.485000
  H     -0.715540    0.784973   -2.403000
  C      0.821460    1.835973   -1.324000
  H      1.554460    1.742973   -2.114000
  C      1.157459    2.500973   -0.145000
  H      2.148459    2.915973   -0.028000
  C      0.212459    2.607973    0.876000
  H      0.462459    3.123973    1.794000
  C     -1.061540    2.065973    0.713000
  H     -1.792541    2.170973    1.505000

 Total Charge           Charge          ....    0
 Multiplicity           Mult            ....    1
 Number of Electrons    NEL             ....  148
 Basis Dimension        Dim             ....  334

ORBITAL ENERGIES
----------------

  NO   OCC          E(Eh)            E(eV)
   0   2.0000     -19.517453      -531.0969
   1   2.0000     -19.489815      -530.3448
   2   2.0000     -19.473409      -529.8984
   3   2.0000     -19.472500      -529.8737
   4   2.0000     -14.690818      -399.7575
   5   2.0000     -14.679030      -399.4367
   6   2.0000     -14.654628      -398.7727
   7   2.0000     -10.575322      -287.7691
   8   2.0000     -10.573454      -287.7183
   9   2.0000     -10.560176      -287.3570
  10   2.0000     -10.502668      -285.7921
  11   2.0000     -10.498617      -285.6819
  12   2.0000     -10.498192      -285.6703
  13   2.0000     -10.473151      -284.9889
  14   2.0000     -10.467601      -284.8379
  15   2.0000     -10.464024      -284.7406
  16   2.0000     -10.462605      -284.7020
  17   2.0000     -10.458509      -284.5905
  18   2.0000     -10.457450      -284.5617
  19   2.0000     -10.456180      -284.5271
  20   2.0000      -1.203258       -32.7423
  21   2.0000      -1.172642       -31.9092
  22   2.0000      -1.158246       -31.5175
  23   2.0000      -1.113789       -30.3077
  24   2.0000      -1.058841       -28.8125
  25   2.0000      -1.042458       -28.3667
  26   2.0000      -1.017965       -27.7002
  27   2.0000      -0.970738       -26.4151
  28   2.0000      -0.892179       -24.2774
  29   2.0000      -0.865861       -23.5613
  30   2.0000      -0.848328       -23.0842
  31   2.0000      -0.827415       -22.5151
  32   2.0000      -0.811568       -22.0839
  33   2.0000      -0.742417       -20.2022
  34   2.0000      -0.695964       -18.9382
  35   2.0000      -0.692837       -18.8531
  36   2.0000      -0.677462       -18.4347
  37   2.0000      -0.669733       -18.2243
  38   2.0000      -0.664445       -18.0805
  39   2.0000      -0.629801       -17.1378
  40   2.0000      -0.616301       -16.7704
  41   2.0000      -0.595305       -16.1991
  42   2.0000      -0.590574       -16.0703
  43   2.0000      -0.576711       -15.6931
  44   2.0000      -0.564031       -15.3481
  45   2.0000      -0.553687       -15.0666
  46   2.0000      -0.542448       -14.7608
  47   2.0000      -0.532932       -14.5018
  48   2.0000      -0.526263       -14.3203
  49   2.0000      -0.518383       -14.1059
  50   2.0000      -0.511832       -13.9277
  51   2.0000      -0.499900       -13.6030
  52   2.0000      -0.495513       -13.4836
  53   2.0000      -0.490053       -13.3350
  54   2.0000      -0.486955       -13.2507
  55   2.0000      -0.477127       -12.9833
  56   2.0000      -0.463321       -12.6076
  57   2.0000      -0.458395       -12.4736
  58   2.0000      -0.447728       -12.1833
  59   2.0000      -0.444470       -12.0946
  60   2.0000      -0.437330       -11.9004
  61   2.0000      -0.435309       -11.8454
  62   2.0000      -0.422952       -11.5091
  63   2.0000      -0.404648       -11.0110
  64   2.0000      -0.402722       -10.9586
  65   2.0000      -0.362102        -9.8533
  66   2.0000      -0.357667        -9.7326
  67   2.0000      -0.348204        -9.4751
  68   2.0000      -0.345209        -9.3936
  69   2.0000      -0.321038        -8.7359
  70   2.0000      -0.314689        -8.5631
  71   2.0000      -0.312530        -8.5044
  72   2.0000      -0.304480        -8.2853
  73   2.0000      -0.297027        -8.0825
  74   0.0000       0.000885         0.0241
  75   0.0000       0.001661         0.0452
  76   0.0000       0.027826         0.7572
  77   0.0000       0.042620         1.1598
  78   0.0000       0.050109         1.3635

MULLIKEN ATOMIC CHARGES
-----------------------
   0 O :   -0.393773
   1 C :    0.548921
   2 O :   -0.586885
   3 H :    0.476226
   4 C :   -0.460356
   5 H :    0.274364
   6 H :    0.279127
   7 N :   -0.618612
   8 H :    0.417557
   9 C :    0.536713
  10 O :   -0.488883
  11 C :   -0.364621
  12 H :    0.268424
  13 H :    0.301790
  14 N :   -0.657973
  15 H :    0.391794
  16 C :    0.535088
  17 O :   -0.426331
  18 C :   -0.190099
  19 N :   -0.781258
  20 H :    0.337843
  21 H :    0.339293
  22 H :    0.250004
  23 C :   -0.534433
  24 H :    0.274710
  25 H :    0.237536
  26 C :    0.118941
  27 C :   -0.278339
  28 H :    0.250323
  29 C :   -0.242918
  30 H :    0.253507
  31 C :   -0.264640
  32 H :    0.273644
  33 C :   -0.235950
  34 H :    0.226640
  35 C :   -0.268878
  36 H :    0.201502
Sum of atomic charges:   -0.0000000

LOEWDIN ATOMIC CHARGES
----------------------
   0 O :   -0.222492
   1 C :    0.120803
   2 O :   -0.296870
   3 H :    0.328574
   4 C :   -0.190750
   5 H :    0.153884
   6 H :    0.155315
   7 N :   -0.207323
   8 H :    0.278918
   9 C :    0.112075
  10 O :   -0.305021
  11 C :   -0.168158
  12 H :    0.152126
  13 H :    0.179230
  14 N :   -0.243460
  15 H :    0.267217
  16 C :    0.105595
  17 O :   -0.277049
  18 C :   -0.102924
  19 N :   -0.465494
  20 H :    0.233364
  21 H :    0.231911
  22 H :    0.131282
  23 C :   -0.216316
  24 H :    0.155586
  25 H :    0.133981
  26 C :   -0.062078
  27 C :   -0.138135
  28 H :    0.149548
  29 C :   -0.135577
  30 H :    0.150646
  31 C :   -0.144158
  32 H :    0.154602
  33 C :   -0.148251
  34 H :    0.138426
  35 C :   -0.140457
  36 H :    0.131430

  Mayer bond orders larger than 0.100000
B(  0-O ,  1-C ) :   2.0299 B(  1-C ,  2-O ) :   1.2163 B(  1-C ,  4-C ) :   0.9051
B(  2-O ,  3-H ) :   0.6357 B(  3-H , 10-O ) :   0.1349 B(  4-C ,  5-H ) :   0.8947
B(  4-C ,  6-H ) :   0.8821 B(  4-C ,  7-N ) :   0.9358 B(  7-N ,  8-H ) :   0.7625
B(  7-N ,  9-C ) :   1.2178 B(  9-C , 10-O ) :   1.7946 B(  9-C , 11-C ) :   0.9295
B( 11-C , 12-H ) :   0.8957 B( 11-C , 13-H ) :   0.8651 B( 11-C , 14-N ) :   0.9300
B( 14-N , 15-H ) :   0.7631 B( 14-N , 16-C ) :   1.1393 B( 16-C , 17-O ) :   1.9833
B( 16-C , 18-C ) :   0.8975 B( 18-C , 19-N ) :   0.9952 B( 18-C , 22-H ) :   0.8900
B( 18-C , 23-C ) :   0.9618 B( 19-N , 20-H ) :   0.8534 B( 19-N , 21-H ) :   0.8466
B( 23-C , 24-H ) :   0.9026 B( 23-C , 25-H ) :   0.9157 B( 23-C , 26-C ) :   0.9408
B( 26-C , 27-C ) :   1.4010 B( 26-C , 35-C ) :   1.3890 B( 27-C , 28-H ) :   0.9047
B( 27-C , 29-C ) :   1.4156 B( 29-C , 30-H ) :   0.9077 B( 29-C , 31-C ) :   1.4282
B( 31-C , 32-H ) :   0.8892 B( 31-C , 33-C ) :   1.4049 B( 33-C , 34-H ) :   0.9189
B( 33-C , 35-C ) :   1.4255 B( 35-C , 36-H ) :   0.9287

Dispersion correction           -0.028947562
FINAL SINGLE POINT ENERGY      -968.748159424677

DIPOLE MOMENT
-------------
                                X             Y             Z
Electronic contribution:      8.80001      -3.06937      -3.26844
Nuclear contribution   :    -11.58171       3.15072       5.40485
                        -----------------------------------------
Total Dipole Moment    :     -2.78170       0.08135       2.13640
                        -----------------------------------------
Magnitude (a.u.)       :      3.50838
Magnitude (Debye)      :      8.91759

Rotational constants in cm-1:     0.016712     0.009596     0.007251
Rotational constants in MHz :   501.019643   287.674037   217.386659

                             ****ORCA TERMINATED NORMALLY****
TOTAL RUN TIME: 0 days 0 hours 6 minutes 28 seconds 109 msec
