                         Program Version 5.0.3 -  RELEASE  -
|  1> ! PBEh-3c def2/J TightSCF DefGrid3
|  2>
|  3> %maxcore 60000
|  4>
|  5> %pal
|  6> nprocs 4
|  7> end
|  8>
|  9> *xyzfile 0 1 E24.xyz
| 10>
| 11>                          ****END OF INPUT****

CARTESIAN COORDINATES (ANGSTROEM)
---------------------------------
  C     -1.126383   -0.030526    0.001800
  N      0.224786    0.496894   -0.004097
  H      0.362180    1.497958    0.002263
  C      1.355130   -0.255653   -0.002609
  O      2.486623    0.183453    0.001728
  H     -1.688627    0.300492   -0.874968
  H     -1.670572    0.267649    0.901753
  H     -1.079721   -1.119858   -0.019131
  H      1.136585   -1.340410   -0.006737

 Total Charge           Charge          ....    0
 Multiplicity           Mult            ....    1
 Number of Electrons    NEL             ....   32
 Basis Dimension        Dim             ....   70

ORBITAL ENERGIES
----------------

  NO   OCC          E(Eh)            E(eV)
   0   2.0000     -19.457985      -529.4787
   1   2.0000     -14.668281      -399.1442
   2   2.0000     -10.542928      -286.8877
   3   2.0000     -10.487930      -285.3911
   4   2.0000      -1.140989       -31.0479
   5   2.0000      -1.027820       -27.9684
   6   2.0000      -0.800151       -21.7732
   7   2.0000      -0.701519       -19.0893
   8   2.0000      -0.569883       -15.5073
   9   2.0000      -0.548787       -14.9333
  10   2.0000      -0.522155       -14.2086
  11   2.0000      -0.472245       -12.8504
  12   2.0000      -0.467192       -12.7129
  13   2.0000      -0.441645       -12.0178
  14   2.0000      -0.311281        -8.4704
  15   2.0000      -0.304806        -8.2942
  16   0.0000       0.066832         1.8186
  17   0.0000       0.135945         3.6993
  18   0.0000       0.151586         4.1249
  19   0.0000       0.177570         4.8319
  20   0.0000       0.198099         5.3906

MULLIKEN ATOMIC CHARGES
-----------------------
   0 C :   -0.474898
   1 N :   -0.585130
   2 H :    0.365644
   3 C :    0.278469
   4 O :   -0.401360
   5 H :    0.228027
   6 H :    0.227522
   7 H :    0.225406
   8 H :    0.136319
Sum of atomic charges:    0.0000000

LOEWDIN ATOMIC CHARGES
----------------------
   0 C :   -0.252252
   1 N :   -0.257699
   2 H :    0.258460
   3 C :    0.059616
   4 O :   -0.265769
   5 H :    0.124138
   6 H :    0.123522
   7 H :    0.133814
   8 H :    0.076170

  Mayer bond orders larger than 0.100000
B(  0-C ,  1-N ) :   0.9625 B(  0-C ,  5-H ) :   0.9126 B(  0-C ,  6-H ) :   0.9120
B(  0-C ,  7-H ) :   0.9200 B(  1-N ,  2-H ) :   0.8163 B(  1-N ,  3-C ) :   1.1708
B(  1-N ,  4-O ) :   0.1052 B(  3-C ,  4-O ) :   2.0213 B(  3-C ,  8-H ) :   0.8744

Dispersion correction           -0.002823499
FINAL SINGLE POINT ENERGY      -208.747674784674

DIPOLE MOMENT
-------------
                                X             Y             Z
Electronic contribution:      4.48180       0.78964      -0.00448
Nuclear contribution   :     -6.12733      -0.84772       0.00588
                        -----------------------------------------
Total Dipole Moment    :     -1.64553      -0.05809       0.00140
                        -----------------------------------------
Magnitude (a.u.)       :      1.64656
Magnitude (Debye)      :      4.18521

Rotational constants in cm-1:     1.496644     0.145414     0.135940
Rotational constants in MHz : 44868.250203  4359.412930  4075.389614

                             ****ORCA TERMINATED NORMALLY****
TOTAL RUN TIME: 0 days 0 hours 1 minutes 23 seconds 188 msec
