                         Program Version 5.0.3 -  RELEASE  -
|  1> ! PBEh-3c def2/J TightSCF DefGrid3
|  2>
|  3> %maxcore 60000
|  4>
|  5> %pal
|  6> nprocs 4
|  7> end
|  8>
|  9> *xyzfile 1 1 s4o41.xyz
| 10>
| 11>                          ****END OF INPUT****

CARTESIAN COORDINATES (ANGSTROEM)
---------------------------------
  S     -1.106143    0.585294    1.587775
  O     -1.629714    0.010129    0.000000
  S     -1.106143    0.585294   -1.587775
  O      0.217856   -0.283803   -1.848549
  S      1.749070    0.334396   -1.433543
  O      2.020253   -0.439077    0.000000
  S      1.749070    0.334396    1.433543
  O      0.217856   -0.283803    1.848549
  H     -2.112105   -0.842826    0.000000

 Total Charge           Charge          ....    1
 Multiplicity           Mult            ....    1
 Number of Electrons    NEL             ....   96
 Basis Dimension        Dim             ....  134

ORBITAL ENERGIES
----------------

  NO   OCC          E(Eh)            E(eV)
   0   2.0000     -89.911294     -2446.6107
   1   2.0000     -89.911256     -2446.6097
   2   2.0000     -89.867170     -2445.4100
   3   2.0000     -89.867142     -2445.4093
   4   2.0000     -19.858329      -540.3726
   5   2.0000     -19.785356      -538.3869
   6   2.0000     -19.785335      -538.3863
   7   2.0000     -19.764527      -537.8201
   8   2.0000      -8.540265      -232.3924
   9   2.0000      -8.540244      -232.3919
  10   2.0000      -8.497055      -231.2166
  11   2.0000      -8.497047      -231.2164
  12   2.0000      -6.435144      -175.1092
  13   2.0000      -6.435131      -175.1088
  14   2.0000      -6.429240      -174.9485
  15   2.0000      -6.429232      -174.9483
  16   2.0000      -6.416291      -174.5962
  17   2.0000      -6.416281      -174.5959
  18   2.0000      -6.391048      -173.9093
  19   2.0000      -6.391046      -173.9092
  20   2.0000      -6.386704      -173.7910
  21   2.0000      -6.386701      -173.7910
  22   2.0000      -6.373503      -173.4318
  23   2.0000      -6.373495      -173.4316
  24   2.0000      -1.468918       -39.9713
  25   2.0000      -1.410765       -38.3889
  26   2.0000      -1.404227       -38.2110
  27   2.0000      -1.358850       -36.9762
  28   2.0000      -1.089004       -29.6333
  29   2.0000      -1.025346       -27.9011
  30   2.0000      -0.995412       -27.0865
  31   2.0000      -0.932290       -25.3689
  32   2.0000      -0.840082       -22.8598
  33   2.0000      -0.831122       -22.6160
  34   2.0000      -0.777251       -21.1501
  35   2.0000      -0.774784       -21.0830
  36   2.0000      -0.733044       -19.9471
  37   2.0000      -0.705231       -19.1903
  38   2.0000      -0.703878       -19.1535
  39   2.0000      -0.687132       -18.6978
  40   2.0000      -0.668657       -18.1951
  41   2.0000      -0.637651       -17.3514
  42   2.0000      -0.609060       -16.5734
  43   2.0000      -0.609002       -16.5718
  44   2.0000      -0.516161       -14.0455
  45   2.0000      -0.506475       -13.7819
  46   2.0000      -0.474833       -12.9209
  47   2.0000      -0.471524       -12.8308
  48   0.0000      -0.277490        -7.5509
  49   0.0000      -0.215251        -5.8573
  50   0.0000      -0.192320        -5.2333
  51   0.0000      -0.190768        -5.1911
  52   0.0000      -0.182174        -4.9572

MULLIKEN ATOMIC CHARGES
-----------------------
   0 S :    0.756543
   1 O :   -0.716655
   2 S :    0.756543
   3 O :   -0.581789
   4 S :    0.702737
   5 O :   -0.591299
   6 S :    0.702737
   7 O :   -0.581789
   8 H :    0.552972
Sum of atomic charges:    1.0000000

LOEWDIN ATOMIC CHARGES
----------------------
   0 S :    0.613591
   1 O :   -0.403805
   2 S :    0.613591
   3 O :   -0.442573
   4 S :    0.561504
   5 O :   -0.448845
   6 S :    0.561504
   7 O :   -0.442573
   8 H :    0.387604

  Mayer bond orders larger than 0.100000
B(  0-S ,  1-O ) :   0.6209 B(  0-S ,  7-O ) :   1.0941 B(  1-O ,  2-S ) :   0.6209
B(  1-O ,  8-H ) :   0.6590 B(  2-S ,  3-O ) :   1.0941 B(  3-O ,  4-S ) :   0.8165
B(  4-S ,  5-O ) :   0.9461 B(  5-O ,  6-S ) :   0.9461 B(  6-S ,  7-O ) :   0.8165

Dispersion correction           -0.006454821
FINAL SINGLE POINT ENERGY     -1891.348617907114

DIPOLE MOMENT
-------------
                                X             Y             Z
Electronic contribution:      0.54115       1.47619      -0.00000
Nuclear contribution   :     -2.24518      -1.05111       0.00000
                        -----------------------------------------
Total Dipole Moment    :     -1.70403       0.42508      -0.00000
                        -----------------------------------------
Magnitude (a.u.)       :      1.75625
Magnitude (Debye)      :      4.46402

Rotational constants in cm-1:     0.042084     0.039527     0.021624
Rotational constants in MHz :  1261.661426  1184.975318   648.258290

                             ****ORCA TERMINATED NORMALLY****
TOTAL RUN TIME: 0 days 0 hours 1 minutes 40 seconds 342 msec
