                         Program Version 5.0.3 -  RELEASE  -
|  1> ! PBEh-3c def2/J TightSCF DefGrid3
|  2>
|  3> %maxcore 60000
|  4>
|  5> %pal
|  6> nprocs 4
|  7> end
|  8>
|  9> *xyzfile 1 1 26.xyz
| 10>
| 11>                          ****END OF INPUT****

CARTESIAN COORDINATES (ANGSTROEM)
---------------------------------
  Na     0.146762    0.286176    1.813657
  C      0.126847    1.517567   -0.742537
  C     -1.115654    0.848286   -0.666477
  C     -1.154194   -0.560781   -0.563728
  C      0.049758   -1.300588   -0.537072
  C      1.292272   -0.631317   -0.613167
  C      1.330821    0.777771   -0.715913
  H      2.223410   -1.205719   -0.618605
  H      2.291789    1.293823   -0.800852
  H      0.156097    2.606137   -0.848070
  H     -2.047947    1.418911   -0.713229
  H     -2.116318   -1.080600   -0.530946
  H      0.019351   -2.392922   -0.483624

 Total Charge           Charge          ....    1
 Multiplicity           Mult            ....    1
 Number of Electrons    NEL             ....   52
 Basis Dimension        Dim             ....  117

ORBITAL ENERGIES
----------------

  NO   OCC          E(Eh)            E(eV)
   0   2.0000     -39.179908     -1066.1395
   1   2.0000     -10.627470      -289.1882
   2   2.0000     -10.627262      -289.1825
   3   2.0000     -10.627260      -289.1824
   4   2.0000     -10.626685      -289.1668
   5   2.0000     -10.626684      -289.1668
   6   2.0000     -10.626480      -289.1612
   7   2.0000      -2.614012       -71.1309
   8   2.0000      -1.488329       -40.4995
   9   2.0000      -1.488329       -40.4995
  10   2.0000      -1.488175       -40.4953
  11   2.0000      -1.120736       -30.4968
  12   2.0000      -1.003409       -27.3041
  13   2.0000      -1.003408       -27.3041
  14   2.0000      -0.843821       -22.9615
  15   2.0000      -0.843820       -22.9615
  16   2.0000      -0.752026       -20.4637
  17   2.0000      -0.687618       -18.7110
  18   2.0000      -0.674542       -18.3552
  19   2.0000      -0.645590       -17.5674
  20   2.0000      -0.645588       -17.5674
  21   2.0000      -0.598043       -16.2736
  22   2.0000      -0.563424       -15.3315
  23   2.0000      -0.563423       -15.3315
  24   2.0000      -0.470185       -12.7944
  25   2.0000      -0.470184       -12.7943
  26   0.0000      -0.177398        -4.8272
  27   0.0000      -0.162865        -4.4318
  28   0.0000      -0.162864        -4.4318
  29   0.0000      -0.094780        -2.5791
  30   0.0000      -0.094771        -2.5788

MULLIKEN ATOMIC CHARGES
-----------------------
   0 Na:    0.831956
   1 C :   -0.260683
   2 C :   -0.260401
   3 C :   -0.260356
   4 C :   -0.260656
   5 C :   -0.260840
   6 C :   -0.260889
   7 H :    0.288657
   8 H :    0.288665
   9 H :    0.288640
  10 H :    0.288630
  11 H :    0.288625
  12 H :    0.288651
Sum of atomic charges:    1.0000000

LOEWDIN ATOMIC CHARGES
----------------------
   0 Na:    0.505177
   1 C :   -0.090523
   2 C :   -0.090474
   3 C :   -0.090473
   4 C :   -0.090513
   5 C :   -0.090542
   6 C :   -0.090542
   7 H :    0.172998
   8 H :    0.173006
   9 H :    0.172982
  10 H :    0.172965
  11 H :    0.172961
  12 H :    0.172979

  Mayer bond orders larger than 0.100000
B(  1-C ,  2-C ) :   1.3797 B(  1-C ,  6-C ) :   1.3797 B(  1-C ,  9-H ) :   0.8965
B(  2-C ,  3-C ) :   1.3798 B(  2-C , 10-H ) :   0.8965 B(  3-C ,  4-C ) :   1.3797
B(  3-C , 11-H ) :   0.8965 B(  4-C ,  5-C ) :   1.3797 B(  4-C , 12-H ) :   0.8965
B(  5-C ,  6-C ) :   1.3797 B(  5-C ,  7-H ) :   0.8965 B(  6-C ,  8-H ) :   0.8965

Dispersion correction           -0.006203161
FINAL SINGLE POINT ENERGY      -393.584934267667

DIPOLE MOMENT
-------------
                                X             Y             Z
Electronic contribution:      0.17954       0.54941       7.58719
Nuclear contribution   :     -0.11926      -0.36320      -5.01527
                        -----------------------------------------
Total Dipole Moment    :      0.06029       0.18621       2.57192
                        -----------------------------------------
Magnitude (a.u.)       :      2.57935
Magnitude (Debye)      :      6.55620

Rotational constants in cm-1:     0.092641     0.084836     0.084836
Rotational constants in MHz :  2777.292606  2543.326335  2543.311413

                             ****ORCA TERMINATED NORMALLY****
TOTAL RUN TIME: 0 days 0 hours 0 minutes 48 seconds 355 msec
