                         Program Version 5.0.3 -  RELEASE  -
|  1> ! PBEh-3c def2/J TightSCF DefGrid3
|  2>
|  3> %maxcore 60000
|  4>
|  5> %pal
|  6> nprocs 4
|  7> end
|  8>
|  9> *xyzfile 0 1 i1e.xyz
| 10>
| 11>                          ****END OF INPUT****

CARTESIAN COORDINATES (ANGSTROEM)
---------------------------------
  C     -1.329081   -0.568173    0.222408
  C     -0.719164   -0.079630   -0.972119
  C      0.719164    0.079630   -0.972119
  C      1.329081    0.568173    0.222408
  C      0.620353    0.337958    1.428886
  C     -0.620353   -0.337958    1.428886
  C     -2.551460   -1.573777    0.207965
  C     -1.537392    0.629314   -2.134358
  C      1.537392   -0.629314   -2.134358
  C      2.551460    1.573777    0.207965
  C      1.199797    0.673188    2.778263
  C     -1.199797   -0.673188    2.778263
  C     -2.128902   -2.834363    1.024519
  C     -2.842668   -2.145682   -1.200173
  C     -3.884967   -1.052051    0.799241
  O     -0.353632   -1.491479    3.478734
  C     -0.774363    1.957454   -2.430690
  C     -1.792347   -0.052921   -3.502128
  C     -2.905117    1.120399   -1.588742
  C      1.792347    0.052921   -3.502128
  C      0.774363   -1.957454   -2.430690
  C      2.905117   -1.120399   -1.588742
  C      2.842668    2.145682   -1.200173
  C      3.884967    1.052051    0.799241
  C      2.128902    2.834363    1.024519
  O     -2.237561   -0.255026    3.239982
  C     -0.765803   -1.800422    4.830074
  O      0.353632    1.491479    3.478734
  C      0.765803    1.800422    4.830074
  O      2.237561    0.255026    3.239982
  H     -1.166610   -3.225014    0.671331
  H     -2.056396   -2.655185    2.097450
  H     -2.893889   -3.609187    0.885718
  H     -1.921780   -2.456984   -1.701963
  H     -3.488280   -3.025624   -1.088204
  H     -3.379106   -1.449927   -1.841266
  H     -3.807487   -0.883055    1.872782
  H     -4.207612   -0.116642    0.336911
  H     -4.662465   -1.807631    0.616148
  H     -0.668402    2.548548   -1.513381
  H     -1.354716    2.541658   -3.157805
  H      0.217832    1.786594   -2.845092
  H     -0.877706   -0.176565   -4.082920
  H     -2.459067    0.597674   -4.083744
  H     -2.267383   -1.030832   -3.419683
  H     -2.793123    1.555697   -0.589840
  H     -3.661209    0.339392   -1.543711
  H     -3.284036    1.896434   -2.266868
  H      2.267383    1.030832   -3.419683
  H      0.877706    0.176565   -4.082920
  H      2.459067   -0.597674   -4.083744
  H      0.668402   -2.548548   -1.513381
  H      1.354716   -2.541658   -3.157805
  H     -0.217832   -1.786594   -2.845092
  H      3.661209   -0.339392   -1.543711
  H      3.284036   -1.896434   -2.266868
  H      2.793123   -1.555697   -0.589840
  H      1.921780    2.456984   -1.701963
  H      3.379106    1.449927   -1.841266
  H      3.488280    3.025624   -1.088204
  H      3.807487    0.883055    1.872782
  H      4.662465    1.807631    0.616148
  H      4.207612    0.116642    0.336911
  H      1.166610    3.225014    0.671331
  H      2.893889    3.609187    0.885718
  H      2.056396    2.655185    2.097450
  H      0.054979   -2.383327    5.254900
  H     -0.932881   -0.878970    5.399576
  H     -1.695149   -2.383488    4.817800
  H     -0.054979    2.383327    5.254900
  H      1.695149    2.383488    4.817800
  H      0.932881    0.878970    5.399576

 Total Charge           Charge          ....    0
 Multiplicity           Mult            ....    1
 Number of Electrons    NEL             ....  230
 Basis Dimension        Dim             ....  534

ORBITAL ENERGIES
----------------

  NO   OCC          E(Eh)            E(eV)
   0   2.0000     -19.537275      -531.6363
   1   2.0000     -19.537250      -531.6356
   2   2.0000     -19.482968      -530.1585
   3   2.0000     -19.482941      -530.1578
   4   2.0000     -10.580011      -287.8967
   5   2.0000     -10.579925      -287.8944
   6   2.0000     -10.491356      -285.4843
   7   2.0000     -10.491340      -285.4839
   8   2.0000     -10.478191      -285.1261
   9   2.0000     -10.478189      -285.1260
  10   2.0000     -10.474771      -285.0330
  11   2.0000     -10.474300      -285.0202
  12   2.0000     -10.470666      -284.9213
  13   2.0000     -10.470663      -284.9212
  14   2.0000     -10.468911      -284.8735
  15   2.0000     -10.468872      -284.8725
  16   2.0000     -10.462832      -284.7081
  17   2.0000     -10.462303      -284.6937
  18   2.0000     -10.431869      -283.8656
  19   2.0000     -10.431853      -283.8651
  20   2.0000     -10.429135      -283.7912
  21   2.0000     -10.429134      -283.7912
  22   2.0000     -10.426149      -283.7099
  23   2.0000     -10.426148      -283.7099
  24   2.0000     -10.425214      -283.6845
  25   2.0000     -10.425212      -283.6844
  26   2.0000     -10.424410      -283.6626
  27   2.0000     -10.424406      -283.6625
  28   2.0000     -10.412143      -283.3288
  29   2.0000     -10.412141      -283.3288
  30   2.0000      -1.211234       -32.9594
  31   2.0000      -1.202828       -32.7306
  32   2.0000      -1.119189       -30.4547
  33   2.0000      -1.117222       -30.4012
  34   2.0000      -0.973419       -26.4881
  35   2.0000      -0.922572       -25.1045
  36   2.0000      -0.918565       -24.9954
  37   2.0000      -0.899672       -24.4813
  38   2.0000      -0.892819       -24.2948
  39   2.0000      -0.848761       -23.0960
  40   2.0000      -0.828501       -22.5447
  41   2.0000      -0.801131       -21.7999
  42   2.0000      -0.792356       -21.5611
  43   2.0000      -0.777641       -21.1607
  44   2.0000      -0.774895       -21.0860
  45   2.0000      -0.766755       -20.8645
  46   2.0000      -0.766523       -20.8581
  47   2.0000      -0.757176       -20.6038
  48   2.0000      -0.756576       -20.5875
  49   2.0000      -0.754890       -20.5416
  50   2.0000      -0.752465       -20.4756
  51   2.0000      -0.709417       -19.3042
  52   2.0000      -0.703099       -19.1323
  53   2.0000      -0.656456       -17.8631
  54   2.0000      -0.654224       -17.8023
  55   2.0000      -0.624271       -16.9873
  56   2.0000      -0.618531       -16.8311
  57   2.0000      -0.604067       -16.4375
  58   2.0000      -0.591914       -16.1068
  59   2.0000      -0.581475       -15.8227
  60   2.0000      -0.556270       -15.1369
  61   2.0000      -0.550105       -14.9691
  62   2.0000      -0.543294       -14.7838
  63   2.0000      -0.543234       -14.7822
  64   2.0000      -0.537272       -14.6199
  65   2.0000      -0.532192       -14.4817
  66   2.0000      -0.525252       -14.2928
  67   2.0000      -0.523890       -14.2558
  68   2.0000      -0.518066       -14.0973
  69   2.0000      -0.508433       -13.8352
  70   2.0000      -0.507680       -13.8147
  71   2.0000      -0.502439       -13.6721
  72   2.0000      -0.498895       -13.5756
  73   2.0000      -0.490736       -13.3536
  74   2.0000      -0.483944       -13.1688
  75   2.0000      -0.478853       -13.0302
  76   2.0000      -0.477082       -12.9821
  77   2.0000      -0.473819       -12.8933
  78   2.0000      -0.469930       -12.7875
  79   2.0000      -0.468325       -12.7438
  80   2.0000      -0.456874       -12.4322
  81   2.0000      -0.449372       -12.2280
  82   2.0000      -0.445555       -12.1242
  83   2.0000      -0.442763       -12.0482
  84   2.0000      -0.436697       -11.8831
  85   2.0000      -0.432237       -11.7618
  86   2.0000      -0.429655       -11.6915
  87   2.0000      -0.428906       -11.6711
  88   2.0000      -0.425439       -11.5768
  89   2.0000      -0.422194       -11.4885
  90   2.0000      -0.420188       -11.4339
  91   2.0000      -0.416936       -11.3454
  92   2.0000      -0.415969       -11.3191
  93   2.0000      -0.413590       -11.2544
  94   2.0000      -0.409173       -11.1342
  95   2.0000      -0.409094       -11.1320
  96   2.0000      -0.406003       -11.0479
  97   2.0000      -0.403304       -10.9745
  98   2.0000      -0.389024       -10.5859
  99   2.0000      -0.388652       -10.5758
 100   2.0000      -0.384139       -10.4529
 101   2.0000      -0.383013       -10.4223
 102   2.0000      -0.374379       -10.1874
 103   2.0000      -0.368515       -10.0278
 104   2.0000      -0.366876        -9.9832
 105   2.0000      -0.365609        -9.9487
 106   2.0000      -0.360829        -9.8187
 107   2.0000      -0.356134        -9.6909
 108   2.0000      -0.355894        -9.6844
 109   2.0000      -0.350274        -9.5314
 110   2.0000      -0.347613        -9.4590
 111   2.0000      -0.329060        -8.9542
 112   2.0000      -0.322185        -8.7671
 113   2.0000      -0.258734        -7.0405
 114   2.0000      -0.251571        -6.8456
 115   0.0000      -0.030442        -0.8284
 116   0.0000      -0.000607        -0.0165
 117   0.0000       0.030512         0.8303
 118   0.0000       0.061418         1.6713
 119   0.0000       0.105863         2.8807

MULLIKEN ATOMIC CHARGES
-----------------------
   0 C :    0.090155
   1 C :    0.005044
   2 C :    0.005041
   3 C :    0.090156
   4 C :    0.033070
   5 C :    0.033068
   6 C :   -0.171868
   7 C :   -0.119162
   8 C :   -0.119161
   9 C :   -0.171868
  10 C :    0.441108
  11 C :    0.441108
  12 C :   -0.635251
  13 C :   -0.651220
  14 C :   -0.630443
  15 O :   -0.459760
  16 C :   -0.645257
  17 C :   -0.659844
  18 C :   -0.643582
  19 C :   -0.659844
  20 C :   -0.645258
  21 C :   -0.643582
  22 C :   -0.651220
  23 C :   -0.630444
  24 C :   -0.635251
  25 O :   -0.378760
  26 C :   -0.395606
  27 O :   -0.459760
  28 C :   -0.395606
  29 O :   -0.378760
  30 H :    0.230213
  31 H :    0.240730
  32 H :    0.215960
  33 H :    0.230750
  34 H :    0.222172
  35 H :    0.222137
  36 H :    0.270606
  37 H :    0.223498
  38 H :    0.199146
  39 H :    0.233404
  40 H :    0.216185
  41 H :    0.252204
  42 H :    0.228898
  43 H :    0.226004
  44 H :    0.235699
  45 H :    0.245180
  46 H :    0.227299
  47 H :    0.219090
  48 H :    0.235699
  49 H :    0.228898
  50 H :    0.226004
  51 H :    0.233404
  52 H :    0.216185
  53 H :    0.252205
  54 H :    0.227299
  55 H :    0.219090
  56 H :    0.245180
  57 H :    0.230750
  58 H :    0.222137
  59 H :    0.222172
  60 H :    0.270606
  61 H :    0.199146
  62 H :    0.223498
  63 H :    0.230212
  64 H :    0.215960
  65 H :    0.240730
  66 H :    0.232758
  67 H :    0.225266
  68 H :    0.224179
  69 H :    0.232757
  70 H :    0.224180
  71 H :    0.225266
Sum of atomic charges:   -0.0000000

LOEWDIN ATOMIC CHARGES
----------------------
   0 C :   -0.015742
   1 C :    0.003822
   2 C :    0.003822
   3 C :   -0.015742
   4 C :   -0.068168
   5 C :   -0.068168
   6 C :   -0.074997
   7 C :   -0.073926
   8 C :   -0.073926
   9 C :   -0.074997
  10 C :    0.153301
  11 C :    0.153301
  12 C :   -0.334822
  13 C :   -0.342989
  14 C :   -0.350427
  15 O :   -0.181812
  16 C :   -0.336280
  17 C :   -0.351675
  18 C :   -0.340804
  19 C :   -0.351675
  20 C :   -0.336280
  21 C :   -0.340804
  22 C :   -0.342989
  23 C :   -0.350427
  24 C :   -0.334822
  25 O :   -0.209298
  26 C :   -0.179413
  27 O :   -0.181812
  28 C :   -0.179413
  29 O :   -0.209298
  30 H :    0.132379
  31 H :    0.131104
  32 H :    0.126419
  33 H :    0.128912
  34 H :    0.127136
  35 H :    0.122556
  36 H :    0.145505
  37 H :    0.127450
  38 H :    0.120363
  39 H :    0.132554
  40 H :    0.123759
  41 H :    0.129715
  42 H :    0.122395
  43 H :    0.131137
  44 H :    0.129988
  45 H :    0.139418
  46 H :    0.124375
  47 H :    0.126739
  48 H :    0.129988
  49 H :    0.122395
  50 H :    0.131137
  51 H :    0.132554
  52 H :    0.123759
  53 H :    0.129715
  54 H :    0.124375
  55 H :    0.126739
  56 H :    0.139418
  57 H :    0.128912
  58 H :    0.122556
  59 H :    0.127136
  60 H :    0.145505
  61 H :    0.120364
  62 H :    0.127450
  63 H :    0.132379
  64 H :    0.126419
  65 H :    0.131104
  66 H :    0.131484
  67 H :    0.125169
  68 H :    0.124671
  69 H :    0.131484
  70 H :    0.124671
  71 H :    0.125169

  Mayer bond orders larger than 0.100000
B(  0-C ,  1-C ) :   1.4109 B(  0-C ,  5-C ) :   1.3486 B(  0-C ,  6-C ) :   0.9339
B(  1-C ,  2-C ) :   1.3433 B(  1-C ,  7-C ) :   0.9386 B(  2-C ,  3-C ) :   1.4109
B(  2-C ,  8-C ) :   0.9386 B(  3-C ,  4-C ) :   1.3486 B(  3-C ,  9-C ) :   0.9339
B(  4-C ,  5-C ) :   1.3757 B(  4-C , 10-C ) :   0.9066 B(  5-C , 11-C ) :   0.9066
B(  6-C , 12-C ) :   0.9750 B(  6-C , 13-C ) :   0.9772 B(  6-C , 14-C ) :   0.9770
B(  7-C , 16-C ) :   0.9765 B(  7-C , 17-C ) :   0.9656 B(  7-C , 18-C ) :   0.9771
B(  8-C , 19-C ) :   0.9656 B(  8-C , 20-C ) :   0.9765 B(  8-C , 21-C ) :   0.9771
B(  9-C , 22-C ) :   0.9772 B(  9-C , 23-C ) :   0.9770 B(  9-C , 24-C ) :   0.9750
B( 10-C , 27-O ) :   1.0343 B( 10-C , 29-O ) :   1.9994 B( 11-C , 15-O ) :   1.0343
B( 11-C , 25-O ) :   1.9994 B( 12-C , 30-H ) :   0.9220 B( 12-C , 31-H ) :   0.9001
B( 12-C , 32-H ) :   0.9195 B( 13-C , 33-H ) :   0.9103 B( 13-C , 34-H ) :   0.9206
B( 13-C , 35-H ) :   0.9071 B( 14-C , 36-H ) :   0.8883 B( 14-C , 37-H ) :   0.9187
B( 14-C , 38-H ) :   0.9215 B( 15-O , 26-C ) :   0.8999 B( 16-C , 39-H ) :   0.9201
B( 16-C , 40-H ) :   0.9186 B( 16-C , 41-H ) :   0.8900 B( 17-C , 42-H ) :   0.8993
B( 17-C , 43-H ) :   0.9171 B( 17-C , 44-H ) :   0.9089 B( 18-C , 45-H ) :   0.9152
B( 18-C , 46-H ) :   0.9045 B( 18-C , 47-H ) :   0.9186 B( 19-C , 48-H ) :   0.9089
B( 19-C , 49-H ) :   0.8993 B( 19-C , 50-H ) :   0.9171 B( 20-C , 51-H ) :   0.9201
B( 20-C , 52-H ) :   0.9186 B( 20-C , 53-H ) :   0.8900 B( 21-C , 54-H ) :   0.9045
B( 21-C , 55-H ) :   0.9186 B( 21-C , 56-H ) :   0.9152 B( 22-C , 57-H ) :   0.9103
B( 22-C , 58-H ) :   0.9071 B( 22-C , 59-H ) :   0.9206 B( 23-C , 60-H ) :   0.8883
B( 23-C , 61-H ) :   0.9215 B( 23-C , 62-H ) :   0.9187 B( 24-C , 63-H ) :   0.9220
B( 24-C , 64-H ) :   0.9195 B( 24-C , 65-H ) :   0.9001 B( 26-C , 66-H ) :   0.9197
B( 26-C , 67-H ) :   0.9103 B( 26-C , 68-H ) :   0.9131 B( 27-O , 28-C ) :   0.8999
B( 28-C , 69-H ) :   0.9197 B( 28-C , 70-H ) :   0.9131 B( 28-C , 71-H ) :   0.9103

Dispersion correction           -0.063004789
FINAL SINGLE POINT ENERGY     -1314.046122724235

DIPOLE MOMENT
-------------
                                X             Y             Z
Electronic contribution:      0.00000       0.00000      28.76313
Nuclear contribution   :     -0.00000      -0.00000     -29.27646
                        -----------------------------------------
Total Dipole Moment    :      0.00000       0.00000      -0.51334
                        -----------------------------------------
Magnitude (a.u.)       :      0.51334
Magnitude (Debye)      :      1.30480

Rotational constants in cm-1:     0.006450     0.005455     0.003756
Rotational constants in MHz :   193.361903   163.532391   112.612425

                             ****ORCA TERMINATED NORMALLY****
TOTAL RUN TIME: 0 days 0 hours 15 minutes 31 seconds 443 msec
