                         Program Version 5.0.3 -  RELEASE  -
|  1> ! PBEh-3c def2/J TightSCF DefGrid3
|  2>
|  3> %maxcore 60000
|  4>
|  5> %pal
|  6> nprocs 4
|  7> end
|  8>
|  9> *xyzfile 0 1 14.xyz
| 10>
| 11>                          ****END OF INPUT****

CARTESIAN COORDINATES (ANGSTROEM)
---------------------------------
  N      1.496232   -3.057165   -0.040003
  C      0.192388   -2.731826    0.265791
  C      0.071028   -1.366637    0.404587
  C      1.377570   -0.821063    0.168116
  C      1.883617    0.497812    0.175341
  C      3.232227    0.684930   -0.089280
  C      4.084441   -0.413575   -0.361737
  C      3.606549   -1.709947   -0.370986
  C      2.244360   -1.904267   -0.103488
  H      1.844852   -3.988211   -0.174870
  H     -0.559473   -3.498010    0.364360
  H      1.226653    1.327839    0.389910
  H      5.126264   -0.205192   -0.561483
  H      4.270049   -2.539653   -0.578189
  O      3.861326    1.902940   -0.114626
  C      3.051470    3.032232    0.157525
  H      2.615388    2.977155    1.157775
  H      2.251208    3.134330   -0.579516
  H      3.708400    3.894766    0.097505
  C     -1.185197   -0.602616    0.680691
  C     -1.759435    0.014941   -0.602423
  N     -2.975141    0.777710   -0.368737
  C     -4.178711    0.158702   -0.208034
  C     -5.348005    1.071202    0.104032
  H     -0.992104    0.194012    1.404828
  H     -1.942302   -1.258897    1.110668
  H     -1.994304   -0.782354   -1.305535
  H     -1.026041    0.673141   -1.068483
  H     -2.913417    1.764231   -0.196483
  O     -4.311619   -1.053141   -0.312611
  H     -6.146195    0.864403   -0.605288
  H     -5.093521    2.128749    0.060880
  H     -5.718559    0.833457    1.099762

 Total Charge           Charge          ....    0
 Multiplicity           Mult            ....    1
 Number of Electrons    NEL             ....  124
 Basis Dimension        Dim             ....  287

ORBITAL ENERGIES
----------------

  NO   OCC          E(Eh)            E(eV)
   0   2.0000     -19.519233      -531.1453
   1   2.0000     -19.448265      -529.2142
   2   2.0000     -14.680860      -399.4865
   3   2.0000     -14.658165      -398.8689
   4   2.0000     -10.543021      -286.8902
   5   2.0000     -10.498955      -285.6911
   6   2.0000     -10.487139      -285.3696
   7   2.0000     -10.473351      -284.9944
   8   2.0000     -10.472710      -284.9769
   9   2.0000     -10.468883      -284.8728
  10   2.0000     -10.450131      -284.3625
  11   2.0000     -10.442201      -284.1467
  12   2.0000     -10.440469      -284.0996
  13   2.0000     -10.440401      -284.0977
  14   2.0000     -10.437905      -284.0298
  15   2.0000     -10.437104      -284.0080
  16   2.0000     -10.436139      -283.9818
  17   2.0000      -1.167452       -31.7680
  18   2.0000      -1.134937       -30.8832
  19   2.0000      -1.082909       -29.4674
  20   2.0000      -1.017472       -27.6868
  21   2.0000      -0.934992       -25.4424
  22   2.0000      -0.895790       -24.3757
  23   2.0000      -0.848273       -23.0827
  24   2.0000      -0.831005       -22.6128
  25   2.0000      -0.820544       -22.3281
  26   2.0000      -0.794905       -21.6305
  27   2.0000      -0.774805       -21.0835
  28   2.0000      -0.719858       -19.5883
  29   2.0000      -0.688552       -18.7365
  30   2.0000      -0.667167       -18.1545
  31   2.0000      -0.651331       -17.7236
  32   2.0000      -0.629690       -17.1347
  33   2.0000      -0.607110       -16.5203
  34   2.0000      -0.575504       -15.6603
  35   2.0000      -0.569940       -15.5089
  36   2.0000      -0.554290       -15.0830
  37   2.0000      -0.532113       -14.4795
  38   2.0000      -0.529119       -14.3981
  39   2.0000      -0.524823       -14.2812
  40   2.0000      -0.510561       -13.8931
  41   2.0000      -0.505075       -13.7438
  42   2.0000      -0.493664       -13.4333
  43   2.0000      -0.482497       -13.1294
  44   2.0000      -0.473270       -12.8783
  45   2.0000      -0.461478       -12.5575
  46   2.0000      -0.456960       -12.4345
  47   2.0000      -0.454439       -12.3659
  48   2.0000      -0.450281       -12.2528
  49   2.0000      -0.442702       -12.0465
  50   2.0000      -0.431772       -11.7491
  51   2.0000      -0.414135       -11.2692
  52   2.0000      -0.405618       -11.0374
  53   2.0000      -0.403627       -10.9832
  54   2.0000      -0.393974       -10.7206
  55   2.0000      -0.374008       -10.1773
  56   2.0000      -0.348246        -9.4762
  57   2.0000      -0.320278        -8.7152
  58   2.0000      -0.303202        -8.2505
  59   2.0000      -0.296462        -8.0671
  60   2.0000      -0.240243        -6.5373
  61   2.0000      -0.235827        -6.4172
  62   0.0000       0.009800         0.2667
  63   0.0000       0.061248         1.6667
  64   0.0000       0.066674         1.8143
  65   0.0000       0.096307         2.6206
  66   0.0000       0.114386         3.1126

MULLIKEN ATOMIC CHARGES
-----------------------
   0 N :   -0.700818
   1 C :   -0.056372
   2 C :    0.022424
   3 C :    0.086294
   4 C :   -0.490177
   5 C :    0.391830
   6 C :   -0.318351
   7 C :   -0.251974
   8 C :    0.352805
   9 H :    0.358121
  10 H :    0.246310
  11 H :    0.212233
  12 H :    0.233152
  13 H :    0.213217
  14 O :   -0.466759
  15 C :   -0.402495
  16 H :    0.203680
  17 H :    0.200029
  18 H :    0.240204
  19 C :   -0.535718
  20 C :   -0.273213
  21 N :   -0.631556
  22 C :    0.522844
  23 C :   -0.749900
  24 H :    0.210860
  25 H :    0.258697
  26 H :    0.257867
  27 H :    0.229244
  28 H :    0.348851
  29 O :   -0.433165
  30 H :    0.260385
  31 H :    0.206979
  32 H :    0.254471
Sum of atomic charges:   -0.0000000

LOEWDIN ATOMIC CHARGES
----------------------
   0 N :   -0.156694
   1 C :   -0.079105
   2 C :   -0.106791
   3 C :   -0.050505
   4 C :   -0.199226
   5 C :    0.058841
   6 C :   -0.159331
   7 C :   -0.145998
   8 C :    0.003100
   9 H :    0.261449
  10 H :    0.138906
  11 H :    0.136264
  12 H :    0.145593
  13 H :    0.137202
  14 O :   -0.191656
  15 C :   -0.180135
  16 H :    0.112184
  17 H :    0.110524
  18 H :    0.129681
  19 C :   -0.234853
  20 C :   -0.143889
  21 N :   -0.244370
  22 C :    0.105371
  23 C :   -0.390713
  24 H :    0.125649
  25 H :    0.146974
  26 H :    0.144437
  27 H :    0.124911
  28 H :    0.250154
  29 O :   -0.284295
  30 H :    0.157080
  31 H :    0.124281
  32 H :    0.154959

  Mayer bond orders larger than 0.100000
B(  0-N ,  1-C ) :   1.1379 B(  0-N ,  8-C ) :   1.0074 B(  0-N ,  9-H ) :   0.8338
B(  1-C ,  2-C ) :   1.5503 B(  1-C , 10-H ) :   0.9077 B(  2-C ,  3-C ) :   1.2499
B(  2-C , 19-C ) :   0.9591 B(  3-C ,  4-C ) :   1.2509 B(  3-C ,  8-C ) :   1.2508
B(  4-C ,  5-C ) :   1.4220 B(  4-C , 11-H ) :   0.9182 B(  5-C ,  6-C ) :   1.3014
B(  5-C , 14-O ) :   1.0228 B(  6-C ,  7-C ) :   1.5268 B(  6-C , 12-H ) :   0.9089
B(  7-C ,  8-C ) :   1.2740 B(  7-C , 13-H ) :   0.9204 B( 14-O , 15-C ) :   0.9605
B( 15-C , 16-H ) :   0.9068 B( 15-C , 17-H ) :   0.9077 B( 15-C , 18-H ) :   0.9234
B( 19-C , 20-C ) :   0.9493 B( 19-C , 24-H ) :   0.9224 B( 19-C , 25-H ) :   0.9129
B( 20-C , 21-N ) :   0.9317 B( 20-C , 26-H ) :   0.9006 B( 20-C , 27-H ) :   0.9193
B( 21-N , 22-C ) :   1.1411 B( 21-N , 28-H ) :   0.8315 B( 22-C , 23-C ) :   0.9265
B( 22-C , 29-O ) :   1.9805 B( 23-C , 30-H ) :   0.9109 B( 23-C , 31-H ) :   0.9231
B( 23-C , 32-H ) :   0.9106

Dispersion correction           -0.020820114
FINAL SINGLE POINT ENERGY      -763.327848732517

DIPOLE MOMENT
-------------
                                X             Y             Z
Electronic contribution:      8.61734      -8.47608      -0.99010
Nuclear contribution   :     -8.52941       9.18918       1.17154
                        -----------------------------------------
Total Dipole Moment    :      0.08793       0.71310       0.18145
                        -----------------------------------------
Magnitude (a.u.)       :      0.74105
Magnitude (Debye)      :      1.88361

Rotational constants in cm-1:     0.025891     0.007561     0.005983
Rotational constants in MHz :   776.182197   226.662779   179.360226

                             ****ORCA TERMINATED NORMALLY****
TOTAL RUN TIME: 0 days 0 hours 4 minutes 7 seconds 269 msec
