                         Program Version 5.0.3 -  RELEASE  -
|  1> ! PBEh-3c def2/J TightSCF DefGrid3
|  2>
|  3> %maxcore 60000
|  4>
|  5> %pal
|  6> nprocs 4
|  7> end
|  8>
|  9> *xyzfile 0 1 17B.xyz
| 10>
| 11>                          ****END OF INPUT****

CARTESIAN COORDINATES (ANGSTROEM)
---------------------------------
  N      0.590921    1.160297    0.000000
  H      1.038165    2.066870    0.000000
  C      1.446969    0.045678    0.000000
  O      2.656421    0.197382    0.000000
  C      0.732750   -1.216495    0.000000
  H      1.299335   -2.131527    0.000000
  C     -0.617419   -1.220312    0.000000
  H     -1.194382   -2.133277    0.000000
  N     -1.355411   -0.069431    0.000000
  H     -2.381747   -0.090873    0.000000
  C     -0.782640    1.175234    0.000000
  O     -1.432961    2.216453    0.000000

 Total Charge           Charge          ....    0
 Multiplicity           Mult            ....    1
 Number of Electrons    NEL             ....   58
 Basis Dimension        Dim             ....  128

ORBITAL ENERGIES
----------------

  NO   OCC          E(Eh)            E(eV)
   0   2.0000     -19.478723      -530.0430
   1   2.0000     -19.477903      -530.0207
   2   2.0000     -14.722621      -400.6229
   3   2.0000     -14.697356      -399.9354
   4   2.0000     -10.607921      -288.6562
   5   2.0000     -10.574750      -287.7536
   6   2.0000     -10.540357      -286.8177
   7   2.0000     -10.469383      -284.8864
   8   2.0000      -1.194249       -32.4972
   9   2.0000      -1.157490       -31.4969
  10   2.0000      -1.093105       -29.7449
  11   2.0000      -1.035254       -28.1707
  12   2.0000      -0.901134       -24.5211
  13   2.0000      -0.783344       -21.3159
  14   2.0000      -0.750074       -20.4106
  15   2.0000      -0.678601       -18.4657
  16   2.0000      -0.638780       -17.3821
  17   2.0000      -0.594866       -16.1871
  18   2.0000      -0.554121       -15.0784
  19   2.0000      -0.545719       -14.8498
  20   2.0000      -0.520071       -14.1518
  21   2.0000      -0.489748       -13.3267
  22   2.0000      -0.486702       -13.2438
  23   2.0000      -0.469382       -12.7725
  24   2.0000      -0.429533       -11.6882
  25   2.0000      -0.358259        -9.7487
  26   2.0000      -0.339687        -9.2434
  27   2.0000      -0.328416        -8.9367
  28   2.0000      -0.301671        -8.2089
  29   0.0000      -0.024402        -0.6640
  30   0.0000       0.039039         1.0623
  31   0.0000       0.088950         2.4205
  32   0.0000       0.153050         4.1647
  33   0.0000       0.160404         4.3648

MULLIKEN ATOMIC CHARGES
-----------------------
   0 N :   -0.720043
   1 H :    0.400860
   2 C :    0.566670
   3 O :   -0.390375
   4 C :   -0.452531
   5 H :    0.267835
   6 C :    0.083090
   7 H :    0.272327
   8 N :   -0.673476
   9 H :    0.397268
  10 C :    0.678012
  11 O :   -0.429638
Sum of atomic charges:   -0.0000000

LOEWDIN ATOMIC CHARGES
----------------------
   0 N :   -0.202156
   1 H :    0.287821
   2 C :    0.123978
   3 O :   -0.240727
   4 C :   -0.239801
   5 H :    0.164456
   6 C :   -0.013362
   7 H :    0.149741
   8 N :   -0.182116
   9 H :    0.288114
  10 C :    0.143799
  11 O :   -0.279746

  Mayer bond orders larger than 0.100000
B(  0-N ,  1-H ) :   0.7974 B(  0-N ,  2-C ) :   0.9768 B(  0-N , 10-C ) :   1.0720
B(  2-C ,  3-O ) :   2.0421 B(  2-C ,  4-C ) :   1.0552 B(  4-C ,  5-H ) :   0.9057
B(  4-C ,  6-C ) :   1.6452 B(  6-C ,  7-H ) :   0.8996 B(  6-C ,  8-N ) :   1.0774
B(  8-N ,  9-H ) :   0.8043 B(  8-N , 10-C ) :   1.0357 B( 10-C , 11-O ) :   2.0281

Dispersion correction           -0.006237699
FINAL SINGLE POINT ENERGY      -413.937256340892

DIPOLE MOMENT
-------------
                                X             Y             Z
Electronic contribution:      0.48473       2.02370      -0.00000
Nuclear contribution   :     -1.72287      -3.35733       0.00000
                        -----------------------------------------
Total Dipole Moment    :     -1.23814      -1.33363      -0.00000
                        -----------------------------------------
Magnitude (a.u.)       :      1.81977
Magnitude (Debye)      :      4.62549

Rotational constants in cm-1:     0.130388     0.067515     0.044482
Rotational constants in MHz :  3908.938120  2024.052646  1333.542703

                             ****ORCA TERMINATED NORMALLY****
TOTAL RUN TIME: 0 days 0 hours 1 minutes 51 seconds 51 msec
