                         Program Version 5.0.3 -  RELEASE  -
|  1> ! PBEh-3c def2/J TightSCF DefGrid3
|  2>
|  3> %maxcore 60000
|  4>
|  5> %pal
|  6> nprocs 4
|  7> end
|  8>
|  9> *xyzfile 1 1 3p1.xyz
| 10>
| 11>                          ****END OF INPUT****

CARTESIAN COORDINATES (ANGSTROEM)
---------------------------------
  C      1.238323    0.000000   -0.182274
  C      1.228528    0.000000    1.183985
  C      0.000000    0.000000    1.858447
  C     -1.228528    0.000000    1.183985
  C     -1.238323    0.000000   -0.182274
  C      0.000000    0.000000   -0.902353
  C      0.000000    0.000000   -2.264077
  H     -0.927297    0.000000   -2.828671
  H      0.927297    0.000000   -2.828671
  H      2.169591    0.000000   -0.737419
  H      2.153242    0.000000    1.746565
  H      0.000000    0.000000    2.943611
  H     -2.153242    0.000000    1.746565
  H     -2.169591    0.000000   -0.737419

 Total Charge           Charge          ....    1
 Multiplicity           Mult            ....    1
 Number of Electrons    NEL             ....   48
 Basis Dimension        Dim             ....  119

ORBITAL ENERGIES
----------------

  NO   OCC          E(Eh)            E(eV)
   0   2.0000     -10.709441      -291.4187
   1   2.0000     -10.680153      -290.6217
   2   2.0000     -10.676358      -290.5185
   3   2.0000     -10.675211      -290.4873
   4   2.0000     -10.675119      -290.4848
   5   2.0000     -10.647546      -289.7345
   6   2.0000     -10.647543      -289.7344
   7   2.0000      -1.178385       -32.0655
   8   2.0000      -1.091992       -29.7146
   9   2.0000      -1.053612       -28.6702
  10   2.0000      -0.973127       -26.4801
  11   2.0000      -0.892668       -24.2907
  12   2.0000      -0.864861       -23.5341
  13   2.0000      -0.787933       -21.4408
  14   2.0000      -0.753189       -20.4953
  15   2.0000      -0.734598       -19.9894
  16   2.0000      -0.692956       -18.8563
  17   2.0000      -0.685277       -18.6473
  18   2.0000      -0.671721       -18.2784
  19   2.0000      -0.638868       -17.3845
  20   2.0000      -0.616308       -16.7706
  21   2.0000      -0.597390       -16.2558
  22   2.0000      -0.533296       -14.5117
  23   2.0000      -0.503566       -13.7027
  24   0.0000      -0.309704        -8.4275
  25   0.0000      -0.175176        -4.7668
  26   0.0000      -0.148440        -4.0393
  27   0.0000      -0.035652        -0.9701
  28   0.0000      -0.010226        -0.2783

MULLIKEN ATOMIC CHARGES
-----------------------
   0 C :   -0.197330
   1 C :   -0.195725
   2 C :   -0.156130
   3 C :   -0.195725
   4 C :   -0.197328
   5 C :    0.178255
   6 C :   -0.398059
   7 H :    0.321679
   8 H :    0.321679
   9 H :    0.296107
  10 H :    0.304734
  11 H :    0.317004
  12 H :    0.304734
  13 H :    0.296107
Sum of atomic charges:    1.0000000

LOEWDIN ATOMIC CHARGES
----------------------
   0 C :   -0.006000
   1 C :   -0.114955
   2 C :    0.031980
   3 C :   -0.114955
   4 C :   -0.006000
   5 C :   -0.082420
   6 C :    0.036754
   7 H :    0.183635
   8 H :    0.183635
   9 H :    0.175977
  10 H :    0.177630
  11 H :    0.181112
  12 H :    0.177630
  13 H :    0.175977

  Mayer bond orders larger than 0.100000
B(  0-C ,  1-C ) :   1.5167 B(  0-C ,  5-C ) :   1.1335 B(  0-C ,  9-H ) :   0.8955
B(  1-C ,  2-C ) :   1.3155 B(  1-C , 10-H ) :   0.8867 B(  2-C ,  3-C ) :   1.3155
B(  2-C , 11-H ) :   0.8802 B(  3-C ,  4-C ) :   1.5167 B(  3-C , 12-H ) :   0.8867
B(  4-C ,  5-C ) :   1.1335 B(  4-C , 13-H ) :   0.8955 B(  5-C ,  6-C ) :   1.4126
B(  6-C ,  7-H ) :   0.8929 B(  6-C ,  8-H ) :   0.8929

Dispersion correction           -0.007380951
FINAL SINGLE POINT ENERGY      -270.037660424344

DIPOLE MOMENT
-------------
                                X             Y             Z
Electronic contribution:      0.00000       0.00000       0.45679
Nuclear contribution   :      0.00000       0.00000      -1.20386
                        -----------------------------------------
Total Dipole Moment    :      0.00000       0.00000      -0.74707
                        -----------------------------------------
Magnitude (a.u.)       :      0.74707
Magnitude (Debye)      :      1.89890

Rotational constants in cm-1:     0.179983     0.094296     0.061877
Rotational constants in MHz :  5395.750581  2826.920816  1855.036995

                             ****ORCA TERMINATED NORMALLY****
TOTAL RUN TIME: 0 days 0 hours 2 minutes 13 seconds 639 msec
