                         Program Version 5.0.3 -  RELEASE  -
|  1> ! PBEh-3c def2/J TightSCF DefGrid3
|  2>
|  3> %maxcore 60000
|  4>
|  5> %pal
|  6> nprocs 4
|  7> end
|  8>
|  9> *xyzfile 0 1 so3.xyz
| 10>
| 11>                          ****END OF INPUT****

CARTESIAN COORDINATES (ANGSTROEM)
---------------------------------
  S      0.000000    0.000000    0.000000
  O      1.422790   -0.000013    0.000000
  O     -0.711406   -1.232166    0.000000
  O     -0.711384    1.232178    0.000000

 Total Charge           Charge          ....    0
 Multiplicity           Mult            ....    1
 Number of Electrons    NEL             ....   40
 Basis Dimension        Dim             ....   63

ORBITAL ENERGIES
----------------

  NO   OCC          E(Eh)            E(eV)
   0   2.0000     -89.893007     -2446.1131
   1   2.0000     -19.578327      -532.7534
   2   2.0000     -19.578321      -532.7532
   3   2.0000     -19.578265      -532.7517
   4   2.0000      -8.500781      -231.3180
   5   2.0000      -6.395139      -174.0206
   6   2.0000      -6.389710      -173.8729
   7   2.0000      -6.389710      -173.8729
   8   2.0000      -1.341145       -36.4944
   9   2.0000      -1.202345       -32.7175
  10   2.0000      -1.202341       -32.7174
  11   2.0000      -0.708157       -19.2699
  12   2.0000      -0.630871       -17.1669
  13   2.0000      -0.606232       -16.4964
  14   2.0000      -0.606230       -16.4964
  15   2.0000      -0.487363       -13.2618
  16   2.0000      -0.487363       -13.2618
  17   2.0000      -0.457319       -12.4443
  18   2.0000      -0.457317       -12.4442
  19   2.0000      -0.407944       -11.1007
  20   0.0000      -0.064329        -1.7505
  21   0.0000      -0.039463        -1.0739
  22   0.0000       0.228152         6.2083
  23   0.0000       0.228153         6.2084
  24   0.0000       0.325442         8.8557

MULLIKEN ATOMIC CHARGES
-----------------------
   0 S :    1.521938
   1 O :   -0.507306
   2 O :   -0.507316
   3 O :   -0.507316
Sum of atomic charges:   -0.0000000

LOEWDIN ATOMIC CHARGES
----------------------
   0 S :    1.275400
   1 O :   -0.425126
   2 O :   -0.425137
   3 O :   -0.425137

  Mayer bond orders larger than 0.100000
B(  0-S ,  1-O ) :   1.7917 B(  0-S ,  2-O ) :   1.7917 B(  0-S ,  3-O ) :   1.7917
B(  1-O ,  2-O ) :   0.1298 B(  1-O ,  3-O ) :   0.1298 B(  2-O ,  3-O ) :   0.1298

Dispersion correction           -0.001196362
FINAL SINGLE POINT ENERGY      -622.856085849211

DIPOLE MOMENT
-------------
                                X             Y             Z
Electronic contribution:      0.00004      -0.00000      -0.00000
Nuclear contribution   :     -0.00000      -0.00000       0.00000
                        -----------------------------------------
Total Dipole Moment    :      0.00004      -0.00000      -0.00000
                        -----------------------------------------
Magnitude (a.u.)       :      0.00004
Magnitude (Debye)      :      0.00010

Rotational constants in cm-1:     0.347002     0.347001     0.173501
Rotational constants in MHz : 10402.845189 10402.840927  5201.421529

                             ****ORCA TERMINATED NORMALLY****
TOTAL RUN TIME: 0 days 0 hours 0 minutes 35 seconds 362 msec
