                         Program Version 5.0.3 -  RELEASE  -
|  1> ! PBEh-3c def2/J TightSCF DefGrid3
|  2>
|  3> %maxcore 60000
|  4>
|  5> %pal
|  6> nprocs 4
|  7> end
|  8>
|  9> *xyzfile 0 1 25A.xyz
| 10>
| 11>                          ****END OF INPUT****

CARTESIAN COORDINATES (ANGSTROEM)
---------------------------------
  N      0.000000    0.000000    1.613105
  C     -1.140729    0.000000    0.908543
  H     -2.056170    0.000000    1.487852
  C     -1.193691    0.000000   -0.483933
  H     -2.148308    0.000000   -0.990133
  C      0.000000    0.000000   -1.195718
  H      0.000000    0.000000   -2.276885
  C      1.193691    0.000000   -0.483933
  H      2.148308    0.000000   -0.990133
  C      1.140729    0.000000    0.908543
  H      2.056170    0.000000    1.487852

 Total Charge           Charge          ....    0
 Multiplicity           Mult            ....    1
 Number of Electrons    NEL             ....   42
 Basis Dimension        Dim             ....  100

ORBITAL ENERGIES
----------------

  NO   OCC          E(Eh)            E(eV)
   0   2.0000     -14.640875      -398.3985
   1   2.0000     -10.483424      -285.2685
   2   2.0000     -10.483394      -285.2676
   3   2.0000     -10.470806      -284.9251
   4   2.0000     -10.459277      -284.6114
   5   2.0000     -10.459264      -284.6111
   6   2.0000      -1.046388       -28.4737
   7   2.0000      -0.902562       -24.5600
   8   2.0000      -0.854593       -23.2547
   9   2.0000      -0.709940       -19.3184
  10   2.0000      -0.709705       -19.3120
  11   2.0000      -0.601323       -16.3628
  12   2.0000      -0.547296       -14.8927
  13   2.0000      -0.537673       -14.6308
  14   2.0000      -0.491981       -13.3875
  15   2.0000      -0.467919       -12.7327
  16   2.0000      -0.456230       -12.4147
  17   2.0000      -0.421919       -11.4810
  18   2.0000      -0.333898        -9.0858
  19   2.0000      -0.314648        -8.5620
  20   2.0000      -0.306000        -8.3267
  21   0.0000      -0.004637        -0.1262
  22   0.0000       0.008641         0.2351
  23   0.0000       0.144712         3.9378
  24   0.0000       0.182007         4.9527
  25   0.0000       0.195935         5.3317

MULLIKEN ATOMIC CHARGES
-----------------------
   0 N :   -0.359879
   1 C :   -0.038998
   2 H :    0.233123
   3 C :   -0.297193
   4 H :    0.232359
   5 C :   -0.133545
   6 H :    0.234842
   7 C :   -0.297193
   8 H :    0.232359
   9 C :   -0.038998
  10 H :    0.233123
Sum of atomic charges:   -0.0000000

LOEWDIN ATOMIC CHARGES
----------------------
   0 N :   -0.139956
   1 C :   -0.056019
   2 H :    0.130165
   3 C :   -0.164949
   4 H :    0.142147
   5 C :   -0.103609
   6 H :    0.140877
   7 C :   -0.164949
   8 H :    0.142147
   9 C :   -0.056019
  10 H :    0.130165

  Mayer bond orders larger than 0.100000
B(  0-N ,  1-C ) :   1.4977 B(  0-N ,  9-C ) :   1.4977 B(  1-C ,  2-H ) :   0.9173
B(  1-C ,  3-C ) :   1.3825 B(  3-C ,  4-H ) :   0.9129 B(  3-C ,  5-C ) :   1.4141
B(  5-C ,  6-H ) :   0.9183 B(  5-C ,  7-C ) :   1.4141 B(  7-C ,  8-H ) :   0.9129
B(  7-C ,  9-C ) :   1.3825 B(  9-C , 10-H ) :   0.9173

Dispersion correction           -0.005322043
FINAL SINGLE POINT ENERGY      -247.729312943446

DIPOLE MOMENT
-------------
                                X             Y             Z
Electronic contribution:     -0.00000      -0.00000       1.33356
Nuclear contribution   :     -0.00000       0.00000      -2.21104
                        -----------------------------------------
Total Dipole Moment    :     -0.00000      -0.00000      -0.87748
                        -----------------------------------------
Magnitude (a.u.)       :      0.87748
Magnitude (Debye)      :      2.23038

Rotational constants in cm-1:     0.202335     0.193709     0.098964
Rotational constants in MHz :  6065.855506  5807.258185  2966.870355

                             ****ORCA TERMINATED NORMALLY****
TOTAL RUN TIME: 0 days 0 hours 1 minutes 23 seconds 390 msec
