                         Program Version 5.0.3 -  RELEASE  -
|  1> ! PBEh-3c def2/J TightSCF DefGrid3
|  2>
|  3> %maxcore 60000
|  4>
|  5> %pal
|  6> nprocs 4
|  7> end
|  8>
|  9> *xyzfile 0 1 21_benI-acetoneB.xyz
| 10>
| 11>                          ****END OF INPUT****

CARTESIAN COORDINATES (ANGSTROEM)
---------------------------------
  O     -3.949940   -0.000143   -3.815897
  C     -3.800618    0.003771   -5.025812
  C     -2.413747    0.013929   -5.628841
  C     -5.004092   -0.001516   -5.942215
  H     -1.881038    0.891330   -5.265472
  H     -1.870078   -0.858483   -5.269712
  H     -2.420678    0.016521   -6.714123
  H     -5.616270    0.870128   -5.717411
  H     -5.605371   -0.881768   -5.721583
  H     -4.740047    0.002639   -6.994883

 Total Charge           Charge          ....    0
 Multiplicity           Mult            ....    1
 Number of Electrons    NEL             ....   32
 Basis Dimension        Dim             ....   72

ORBITAL ENERGIES
----------------

  NO   OCC          E(Eh)            E(eV)
   0   2.0000     -19.479797      -530.0722
   1   2.0000     -10.539035      -286.7817
   2   2.0000     -10.440652      -284.1046
   3   2.0000     -10.440349      -284.0963
   4   2.0000      -1.144684       -31.1484
   5   2.0000      -0.856824       -23.3154
   6   2.0000      -0.800415       -21.7804
   7   2.0000      -0.603129       -16.4120
   8   2.0000      -0.522520       -14.2185
   9   2.0000      -0.517638       -14.0856
  10   2.0000      -0.517216       -14.0742
  11   2.0000      -0.465379       -12.6636
  12   2.0000      -0.456132       -12.4120
  13   2.0000      -0.434203       -11.8153
  14   2.0000      -0.390673       -10.6307
  15   2.0000      -0.303027        -8.2458
  16   0.0000       0.012691         0.3453
  17   0.0000       0.142724         3.8837
  18   0.0000       0.170259         4.6330
  19   0.0000       0.195099         5.3089
  20   0.0000       0.213938         5.8215

MULLIKEN ATOMIC CHARGES
-----------------------
   0 O :   -0.351314
   1 C :    0.351635
   2 C :   -0.739924
   3 C :   -0.739219
   4 H :    0.260228
   5 H :    0.260227
   6 H :    0.219324
   7 H :    0.260099
   8 H :    0.260102
   9 H :    0.218842
Sum of atomic charges:   -0.0000000

LOEWDIN ATOMIC CHARGES
----------------------
   0 O :   -0.207738
   1 C :    0.103895
   2 C :   -0.399060
   3 C :   -0.399020
   4 H :    0.159931
   5 H :    0.159931
   6 H :    0.131345
   7 H :    0.159864
   8 H :    0.159864
   9 H :    0.130989

  Mayer bond orders larger than 0.100000
B(  0-O ,  1-C ) :   2.1094 B(  1-C ,  2-C ) :   0.9324 B(  1-C ,  3-C ) :   0.9328
B(  2-C ,  4-H ) :   0.9100 B(  2-C ,  5-H ) :   0.9100 B(  2-C ,  6-H ) :   0.9207
B(  3-C ,  7-H ) :   0.9101 B(  3-C ,  8-H ) :   0.9101 B(  3-C ,  9-H ) :   0.9207

Dispersion correction           -0.003283392
FINAL SINGLE POINT ENERGY      -192.734578856235

DIPOLE MOMENT
-------------
                                X             Y             Z
Electronic contribution:     -0.44412      -0.01174       3.65633
Nuclear contribution   :      0.57903       0.01525      -4.73476
                        -----------------------------------------
Total Dipole Moment    :      0.13491       0.00351      -1.07843
                        -----------------------------------------
Magnitude (a.u.)       :      1.08684
Magnitude (Debye)      :      2.76253

Rotational constants in cm-1:     0.348860     0.276359     0.163443
Rotational constants in MHz : 10458.552070  8285.023436  4899.890480

                             ****ORCA TERMINATED NORMALLY****
TOTAL RUN TIME: 0 days 0 hours 1 minutes 14 seconds 691 msec
