                         Program Version 5.0.3 -  RELEASE  -
|  1> ! PBEh-3c def2/J TightSCF DefGrid3
|  2>
|  3> %maxcore 60000
|  4>
|  5> %pal
|  6> nprocs 4
|  7> end
|  8>
|  9> *xyzfile 0 1 PRO_xaf.xyz
| 10>
| 11>                          ****END OF INPUT****

CARTESIAN COORDINATES (ANGSTROEM)
---------------------------------
  N      0.960334   -0.047264   -0.167440
  C     -0.014804    0.609965    0.699338
  C     -1.466772    0.220525    0.461350
  O     -2.318938    0.459730    1.307538
  C      0.173849    2.102251    0.372194
  C      1.631663    2.185185   -0.070692
  C      1.794819    0.914901   -0.894895
  H      0.192444    0.423597    1.754144
  H     -0.480744    2.372404   -0.458245
  H     -0.078328    2.730264    1.221976
  H      2.292091    2.146357    0.795994
  H      1.853981    3.087759   -0.635654
  H      1.427486    1.055038   -1.914405
  H      2.809921    0.531501   -0.950263
  N     -1.716744   -0.321508   -0.754193
  H     -0.919796   -0.512568   -1.338739
  C     -3.050140   -0.689905   -1.175901
  H     -3.111464   -1.754567   -1.393638
  H     -3.722993   -0.453413   -0.357196
  H     -3.351588   -0.128973   -2.058654
  C      1.395474   -1.340809   -0.005531
  O      2.332938   -1.786341   -0.656101
  C      0.644455   -2.167458    1.010294
  H     -0.425587   -2.175038    0.811794
  H      1.032250   -3.179331    0.970379
  H      0.789923   -1.767321    2.013485

 Total Charge           Charge          ....    0
 Multiplicity           Mult            ....    1
 Number of Electrons    NEL             ....   92
 Basis Dimension        Dim             ....  208

ORBITAL ENERGIES
----------------

  NO   OCC          E(Eh)            E(eV)
   0   2.0000     -19.461471      -529.5735
   1   2.0000     -19.460521      -529.5477
   2   2.0000     -14.675159      -399.3314
   3   2.0000     -14.668184      -399.1416
   4   2.0000     -10.552666      -287.1526
   5   2.0000     -10.550138      -287.0838
   6   2.0000     -10.498186      -285.6702
   7   2.0000     -10.478784      -285.1422
   8   2.0000     -10.471139      -284.9342
   9   2.0000     -10.458649      -284.5943
  10   2.0000     -10.453532      -284.4551
  11   2.0000     -10.442812      -284.1634
  12   2.0000      -1.150971       -31.3195
  13   2.0000      -1.143783       -31.1239
  14   2.0000      -1.059918       -28.8418
  15   2.0000      -1.025102       -27.8944
  16   2.0000      -0.902135       -24.5483
  17   2.0000      -0.861769       -23.4499
  18   2.0000      -0.826380       -22.4869
  19   2.0000      -0.793176       -21.5834
  20   2.0000      -0.727820       -19.8050
  21   2.0000      -0.685383       -18.6502
  22   2.0000      -0.664247       -18.0751
  23   2.0000      -0.644237       -17.5306
  24   2.0000      -0.600120       -16.3301
  25   2.0000      -0.567154       -15.4330
  26   2.0000      -0.549698       -14.9580
  27   2.0000      -0.528749       -14.3880
  28   2.0000      -0.523082       -14.2338
  29   2.0000      -0.510428       -13.8895
  30   2.0000      -0.498102       -13.5541
  31   2.0000      -0.493034       -13.4161
  32   2.0000      -0.489992       -13.3334
  33   2.0000      -0.466880       -12.7045
  34   2.0000      -0.458554       -12.4779
  35   2.0000      -0.454005       -12.3541
  36   2.0000      -0.448436       -12.2026
  37   2.0000      -0.439306       -11.9541
  38   2.0000      -0.417389       -11.3577
  39   2.0000      -0.414512       -11.2794
  40   2.0000      -0.403163       -10.9706
  41   2.0000      -0.398950       -10.8560
  42   2.0000      -0.324755        -8.8370
  43   2.0000      -0.311756        -8.4833
  44   2.0000      -0.307952        -8.3798
  45   2.0000      -0.291783        -7.9398
  46   0.0000       0.049753         1.3538
  47   0.0000       0.057300         1.5592
  48   0.0000       0.109667         2.9842
  49   0.0000       0.133655         3.6369
  50   0.0000       0.143943         3.9169

MULLIKEN ATOMIC CHARGES
-----------------------
   0 N :   -0.506861
   1 C :   -0.149303
   2 C :    0.511975
   3 O :   -0.422783
   4 C :   -0.455943
   5 C :   -0.463927
   6 C :   -0.260726
   7 H :    0.261522
   8 H :    0.236238
   9 H :    0.262499
  10 H :    0.231282
  11 H :    0.239879
  12 H :    0.217051
  13 H :    0.268381
  14 N :   -0.633966
  15 H :    0.377559
  16 C :   -0.493068
  17 H :    0.222236
  18 H :    0.266480
  19 H :    0.222266
  20 C :    0.495514
  21 O :   -0.416662
  22 C :   -0.778864
  23 H :    0.251737
  24 H :    0.274380
  25 H :    0.243103
Sum of atomic charges:    0.0000000

LOEWDIN ATOMIC CHARGES
----------------------
   0 N :   -0.150311
   1 C :   -0.084177
   2 C :    0.093138
   3 O :   -0.277539
   4 C :   -0.220771
   5 C :   -0.243790
   6 C :   -0.133383
   7 H :    0.141174
   8 H :    0.134726
   9 H :    0.145339
  10 H :    0.131924
  11 H :    0.135347
  12 H :    0.117774
  13 H :    0.146723
  14 N :   -0.246915
  15 H :    0.260024
  16 C :   -0.257273
  17 H :    0.123572
  18 H :    0.154704
  19 H :    0.123338
  20 C :    0.108011
  21 O :   -0.265907
  22 C :   -0.392369
  23 H :    0.150379
  24 H :    0.157255
  25 H :    0.149007

  Mayer bond orders larger than 0.100000
B(  0-N ,  1-C ) :   0.9053 B(  0-N ,  6-C ) :   0.9285 B(  0-N , 20-C ) :   1.1151
B(  1-C ,  2-C ) :   0.9183 B(  1-C ,  4-C ) :   0.9462 B(  1-C ,  7-H ) :   0.8840
B(  2-C ,  3-O ) :   1.9934 B(  2-C , 14-N ) :   1.1360 B(  4-C ,  5-C ) :   0.9762
B(  4-C ,  8-H ) :   0.9115 B(  4-C ,  9-H ) :   0.9150 B(  5-C ,  6-C ) :   0.9573
B(  5-C , 10-H ) :   0.9145 B(  5-C , 11-H ) :   0.9220 B(  6-C , 12-H ) :   0.9153
B(  6-C , 13-H ) :   0.8987 B( 14-N , 15-H ) :   0.7968 B( 14-N , 16-C ) :   0.9498
B( 16-C , 17-H ) :   0.9215 B( 16-C , 18-H ) :   0.8977 B( 16-C , 19-H ) :   0.9208
B( 20-C , 21-O ) :   2.0126 B( 20-C , 22-C ) :   0.9389 B( 22-C , 23-H ) :   0.8956
B( 22-C , 24-H ) :   0.9152 B( 22-C , 25-H ) :   0.9051

Dispersion correction           -0.016084462
FINAL SINGLE POINT ENERGY      -572.041604856172

DIPOLE MOMENT
-------------
                                X             Y             Z
Electronic contribution:      1.55919      -1.74522       1.00511
Nuclear contribution   :     -1.68754       2.35883      -1.49504
                        -----------------------------------------
Total Dipole Moment    :     -0.12835       0.61361      -0.48993
                        -----------------------------------------
Magnitude (a.u.)       :      0.79562
Magnitude (Debye)      :      2.02232

Rotational constants in cm-1:     0.039245     0.026490     0.020086
Rotational constants in MHz :  1176.524753   794.153911   602.154722

                             ****ORCA TERMINATED NORMALLY****
TOTAL RUN TIME: 0 days 0 hours 2 minutes 40 seconds 312 msec
