                         Program Version 5.0.3 -  RELEASE  -
|  1> ! PBEh-3c def2/J TightSCF DefGrid3
|  2>
|  3> %maxcore 60000
|  4>
|  5> %pal
|  6> nprocs 4
|  7> end
|  8>
|  9> *xyzfile 0 1 4N_A.xyz
| 10>
| 11>                          ****END OF INPUT****

CARTESIAN COORDINATES (ANGSTROEM)
---------------------------------
  C      0.000000    0.000000   -0.958428
  C     -0.000000    0.673646    1.211259
  C     -0.000000   -0.673646    1.211259
  N      0.000000   -1.053704   -0.113239
  N      0.000000    1.053704   -0.113239
  H     -0.000000    1.372320    2.032710
  H     -0.000000   -1.372320    2.032710
  C      0.000000   -2.421181   -0.566187
  C      0.000000    2.421181   -0.566187
  H      0.886983   -2.952127   -0.216304
  H     -0.886983   -2.952127   -0.216304
  H      0.000000   -2.413512   -1.652720
  H     -0.886983    2.952127   -0.216304
  H      0.886983    2.952127   -0.216304
  H      0.000000    2.413512   -1.652720

 Total Charge           Charge          ....    0
 Multiplicity           Mult            ....    1
 Number of Electrons    NEL             ....   52
 Basis Dimension        Dim             ....  121

ORBITAL ENERGIES
----------------

  NO   OCC          E(Eh)            E(eV)
   0   2.0000     -14.677057      -399.3830
   1   2.0000     -14.676995      -399.3813
   2   2.0000     -10.464973      -284.7664
   3   2.0000     -10.464961      -284.7661
   4   2.0000     -10.464511      -284.7538
   5   2.0000     -10.463671      -284.7310
   6   2.0000     -10.434761      -283.9443
   7   2.0000      -1.129609       -30.7382
   8   2.0000      -1.011246       -27.5174
   9   2.0000      -0.861700       -23.4481
  10   2.0000      -0.808176       -21.9916
  11   2.0000      -0.763528       -20.7766
  12   2.0000      -0.667036       -18.1510
  13   2.0000      -0.636524       -17.3207
  14   2.0000      -0.587999       -16.0003
  15   2.0000      -0.533762       -14.5244
  16   2.0000      -0.514371       -13.9967
  17   2.0000      -0.500196       -13.6110
  18   2.0000      -0.491178       -13.3656
  19   2.0000      -0.488592       -13.2953
  20   2.0000      -0.443322       -12.0634
  21   2.0000      -0.432638       -11.7727
  22   2.0000      -0.429664       -11.6917
  23   2.0000      -0.314912        -8.5692
  24   2.0000      -0.263559        -7.1718
  25   2.0000      -0.248045        -6.7497
  26   0.0000       0.067179         1.8280
  27   0.0000       0.094664         2.5759
  28   0.0000       0.158212         4.3052
  29   0.0000       0.159878         4.3505
  30   0.0000       0.176720         4.8088

MULLIKEN ATOMIC CHARGES
-----------------------
   0 C :    0.072091
   1 C :   -0.086824
   2 C :   -0.086824
   3 N :   -0.399836
   4 N :   -0.399836
   5 H :    0.241062
   6 H :    0.241062
   7 C :   -0.491790
   8 C :   -0.491790
   9 H :    0.220074
  10 H :    0.220074
  11 H :    0.261195
  12 H :    0.220074
  13 H :    0.220074
  14 H :    0.261195
Sum of atomic charges:    0.0000000

LOEWDIN ATOMIC CHARGES
----------------------
   0 C :   -0.221719
   1 C :   -0.132345
   2 C :   -0.132345
   3 N :   -0.049650
   4 N :   -0.049650
   5 H :    0.139496
   6 H :    0.139496
   7 C :   -0.244532
   8 C :   -0.244532
   9 H :    0.123313
  10 H :    0.123313
  11 H :    0.151266
  12 H :    0.123313
  13 H :    0.123313
  14 H :    0.151266

  Mayer bond orders larger than 0.100000
B(  0-C ,  3-N ) :   1.2585 B(  0-C ,  4-N ) :   1.2585 B(  1-C ,  2-C ) :   1.6942
B(  1-C ,  4-N ) :   1.0898 B(  1-C ,  5-H ) :   0.9047 B(  2-C ,  3-N ) :   1.0898
B(  2-C ,  6-H ) :   0.9047 B(  3-N ,  7-C ) :   0.9481 B(  4-N ,  8-C ) :   0.9481
B(  7-C ,  9-H ) :   0.9170 B(  7-C , 10-H ) :   0.9170 B(  7-C , 11-H ) :   0.9117
B(  8-C , 12-H ) :   0.9170 B(  8-C , 13-H ) :   0.9170 B(  8-C , 14-H ) :   0.9117

Dispersion correction           -0.007035979
FINAL SINGLE POINT ENERGY      -304.125735944857

DIPOLE MOMENT
-------------
                                X             Y             Z
Electronic contribution:     -0.00000       0.00000       1.07913
Nuclear contribution   :      0.00000      -0.00000      -0.15517
                        -----------------------------------------
Total Dipole Moment    :     -0.00000       0.00000       0.92397
                        -----------------------------------------
Magnitude (a.u.)       :      0.92397
Magnitude (Debye)      :      2.34853

Rotational constants in cm-1:     0.235675     0.071227     0.055846
Rotational constants in MHz :  7065.371983  2135.323749  1674.214687

                             ****ORCA TERMINATED NORMALLY****
TOTAL RUN TIME: 0 days 0 hours 0 minutes 59 seconds 890 msec
