                         Program Version 5.0.3 -  RELEASE  -
|  1> ! PBEh-3c def2/J TightSCF DefGrid3
|  2>
|  3> %maxcore 60000
|  4>
|  5> %pal
|  6> nprocs 4
|  7> end
|  8>
|  9> *xyzfile 0 1 SI6H12_1.xyz
| 10>
| 11>                          ****END OF INPUT****

CARTESIAN COORDINATES (ANGSTROEM)
---------------------------------
  Si     1.918739   -1.107784    0.387796
  Si     1.918739    1.107784   -0.387796
  Si    -0.000000    2.215569    0.387796
  Si    -1.918739    1.107784   -0.387796
  Si    -1.918739   -1.107784    0.387796
  Si    -0.000000   -2.215569   -0.387796
  H      1.898268   -1.095965    1.875961
  H      3.151459   -1.819496   -0.047843
  H      3.151459    1.819496    0.047843
  H      1.898268    1.095965   -1.875961
  H     -0.000000    3.638991   -0.047843
  H     -0.000000    2.191931    1.875961
  H     -3.151459    1.819496    0.047843
  H     -1.898268    1.095965   -1.875961
  H     -3.151459   -1.819496   -0.047843
  H     -1.898268   -1.095965    1.875961
  H     -0.000000   -2.191931   -1.875961
  H     -0.000000   -3.638991    0.047843

 Total Charge           Charge          ....    0
 Multiplicity           Mult            ....    1
 Number of Electrons    NEL             ....   96
 Basis Dimension        Dim             ....  132

ORBITAL ENERGIES
----------------

  NO   OCC          E(Eh)            E(eV)
   0   2.0000     -66.736845     -1816.0019
   1   2.0000     -66.736837     -1816.0017
   2   2.0000     -66.736817     -1816.0011
   3   2.0000     -66.736753     -1815.9994
   4   2.0000     -66.736744     -1815.9991
   5   2.0000     -66.736670     -1815.9971
   6   2.0000      -5.518578      -150.1681
   7   2.0000      -5.518572      -150.1680
   8   2.0000      -5.518568      -150.1679
   9   2.0000      -5.518526      -150.1667
  10   2.0000      -5.518522      -150.1666
  11   2.0000      -5.518477      -150.1654
  12   2.0000      -3.809428      -103.6598
  13   2.0000      -3.809384      -103.6586
  14   2.0000      -3.809383      -103.6586
  15   2.0000      -3.809314      -103.6567
  16   2.0000      -3.809313      -103.6567
  17   2.0000      -3.809288      -103.6560
  18   2.0000      -3.809198      -103.6535
  19   2.0000      -3.809141      -103.6520
  20   2.0000      -3.809138      -103.6519
  21   2.0000      -3.809059      -103.6498
  22   2.0000      -3.809053      -103.6496
  23   2.0000      -3.809012      -103.6485
  24   2.0000      -3.808785      -103.6423
  25   2.0000      -3.808781      -103.6422
  26   2.0000      -3.808758      -103.6416
  27   2.0000      -3.808757      -103.6416
  28   2.0000      -3.808756      -103.6415
  29   2.0000      -3.808697      -103.6399
  30   2.0000      -0.670348       -18.2411
  31   2.0000      -0.627709       -17.0808
  32   2.0000      -0.627706       -17.0807
  33   2.0000      -0.556316       -15.1381
  34   2.0000      -0.556316       -15.1381
  35   2.0000      -0.524531       -14.2732
  36   2.0000      -0.426238       -11.5985
  37   2.0000      -0.425318       -11.5735
  38   2.0000      -0.414677       -11.2839
  39   2.0000      -0.414677       -11.2839
  40   2.0000      -0.398352       -10.8397
  41   2.0000      -0.398352       -10.8397
  42   2.0000      -0.369107       -10.0439
  43   2.0000      -0.359041        -9.7700
  44   2.0000      -0.359039        -9.7700
  45   2.0000      -0.322819        -8.7844
  46   2.0000      -0.322819        -8.7844
  47   2.0000      -0.319794        -8.7020
  48   0.0000      -0.001658        -0.0451
  49   0.0000      -0.001267        -0.0345
  50   0.0000       0.022179         0.6035
  51   0.0000       0.022182         0.6036
  52   0.0000       0.025830         0.7029

MULLIKEN ATOMIC CHARGES
-----------------------
   0 Si:   -0.040582
   1 Si:   -0.040583
   2 Si:   -0.040228
   3 Si:   -0.040582
   4 Si:   -0.040582
   5 Si:   -0.040228
   6 H :    0.016488
   7 H :    0.023986
   8 H :    0.023986
   9 H :    0.016488
  10 H :    0.023950
  11 H :    0.016494
  12 H :    0.023986
  13 H :    0.016488
  14 H :    0.023986
  15 H :    0.016488
  16 H :    0.016494
  17 H :    0.023951
Sum of atomic charges:    0.0000000

LOEWDIN ATOMIC CHARGES
----------------------
   0 Si:    0.006623
   1 Si:    0.006623
   2 Si:    0.006658
   3 Si:    0.006623
   4 Si:    0.006623
   5 Si:    0.006658
   6 H :   -0.004366
   7 H :   -0.002267
   8 H :   -0.002267
   9 H :   -0.004366
  10 H :   -0.002275
  11 H :   -0.004362
  12 H :   -0.002267
  13 H :   -0.004366
  14 H :   -0.002267
  15 H :   -0.004366
  16 H :   -0.004362
  17 H :   -0.002275

  Mayer bond orders larger than 0.100000
B(  0-Si,  1-Si) :   0.9645 B(  0-Si,  5-Si) :   0.9644 B(  0-Si,  6-H ) :   0.9588
B(  0-Si,  7-H ) :   0.9622 B(  1-Si,  2-Si) :   0.9644 B(  1-Si,  8-H ) :   0.9622
B(  1-Si,  9-H ) :   0.9588 B(  2-Si,  3-Si) :   0.9644 B(  2-Si, 10-H ) :   0.9622
B(  2-Si, 11-H ) :   0.9589 B(  3-Si,  4-Si) :   0.9645 B(  3-Si, 12-H ) :   0.9622
B(  3-Si, 13-H ) :   0.9588 B(  4-Si,  5-Si) :   0.9644 B(  4-Si, 14-H ) :   0.9622
B(  4-Si, 15-H ) :   0.9588 B(  5-Si, 16-H ) :   0.9589 B(  5-Si, 17-H ) :   0.9622

Dispersion correction           -0.011224218
FINAL SINGLE POINT ENERGY     -1742.029483321276

DIPOLE MOMENT
-------------
                                X             Y             Z
Electronic contribution:      0.00000       0.00000      -0.00000
Nuclear contribution   :      0.00000      -0.00000      -0.00000
                        -----------------------------------------
Total Dipole Moment    :      0.00000       0.00000      -0.00000
                        -----------------------------------------
Magnitude (a.u.)       :      0.00000
Magnitude (Debye)      :      0.00000

Rotational constants in cm-1:     0.032745     0.032745     0.018004
Rotational constants in MHz :   981.671755   981.671705   539.733973

                             ****ORCA TERMINATED NORMALLY****
TOTAL RUN TIME: 0 days 0 hours 1 minutes 39 seconds 502 msec
