                         Program Version 5.0.3 -  RELEASE  -
|  1> ! PBEh-3c def2/J TightSCF DefGrid3
|  2>
|  3> %maxcore 60000
|  4>
|  5> %pal
|  6> nprocs 4
|  7> end
|  8>
|  9> *xyzfile 1 1 p4p.xyz
| 10>
| 11>                          ****END OF INPUT****

CARTESIAN COORDINATES (ANGSTROEM)
---------------------------------
  C      0.788587   -0.454885    0.000000
  C      2.027616    0.117096    0.000000
  C     -0.346931    0.359551    0.000000
  C     -1.719286   -0.110505    0.000000
  H      0.676956   -1.533533    0.000000
  H      2.155809    1.195287    0.000000
  H      2.929812   -0.485395    0.000000
  H     -0.191388    1.438060    0.000000
  H     -1.827630   -1.192186    0.000000
  H     -2.246772    0.333255    0.860414
  H     -2.246772    0.333255   -0.860414

 Total Charge           Charge          ....    1
 Multiplicity           Mult            ....    1
 Number of Electrons    NEL             ....   30
 Basis Dimension        Dim             ....   74

ORBITAL ENERGIES
----------------

  NO   OCC          E(Eh)            E(eV)
   0   2.0000     -10.752393      -292.5875
   1   2.0000     -10.725307      -291.8504
   2   2.0000     -10.684934      -290.7518
   3   2.0000     -10.646549      -289.7073
   4   2.0000      -1.157247       -31.4903
   5   2.0000      -1.064919       -28.9779
   6   2.0000      -0.941477       -25.6189
   7   2.0000      -0.864462       -23.5232
   8   2.0000      -0.764921       -20.8146
   9   2.0000      -0.762036       -20.7360
  10   2.0000      -0.684258       -18.6196
  11   2.0000      -0.672341       -18.2953
  12   2.0000      -0.668975       -18.2037
  13   2.0000      -0.639133       -17.3917
  14   2.0000      -0.577660       -15.7189
  15   0.0000      -0.324159        -8.8208
  16   0.0000      -0.148152        -4.0314
  17   0.0000      -0.042086        -1.1452
  18   0.0000      -0.030147        -0.8203
  19   0.0000      -0.027829        -0.7573

MULLIKEN ATOMIC CHARGES
-----------------------
   0 C :   -0.184216
   1 C :   -0.323449
   2 C :   -0.026910
   3 C :   -0.736658
   4 H :    0.327230
   5 H :    0.319106
   6 H :    0.337920
   7 H :    0.327132
   8 H :    0.300804
   9 H :    0.329521
  10 H :    0.329521
Sum of atomic charges:    1.0000000

LOEWDIN ATOMIC CHARGES
----------------------
   0 C :   -0.163842
   1 C :    0.035923
   2 C :    0.148595
   3 C :   -0.354494
   4 H :    0.181166
   5 H :    0.181199
   6 H :    0.192237
   7 H :    0.181385
   8 H :    0.174712
   9 H :    0.211559
  10 H :    0.211559

  Mayer bond orders larger than 0.100000
B(  0-C ,  1-C ) :   1.4961 B(  0-C ,  2-C ) :   1.3171 B(  0-C ,  4-H ) :   0.8779
B(  1-C ,  2-C ) :   0.1902 B(  1-C ,  5-H ) :   0.8882 B(  1-C ,  6-H ) :   0.8788
B(  2-C ,  3-C ) :   1.0652 B(  2-C ,  7-H ) :   0.8704 B(  3-C ,  8-H ) :   0.8973
B(  3-C ,  9-H ) :   0.8337 B(  3-C , 10-H ) :   0.8337

Dispersion correction           -0.003852984
FINAL SINGLE POINT ENERGY      -155.949598878148

DIPOLE MOMENT
-------------
                                X             Y             Z
Electronic contribution:      1.97690       0.15034       0.00000
Nuclear contribution   :     -1.68717       0.19964       0.00000
                        -----------------------------------------
Total Dipole Moment    :      0.28974       0.34997       0.00000
                        -----------------------------------------
Magnitude (a.u.)       :      0.45435
Magnitude (Debye)      :      1.15486

Rotational constants in cm-1:     1.238267     0.138820     0.127648
Rotational constants in MHz : 37122.314322  4161.727076  3826.777081

                             ****ORCA TERMINATED NORMALLY****
TOTAL RUN TIME: 0 days 0 hours 0 minutes 51 seconds 690 msec
