                         Program Version 5.0.3 -  RELEASE  -
|  1> ! PBEh-3c def2/J TightSCF DefGrid3
|  2>
|  3> %maxcore 60000
|  4>
|  5> %pal
|  6> nprocs 4
|  7> end
|  8>
|  9> *xyzfile 0 1 honc.xyz
| 10>
| 11>                          ****END OF INPUT****

CARTESIAN COORDINATES (ANGSTROEM)
---------------------------------
  H     -1.446497   -0.835243    0.000000
  O     -1.124184    0.075297    0.000000
  N      0.204431   -0.038703    0.000000
  C      1.380467    0.014922    0.000000

 Total Charge           Charge          ....    0
 Multiplicity           Mult            ....    1
 Number of Electrons    NEL             ....   22
 Basis Dimension        Dim             ....   47

ORBITAL ENERGIES
----------------

  NO   OCC          E(Eh)            E(eV)
   0   2.0000     -19.621080      -533.9167
   1   2.0000     -14.740284      -401.1035
   2   2.0000     -10.501311      -285.7552
   3   2.0000      -1.280157       -34.8348
   4   2.0000      -1.018194       -27.7065
   5   2.0000      -0.744750       -20.2657
   6   2.0000      -0.598201       -16.2779
   7   2.0000      -0.547356       -14.8943
   8   2.0000      -0.409302       -11.1377
   9   2.0000      -0.374948       -10.2028
  10   2.0000      -0.369564       -10.0563
  11   0.0000       0.054049         1.4708
  12   0.0000       0.068549         1.8653
  13   0.0000       0.073051         1.9878
  14   0.0000       0.166304         4.5254
  15   0.0000       0.323291         8.7972

MULLIKEN ATOMIC CHARGES
-----------------------
   0 H :    0.469666
   1 O :   -0.476070
   2 N :    0.023454
   3 C :   -0.017049
Sum of atomic charges:    0.0000000

LOEWDIN ATOMIC CHARGES
----------------------
   0 H :    0.347312
   1 O :   -0.238429
   2 N :    0.025332
   3 C :   -0.134215

  Mayer bond orders larger than 0.100000
B(  0-H ,  1-O ) :   0.7519 B(  1-O ,  2-N ) :   1.0204 B(  1-O ,  3-C ) :   0.1265
B(  2-N ,  3-C ) :   2.4550

Dispersion correction           -0.000856938
FINAL SINGLE POINT ENERGY      -168.176371448037

DIPOLE MOMENT
-------------
                                X             Y             Z
Electronic contribution:      0.20091       0.10468      -0.00000
Nuclear contribution   :     -1.37258      -0.78270       0.00000
                        -----------------------------------------
Total Dipole Moment    :     -1.17167      -0.67802      -0.00000
                        -----------------------------------------
Magnitude (a.u.)       :      1.35371
Magnitude (Debye)      :      3.44086

Rotational constants in cm-1:    20.619014     0.368046     0.361592
Rotational constants in MHz : 618142.479755 11033.743030 10840.246389

                             ****ORCA TERMINATED NORMALLY****
TOTAL RUN TIME: 0 days 0 hours 0 minutes 56 seconds 260 msec
