                         Program Version 5.0.3 -  RELEASE  -
|  1> ! PBEh-3c def2/J TightSCF DefGrid3
|  2>
|  3> %maxcore 60000
|  4>
|  5> %pal
|  6> nprocs 4
|  7> end
|  8>
|  9> *xyzfile 0 1 ant.xyz
| 10>
| 11>                          ****END OF INPUT****

CARTESIAN COORDINATES (ANGSTROEM)
---------------------------------
  C     -1.404596    0.000000    0.000000
  C      1.404596    0.000000    0.000000
  C     -0.720525   -1.220267    0.000000
  C      0.720525    1.220267    0.000000
  C     -0.720525    1.220267    0.000000
  C      0.720525   -1.220267    0.000000
  H     -2.488777    0.000000    0.000000
  H      2.488777    0.000000    0.000000
  C     -1.405375   -2.467181    0.000000
  C      1.405375    2.467181    0.000000
  C     -1.405375    2.467181    0.000000
  C      1.405375   -2.467181    0.000000
  C     -0.709666   -3.650545    0.000000
  C      0.709666    3.650545    0.000000
  C     -0.709666    3.650545    0.000000
  C      0.709666   -3.650545    0.000000
  H     -2.487946   -2.466244    0.000000
  H      2.487946    2.466244    0.000000
  H     -2.487946    2.466244    0.000000
  H      2.487946   -2.466244    0.000000
  H     -1.244505   -4.589970    0.000000
  H      1.244505    4.589970    0.000000
  H     -1.244505    4.589970    0.000000
  H      1.244505   -4.589970    0.000000

 Total Charge           Charge          ....    0
 Multiplicity           Mult            ....    1
 Number of Electrons    NEL             ....   94
 Basis Dimension        Dim             ....  230

ORBITAL ENERGIES
----------------

  NO   OCC          E(Eh)            E(eV)
   0   2.0000     -10.463152      -284.7168
   1   2.0000     -10.463128      -284.7162
   2   2.0000     -10.462787      -284.7069
   3   2.0000     -10.462721      -284.7051
   4   2.0000     -10.454621      -284.4847
   5   2.0000     -10.454533      -284.4823
   6   2.0000     -10.453461      -284.4531
   7   2.0000     -10.453443      -284.4526
   8   2.0000     -10.453431      -284.4523
   9   2.0000     -10.453424      -284.4521
  10   2.0000     -10.452689      -284.4321
  11   2.0000     -10.452687      -284.4321
  12   2.0000     -10.452342      -284.4227
  13   2.0000     -10.452337      -284.4225
  14   2.0000      -0.987014       -26.8580
  15   2.0000      -0.952780       -25.9265
  16   2.0000      -0.899079       -24.4652
  17   2.0000      -0.881898       -23.9977
  18   2.0000      -0.845992       -23.0206
  19   2.0000      -0.832065       -22.6416
  20   2.0000      -0.792275       -21.5589
  21   2.0000      -0.729877       -19.8610
  22   2.0000      -0.697681       -18.9849
  23   2.0000      -0.680699       -18.5228
  24   2.0000      -0.670385       -18.2421
  25   2.0000      -0.614964       -16.7340
  26   2.0000      -0.594353       -16.1732
  27   2.0000      -0.575207       -15.6522
  28   2.0000      -0.532549       -14.4914
  29   2.0000      -0.529736       -14.4148
  30   2.0000      -0.518575       -14.1111
  31   2.0000      -0.512849       -13.9553
  32   2.0000      -0.488369       -13.2892
  33   2.0000      -0.478272       -13.0144
  34   2.0000      -0.469276       -12.7696
  35   2.0000      -0.461515       -12.5585
  36   2.0000      -0.451383       -12.2827
  37   2.0000      -0.438027       -11.9193
  38   2.0000      -0.418991       -11.4013
  39   2.0000      -0.405853       -11.0438
  40   2.0000      -0.392468       -10.6796
  41   2.0000      -0.383896       -10.4463
  42   2.0000      -0.353619        -9.6225
  43   2.0000      -0.349237        -9.5032
  44   2.0000      -0.301640        -8.2080
  45   2.0000      -0.280311        -7.6277
  46   2.0000      -0.229969        -6.2578
  47   0.0000      -0.051560        -1.4030
  48   0.0000       0.000957         0.0260
  49   0.0000       0.025071         0.6822
  50   0.0000       0.060913         1.6575
  51   0.0000       0.091635         2.4935

MULLIKEN ATOMIC CHARGES
-----------------------
   0 C :   -0.382115
   1 C :   -0.382113
   2 C :    0.156662
   3 C :    0.156662
   4 C :    0.156662
   5 C :    0.156664
   6 H :    0.208303
   7 H :    0.208302
   8 C :   -0.279367
   9 C :   -0.279367
  10 C :   -0.279367
  11 C :   -0.279369
  12 C :   -0.226291
  13 C :   -0.226291
  14 C :   -0.226294
  15 C :   -0.226292
  16 H :    0.214285
  17 H :    0.214285
  18 H :    0.214285
  19 H :    0.214285
  20 H :    0.221618
  21 H :    0.221618
  22 H :    0.221617
  23 H :    0.221617
Sum of atomic charges:   -0.0000000

LOEWDIN ATOMIC CHARGES
----------------------
   0 C :   -0.111212
   1 C :   -0.111212
   2 C :   -0.033108
   3 C :   -0.033108
   4 C :   -0.033108
   5 C :   -0.033108
   6 H :    0.138497
   7 H :    0.138497
   8 C :   -0.119656
   9 C :   -0.119656
  10 C :   -0.119656
  11 C :   -0.119656
  12 C :   -0.136801
  13 C :   -0.136801
  14 C :   -0.136802
  15 C :   -0.136801
  16 H :    0.138029
  17 H :    0.138029
  18 H :    0.138029
  19 H :    0.138029
  20 H :    0.137894
  21 H :    0.137894
  22 H :    0.137894
  23 H :    0.137894

  Mayer bond orders larger than 0.100000
B(  0-C ,  1-C ) :   0.1163 B(  0-C ,  2-C ) :   1.3177 B(  0-C ,  4-C ) :   1.3177
B(  0-C ,  6-H ) :   0.9345 B(  1-C ,  3-C ) :   1.3177 B(  1-C ,  5-C ) :   1.3177
B(  1-C ,  7-H ) :   0.9345 B(  2-C ,  5-C ) :   1.2058 B(  2-C ,  8-C ) :   1.1873
B(  3-C ,  4-C ) :   1.2058 B(  3-C ,  9-C ) :   1.1873 B(  4-C , 10-C ) :   1.1873
B(  5-C , 11-C ) :   1.1873 B(  8-C , 12-C ) :   1.5841 B(  8-C , 16-H ) :   0.9269
B(  9-C , 13-C ) :   1.5841 B(  9-C , 17-H ) :   0.9269 B( 10-C , 14-C ) :   1.5841
B( 10-C , 18-H ) :   0.9269 B( 11-C , 15-C ) :   1.5841 B( 11-C , 19-H ) :   0.9269
B( 12-C , 15-C ) :   1.2531 B( 12-C , 20-H ) :   0.9183 B( 13-C , 14-C ) :   1.2531
B( 13-C , 21-H ) :   0.9183 B( 14-C , 22-H ) :   0.9183 B( 15-C , 23-H ) :   0.9183

Dispersion correction           -0.017215309
FINAL SINGLE POINT ENERGY      -538.327385543854

DIPOLE MOMENT
-------------
                                X             Y             Z
Electronic contribution:     -0.00000       0.00000      -0.00000
Nuclear contribution   :      0.00000       0.00000       0.00000
                        -----------------------------------------
Total Dipole Moment    :     -0.00000       0.00000      -0.00000
                        -----------------------------------------
Magnitude (a.u.)       :      0.00000
Magnitude (Debye)      :      0.00000

Rotational constants in cm-1:     0.071701     0.015136     0.012498
Rotational constants in MHz :  2149.531833   453.780168   374.682296

                             ****ORCA TERMINATED NORMALLY****
TOTAL RUN TIME: 0 days 0 hours 2 minutes 53 seconds 768 msec
