                         Program Version 5.0.3 -  RELEASE  -
|  1> ! PBEh-3c def2/J TightSCF DefGrid3
|  2>
|  3> %maxcore 60000
|  4>
|  5> %pal
|  6> nprocs 4
|  7> end
|  8>
|  9> *xyzfile 0 1 hnnn.xyz
| 10>
| 11>                          ****END OF INPUT****

CARTESIAN COORDINATES (ANGSTROEM)
---------------------------------
  H     -1.587077   -0.835628    0.000000
  N     -1.164399    0.089269    0.000000
  N      0.073534   -0.038556    0.000000
  N      1.205069    0.009417    0.000000

 Total Charge           Charge          ....    0
 Multiplicity           Mult            ....    1
 Number of Electrons    NEL             ....   22
 Basis Dimension        Dim             ....   47

ORBITAL ENERGIES
----------------

  NO   OCC          E(Eh)            E(eV)
   0   2.0000     -14.834431      -403.6654
   1   2.0000     -14.725737      -400.7077
   2   2.0000     -14.684247      -399.5787
   3   2.0000      -1.265389       -34.4330
   4   2.0000      -1.081604       -29.4320
   5   2.0000      -0.693382       -18.8679
   6   2.0000      -0.582650       -15.8547
   7   2.0000      -0.581503       -15.8235
   8   2.0000      -0.525316       -14.2946
   9   2.0000      -0.378538       -10.3005
  10   2.0000      -0.321358        -8.7446
  11   0.0000       0.001999         0.0544
  12   0.0000       0.043507         1.1839
  13   0.0000       0.139240         3.7889
  14   0.0000       0.288739         7.8570
  15   0.0000       0.488415        13.2904

MULLIKEN ATOMIC CHARGES
-----------------------
   0 H :    0.363472
   1 N :   -0.503112
   2 N :    0.300663
   3 N :   -0.161022
Sum of atomic charges:    0.0000000

LOEWDIN ATOMIC CHARGES
----------------------
   0 H :    0.252356
   1 N :   -0.374803
   2 N :    0.203954
   3 N :   -0.081507

  Mayer bond orders larger than 0.100000
B(  0-H ,  1-N ) :   0.8002 B(  1-N ,  2-N ) :   1.5353 B(  1-N ,  3-N ) :   0.4222
B(  2-N ,  3-N ) :   2.4768

Dispersion correction           -0.000902134
FINAL SINGLE POINT ENERGY      -164.415890946973

DIPOLE MOMENT
-------------
                                X             Y             Z
Electronic contribution:      1.16112       0.09768      -0.00000
Nuclear contribution   :     -1.48833      -0.78363       0.00000
                        -----------------------------------------
Total Dipole Moment    :     -0.32720      -0.68595      -0.00000
                        -----------------------------------------
Magnitude (a.u.)       :      0.76000
Magnitude (Debye)      :      1.93176

Rotational constants in cm-1:    20.127413     0.401884     0.394016
Rotational constants in MHz : 603404.653228 12048.165585 11812.309497

                             ****ORCA TERMINATED NORMALLY****
TOTAL RUN TIME: 0 days 0 hours 0 minutes 51 seconds 735 msec
