                         Program Version 5.0.3 -  RELEASE  -
|  1> ! PBEh-3c def2/J TightSCF DefGrid3
|  2>
|  3> %maxcore 60000
|  4>
|  5> %pal
|  6> nprocs 4
|  7> end
|  8>
|  9> *xyzfile 0 1 12_benF6-benAB.xyz
| 10>
| 11>                          ****END OF INPUT****

CARTESIAN COORDINATES (ANGSTROEM)
---------------------------------
  F     -2.268328   -1.958203   -0.323025
  F     -2.703691    0.725550   -0.253119
  C      0.039970   -1.620649    0.000628
  C     -1.246715   -1.122332   -0.158189
  C     -1.468961    0.248282   -0.123448
  C     -0.404843    1.120111    0.068322
  C      0.882869    0.622304    0.223240
  C      1.104164   -0.748842    0.192246
  F     -0.620158    2.430733    0.113060
  F      1.901232    1.456424    0.399377
  F      0.250821   -2.933836   -0.010169
  F      2.333224   -1.227391    0.354783
  H     -1.719266   -1.313071    3.235115
  H     -2.117120    1.131566    3.250807
  C      0.409478   -1.125980    3.476774
  C     -0.887014   -0.630037    3.342090
  C     -1.111190    0.746397    3.352791
  C     -0.039418    1.626443    3.499616
  C      1.256371    1.130101    3.634841
  C      1.481109   -0.245785    3.623479
  H     -0.213650    2.693767    3.507371
  H      2.087583    1.812594    3.746421
  H      0.583631   -2.193776    3.470689
  H      2.486380   -0.630785    3.727095

 Total Charge           Charge          ....    0
 Multiplicity           Mult            ....    1
 Number of Electrons    NEL             ....  132
 Basis Dimension        Dim             ....  282

ORBITAL ENERGIES
----------------

  NO   OCC          E(Eh)            E(eV)
   0   2.0000     -25.148313      -684.3204
   1   2.0000     -25.148126      -684.3153
   2   2.0000     -25.148092      -684.3144
   3   2.0000     -25.147622      -684.3016
   4   2.0000     -25.147558      -684.2998
   5   2.0000     -25.146514      -684.2714
   6   2.0000     -10.579297      -287.8773
   7   2.0000     -10.579089      -287.8716
   8   2.0000     -10.579068      -287.8711
   9   2.0000     -10.578356      -287.8517
  10   2.0000     -10.578342      -287.8513
  11   2.0000     -10.578042      -287.8431
  12   2.0000     -10.458445      -284.5888
  13   2.0000     -10.457998      -284.5766
  14   2.0000     -10.457661      -284.5674
  15   2.0000     -10.457024      -284.5501
  16   2.0000     -10.456663      -284.5403
  17   2.0000     -10.456246      -284.5289
  18   2.0000      -1.405025       -38.2327
  19   2.0000      -1.397783       -38.0356
  20   2.0000      -1.397497       -38.0278
  21   2.0000      -1.383960       -37.6595
  22   2.0000      -1.383787       -37.6548
  23   2.0000      -1.376994       -37.4699
  24   2.0000      -1.019922       -27.7535
  25   2.0000      -0.961348       -26.1596
  26   2.0000      -0.890189       -24.2233
  27   2.0000      -0.890131       -24.2217
  28   2.0000      -0.844403       -22.9774
  29   2.0000      -0.844332       -22.9754
  30   2.0000      -0.766137       -20.8476
  31   2.0000      -0.766095       -20.8465
  32   2.0000      -0.696244       -18.9458
  33   2.0000      -0.687530       -18.7086
  34   2.0000      -0.687356       -18.7039
  35   2.0000      -0.685630       -18.6569
  36   2.0000      -0.670798       -18.2533
  37   2.0000      -0.631918       -17.1954
  38   2.0000      -0.631848       -17.1934
  39   2.0000      -0.618837       -16.8394
  40   2.0000      -0.618647       -16.8343
  41   2.0000      -0.618501       -16.8303
  42   2.0000      -0.599894       -16.3239
  43   2.0000      -0.585744       -15.9389
  44   2.0000      -0.585531       -15.9331
  45   2.0000      -0.557142       -15.1606
  46   2.0000      -0.556877       -15.1534
  47   2.0000      -0.548198       -14.9172
  48   2.0000      -0.533822       -14.5260
  49   2.0000      -0.533161       -14.5081
  50   2.0000      -0.533046       -14.5049
  51   2.0000      -0.521501       -14.1908
  52   2.0000      -0.517032       -14.0691
  53   2.0000      -0.490133       -13.3372
  54   2.0000      -0.489998       -13.3335
  55   2.0000      -0.489450       -13.3186
  56   2.0000      -0.489133       -13.3100
  57   2.0000      -0.456513       -12.4223
  58   2.0000      -0.437318       -11.9000
  59   2.0000      -0.413657       -11.2562
  60   2.0000      -0.406375       -11.0580
  61   2.0000      -0.406368       -11.0578
  62   2.0000      -0.320399        -8.7185
  63   2.0000      -0.315584        -8.5875
  64   2.0000      -0.299403        -8.1472
  65   2.0000      -0.295311        -8.0358
  66   0.0000      -0.008267        -0.2250
  67   0.0000      -0.007504        -0.2042
  68   0.0000       0.010761         0.2928
  69   0.0000       0.010942         0.2978
  70   0.0000       0.020975         0.5707

MULLIKEN ATOMIC CHARGES
-----------------------
   0 F :   -0.282005
   1 F :   -0.282454
   2 C :    0.277711
   3 C :    0.274001
   4 C :    0.277405
   5 C :    0.285815
   6 C :    0.288782
   7 C :    0.286052
   8 F :   -0.282045
   9 F :   -0.281036
  10 F :   -0.282442
  11 F :   -0.282020
  12 H :    0.230654
  13 H :    0.231328
  14 C :   -0.233525
  15 C :   -0.234900
  16 C :   -0.233725
  17 C :   -0.227364
  18 C :   -0.220706
  19 C :   -0.227062
  20 H :    0.229227
  21 H :    0.227875
  22 H :    0.231302
  23 H :    0.229131
Sum of atomic charges:    0.0000000

LOEWDIN ATOMIC CHARGES
----------------------
   0 F :   -0.118596
   1 F :   -0.118353
   2 C :    0.113231
   3 C :    0.111842
   4 C :    0.113086
   5 C :    0.117988
   6 C :    0.118656
   7 C :    0.118083
   8 F :   -0.115651
   9 F :   -0.113247
  10 F :   -0.118289
  11 F :   -0.115543
  12 H :    0.138461
  13 H :    0.139194
  14 C :   -0.138884
  15 C :   -0.141606
  16 C :   -0.138995
  17 C :   -0.137382
  18 C :   -0.134237
  19 C :   -0.137264
  20 H :    0.139500
  21 H :    0.139284
  22 H :    0.139232
  23 H :    0.139489

  Mayer bond orders larger than 0.100000
B(  0-F ,  3-C ) :   0.9655 B(  1-F ,  4-C ) :   0.9645 B(  2-C ,  3-C ) :   1.3277
B(  2-C ,  7-C ) :   1.3278 B(  2-C , 10-F ) :   0.9644 B(  3-C ,  4-C ) :   1.3275
B(  4-C ,  5-C ) :   1.3280 B(  5-C ,  6-C ) :   1.3296 B(  5-C ,  8-F ) :   0.9603
B(  6-C ,  7-C ) :   1.3299 B(  6-C ,  9-F ) :   0.9589 B(  7-C , 11-F ) :   0.9601
B( 12-H , 15-C ) :   0.9159 B( 13-H , 16-C ) :   0.9158 B( 14-C , 15-C ) :   1.4243
B( 14-C , 19-C ) :   1.4235 B( 14-C , 22-H ) :   0.9159 B( 15-C , 16-C ) :   1.4244
B( 16-C , 17-C ) :   1.4234 B( 17-C , 18-C ) :   1.4236 B( 17-C , 20-H ) :   0.9172
B( 18-C , 19-C ) :   1.4234 B( 18-C , 21-H ) :   0.9177 B( 19-C , 23-H ) :   0.9173

Dispersion correction           -0.017394280
FINAL SINGLE POINT ENERGY     -1057.724746680637

DIPOLE MOMENT
-------------
                                X             Y             Z
Electronic contribution:     -1.98980      -2.73830     -19.14552
Nuclear contribution   :      2.06988       2.81074      19.30868
                        -----------------------------------------
Total Dipole Moment    :      0.08008       0.07244       0.16317
                        -----------------------------------------
Magnitude (a.u.)       :      0.19566
Magnitude (Debye)      :      0.49733

Rotational constants in cm-1:     0.016626     0.013442     0.012052
Rotational constants in MHz :   498.430642   402.985419   361.310265

                             ****ORCA TERMINATED NORMALLY****
TOTAL RUN TIME: 0 days 0 hours 3 minutes 56 seconds 69 msec
