                         Program Version 5.0.3 -  RELEASE  -
|  1> ! PBEh-3c def2/J TightSCF DefGrid3
|  2>
|  3> %maxcore 60000
|  4>
|  5> %pal
|  6> nprocs 4
|  7> end
|  8>
|  9> *xyzfile 0 1 AlH3.xyz
| 10>
| 11>                          ****END OF INPUT****

CARTESIAN COORDINATES (ANGSTROEM)
---------------------------------
  Al    -0.000000    0.000000    0.000000
  H     -0.792651    1.372912    0.000000
  H     -0.792651   -1.372912    0.000000
  H      1.585303    0.000000    0.000000

 Total Charge           Charge          ....    0
 Multiplicity           Mult            ....    1
 Number of Electrons    NEL             ....   16
 Basis Dimension        Dim             ....   24

ORBITAL ENERGIES
----------------

  NO   OCC          E(Eh)            E(eV)
   0   2.0000     -56.605048     -1540.3017
   1   2.0000      -4.349648      -118.3599
   2   2.0000      -2.843405       -77.3730
   3   2.0000      -2.834475       -77.1300
   4   2.0000      -2.834475       -77.1300
   5   2.0000      -0.473258       -12.8780
   6   2.0000      -0.351063        -9.5529
   7   2.0000      -0.351062        -9.5529
   8   0.0000      -0.047253        -1.2858
   9   0.0000       0.092503         2.5171
  10   0.0000       0.103535         2.8173
  11   0.0000       0.103540         2.8175
  12   0.0000       0.122897         3.3442

MULLIKEN ATOMIC CHARGES
-----------------------
   0 Al:    0.353365
   1 H :   -0.117797
   2 H :   -0.117797
   3 H :   -0.117771
Sum of atomic charges:    0.0000000

LOEWDIN ATOMIC CHARGES
----------------------
   0 Al:    0.240513
   1 H :   -0.080174
   2 H :   -0.080174
   3 H :   -0.080165

  Mayer bond orders larger than 0.100000
B(  0-Al,  1-H ) :   0.9435 B(  0-Al,  2-H ) :   0.9435 B(  0-Al,  3-H ) :   0.9435

Dispersion correction           -0.000534261
FINAL SINGLE POINT ENERGY      -243.863437978945

DIPOLE MOMENT
-------------
                                X             Y             Z
Electronic contribution:     -0.00000       0.00000       0.00000
Nuclear contribution   :     -0.00000       0.00000       0.00000
                        -----------------------------------------
Total Dipole Moment    :     -0.00000       0.00000       0.00000
                        -----------------------------------------
Magnitude (a.u.)       :      0.00000
Magnitude (Debye)      :      0.00000

Rotational constants in cm-1:     4.436298     4.436298     2.218149
Rotational constants in MHz : 132996.870263 132996.862561 66498.433206

                             ****ORCA TERMINATED NORMALLY****
TOTAL RUN TIME: 0 days 0 hours 1 minutes 7 seconds 119 msec
