                         Program Version 5.0.3 -  RELEASE  -
|  1> ! PBEh-3c def2/J TightSCF DefGrid3
|  2>
|  3> %maxcore 60000
|  4>
|  5> %pal
|  6> nprocs 4
|  7> end
|  8>
|  9> *xyzfile 0 1 08.xyz
| 10>
| 11>                          ****END OF INPUT****

CARTESIAN COORDINATES (ANGSTROEM)
---------------------------------
  O     -0.922075    0.661050    0.000000
  H      0.042193    0.628576    0.000000
  C     -1.383504   -0.674427    0.000000
  H     -2.469791   -0.643036    0.000000
  H     -1.062010   -1.228271   -0.884992
  H     -1.062010   -1.228271    0.884992
  O      1.993370    0.564532    0.000000
  H      2.432120    0.957528   -0.757297
  H      2.432120    0.957528    0.757297

 Total Charge           Charge          ....    0
 Multiplicity           Mult            ....    1
 Number of Electrons    NEL             ....   28
 Basis Dimension        Dim             ....   57

ORBITAL ENERGIES
----------------

  NO   OCC          E(Eh)            E(eV)
   0   2.0000     -19.511707      -530.9405
   1   2.0000     -19.448335      -529.2161
   2   2.0000     -10.451006      -284.3863
   3   2.0000      -1.138950       -30.9924
   4   2.0000      -1.087216       -29.5846
   5   2.0000      -0.735965       -20.0266
   6   2.0000      -0.615322       -16.7438
   7   2.0000      -0.545060       -14.8318
   8   2.0000      -0.474180       -12.9031
   9   2.0000      -0.472891       -12.8680
  10   2.0000      -0.455574       -12.3968
  11   2.0000      -0.395866       -10.7721
  12   2.0000      -0.356950        -9.7131
  13   2.0000      -0.296730        -8.0744
  14   0.0000       0.102002         2.7756
  15   0.0000       0.184398         5.0177
  16   0.0000       0.187228         5.0947
  17   0.0000       0.223085         6.0705
  18   0.0000       0.244212         6.6453

MULLIKEN ATOMIC CHARGES
-----------------------
   0 O :   -0.665109
   1 H :    0.434721
   2 C :   -0.362279
   3 H :    0.202072
   4 H :    0.172515
   5 H :    0.172515
   6 O :   -0.811646
   7 H :    0.428605
   8 H :    0.428605
Sum of atomic charges:    0.0000000

LOEWDIN ATOMIC CHARGES
----------------------
   0 O :   -0.445837
   1 H :    0.295826
   2 C :   -0.195743
   3 H :    0.113087
   4 H :    0.091184
   5 H :    0.091184
   6 O :   -0.571591
   7 H :    0.310945
   8 H :    0.310945

  Mayer bond orders larger than 0.100000
B(  0-O ,  1-H ) :   0.7241 B(  0-O ,  2-C ) :   1.0427 B(  2-C ,  3-H ) :   0.9288
B(  2-C ,  4-H ) :   0.9197 B(  2-C ,  5-H ) :   0.9197 B(  6-O ,  7-H ) :   0.7975
B(  6-O ,  8-H ) :   0.7975

Dispersion correction           -0.001844223
FINAL SINGLE POINT ENERGY      -191.734831644008

DIPOLE MOMENT
-------------
                                X             Y             Z
Electronic contribution:      1.15125       1.82520      -0.00000
Nuclear contribution   :      0.21446      -1.74096       0.00000
                        -----------------------------------------
Total Dipole Moment    :      1.36571       0.08424      -0.00000
                        -----------------------------------------
Magnitude (a.u.)       :      1.36831
Magnitude (Debye)      :      3.47796

Rotational constants in cm-1:     1.043317     0.129002     0.119249
Rotational constants in MHz : 31277.857691  3867.387147  3575.004095

                             ****ORCA TERMINATED NORMALLY****
TOTAL RUN TIME: 0 days 0 hours 0 minutes 59 seconds 528 msec
