                         Program Version 5.0.3 -  RELEASE  -
|  1> ! PBEh-3c def2/J TightSCF DefGrid3
|  2>
|  3> %maxcore 60000
|  4>
|  5> %pal
|  6> nprocs 4
|  7> end
|  8>
|  9> *xyzfile -1 1 0a.xyz
| 10>
| 11>                          ****END OF INPUT****

CARTESIAN COORDINATES (ANGSTROEM)
---------------------------------
  H      3.028759   -1.810436   -4.528097
  O      2.626282   -1.777916   -3.645713
  C      1.985887   -0.498484   -3.493438
  H      1.300049   -0.306459   -4.327484
  H      2.733607    0.305711   -3.453747
  C      1.204411   -0.496854   -2.194012
  H      0.823945    0.513737   -2.015662
  O      0.046401   -1.388816   -2.290352
  C      0.166415   -2.447903   -1.339194
  H     -0.518098   -2.289820   -0.502444
  N     -0.264879   -3.698258   -1.967362
  C      0.461603   -4.224103   -3.011921
  H      1.327779   -3.635613   -3.300331
  C      0.110310   -5.365205   -3.650341
  H      0.706083   -5.756039   -4.464265
  C     -1.090321   -6.061627   -3.261955
  O     -1.531321   -7.106453   -3.755646
  N     -1.811059   -5.415770   -2.246207
  H     -2.687424   -5.846590   -1.962157
  C     -1.481927   -4.257142   -1.572937
  O     -2.209608   -3.761821   -0.715300
  C      1.995725   -0.974483   -0.976272
  H      3.070100   -0.802033   -1.068303
  C      1.627774   -2.457235   -0.852841
  H      2.249902   -3.048556   -1.527542
  O      1.786928   -2.987255    0.451897
  H      1.634414   -2.253311    1.087708
  O      1.495915   -0.317806    0.197530
  P      2.498475    0.246328    1.378095
  O      3.860969    0.491568    0.800470
  O      2.291163   -0.632969    2.577329
  O      1.734360    1.646833    1.702528
  C      1.873632    2.736535    0.765993
  H      1.899855    2.355490   -0.260407
  H      2.805805    3.273956    0.968255
  C      0.707826    3.684712    0.928853
  H      0.916796    4.585331    0.336493
  O     -0.509672    3.073364    0.419303
  C     -1.623184    3.456340    1.201227
  H     -2.406663    3.881300    0.570687
  N     -2.201807    2.234600    1.845778
  C     -1.544589    1.031861    1.859398
  H     -0.578117    1.038347    1.371878
  C     -2.069260   -0.077014    2.440471
  H     -1.527107   -1.013195    2.435686
  C     -3.360341   -0.018733    3.075459
  O     -3.951847   -0.946883    3.641445
  N     -3.960426    1.249272    3.009881
  H     -4.874620    1.347735    3.444304
  C     -3.455518    2.391175    2.427160
  O     -4.057673    3.465144    2.414965
  C      0.366001    4.094566    2.360962
  H      0.500159    3.251168    3.044163
  C     -1.123853    4.463884    2.245464
  H     -1.665914    4.379881    3.192450
  O     -1.254107    5.774809    1.695460
  H     -0.478651    6.271628    2.027727
  O      1.183763    5.200088    2.746996
  H      1.216894    5.229418    3.717913

 Total Charge           Charge          ....   -1
 Multiplicity           Mult            ....    1
 Number of Electrons    NEL             ....  286
 Basis Dimension        Dim             ....  602

ORBITAL ENERGIES
----------------

  NO   OCC          E(Eh)            E(eV)
   0   2.0000     -77.727014     -2115.0596
   1   2.0000     -19.456619      -529.4415
   2   2.0000     -19.447752      -529.2002
   3   2.0000     -19.444211      -529.1039
   4   2.0000     -19.427096      -528.6382
   5   2.0000     -19.425451      -528.5934
   6   2.0000     -19.398762      -527.8671
   7   2.0000     -19.398500      -527.8600
   8   2.0000     -19.396531      -527.8064
   9   2.0000     -19.394533      -527.7521
  10   2.0000     -19.393215      -527.7162
  11   2.0000     -19.383714      -527.4577
  12   2.0000     -19.379507      -527.3432
  13   2.0000     -19.287408      -524.8370
  14   2.0000     -19.280267      -524.6427
  15   2.0000     -14.629945      -398.1011
  16   2.0000     -14.629392      -398.0860
  17   2.0000     -14.615915      -397.7193
  18   2.0000     -14.612524      -397.6270
  19   2.0000     -10.521862      -286.3144
  20   2.0000     -10.521149      -286.2950
  21   2.0000     -10.491623      -285.4916
  22   2.0000     -10.478191      -285.1261
  23   2.0000     -10.474137      -285.0157
  24   2.0000     -10.446224      -284.2562
  25   2.0000     -10.443219      -284.1744
  26   2.0000     -10.436634      -283.9952
  27   2.0000     -10.432028      -283.8699
  28   2.0000     -10.430209      -283.8204
  29   2.0000     -10.429299      -283.7957
  30   2.0000     -10.424881      -283.6754
  31   2.0000     -10.421485      -283.5830
  32   2.0000     -10.408423      -283.2276
  33   2.0000     -10.407500      -283.2025
  34   2.0000     -10.404836      -283.1300
  35   2.0000     -10.380377      -282.4644
  36   2.0000     -10.360604      -281.9264
  37   2.0000      -6.771208      -184.2539
  38   2.0000      -4.866357      -132.4203
  39   2.0000      -4.865174      -132.3881
  40   2.0000      -4.862588      -132.3178
  41   2.0000      -1.116509       -30.3818
  42   2.0000      -1.106950       -30.1216
  43   2.0000      -1.100302       -29.9407
  44   2.0000      -1.084058       -29.4987
  45   2.0000      -1.083288       -29.4778
  46   2.0000      -1.068006       -29.0619
  47   2.0000      -1.064665       -28.9710
  48   2.0000      -1.056062       -28.7369
  49   2.0000      -1.054741       -28.7010
  50   2.0000      -1.052346       -28.6358
  51   2.0000      -1.024987       -27.8913
  52   2.0000      -1.005862       -27.3709
  53   2.0000      -0.996173       -27.1073
  54   2.0000      -0.995033       -27.0762
  55   2.0000      -0.948864       -25.8199
  56   2.0000      -0.945510       -25.7286
  57   2.0000      -0.915173       -24.9031
  58   2.0000      -0.872928       -23.7536
  59   2.0000      -0.816360       -22.2143
  60   2.0000      -0.807900       -21.9841
  61   2.0000      -0.801454       -21.8087
  62   2.0000      -0.789285       -21.4775
  63   2.0000      -0.770717       -20.9723
  64   2.0000      -0.759462       -20.6660
  65   2.0000      -0.697257       -18.9733
  66   2.0000      -0.692548       -18.8452
  67   2.0000      -0.691248       -18.8098
  68   2.0000      -0.683606       -18.6019
  69   2.0000      -0.645188       -17.5564
  70   2.0000      -0.643220       -17.5029
  71   2.0000      -0.615183       -16.7400
  72   2.0000      -0.605986       -16.4897
  73   2.0000      -0.594289       -16.1714
  74   2.0000      -0.583407       -15.8753
  75   2.0000      -0.562338       -15.3020
  76   2.0000      -0.553656       -15.0657
  77   2.0000      -0.547594       -14.9008
  78   2.0000      -0.545599       -14.8465
  79   2.0000      -0.537123       -14.6159
  80   2.0000      -0.530878       -14.4459
  81   2.0000      -0.517359       -14.0781
  82   2.0000      -0.511911       -13.9298
  83   2.0000      -0.506493       -13.7824
  84   2.0000      -0.498781       -13.5725
  85   2.0000      -0.488388       -13.2897
  86   2.0000      -0.484903       -13.1949
  87   2.0000      -0.472755       -12.8643
  88   2.0000      -0.468085       -12.7372
  89   2.0000      -0.465681       -12.6718
  90   2.0000      -0.461475       -12.5574
  91   2.0000      -0.459618       -12.5068
  92   2.0000      -0.445773       -12.1301
  93   2.0000      -0.442482       -12.0405
  94   2.0000      -0.434496       -11.8232
  95   2.0000      -0.431577       -11.7438
  96   2.0000      -0.429162       -11.6781
  97   2.0000      -0.425515       -11.5789
  98   2.0000      -0.422116       -11.4864
  99   2.0000      -0.413376       -11.2485
 100   2.0000      -0.406146       -11.0518
 101   2.0000      -0.401727       -10.9316
 102   2.0000      -0.400990       -10.9115
 103   2.0000      -0.398285       -10.8379
 104   2.0000      -0.393571       -10.7096
 105   2.0000      -0.390804       -10.6343
 106   2.0000      -0.386322       -10.5124
 107   2.0000      -0.380679       -10.3588
 108   2.0000      -0.373760       -10.1705
 109   2.0000      -0.370715       -10.0877
 110   2.0000      -0.368078       -10.0159
 111   2.0000      -0.365007        -9.9324
 112   2.0000      -0.353183        -9.6106
 113   2.0000      -0.346156        -9.4194
 114   2.0000      -0.340986        -9.2787
 115   2.0000      -0.340347        -9.2613
 116   2.0000      -0.331272        -9.0144
 117   2.0000      -0.328645        -8.9429
 118   2.0000      -0.325289        -8.8516
 119   2.0000      -0.311569        -8.4782
 120   2.0000      -0.294667        -8.0183
 121   2.0000      -0.287532        -7.8242
 122   2.0000      -0.284361        -7.7379
 123   2.0000      -0.280927        -7.6444
 124   2.0000      -0.278040        -7.5658
 125   2.0000      -0.273454        -7.4411
 126   2.0000      -0.269057        -7.3214
 127   2.0000      -0.265442        -7.2230
 128   2.0000      -0.265092        -7.2135
 129   2.0000      -0.260741        -7.0951
 130   2.0000      -0.255371        -6.9490
 131   2.0000      -0.251263        -6.8372
 132   2.0000      -0.250792        -6.8244
 133   2.0000      -0.247516        -6.7352
 134   2.0000      -0.238535        -6.4909
 135   2.0000      -0.232595        -6.3292
 136   2.0000      -0.228268        -6.2115
 137   2.0000      -0.211827        -5.7641
 138   2.0000      -0.203677        -5.5423
 139   2.0000      -0.196647        -5.3510
 140   2.0000      -0.193328        -5.2607
 141   2.0000      -0.175524        -4.7762
 142   2.0000      -0.160717        -4.3733
 143   0.0000       0.061455         1.6723
 144   0.0000       0.077836         2.1180
 145   0.0000       0.121304         3.3009
 146   0.0000       0.122778         3.3410
 147   0.0000       0.154180         4.1954

MULLIKEN ATOMIC CHARGES
-----------------------
   0 H :    0.422236
   1 O :   -0.638587
   2 C :   -0.175519
   3 H :    0.204709
   4 H :    0.197094
   5 C :    0.010165
   6 H :    0.244312
   7 O :   -0.491104
   8 C :    0.181796
   9 H :    0.282491
  10 N :   -0.570303
  11 C :    0.099073
  12 H :    0.308162
  13 C :   -0.486954
  14 H :    0.239725
  15 C :    0.562994
  16 O :   -0.433697
  17 N :   -0.737825
  18 H :    0.389345
  19 C :    0.732134
  20 O :   -0.434019
  21 C :   -0.055018
  22 H :    0.280962
  23 C :    0.006381
  24 H :    0.229948
  25 O :   -0.643669
  26 H :    0.448389
  27 O :   -0.657605
  28 P :    1.370715
  29 O :   -0.740952
  30 O :   -0.715314
  31 O :   -0.607257
  32 C :   -0.154745
  33 H :    0.215090
  34 H :    0.222266
  35 C :    0.032196
  36 H :    0.219809
  37 O :   -0.492853
  38 C :    0.214048
  39 H :    0.272673
  40 N :   -0.579769
  41 C :    0.070400
  42 H :    0.342098
  43 C :   -0.471538
  44 H :    0.282129
  45 C :    0.556281
  46 O :   -0.428642
  47 N :   -0.731387
  48 H :    0.383935
  49 C :    0.711827
  50 O :   -0.458860
  51 C :   -0.070131
  52 H :    0.271493
  53 C :   -0.030778
  54 H :    0.235765
  55 O :   -0.640411
  56 H :    0.420313
  57 O :   -0.641049
  58 H :    0.427029
Sum of atomic charges:   -1.0000000

LOEWDIN ATOMIC CHARGES
----------------------
   0 H :    0.312088
   1 O :   -0.416782
   2 C :   -0.097822
   3 H :    0.112039
   4 H :    0.111780
   5 C :   -0.015287
   6 H :    0.135366
   7 O :   -0.258129
   8 C :    0.061630
   9 H :    0.151278
  10 N :   -0.082157
  11 C :    0.006635
  12 H :    0.161710
  13 C :   -0.258874
  14 H :    0.153364
  15 C :    0.127503
  16 O :   -0.284910
  17 N :   -0.201769
  18 H :    0.283061
  19 C :    0.168516
  20 O :   -0.273897
  21 C :   -0.029361
  22 H :    0.146752
  23 C :   -0.039053
  24 H :    0.127589
  25 O :   -0.391081
  26 H :    0.323810
  27 O :   -0.358991
  28 P :    0.802083
  29 O :   -0.607856
  30 O :   -0.599539
  31 O :   -0.351055
  32 C :   -0.082427
  33 H :    0.123137
  34 H :    0.128482
  35 C :   -0.014372
  36 H :    0.124068
  37 O :   -0.228652
  38 C :    0.088797
  39 H :    0.142927
  40 N :   -0.098896
  41 C :   -0.001697
  42 H :    0.177403
  43 C :   -0.241564
  44 H :    0.172916
  45 C :    0.125607
  46 O :   -0.280841
  47 N :   -0.201075
  48 H :    0.279836
  49 C :    0.153718
  50 O :   -0.296435
  51 C :   -0.045037
  52 H :    0.141126
  53 C :   -0.043972
  54 H :    0.120102
  55 O :   -0.399265
  56 H :    0.310069
  57 O :   -0.393421
  58 H :    0.320825

  Mayer bond orders larger than 0.100000
B(  0-H ,  1-O ) :   0.7888 B(  1-O ,  2-C ) :   0.9773 B(  2-C ,  3-H ) :   0.9046
B(  2-C ,  4-H ) :   0.8971 B(  2-C ,  5-C ) :   0.9442 B(  5-C ,  6-H ) :   0.8959
B(  5-C ,  7-O ) :   0.9417 B(  5-C , 21-C ) :   0.9290 B(  7-O ,  8-C ) :   0.9863
B(  8-C ,  9-H ) :   0.8612 B(  8-C , 10-N ) :   0.8851 B(  8-C , 23-C ) :   0.8813
B( 10-N , 11-C ) :   1.0831 B( 10-N , 19-C ) :   1.0164 B( 11-C , 12-H ) :   0.8428
B( 11-C , 13-C ) :   1.5960 B( 13-C , 14-H ) :   0.9218 B( 13-C , 15-C ) :   1.0785
B( 15-C , 16-O ) :   1.9958 B( 15-C , 17-N ) :   0.9951 B( 17-N , 18-H ) :   0.8042
B( 17-N , 19-C ) :   1.0523 B( 19-C , 20-O ) :   1.9785 B( 21-C , 22-H ) :   0.8644
B( 21-C , 23-C ) :   0.9329 B( 21-C , 27-O ) :   0.8999 B( 23-C , 24-H ) :   0.8907
B( 23-C , 25-O ) :   1.0913 B( 25-O , 26-H ) :   0.6980 B( 27-O , 28-P ) :   0.8110
B( 28-P , 29-O ) :   1.6912 B( 28-P , 30-O ) :   1.7407 B( 28-P , 31-O ) :   0.8709
B( 31-O , 32-C ) :   0.9312 B( 32-C , 33-H ) :   0.8941 B( 32-C , 34-H ) :   0.8969
B( 32-C , 35-C ) :   0.9600 B( 35-C , 36-H ) :   0.8908 B( 35-C , 37-O ) :   0.9103
B( 35-C , 51-C ) :   0.9244 B( 37-O , 38-C ) :   1.0172 B( 38-C , 39-H ) :   0.8818
B( 38-C , 40-N ) :   0.8399 B( 38-C , 53-C ) :   0.9268 B( 40-N , 41-C ) :   1.0664
B( 40-N , 49-C ) :   1.0410 B( 41-C , 42-H ) :   0.8262 B( 41-C , 43-C ) :   1.6019
B( 43-C , 44-H ) :   0.9023 B( 43-C , 45-C ) :   1.0799 B( 45-C , 46-O ) :   1.9995
B( 45-C , 47-N ) :   0.9711 B( 47-N , 48-H ) :   0.8067 B( 47-N , 49-C ) :   1.0767
B( 49-C , 50-O ) :   1.9432 B( 51-C , 52-H ) :   0.8597 B( 51-C , 53-C ) :   0.9319
B( 51-C , 57-O ) :   0.9859 B( 53-C , 54-H ) :   0.9000 B( 53-C , 55-O ) :   1.0014
B( 55-O , 56-H ) :   0.7546 B( 57-O , 58-H ) :   0.7845

Dispersion correction           -0.046990120
FINAL SINGLE POINT ENERGY     -2308.306206132118

DIPOLE MOMENT
-------------
                                X             Y             Z
Electronic contribution:     -9.06313      -9.66845       7.42188
Nuclear contribution   :      9.08401      12.83554     -10.01387
                        -----------------------------------------
Total Dipole Moment    :      0.02088       3.16709      -2.59199
                        -----------------------------------------
Magnitude (a.u.)       :      4.09260
Magnitude (Debye)      :     10.40255

Rotational constants in cm-1:     0.004813     0.001982     0.001630
Rotational constants in MHz :   144.303398    59.422874    48.870338

                             ****ORCA TERMINATED NORMALLY****
TOTAL RUN TIME: 0 days 0 hours 15 minutes 51 seconds 144 msec
