                         Program Version 5.0.3 -  RELEASE  -
|  1> ! PBEh-3c def2/J TightSCF DefGrid3
|  2>
|  3> %maxcore 60000
|  4>
|  5> %pal
|  6> nprocs 4
|  7> end
|  8>
|  9> *xyzfile 0 1 NCH_F3CI.xyz
| 10>
| 11>                          ****END OF INPUT****

CARTESIAN COORDINATES (ANGSTROEM)
---------------------------------
  N      0.000000    0.000000    3.415281
  C      0.000000    0.000000    4.557070
  H      0.000000    0.000000    5.624831
  I      0.000000    0.000000    0.309915
  C      0.000000    0.000000   -1.826797
  F      0.000000    1.244435   -2.308849
  F      1.077712   -0.622217   -2.308849
  F     -1.077712   -0.622217   -2.308849

 Total Charge           Charge          ....    0
 Multiplicity           Mult            ....    1
 Number of Electrons    NEL             ....   72
 Basis Dimension        Dim             ....  118

ORBITAL ENERGIES
----------------

  NO   OCC          E(Eh)            E(eV)
   0   2.0000     -25.139571      -684.0825
   1   2.0000     -25.139472      -684.0798
   2   2.0000     -25.139471      -684.0798
   3   2.0000     -14.690519      -399.7494
   4   2.0000     -10.728668      -291.9419
   5   2.0000     -10.524936      -286.3981
   6   2.0000      -7.103143      -193.2864
   7   2.0000      -5.087935      -138.4497
   8   2.0000      -5.069309      -137.9429
   9   2.0000      -5.069309      -137.9429
  10   2.0000      -2.041849       -55.5615
  11   2.0000      -2.035957       -55.4012
  12   2.0000      -2.035956       -55.4012
  13   2.0000      -2.019821       -54.9621
  14   2.0000      -2.019820       -54.9621
  15   2.0000      -1.453826       -39.5606
  16   2.0000      -1.358937       -36.9786
  17   2.0000      -1.358934       -36.9785
  18   2.0000      -1.051688       -28.6179
  19   2.0000      -0.830841       -22.6083
  20   2.0000      -0.755803       -20.5664
  21   2.0000      -0.696373       -18.9493
  22   2.0000      -0.674714       -18.3599
  23   2.0000      -0.674713       -18.3599
  24   2.0000      -0.625995       -17.0342
  25   2.0000      -0.549724       -14.9587
  26   2.0000      -0.549721       -14.9587
  27   2.0000      -0.510461       -13.8904
  28   2.0000      -0.510456       -13.8902
  29   2.0000      -0.487898       -13.2764
  30   2.0000      -0.484217       -13.1762
  31   2.0000      -0.440653       -11.9908
  32   2.0000      -0.440653       -11.9908
  33   2.0000      -0.398739       -10.8502
  34   2.0000      -0.316640        -8.6162
  35   2.0000      -0.316640        -8.6162
  36   0.0000      -0.009660        -0.2629
  37   0.0000       0.034465         0.9378
  38   0.0000       0.034465         0.9378
  39   0.0000       0.117080         3.1859
  40   0.0000       0.178402         4.8546

MULLIKEN ATOMIC CHARGES
-----------------------
   0 N :   -0.185577
   1 C :   -0.098233
   2 H :    0.314524
   3 I :    0.071307
   4 C :    0.729243
   5 F :   -0.277083
   6 F :   -0.277091
   7 F :   -0.277091
Sum of atomic charges:   -0.0000000

LOEWDIN ATOMIC CHARGES
----------------------
   0 N :   -0.055229
   1 C :   -0.077972
   2 H :    0.166858
   3 I :    0.114952
   4 C :    0.225814
   5 F :   -0.124805
   6 F :   -0.124809
   7 F :   -0.124809

  Mayer bond orders larger than 0.100000
B(  0-N ,  1-C ) :   3.1136 B(  1-C ,  2-H ) :   0.8541 B(  3-I ,  4-C ) :   0.9795
B(  4-C ,  5-F ) :   1.0134 B(  4-C ,  6-F ) :   1.0134 B(  4-C ,  7-F ) :   1.0134

Dispersion correction           -0.002617972
FINAL SINGLE POINT ENERGY      -727.931045871545

DIPOLE MOMENT
-------------
                                X             Y             Z
Electronic contribution:     -0.00000       0.00001      14.78835
Nuclear contribution   :      0.00000       0.00000     -12.75995
                        -----------------------------------------
Total Dipole Moment    :     -0.00000       0.00002       2.02840
                        -----------------------------------------
Magnitude (a.u.)       :      2.02840
Magnitude (Debye)      :      5.15578

Rotational constants in cm-1:     0.190996     0.019955     0.019955
Rotational constants in MHz :  5725.907681   598.246441   598.246437

                             ****ORCA TERMINATED NORMALLY****
TOTAL RUN TIME: 0 days 0 hours 2 minutes 3 seconds 984 msec
