                         Program Version 5.0.3 -  RELEASE  -
|  1> ! PBEh-3c def2/J TightSCF DefGrid3
|  2>
|  3> %maxcore 60000
|  4>
|  5> %pal
|  6> nprocs 4
|  7> end
|  8>
|  9> *xyzfile 0 1 GLN_xai.xyz
| 10>
| 11>                          ****END OF INPUT****

CARTESIAN COORDINATES (ANGSTROEM)
---------------------------------
  N     -1.685429   -0.525955   -0.011960
  C     -0.493515    0.247232   -0.254117
  C     -0.913118    1.688292   -0.518799
  O     -2.084169    1.996039   -0.730295
  C      0.370407   -0.296249   -1.408780
  C      1.453898   -1.235499   -0.893035
  C      2.262675   -0.493061    0.149978
  O      2.635501    0.666882   -0.022549
  H     -2.548058   -0.063785   -0.265259
  H      0.095087    0.237753    0.665003
  H     -0.280346   -0.802022   -2.120944
  H      0.852029    0.532456   -1.924280
  H      2.129685   -1.519745   -1.700967
  H      1.019548   -2.136858   -0.469057
  C     -1.676594   -1.591247    0.822987
  O     -0.638767   -2.049143    1.303837
  N      0.124118    2.550210   -0.498049
  H      1.048563    2.168134   -0.339902
  C     -0.035627    3.959471   -0.783539
  H      0.407374    4.560362    0.007366
  H      0.426509    4.226325   -1.732829
  H     -1.099873    4.165484   -0.838050
  C     -3.024397   -2.199908    1.118197
  H     -3.842658   -1.687052    0.619857
  H     -3.183893   -2.177754    2.193693
  H     -3.009958   -3.242243    0.808964
  N      2.539826   -1.196164    1.275197
  H      2.962432   -0.686844    2.033565
  H      1.935081   -1.966215    1.507996

 Total Charge           Charge          ....    0
 Multiplicity           Mult            ....    1
 Number of Electrons    NEL             ....  108
 Basis Dimension        Dim             ....  240

ORBITAL ENERGIES
----------------

  NO   OCC          E(Eh)            E(eV)
   0   2.0000     -19.466471      -529.7096
   1   2.0000     -19.464663      -529.6604
   2   2.0000     -19.461737      -529.5808
   3   2.0000     -14.661682      -398.9647
   4   2.0000     -14.659588      -398.9077
   5   2.0000     -14.656706      -398.8292
   6   2.0000     -10.555160      -287.2205
   7   2.0000     -10.554141      -287.1928
   8   2.0000     -10.549581      -287.0687
   9   2.0000     -10.489357      -285.4299
  10   2.0000     -10.464143      -284.7438
  11   2.0000     -10.448127      -284.3080
  12   2.0000     -10.445717      -284.2424
  13   2.0000     -10.444175      -284.2005
  14   2.0000      -1.151937       -31.3458
  15   2.0000      -1.147143       -31.2154
  16   2.0000      -1.141606       -31.0647
  17   2.0000      -1.028105       -27.9762
  18   2.0000      -1.023608       -27.8538
  19   2.0000      -1.007911       -27.4266
  20   2.0000      -0.900217       -24.4961
  21   2.0000      -0.843780       -22.9604
  22   2.0000      -0.815890       -22.2015
  23   2.0000      -0.769908       -20.9503
  24   2.0000      -0.718536       -19.5524
  25   2.0000      -0.665814       -18.1177
  26   2.0000      -0.650778       -17.7086
  27   2.0000      -0.644534       -17.5387
  28   2.0000      -0.610080       -16.6011
  29   2.0000      -0.600121       -16.3301
  30   2.0000      -0.565076       -15.3765
  31   2.0000      -0.550174       -14.9710
  32   2.0000      -0.540013       -14.6945
  33   2.0000      -0.528547       -14.3825
  34   2.0000      -0.517296       -14.0763
  35   2.0000      -0.511703       -13.9241
  36   2.0000      -0.499105       -13.5813
  37   2.0000      -0.490630       -13.3507
  38   2.0000      -0.483477       -13.1561
  39   2.0000      -0.469221       -12.7682
  40   2.0000      -0.459854       -12.5133
  41   2.0000      -0.451405       -12.2833
  42   2.0000      -0.442108       -12.0304
  43   2.0000      -0.437717       -11.9109
  44   2.0000      -0.424655       -11.5555
  45   2.0000      -0.416905       -11.3446
  46   2.0000      -0.410654       -11.1745
  47   2.0000      -0.396975       -10.8022
  48   2.0000      -0.332985        -9.0610
  49   2.0000      -0.321325        -8.7437
  50   2.0000      -0.316141        -8.6026
  51   2.0000      -0.311690        -8.4815
  52   2.0000      -0.308667        -8.3992
  53   2.0000      -0.298644        -8.1265
  54   0.0000       0.040316         1.0971
  55   0.0000       0.056291         1.5318
  56   0.0000       0.068554         1.8655
  57   0.0000       0.134859         3.6697
  58   0.0000       0.138958         3.7812

MULLIKEN ATOMIC CHARGES
-----------------------
   0 N :   -0.635571
   1 C :   -0.191583
   2 C :    0.537078
   3 O :   -0.447173
   4 C :   -0.434848
   5 C :   -0.552253
   6 C :    0.507490
   7 O :   -0.455611
   8 H :    0.384238
   9 H :    0.273544
  10 H :    0.247673
  11 H :    0.246541
  12 H :    0.262199
  13 H :    0.259482
  14 C :    0.534704
  15 O :   -0.474843
  16 N :   -0.648683
  17 H :    0.404272
  18 C :   -0.491772
  19 H :    0.223890
  20 H :    0.222724
  21 H :    0.260046
  22 C :   -0.745423
  23 H :    0.223719
  24 H :    0.256640
  25 H :    0.255955
  26 N :   -0.780089
  27 H :    0.365665
  28 H :    0.391991
Sum of atomic charges:   -0.0000000

LOEWDIN ATOMIC CHARGES
----------------------
   0 N :   -0.217389
   1 C :   -0.094172
   2 C :    0.110707
   3 O :   -0.294196
   4 C :   -0.227577
   5 C :   -0.273195
   6 C :    0.109753
   7 O :   -0.308222
   8 H :    0.269442
   9 H :    0.149336
  10 H :    0.139719
  11 H :    0.139521
  12 H :    0.151323
  13 H :    0.144691
  14 C :    0.112256
  15 O :   -0.316313
  16 N :   -0.238814
  17 H :    0.268804
  18 C :   -0.254239
  19 H :    0.125385
  20 H :    0.122923
  21 H :    0.151071
  22 C :   -0.385283
  23 H :    0.132574
  24 H :    0.156617
  25 H :    0.156190
  26 N :   -0.355193
  27 H :    0.256361
  28 H :    0.267921

  Mayer bond orders larger than 0.100000
B(  0-N ,  1-C ) :   0.9386 B(  0-N ,  8-H ) :   0.7752 B(  0-N , 14-C ) :   1.1831
B(  1-C ,  2-C ) :   0.9187 B(  1-C ,  4-C ) :   0.9232 B(  1-C ,  9-H ) :   0.8696
B(  2-C ,  3-O ) :   1.9603 B(  2-C , 16-N ) :   1.1814 B(  3-O , 16-N ) :   0.1011
B(  4-C ,  5-C ) :   0.9723 B(  4-C , 10-H ) :   0.9156 B(  4-C , 11-H ) :   0.9022
B(  5-C ,  6-C ) :   0.9195 B(  5-C , 12-H ) :   0.9003 B(  5-C , 13-H ) :   0.8904
B(  6-C ,  7-O ) :   1.9237 B(  6-C , 26-N ) :   1.1841 B( 14-C , 15-O ) :   1.9042
B( 14-C , 22-C ) :   0.9320 B( 16-N , 17-H ) :   0.7539 B( 16-N , 18-C ) :   0.9542
B( 18-C , 19-H ) :   0.9217 B( 18-C , 20-H ) :   0.9194 B( 18-C , 21-H ) :   0.9029
B( 22-C , 23-H ) :   0.9195 B( 22-C , 24-H ) :   0.9099 B( 22-C , 25-H ) :   0.9101
B( 26-N , 27-H ) :   0.8295 B( 26-N , 28-H ) :   0.8019

Dispersion correction           -0.017991902
FINAL SINGLE POINT ENERGY      -702.375849345855

DIPOLE MOMENT
-------------
                                X             Y             Z
Electronic contribution:      1.76726      -0.26161       1.40762
Nuclear contribution   :     -1.80449      -0.16270      -1.21748
                        -----------------------------------------
Total Dipole Moment    :     -0.03723      -0.42431       0.19014
                        -----------------------------------------
Magnitude (a.u.)       :      0.46645
Magnitude (Debye)      :      1.18562

Rotational constants in cm-1:     0.023907     0.020019     0.012311
Rotational constants in MHz :   716.717527   600.150049   369.062120

                             ****ORCA TERMINATED NORMALLY****
TOTAL RUN TIME: 0 days 0 hours 3 minutes 22 seconds 172 msec
