                         Program Version 5.0.3 -  RELEASE  -
|  1> ! PBEh-3c def2/J TightSCF DefGrid3
|  2>
|  3> %maxcore 60000
|  4>
|  5> %pal
|  6> nprocs 4
|  7> end
|  8>
|  9> *xyzfile 0 2 snme3.xyz
| 10>
| 11>                          ****END OF INPUT****

CARTESIAN COORDINATES (ANGSTROEM)
---------------------------------
  Sn     0.000000    0.000000   -0.818781
  C      1.009355    1.748255   -0.038953
  C      1.009355   -1.748255   -0.038953
  C     -2.018711    0.000000   -0.038953
  H      0.985181    1.706384    1.052934
  H      2.047348    1.770055   -0.370527
  H      0.509239    2.658083   -0.370527
  H     -2.556587    0.888028   -0.370527
  H     -2.556587   -0.888028   -0.370527
  H     -1.970362    0.000000    1.052934
  H      0.509239   -2.658083   -0.370527
  H      2.047348   -1.770055   -0.370527
  H      0.985181   -1.706384    1.052934

 Total Charge           Charge          ....    0
 Multiplicity           Mult            ....    2
 Number of Electrons    NEL             ....   49
 Basis Dimension        Dim             ....   89

ORBITAL ENERGIES
----------------
                 SPIN UP ORBITALS
  NO   OCC          E(Eh)            E(eV)
   0   1.0000     -10.423374      -283.6344
   1   1.0000     -10.423369      -283.6343
   2   1.0000     -10.423368      -283.6343
   3   1.0000      -5.287079      -143.8687
   4   1.0000      -3.590140       -97.6927
   5   1.0000      -3.585468       -97.5655
   6   1.0000      -3.585467       -97.5655
   7   1.0000      -1.089173       -29.6379
   8   1.0000      -1.089172       -29.6379
   9   1.0000      -1.088029       -29.6068
  10   1.0000      -1.083613       -29.4866
  11   1.0000      -1.083612       -29.4866
  12   1.0000      -0.774229       -21.0678
  13   1.0000      -0.750900       -20.4330
  14   1.0000      -0.750898       -20.4330
  15   1.0000      -0.499885       -13.6026
  16   1.0000      -0.459917       -12.5150
  17   1.0000      -0.453726       -12.3465
  18   1.0000      -0.453725       -12.3465
  19   1.0000      -0.446230       -12.1425
  20   1.0000      -0.446228       -12.1425
  21   1.0000      -0.441442       -12.0122
  22   1.0000      -0.319646        -8.6980
  23   1.0000      -0.319646        -8.6980
  24   1.0000      -0.220168        -5.9911
  25   0.0000       0.068958         1.8765
  26   0.0000       0.068967         1.8767
  27   0.0000       0.086981         2.3669
  28   0.0000       0.144920         3.9435
  29   0.0000       0.181234         4.9316

                 SPIN DOWN ORBITALS
  NO   OCC          E(Eh)            E(eV)
   0   1.0000     -10.421926      -283.5950
   1   1.0000     -10.421921      -283.5949
   2   1.0000     -10.421918      -283.5948
   3   1.0000      -5.284219      -143.7909
   4   1.0000      -3.584728       -97.5454
   5   1.0000      -3.584727       -97.5454
   6   1.0000      -3.584299       -97.5337
   7   1.0000      -1.085948       -29.5501
   8   1.0000      -1.085945       -29.5501
   9   1.0000      -1.082348       -29.4522
  10   1.0000      -1.080870       -29.4120
  11   1.0000      -1.080869       -29.4119
  12   1.0000      -0.768293       -20.9063
  13   1.0000      -0.746993       -20.3267
  14   1.0000      -0.746992       -20.3267
  15   1.0000      -0.477894       -13.0042
  16   1.0000      -0.452767       -12.3204
  17   1.0000      -0.452331       -12.3086
  18   1.0000      -0.452330       -12.3085
  19   1.0000      -0.442663       -12.0455
  20   1.0000      -0.442662       -12.0454
  21   1.0000      -0.440430       -11.9847
  22   1.0000      -0.307953        -8.3798
  23   1.0000      -0.307952        -8.3798
  24   0.0000      -0.065122        -1.7720
  25   0.0000       0.086579         2.3559
  26   0.0000       0.086586         2.3561
  27   0.0000       0.093664         2.5487
  28   0.0000       0.153689         4.1821

MULLIKEN ATOMIC CHARGES AND SPIN POPULATIONS
--------------------------------------------
   0 Sn:    0.707518    0.800764
   1 C :   -0.939554    0.061104
   2 C :   -0.939554    0.061104
   3 C :   -0.939608    0.061107
   4 H :    0.232309    0.013416
   5 H :    0.235705   -0.004055
   6 H :    0.235702   -0.004054
   7 H :    0.235724   -0.004054
   8 H :    0.235724   -0.004054
   9 H :    0.232319    0.013417
  10 H :    0.235702   -0.004054
  11 H :    0.235705   -0.004055
  12 H :    0.232309    0.013416
Sum of atomic charges         :   -0.0000000

LOEWDIN ATOMIC CHARGES AND SPIN POPULATIONS
-------------------------------------------
   0 Sn:    0.443132    0.801986
   1 C :   -0.578296    0.055495
   2 C :   -0.578296    0.055495
   3 C :   -0.578318    0.055500
   4 H :    0.143180    0.014562
   5 H :    0.143704   -0.002027
   6 H :    0.143703   -0.002027
   7 H :    0.143710   -0.002027
   8 H :    0.143710   -0.002027
   9 H :    0.143184    0.014562
  10 H :    0.143703   -0.002027
  11 H :    0.143704   -0.002027
  12 H :    0.143180    0.014562

  Mayer bond orders larger than 0.100000
B(  0-Sn,  1-C ) :   0.9108 B(  0-Sn,  2-C ) :   0.9108 B(  0-Sn,  3-C ) :   0.9108
B(  1-C ,  4-H ) :   0.9089 B(  1-C ,  5-H ) :   0.9148 B(  1-C ,  6-H ) :   0.9148
B(  2-C , 10-H ) :   0.9148 B(  2-C , 11-H ) :   0.9148 B(  2-C , 12-H ) :   0.9089
B(  3-C ,  7-H ) :   0.9148 B(  3-C ,  8-H ) :   0.9148 B(  3-C ,  9-H ) :   0.9089

Dispersion correction           -0.004707828
FINAL SINGLE POINT ENERGY      -333.761614384423

DIPOLE MOMENT
-------------
                                X             Y             Z
Electronic contribution:      0.00000      -0.00000     -21.46689
Nuclear contribution   :      0.00000      -0.00000      21.60186
                        -----------------------------------------
Total Dipole Moment    :      0.00000      -0.00000       0.13497
                        -----------------------------------------
Magnitude (a.u.)       :      0.13497
Magnitude (Debye)      :      0.34306

Rotational constants in cm-1:     0.132693     0.132693     0.083091
Rotational constants in MHz :  3978.041839  3978.041731  2491.007323

                             ****ORCA TERMINATED NORMALLY****
TOTAL RUN TIME: 0 days 0 hours 2 minutes 22 seconds 698 msec
