                         Program Version 5.0.3 -  RELEASE  -
|  1> ! PBEh-3c def2/J TightSCF DefGrid3
|  2>
|  3> %maxcore 60000
|  4>
|  5> %pal
|  6> nprocs 4
|  7> end
|  8>
|  9> *xyzfile 0 1 ed4.xyz
| 10>
| 11>                          ****END OF INPUT****

CARTESIAN COORDINATES (ANGSTROEM)
---------------------------------
  C     -0.269233    1.532386    1.648063
  C     -0.335006   -1.309329   -1.021920
  C      0.784378   -1.245395   -1.725905
  H     -0.227082    2.584106    1.375497
  H      0.375203    1.355136    2.505792
  H      0.065575    0.925378    0.809881
  H     -1.292215    1.266061    1.903265
  H     -1.227699   -0.772501   -1.318524
  H     -0.407933   -1.900005   -0.117086
  H      0.857053   -0.654038   -2.630256
  H      1.676959   -1.781800   -1.428807

 Total Charge           Charge          ....    0
 Multiplicity           Mult            ....    1
 Number of Electrons    NEL             ....   26
 Basis Dimension        Dim             ....   61

ORBITAL ENERGIES
----------------

  NO   OCC          E(Eh)            E(eV)
   0   2.0000     -10.441659      -284.1320
   1   2.0000     -10.440639      -284.1042
   2   2.0000     -10.409123      -283.2466
   3   2.0000      -0.852281       -23.1917
   4   2.0000      -0.770513       -20.9667
   5   2.0000      -0.652932       -17.7672
   6   2.0000      -0.532170       -14.4811
   7   2.0000      -0.481234       -13.0951
   8   2.0000      -0.441252       -12.0071
   9   2.0000      -0.441110       -12.0032
  10   2.0000      -0.440244       -11.9796
  11   2.0000      -0.408248       -11.1090
  12   2.0000      -0.318764        -8.6740
  13   0.0000       0.038738         1.0541
  14   0.0000       0.167179         4.5492
  15   0.0000       0.180011         4.8983
  16   0.0000       0.193430         5.2635
  17   0.0000       0.210071         5.7163

MULLIKEN ATOMIC CHARGES
-----------------------
   0 C :   -0.891196
   1 C :   -0.433979
   2 C :   -0.430457
   3 H :    0.217934
   4 H :    0.217553
   5 H :    0.238296
   6 H :    0.214956
   7 H :    0.217437
   8 H :    0.217616
   9 H :    0.215908
  10 H :    0.215931
Sum of atomic charges:    0.0000000

LOEWDIN ATOMIC CHARGES
----------------------
   0 C :   -0.525750
   1 C :   -0.261420
   2 C :   -0.259773
   3 H :    0.129369
   4 H :    0.129294
   5 H :    0.137043
   6 H :    0.128376
   7 H :    0.130904
   8 H :    0.130989
   9 H :    0.130479
  10 H :    0.130489

  Mayer bond orders larger than 0.100000
B(  0-C ,  3-H ) :   0.9374 B(  0-C ,  4-H ) :   0.9376 B(  0-C ,  5-H ) :   0.9230
B(  0-C ,  6-H ) :   0.9386 B(  1-C ,  2-C ) :   1.9766 B(  1-C ,  7-H ) :   0.9289
B(  1-C ,  8-H ) :   0.9288 B(  2-C ,  9-H ) :   0.9296 B(  2-C , 10-H ) :   0.9296

Dispersion correction           -0.002592622
FINAL SINGLE POINT ENERGY      -118.833242604379

DIPOLE MOMENT
-------------
                                X             Y             Z
Electronic contribution:      0.51585      -2.90276      -3.12556
Nuclear contribution   :     -0.50636       2.87370       3.09134
                        -----------------------------------------
Total Dipole Moment    :      0.00949      -0.02905      -0.03423
                        -----------------------------------------
Magnitude (a.u.)       :      0.04589
Magnitude (Debye)      :      0.11664

Rotational constants in cm-1:     0.863166     0.090344     0.085956
Rotational constants in MHz : 25877.068285  2708.459950  2576.902842

                             ****ORCA TERMINATED NORMALLY****
TOTAL RUN TIME: 0 days 0 hours 1 minutes 46 seconds 782 msec
