                         Program Version 5.0.3 -  RELEASE  -
|  1> ! PBEh-3c def2/J TightSCF DefGrid3
|  2>
|  3> %maxcore 60000
|  4>
|  5> %pal
|  6> nprocs 4
|  7> end
|  8>
|  9> *xyzfile 0 1 C2H5O_2.xyz
| 10>
| 11>                          ****END OF INPUT****

CARTESIAN COORDINATES (ANGSTROEM)
---------------------------------
  C     -2.152809    2.069920   -0.002270
  H     -1.806367    2.610066    0.889104
  H     -1.805911    2.608013   -0.894706
  H     -3.251619    2.072249   -0.002544
  C     -1.651760    0.633654   -0.000499
  H     -1.997742    0.087746   -0.896234
  H     -1.998368    0.089740    0.896210
  O     -0.229880    0.708149   -0.000101
  O      0.229893   -0.708014    0.001234
  C      1.651838   -0.633643    0.000630
  H      1.998435   -0.087726    0.896116
  H      1.997768   -0.089768   -0.896353
  C      2.152781   -2.069942    0.002083
  H      1.805787   -2.610049   -0.889119
  H      3.251592   -2.072344    0.001731
  H      1.806361   -2.608051    0.894716

 Total Charge           Charge          ....    0
 Multiplicity           Mult            ....    1
 Number of Electrons    NEL             ....   50
 Basis Dimension        Dim             ....  110

ORBITAL ENERGIES
----------------

  NO   OCC          E(Eh)            E(eV)
   0   2.0000     -19.540393      -531.7211
   1   2.0000     -19.540339      -531.7197
   2   2.0000     -10.485016      -285.3118
   3   2.0000     -10.485009      -285.3116
   4   2.0000     -10.434550      -283.9385
   5   2.0000     -10.434540      -283.9383
   6   2.0000      -1.205364       -32.7996
   7   2.0000      -1.025727       -27.9114
   8   2.0000      -0.841004       -22.8849
   9   2.0000      -0.810189       -22.0464
  10   2.0000      -0.687873       -18.7180
  11   2.0000      -0.675673       -18.3860
  12   2.0000      -0.572221       -15.5709
  13   2.0000      -0.548522       -14.9260
  14   2.0000      -0.520020       -14.1505
  15   2.0000      -0.515459       -14.0264
  16   2.0000      -0.461466       -12.5571
  17   2.0000      -0.445507       -12.1229
  18   2.0000      -0.445376       -12.1193
  19   2.0000      -0.419847       -11.4246
  20   2.0000      -0.415056       -11.2942
  21   2.0000      -0.414189       -11.2707
  22   2.0000      -0.381403       -10.3785
  23   2.0000      -0.362545        -9.8653
  24   2.0000      -0.289998        -7.8913
  25   0.0000       0.062332         1.6961
  26   0.0000       0.156810         4.2670
  27   0.0000       0.166033         4.5180
  28   0.0000       0.168993         4.5985
  29   0.0000       0.203082         5.5261

MULLIKEN ATOMIC CHARGES
-----------------------
   0 C :   -0.681663
   1 H :    0.230180
   2 H :    0.230176
   3 H :    0.218735
   4 C :   -0.104717
   5 H :    0.196348
   6 H :    0.196341
   7 O :   -0.285405
   8 O :   -0.285429
   9 C :   -0.104720
  10 H :    0.196360
  11 H :    0.196352
  12 C :   -0.681656
  13 H :    0.230175
  14 H :    0.218740
  15 H :    0.230182
Sum of atomic charges:    0.0000000

LOEWDIN ATOMIC CHARGES
----------------------
   0 C :   -0.374484
   1 H :    0.134957
   2 H :    0.134954
   3 H :    0.134745
   4 C :   -0.098868
   5 H :    0.108063
   6 H :    0.108057
   7 O :   -0.147435
   8 O :   -0.147458
   9 C :   -0.098850
  10 H :    0.108071
  11 H :    0.108066
  12 C :   -0.374482
  13 H :    0.134956
  14 H :    0.134748
  15 H :    0.134960

  Mayer bond orders larger than 0.100000
B(  0-C ,  1-H ) :   0.9196 B(  0-C ,  2-H ) :   0.9196 B(  0-C ,  3-H ) :   0.9231
B(  0-C ,  4-C ) :   0.9820 B(  4-C ,  5-H ) :   0.9020 B(  4-C ,  6-H ) :   0.9020
B(  4-C ,  7-O ) :   0.9320 B(  7-O ,  8-O ) :   0.9344 B(  8-O ,  9-C ) :   0.9320
B(  9-C , 10-H ) :   0.9020 B(  9-C , 11-H ) :   0.9021 B(  9-C , 12-C ) :   0.9820
B( 12-C , 13-H ) :   0.9196 B( 12-C , 14-H ) :   0.9231 B( 12-C , 15-H ) :   0.9196

Dispersion correction           -0.005441229
FINAL SINGLE POINT ENERGY      -308.121234078242

DIPOLE MOMENT
-------------
                                X             Y             Z
Electronic contribution:      0.00025       0.00023       0.00221
Nuclear contribution   :     -0.00014      -0.00031      -0.00270
                        -----------------------------------------
Total Dipole Moment    :      0.00011      -0.00008      -0.00049
                        -----------------------------------------
Magnitude (a.u.)       :      0.00051
Magnitude (Debye)      :      0.00130

Rotational constants in cm-1:     0.567972     0.044705     0.042799
Rotational constants in MHz : 17027.367091  1340.211028  1283.087287

                             ****ORCA TERMINATED NORMALLY****
TOTAL RUN TIME: 0 days 0 hours 1 minutes 27 seconds 507 msec
