                         Program Version 5.0.3 -  RELEASE  -
|  1> ! PBEh-3c def2/J TightSCF DefGrid3
|  2>
|  3> %maxcore 60000
|  4>
|  5> %pal
|  6> nprocs 4
|  7> end
|  8>
|  9> *xyzfile 0 1 300.xyz
| 10>
| 11>                          ****END OF INPUT****

CARTESIAN COORDINATES (ANGSTROEM)
---------------------------------
  O     -1.586865   -1.525973    0.281811
  C     -2.562865   -2.050973   -0.207189
  O     -2.795865   -3.375973   -0.161189
  H     -2.053865   -3.763973    0.326811
  C     -3.664865   -1.336973   -0.965189
  H     -4.616865   -1.650973   -0.544189
  H     -3.630865   -1.664973   -2.002189
  N     -3.537865    0.089027   -0.885189
  H     -2.817865    0.541027   -1.440189
  C     -3.799865    0.676027    0.321811
  O     -4.414865    0.121027    1.220811
  C     -3.173865    2.054027    0.471811
  H     -3.633865    2.559027    1.313811
  H     -3.294865    2.646027   -0.434189
  N     -1.755865    1.881027    0.722811
  H     -1.424865    1.625027    1.644811
  C     -0.899865    1.596027   -0.280189
  O     -1.206865    1.656027   -1.473189
  C      0.498135    1.199027    0.184811
  N      0.419135    0.639027    1.531811
  H      1.353135    0.533027    1.909811
  H      0.020135   -0.293973    1.471811
  H      1.082135    2.122027    0.249811
  C      1.148135    0.288027   -0.866189
  H      0.535135   -0.608973   -0.965189
  H      1.137135    0.803027   -1.825189
  C      2.546135   -0.073973   -0.463189
  C      2.815135   -1.273973    0.201811
  H      2.006135   -1.973973    0.371811
  C      4.106135   -1.581973    0.629811
  H      4.296135   -2.517973    1.137811
  C      5.148135   -0.686973    0.400811
  H      6.151135   -0.924973    0.729811
  C      4.894135    0.512027   -0.262189
  H      5.701135    1.208027   -0.451189
  C      3.603135    0.814027   -0.688189
  H      3.412135    1.744027   -1.210189

 Total Charge           Charge          ....    0
 Multiplicity           Mult            ....    1
 Number of Electrons    NEL             ....  148
 Basis Dimension        Dim             ....  334

ORBITAL ENERGIES
----------------

  NO   OCC          E(Eh)            E(eV)
   0   2.0000     -19.562384      -532.3195
   1   2.0000     -19.510138      -530.8978
   2   2.0000     -19.468567      -529.7666
   3   2.0000     -19.464096      -529.6450
   4   2.0000     -14.664568      -399.0432
   5   2.0000     -14.656402      -398.8210
   6   2.0000     -14.624396      -397.9500
   7   2.0000     -10.602023      -288.4957
   8   2.0000     -10.550730      -287.1000
   9   2.0000     -10.547446      -287.0106
  10   2.0000     -10.495196      -285.5888
  11   2.0000     -10.483859      -285.2803
  12   2.0000     -10.483007      -285.2571
  13   2.0000     -10.460321      -284.6398
  14   2.0000     -10.453605      -284.4570
  15   2.0000     -10.453152      -284.4447
  16   2.0000     -10.451318      -284.3948
  17   2.0000     -10.451043      -284.3873
  18   2.0000     -10.450700      -284.3780
  19   2.0000     -10.439135      -284.0633
  20   2.0000      -1.241363       -33.7792
  21   2.0000      -1.156226       -31.4625
  22   2.0000      -1.147146       -31.2154
  23   2.0000      -1.142450       -31.0876
  24   2.0000      -1.035811       -28.1858
  25   2.0000      -1.026728       -27.9387
  26   2.0000      -0.995724       -27.0950
  27   2.0000      -0.959249       -26.1025
  28   2.0000      -0.873655       -23.7734
  29   2.0000      -0.859085       -23.3769
  30   2.0000      -0.840120       -22.8608
  31   2.0000      -0.820766       -22.3342
  32   2.0000      -0.798623       -21.7316
  33   2.0000      -0.729623       -19.8541
  34   2.0000      -0.706307       -19.2196
  35   2.0000      -0.687979       -18.7209
  36   2.0000      -0.662168       -18.0185
  37   2.0000      -0.650789       -17.7089
  38   2.0000      -0.645600       -17.5677
  39   2.0000      -0.615395       -16.7457
  40   2.0000      -0.595638       -16.2081
  41   2.0000      -0.586281       -15.9535
  42   2.0000      -0.582413       -15.8483
  43   2.0000      -0.572115       -15.5680
  44   2.0000      -0.550684       -14.9849
  45   2.0000      -0.548030       -14.9126
  46   2.0000      -0.538940       -14.6653
  47   2.0000      -0.533293       -14.5116
  48   2.0000      -0.525134       -14.2896
  49   2.0000      -0.518191       -14.1007
  50   2.0000      -0.493689       -13.4340
  51   2.0000      -0.491625       -13.3778
  52   2.0000      -0.486195       -13.2300
  53   2.0000      -0.484421       -13.1818
  54   2.0000      -0.479760       -13.0549
  55   2.0000      -0.475486       -12.9386
  56   2.0000      -0.461042       -12.5456
  57   2.0000      -0.451105       -12.2752
  58   2.0000      -0.448409       -12.2018
  59   2.0000      -0.440438       -11.9849
  60   2.0000      -0.431764       -11.7489
  61   2.0000      -0.417771       -11.3681
  62   2.0000      -0.410600       -11.1730
  63   2.0000      -0.399019       -10.8579
  64   2.0000      -0.393405       -10.7051
  65   2.0000      -0.391533       -10.6542
  66   2.0000      -0.363227        -9.8839
  67   2.0000      -0.336568        -9.1585
  68   2.0000      -0.326197        -8.8763
  69   2.0000      -0.314242        -8.5510
  70   2.0000      -0.308694        -8.4000
  71   2.0000      -0.296609        -8.0711
  72   2.0000      -0.293947        -7.9987
  73   2.0000      -0.284706        -7.7472
  74   0.0000       0.010854         0.2953
  75   0.0000       0.014198         0.3863
  76   0.0000       0.026838         0.7303
  77   0.0000       0.039145         1.0652
  78   0.0000       0.061028         1.6607

MULLIKEN ATOMIC CHARGES
-----------------------
   0 O :   -0.420654
   1 C :    0.550650
   2 O :   -0.575104
   3 H :    0.444924
   4 C :   -0.414909
   5 H :    0.294323
   6 H :    0.276884
   7 N :   -0.627160
   8 H :    0.409296
   9 C :    0.523612
  10 O :   -0.419246
  11 C :   -0.422743
  12 H :    0.269397
  13 H :    0.264540
  14 N :   -0.619685
  15 H :    0.400844
  16 C :    0.584316
  17 O :   -0.479585
  18 C :   -0.209574
  19 N :   -0.788263
  20 H :    0.350225
  21 H :    0.353061
  22 H :    0.263223
  23 C :   -0.533159
  24 H :    0.249596
  25 H :    0.261069
  26 C :    0.149889
  27 C :   -0.301796
  28 H :    0.214097
  29 C :   -0.204733
  30 H :    0.218878
  31 C :   -0.236959
  32 H :    0.220556
  33 C :   -0.203458
  34 H :    0.220652
  35 C :   -0.278932
  36 H :    0.215925
Sum of atomic charges:   -0.0000000

LOEWDIN ATOMIC CHARGES
----------------------
   0 O :   -0.246558
   1 C :    0.142442
   2 O :   -0.286561
   3 H :    0.336132
   4 C :   -0.186431
   5 H :    0.169781
   6 H :    0.156654
   7 N :   -0.246610
   8 H :    0.271245
   9 C :    0.103664
  10 O :   -0.265399
  11 C :   -0.168842
  12 H :    0.148369
  13 H :    0.149877
  14 N :   -0.214458
  15 H :    0.275604
  16 C :    0.116060
  17 O :   -0.305831
  18 C :   -0.102157
  19 N :   -0.461139
  20 H :    0.238040
  21 H :    0.236092
  22 H :    0.143843
  23 C :   -0.234756
  24 H :    0.140957
  25 H :    0.151236
  26 C :   -0.050087
  27 C :   -0.147081
  28 H :    0.133429
  29 C :   -0.133394
  30 H :    0.135960
  31 C :   -0.141624
  32 H :    0.136234
  33 C :   -0.130500
  34 H :    0.136870
  35 C :   -0.136838
  36 H :    0.135781

  Mayer bond orders larger than 0.100000
B(  0-O ,  1-C ) :   1.9898 B(  1-C ,  2-O ) :   1.1602 B(  1-C ,  4-C ) :   0.8971
B(  2-O ,  3-H ) :   0.7569 B(  4-C ,  5-H ) :   0.8754 B(  4-C ,  6-H ) :   0.8933
B(  4-C ,  7-N ) :   1.0020 B(  7-N ,  8-H ) :   0.7319 B(  7-N ,  9-C ) :   1.1340
B(  9-C , 10-O ) :   2.0031 B(  9-C , 11-C ) :   0.8874 B( 11-C , 12-H ) :   0.9100
B( 11-C , 13-H ) :   0.8903 B( 11-C , 14-N ) :   0.9553 B( 14-N , 15-H ) :   0.7612
B( 14-N , 16-C ) :   1.1978 B( 16-C , 17-O ) :   1.8382 B( 16-C , 18-C ) :   0.9145
B( 18-C , 19-N ) :   1.0443 B( 18-C , 22-H ) :   0.8881 B( 18-C , 23-C ) :   0.9265
B( 19-N , 20-H ) :   0.8403 B( 19-N , 21-H ) :   0.8239 B( 23-C , 24-H ) :   0.9088
B( 23-C , 25-H ) :   0.8996 B( 23-C , 26-C ) :   0.9458 B( 26-C , 27-C ) :   1.4038
B( 26-C , 35-C ) :   1.3826 B( 27-C , 28-H ) :   0.9208 B( 27-C , 29-C ) :   1.4195
B( 29-C , 30-H ) :   0.9202 B( 29-C , 31-C ) :   1.4287 B( 31-C , 32-H ) :   0.9192
B( 31-C , 33-C ) :   1.4187 B( 33-C , 34-H ) :   0.9195 B( 33-C , 35-C ) :   1.4323
B( 35-C , 36-H ) :   0.9230

Dispersion correction           -0.026335974
FINAL SINGLE POINT ENERGY      -968.748613384267

DIPOLE MOMENT
-------------
                                X             Y             Z
Electronic contribution:     -8.33359      -1.64679      -0.27015
Nuclear contribution   :      9.29781       0.98306       0.32430
                        -----------------------------------------
Total Dipole Moment    :      0.96422      -0.66373       0.05415
                        -----------------------------------------
Magnitude (a.u.)       :      1.17183
Magnitude (Debye)      :      2.97855

Rotational constants in cm-1:     0.021101     0.006128     0.005280
Rotational constants in MHz :   632.605802   183.701225   158.303009

                             ****ORCA TERMINATED NORMALLY****
TOTAL RUN TIME: 0 days 0 hours 6 minutes 0 seconds 739 msec
