                         Program Version 5.0.3 -  RELEASE  -
|  1> ! PBEh-3c def2/J TightSCF DefGrid3
|  2>
|  3> %maxcore 60000
|  4>
|  5> %pal
|  6> nprocs 4
|  7> end
|  8>
|  9> *xyzfile 0 2 P28.xyz
| 10>
| 11>                          ****END OF INPUT****

CARTESIAN COORDINATES (ANGSTROEM)
---------------------------------
  C     -1.367790    0.053465    0.000000
  O     -0.184349    0.760930    0.000000
  C      0.976495    0.061895    0.000000
  H     -2.240732    0.679411    0.000000
  H     -1.350128   -1.023347    0.000000
  F      1.980434    0.932319    0.000000
  F      1.093034   -0.732337    1.082899
  F      1.093034   -0.732337   -1.082899

 Total Charge           Charge          ....    0
 Multiplicity           Mult            ....    2
 Number of Electrons    NEL             ....   49
 Basis Dimension        Dim             ....   94

ORBITAL ENERGIES
----------------
                 SPIN UP ORBITALS
  NO   OCC          E(Eh)            E(eV)
   0   1.0000     -25.148321      -684.3206
   1   1.0000     -25.143897      -684.2002
   2   1.0000     -25.143778      -684.1970
   3   1.0000     -19.583039      -532.8816
   4   1.0000     -10.761933      -292.8471
   5   1.0000     -10.520947      -286.2895
   6   1.0000      -1.466307       -39.9002
   7   1.0000      -1.369492       -37.2658
   8   1.0000      -1.361868       -37.0583
   9   1.0000      -1.234295       -33.5869
  10   1.0000      -0.856117       -23.2961
  11   1.0000      -0.761728       -20.7277
  12   1.0000      -0.694166       -18.8892
  13   1.0000      -0.692934       -18.8557
  14   1.0000      -0.670605       -18.2481
  15   1.0000      -0.571655       -15.5555
  16   1.0000      -0.563096       -15.3226
  17   1.0000      -0.552841       -15.0436
  18   1.0000      -0.536271       -14.5927
  19   1.0000      -0.527090       -14.3428
  20   1.0000      -0.508864       -13.8469
  21   1.0000      -0.495481       -13.4827
  22   1.0000      -0.483697       -13.1621
  23   1.0000      -0.455458       -12.3936
  24   1.0000      -0.267274        -7.2729
  25   0.0000       0.140191         3.8148
  26   0.0000       0.165392         4.5006
  27   0.0000       0.220838         6.0093
  28   0.0000       0.226723         6.1694
  29   0.0000       0.230826         6.2811

                 SPIN DOWN ORBITALS
  NO   OCC          E(Eh)            E(eV)
   0   1.0000     -25.148347      -684.3213
   1   1.0000     -25.143731      -684.1957
   2   1.0000     -25.143612      -684.1925
   3   1.0000     -19.579227      -532.7778
   4   1.0000     -10.761938      -292.8472
   5   1.0000     -10.504431      -285.8401
   6   1.0000      -1.465687       -39.8834
   7   1.0000      -1.369384       -37.2628
   8   1.0000      -1.361382       -37.0451
   9   1.0000      -1.223753       -33.3000
  10   1.0000      -0.837308       -22.7843
  11   1.0000      -0.750017       -20.4090
  12   1.0000      -0.693291       -18.8654
  13   1.0000      -0.689664       -18.7667
  14   1.0000      -0.652839       -17.7646
  15   1.0000      -0.567541       -15.4436
  16   1.0000      -0.559168       -15.2157
  17   1.0000      -0.548402       -14.9228
  18   1.0000      -0.533015       -14.5041
  19   1.0000      -0.520479       -14.1630
  20   1.0000      -0.506845       -13.7920
  21   1.0000      -0.495101       -13.4724
  22   1.0000      -0.450096       -12.2477
  23   1.0000      -0.449847       -12.2410
  24   0.0000      -0.017591        -0.4787
  25   0.0000       0.159296         4.3347
  26   0.0000       0.180781         4.9193
  27   0.0000       0.226216         6.1557
  28   0.0000       0.231970         6.3122

MULLIKEN ATOMIC CHARGES AND SPIN POPULATIONS
--------------------------------------------
   0 C :   -0.258571    1.053435
   1 O :   -0.429850    0.064729
   2 C :    1.094703   -0.000885
   3 H :    0.238770   -0.062636
   4 H :    0.239039   -0.060947
   5 F :   -0.273035   -0.000451
   6 F :   -0.305529    0.003377
   7 F :   -0.305529    0.003377
Sum of atomic charges         :    0.0000000

LOEWDIN ATOMIC CHARGES AND SPIN POPULATIONS
-------------------------------------------
   0 C :   -0.152202    0.940530
   1 O :   -0.114642    0.107619
   2 C :    0.348138    0.006258
   3 H :    0.140425   -0.031153
   4 H :    0.134802   -0.030789
   5 F :   -0.096938   -0.000002
   6 F :   -0.129791    0.003767
   7 F :   -0.129791    0.003767

  Mayer bond orders larger than 0.100000
B(  0-C ,  1-O ) :   1.0331 B(  0-C ,  3-H ) :   0.9126 B(  0-C ,  4-H ) :   0.8949
B(  1-O ,  2-C ) :   1.0544 B(  2-C ,  5-F ) :   1.0568 B(  2-C ,  6-F ) :   1.0073
B(  2-C ,  7-F ) :   1.0073

Dispersion correction           -0.002326323
FINAL SINGLE POINT ENERGY      -451.216246769917

DIPOLE MOMENT
-------------
                                X             Y             Z
Electronic contribution:      5.94251      -0.38072      -0.00000
Nuclear contribution   :     -6.62295       0.20963       0.00000
                        -----------------------------------------
Total Dipole Moment    :     -0.68044      -0.17108      -0.00000
                        -----------------------------------------
Magnitude (a.u.)       :      0.70162
Magnitude (Debye)      :      1.78338

Rotational constants in cm-1:     0.182806     0.105828     0.103806
Rotational constants in MHz :  5480.385540  3172.634264  3112.022733

                             ****ORCA TERMINATED NORMALLY****
TOTAL RUN TIME: 0 days 0 hours 2 minutes 59 seconds 336 msec
