                         Program Version 5.0.3 -  RELEASE  -
|  1> ! PBEh-3c def2/J TightSCF DefGrid3
|  2>
|  3> %maxcore 60000
|  4>
|  5> %pal
|  6> nprocs 4
|  7> end
|  8>
|  9> *xyzfile 1 1 h4p2o71.xyz
| 10>
| 11>                          ****END OF INPUT****

CARTESIAN COORDINATES (ANGSTROEM)
---------------------------------
  O     -1.977166    0.237869   -1.239057
  P     -1.495139   -0.270895    0.456607
  O     -2.533965   -1.211242    0.773223
  O     -0.053556   -0.821745    0.127009
  P      1.390841   -0.052028    0.271594
  O      1.192866    1.178956    1.048099
  O      2.368303   -1.130366    0.816784
  O      1.700943    0.052931   -1.258885
  O     -1.358046    1.106336    1.110479
  H     -2.646603   -0.334658   -1.658298
  H      2.603538   -1.115959    1.755058
  H      2.580344    0.333086   -1.548035
  H     -0.411973    1.430530    1.246884
  H     -1.360389    0.597183   -1.901462

 Total Charge           Charge          ....    1
 Multiplicity           Mult            ....    1
 Number of Electrons    NEL             ....   90
 Basis Dimension        Dim             ....  151

ORBITAL ENERGIES
----------------

  NO   OCC          E(Eh)            E(eV)
   0   2.0000     -78.130580     -2126.0412
   1   2.0000     -78.124981     -2125.8888
   2   2.0000     -19.827088      -539.5225
   3   2.0000     -19.759949      -537.6955
   4   2.0000     -19.729287      -536.8612
   5   2.0000     -19.729128      -536.8569
   6   2.0000     -19.728593      -536.8423
   7   2.0000     -19.665247      -535.1186
   8   2.0000     -19.663926      -535.0826
   9   2.0000      -7.177130      -195.2996
  10   2.0000      -7.169186      -195.0835
  11   2.0000      -5.272235      -143.4648
  12   2.0000      -5.270805      -143.4259
  13   2.0000      -5.267904      -143.3470
  14   2.0000      -5.264018      -143.2412
  15   2.0000      -5.262723      -143.2060
  16   2.0000      -5.261649      -143.1768
  17   2.0000      -1.463105       -39.8131
  18   2.0000      -1.431213       -38.9453
  19   2.0000      -1.387991       -37.7691
  20   2.0000      -1.352136       -36.7935
  21   2.0000      -1.346401       -36.6374
  22   2.0000      -1.294933       -35.2369
  23   2.0000      -1.279895       -34.8277
  24   2.0000      -0.973619       -26.4935
  25   2.0000      -0.923073       -25.1181
  26   2.0000      -0.916665       -24.9437
  27   2.0000      -0.852563       -23.1994
  28   2.0000      -0.842510       -22.9259
  29   2.0000      -0.833544       -22.6819
  30   2.0000      -0.759883       -20.6775
  31   2.0000      -0.730572       -19.8799
  32   2.0000      -0.721589       -19.6354
  33   2.0000      -0.700885       -19.0721
  34   2.0000      -0.680735       -18.5237
  35   2.0000      -0.658284       -17.9128
  36   2.0000      -0.651000       -17.7146
  37   2.0000      -0.639549       -17.4030
  38   2.0000      -0.631278       -17.1780
  39   2.0000      -0.624227       -16.9861
  40   2.0000      -0.612502       -16.6670
  41   2.0000      -0.574278       -15.6269
  42   2.0000      -0.568558       -15.4713
  43   2.0000      -0.566050       -15.4030
  44   2.0000      -0.558307       -15.1923
  45   0.0000      -0.152078        -4.1382
  46   0.0000      -0.100301        -2.7293
  47   0.0000      -0.077161        -2.0996
  48   0.0000      -0.071543        -1.9468
  49   0.0000      -0.052993        -1.4420

MULLIKEN ATOMIC CHARGES
-----------------------
   0 O :   -0.768205
   1 P :    1.505018
   2 O :   -0.498124
   3 O :   -0.653752
   4 P :    1.460738
   5 O :   -0.643646
   6 O :   -0.652075
   7 O :   -0.687344
   8 O :   -0.670341
   9 H :    0.544106
  10 H :    0.506341
  11 H :    0.504313
  12 H :    0.523330
  13 H :    0.529639
Sum of atomic charges:    1.0000000

LOEWDIN ATOMIC CHARGES
----------------------
   0 O :   -0.354166
   1 P :    0.972716
   2 O :   -0.388685
   3 O :   -0.357522
   4 P :    0.913415
   5 O :   -0.493174
   6 O :   -0.386527
   7 O :   -0.414952
   8 O :   -0.389124
   9 H :    0.398930
  10 H :    0.375267
  11 H :    0.372321
  12 H :    0.364669
  13 H :    0.386831

  Mayer bond orders larger than 0.100000
B(  0-O ,  1-P ) :   0.4807 B(  0-O ,  9-H ) :   0.6798 B(  0-O , 13-H ) :   0.6879
B(  1-P ,  2-O ) :   2.0457 B(  1-P ,  3-O ) :   1.0326 B(  1-P ,  8-O ) :   1.2929
B(  3-O ,  4-P ) :   0.8398 B(  4-P ,  5-O ) :   1.7531 B(  4-P ,  6-O ) :   1.2038
B(  4-P ,  7-O ) :   1.1517 B(  5-O , 12-H ) :   0.1539 B(  6-O , 10-H ) :   0.7030
B(  7-O , 11-H ) :   0.7069 B(  8-O , 12-H ) :   0.5579

Dispersion correction           -0.007843822
FINAL SINGLE POINT ENERGY     -1210.287237513283

DIPOLE MOMENT
-------------
                                X             Y             Z
Electronic contribution:     -0.32672      -1.04343       1.21934
Nuclear contribution   :      1.01997       1.44428      -3.31962
                        -----------------------------------------
Total Dipole Moment    :      0.69325       0.40085      -2.10028
                        -----------------------------------------
Magnitude (a.u.)       :      2.24776
Magnitude (Debye)      :      5.71335

Rotational constants in cm-1:     0.076058     0.027806     0.026994
Rotational constants in MHz :  2280.169182   833.617665   809.263579

                             ****ORCA TERMINATED NORMALLY****
TOTAL RUN TIME: 0 days 0 hours 1 minutes 38 seconds 181 msec
