                         Program Version 5.0.3 -  RELEASE  -
|  1> ! PBEh-3c def2/J TightSCF DefGrid3
|  2>
|  3> %maxcore 60000
|  4>
|  5> %pal
|  6> nprocs 4
|  7> end
|  8>
|  9> *xyzfile 0 1 h2s.xyz
| 10>
| 11>                          ****END OF INPUT****

CARTESIAN COORDINATES (ANGSTROEM)
---------------------------------
  S      0.000000    0.054808    0.000000
  H     -0.964958   -0.871677    0.000000
  H      0.964958   -0.871677    0.000000

 Total Charge           Charge          ....    0
 Multiplicity           Mult            ....    1
 Number of Electrons    NEL             ....   18
 Basis Dimension        Dim             ....   22

ORBITAL ENERGIES
----------------

  NO   OCC          E(Eh)            E(eV)
   0   2.0000     -89.581906     -2437.6476
   1   2.0000      -8.225283      -223.8213
   2   2.0000      -6.115933      -166.4230
   3   2.0000      -6.113281      -166.3508
   4   2.0000      -6.107376      -166.1901
   5   2.0000      -0.823227       -22.4011
   6   2.0000      -0.499741       -13.5986
   7   2.0000      -0.413029       -11.2391
   8   2.0000      -0.303270        -8.2524
   9   0.0000       0.066872         1.8197
  10   0.0000       0.105528         2.8716
  11   0.0000       0.430644        11.7184
  12   0.0000       0.552631        15.0379
  13   0.0000       0.629254        17.1229

MULLIKEN ATOMIC CHARGES
-----------------------
   0 S :   -0.376520
   1 H :    0.188260
   2 H :    0.188260
Sum of atomic charges:    0.0000000

LOEWDIN ATOMIC CHARGES
----------------------
   0 S :   -0.210045
   1 H :    0.105022
   2 H :    0.105022

  Mayer bond orders larger than 0.100000
B(  0-S ,  1-H ) :   0.9343 B(  0-S ,  2-H ) :   0.9343

Dispersion correction           -0.000417725
FINAL SINGLE POINT ENERGY      -398.931709494910

DIPOLE MOMENT
-------------
                                X             Y             Z
Electronic contribution:      0.00000       1.04966      -0.00000
Nuclear contribution   :      0.00000      -1.63715       0.00000
                        -----------------------------------------
Total Dipole Moment    :      0.00000      -0.58749      -0.00000
                        -----------------------------------------
Magnitude (a.u.)       :      0.58749
Magnitude (Debye)      :      1.49329

Rotational constants in cm-1:    10.354155     8.980275     4.809201
Rotational constants in MHz : 310409.770674 269221.874763 144176.221336

                             ****ORCA TERMINATED NORMALLY****
TOTAL RUN TIME: 0 days 0 hours 0 minutes 28 seconds 924 msec
