                         Program Version 5.0.3 -  RELEASE  -
|  1> ! PBEh-3c def2/J TightSCF DefGrid3
|  2>
|  3> %maxcore 60000
|  4>
|  5> %pal
|  6> nprocs 4
|  7> end
|  8>
|  9> *xyzfile 0 2 7p4.xyz
| 10>
| 11>                          ****END OF INPUT****

CARTESIAN COORDINATES (ANGSTROEM)
---------------------------------
  O     -1.385304   -0.095522    0.000000
  C     -0.415494    0.574423    0.000000
  O      0.858933    0.246530    0.000000
  H      0.941866   -0.725432    0.000000

 Total Charge           Charge          ....    0
 Multiplicity           Mult            ....    2
 Number of Electrons    NEL             ....   23
 Basis Dimension        Dim             ....   47

ORBITAL ENERGIES
----------------
                 SPIN UP ORBITALS
  NO   OCC          E(Eh)            E(eV)
   0   1.0000     -19.583034      -532.8814
   1   1.0000     -19.540680      -531.7289
   2   1.0000     -10.599484      -288.4266
   3   1.0000      -1.263357       -34.3777
   4   1.0000      -1.182643       -32.1814
   5   1.0000      -0.743813       -20.2402
   6   1.0000      -0.593618       -16.1532
   7   1.0000      -0.569686       -15.5019
   8   1.0000      -0.542290       -14.7565
   9   1.0000      -0.456522       -12.4226
  10   1.0000      -0.417554       -11.3622
  11   1.0000      -0.297207        -8.0874
  12   0.0000       0.036540         0.9943
  13   0.0000       0.108989         2.9657
  14   0.0000       0.288786         7.8583
  15   0.0000       0.340436         9.2637
  16   0.0000       0.492590        13.4041

                 SPIN DOWN ORBITALS
  NO   OCC          E(Eh)            E(eV)
   0   1.0000     -19.579188      -532.7768
   1   1.0000     -19.532530      -531.5072
   2   1.0000     -10.584646      -288.0229
   3   1.0000      -1.247704       -33.9517
   4   1.0000      -1.165529       -31.7156
   5   1.0000      -0.716792       -19.5049
   6   1.0000      -0.582237       -15.8435
   7   1.0000      -0.532212       -14.4822
   8   1.0000      -0.532131       -14.4800
   9   1.0000      -0.414925       -11.2907
  10   1.0000      -0.413119       -11.2415
  11   0.0000      -0.050303        -1.3688
  12   0.0000       0.065894         1.7931
  13   0.0000       0.126178         3.4335
  14   0.0000       0.300095         8.1660
  15   0.0000       0.363634         9.8950

MULLIKEN ATOMIC CHARGES AND SPIN POPULATIONS
--------------------------------------------
   0 O :   -0.308163    0.197988
   1 C :    0.403118    0.718202
   2 O :   -0.534530    0.021008
   3 H :    0.439575    0.062802
Sum of atomic charges         :    0.0000000

LOEWDIN ATOMIC CHARGES AND SPIN POPULATIONS
-------------------------------------------
   0 O :   -0.137778    0.219044
   1 C :    0.074228    0.666441
   2 O :   -0.266052    0.059139
   3 H :    0.329602    0.055377

  Mayer bond orders larger than 0.100000
B(  0-O ,  1-C ) :   2.1662 B(  1-C ,  2-O ) :   1.2041 B(  2-O ,  3-H ) :   0.7420

Dispersion correction           -0.000721875
FINAL SINGLE POINT ENERGY      -188.695919326994

DIPOLE MOMENT
-------------
                                X             Y             Z
Electronic contribution:     -0.47866       0.35230      -0.00000
Nuclear contribution   :      1.14376      -0.86289       0.00000
                        -----------------------------------------
Total Dipole Moment    :      0.66511      -0.51059      -0.00000
                        -----------------------------------------
Magnitude (a.u.)       :      0.83849
Magnitude (Debye)      :      2.13128

Rotational constants in cm-1:     4.831007     0.396558     0.366475
Rotational constants in MHz : 144829.955420 11888.503246 10986.653453

                             ****ORCA TERMINATED NORMALLY****
TOTAL RUN TIME: 0 days 0 hours 2 minutes 27 seconds 666 msec
