                         Program Version 5.0.3 -  RELEASE  -
|  1> ! PBEh-3c def2/J TightSCF DefGrid3
|  2>
|  3> %maxcore 60000
|  4>
|  5> %pal
|  6> nprocs 4
|  7> end
|  8>
|  9> *xyzfile 0 1 f2co.xyz
| 10>
| 11>                          ****END OF INPUT****

CARTESIAN COORDINATES (ANGSTROEM)
---------------------------------
  O     -1.331257   -0.000000    0.000000
  C     -0.159820   -0.000000    0.000000
  F      0.611076   -1.058663    0.000000
  F      0.611076    1.058663    0.000000

 Total Charge           Charge          ....    0
 Multiplicity           Mult            ....    1
 Number of Electrons    NEL             ....   32
 Basis Dimension        Dim             ....   60

ORBITAL ENERGIES
----------------

  NO   OCC          E(Eh)            E(eV)
   0   2.0000     -25.179074      -685.1574
   1   2.0000     -25.179066      -685.1572
   2   2.0000     -19.550015      -531.9829
   3   2.0000     -10.718979      -291.6783
   4   2.0000      -1.474025       -40.1103
   5   2.0000      -1.397895       -38.0387
   6   2.0000      -1.230159       -33.4743
   7   2.0000      -0.779774       -21.2187
   8   2.0000      -0.705804       -19.2059
   9   2.0000      -0.658712       -17.9245
  10   2.0000      -0.630754       -17.1637
  11   2.0000      -0.559284       -15.2189
  12   2.0000      -0.549177       -14.9439
  13   2.0000      -0.538059       -14.6413
  14   2.0000      -0.462495       -12.5851
  15   2.0000      -0.423289       -11.5183
  16   0.0000       0.022435         0.6105
  17   0.0000       0.141561         3.8521
  18   0.0000       0.296643         8.0721
  19   0.0000       0.368730        10.0337
  20   0.0000       0.438179        11.9235

MULLIKEN ATOMIC CHARGES
-----------------------
   0 O :   -0.332334
   1 C :    0.836221
   2 F :   -0.251943
   3 F :   -0.251943
Sum of atomic charges:    0.0000000

LOEWDIN ATOMIC CHARGES
----------------------
   0 O :   -0.115991
   1 C :    0.275046
   2 F :   -0.079528
   3 F :   -0.079528

  Mayer bond orders larger than 0.100000
B(  0-O ,  1-C ) :   2.1432 B(  1-C ,  2-F ) :   1.0648 B(  1-C ,  3-F ) :   1.0648

Dispersion correction           -0.000725672
FINAL SINGLE POINT ENERGY      -312.404821173802

DIPOLE MOMENT
-------------
                                X             Y             Z
Electronic contribution:      1.60899       0.00000       0.00000
Nuclear contribution   :     -1.15205       0.00000       0.00000
                        -----------------------------------------
Total Dipole Moment    :      0.45694       0.00000       0.00000
                        -----------------------------------------
Magnitude (a.u.)       :      0.45694
Magnitude (Debye)      :      1.16146

Rotational constants in cm-1:     0.395862     0.393418     0.197318
Rotational constants in MHz : 11867.639278 11794.383134  5915.448904

                             ****ORCA TERMINATED NORMALLY****
TOTAL RUN TIME: 0 days 0 hours 0 minutes 31 seconds 988 msec
