                         Program Version 5.0.3 -  RELEASE  -
|  1> ! PBEh-3c def2/J TightSCF DefGrid3
|  2>
|  3> %maxcore 60000
|  4>
|  5> %pal
|  6> nprocs 4
|  7> end
|  8>
|  9> *xyzfile 0 1 26.xyz
| 10>
| 11>                          ****END OF INPUT****

CARTESIAN COORDINATES (ANGSTROEM)
---------------------------------
  N     -1.316912    2.997749   -0.177731
  C     -0.003239    2.696901    0.115794
  C      0.114467    1.362302    0.430548
  C     -1.205924    0.807430    0.322360
  C     -1.732216   -0.483462    0.519864
  C     -3.090950   -0.679073    0.344579
  C     -3.947753    0.381282   -0.025817
  C     -3.453235    1.659900   -0.230677
  C     -2.078341    1.859067   -0.056065
  H     -1.663083    3.909061   -0.415174
  H      0.757952    3.459444    0.080019
  H     -1.110718   -1.317172    0.820398
  H     -5.006096    0.181782   -0.126643
  H     -4.114108    2.472354   -0.504317
  O     -3.627396   -1.933677    0.581133
  C     -3.951351   -2.623871   -0.622258
  H     -4.688845   -2.073573   -1.210553
  H     -3.057589   -2.780580   -1.231404
  H     -4.366928   -3.584810   -0.330006
  C      1.373693    0.624483    0.758877
  C      1.876681   -0.190755   -0.441039
  N      3.093304   -0.931577   -0.150317
  C      4.309885   -0.317011   -0.142772
  C      5.482030   -1.190041    0.258290
  H      2.158322    1.324034    1.048304
  H      1.206227   -0.049931    1.603178
  H      1.114006   -0.898506   -0.765833
  H      2.086638    0.485720   -1.267779
  H      3.027041   -1.874352    0.186973
  O      4.451135    0.860467   -0.444374
  H      5.897342   -0.808340    1.189526
  H      5.214838   -2.237128    0.389317
  H      6.251123   -1.108118   -0.506394

 Total Charge           Charge          ....    0
 Multiplicity           Mult            ....    1
 Number of Electrons    NEL             ....  124
 Basis Dimension        Dim             ....  287

ORBITAL ENERGIES
----------------

  NO   OCC          E(Eh)            E(eV)
   0   2.0000     -19.503518      -530.7177
   1   2.0000     -19.448132      -529.2106
   2   2.0000     -14.683637      -399.5621
   3   2.0000     -14.657862      -398.8607
   4   2.0000     -10.542801      -286.8842
   5   2.0000     -10.491531      -285.4891
   6   2.0000     -10.479878      -285.1720
   7   2.0000     -10.478229      -285.1271
   8   2.0000     -10.476190      -285.0716
   9   2.0000     -10.469135      -284.8796
  10   2.0000     -10.451907      -284.4108
  11   2.0000     -10.444240      -284.2022
  12   2.0000     -10.442526      -284.1556
  13   2.0000     -10.441291      -284.1220
  14   2.0000     -10.439978      -284.0862
  15   2.0000     -10.438853      -284.0556
  16   2.0000     -10.437586      -284.0212
  17   2.0000      -1.151600       -31.3366
  18   2.0000      -1.134764       -30.8785
  19   2.0000      -1.085935       -29.5498
  20   2.0000      -1.017328       -27.6829
  21   2.0000      -0.935911       -25.4674
  22   2.0000      -0.897423       -24.4201
  23   2.0000      -0.848822       -23.0976
  24   2.0000      -0.829016       -22.5587
  25   2.0000      -0.818379       -22.2692
  26   2.0000      -0.794461       -21.6184
  27   2.0000      -0.764640       -20.8069
  28   2.0000      -0.720870       -19.6159
  29   2.0000      -0.697040       -18.9674
  30   2.0000      -0.665263       -18.1027
  31   2.0000      -0.650744       -17.7077
  32   2.0000      -0.627791       -17.0831
  33   2.0000      -0.609062       -16.5734
  34   2.0000      -0.569976       -15.5098
  35   2.0000      -0.566872       -15.4254
  36   2.0000      -0.553937       -15.0734
  37   2.0000      -0.531977       -14.4758
  38   2.0000      -0.521503       -14.1908
  39   2.0000      -0.515399       -14.0247
  40   2.0000      -0.509886       -13.8747
  41   2.0000      -0.504572       -13.7301
  42   2.0000      -0.493658       -13.4331
  43   2.0000      -0.483862       -13.1666
  44   2.0000      -0.479125       -13.0377
  45   2.0000      -0.470285       -12.7971
  46   2.0000      -0.457361       -12.4454
  47   2.0000      -0.454654       -12.3718
  48   2.0000      -0.453673       -12.3451
  49   2.0000      -0.444843       -12.1048
  50   2.0000      -0.433665       -11.8006
  51   2.0000      -0.409004       -11.1296
  52   2.0000      -0.402103       -10.9418
  53   2.0000      -0.399943       -10.8830
  54   2.0000      -0.385079       -10.4785
  55   2.0000      -0.373261       -10.1570
  56   2.0000      -0.325500        -8.8573
  57   2.0000      -0.322170        -8.7667
  58   2.0000      -0.303297        -8.2531
  59   2.0000      -0.296413        -8.0658
  60   2.0000      -0.252664        -6.8754
  61   2.0000      -0.239058        -6.5051
  62   0.0000       0.006556         0.1784
  63   0.0000       0.051326         1.3967
  64   0.0000       0.066613         1.8126
  65   0.0000       0.094644         2.5754
  66   0.0000       0.116242         3.1631

MULLIKEN ATOMIC CHARGES
-----------------------
   0 N :   -0.702019
   1 C :   -0.055398
   2 C :    0.023767
   3 C :    0.070742
   4 C :   -0.436174
   5 C :    0.361619
   6 C :   -0.313276
   7 C :   -0.262326
   8 C :    0.368213
   9 H :    0.359008
  10 H :    0.247685
  11 H :    0.208908
  12 H :    0.226333
  13 H :    0.214078
  14 O :   -0.486337
  15 C :   -0.375768
  16 H :    0.198135
  17 H :    0.199931
  18 H :    0.219071
  19 C :   -0.534345
  20 C :   -0.273492
  21 N :   -0.631295
  22 C :    0.522603
  23 C :   -0.749996
  24 H :    0.258083
  25 H :    0.215882
  26 H :    0.229792
  27 H :    0.257221
  28 H :    0.350319
  29 O :   -0.433611
  30 H :    0.254507
  31 H :    0.207955
  32 H :    0.260184
Sum of atomic charges:    0.0000000

LOEWDIN ATOMIC CHARGES
----------------------
   0 N :   -0.157352
   1 C :   -0.076951
   2 C :   -0.104118
   3 C :   -0.054715
   4 C :   -0.154327
   5 C :    0.041975
   6 C :   -0.161396
   7 C :   -0.152702
   8 C :    0.013055
   9 H :    0.261893
  10 H :    0.139527
  11 H :    0.140868
  12 H :    0.141383
  13 H :    0.136716
  14 O :   -0.221206
  15 C :   -0.172671
  16 H :    0.107714
  17 H :    0.109249
  18 H :    0.123391
  19 C :   -0.234784
  20 C :   -0.143728
  21 N :   -0.244055
  22 C :    0.105475
  23 C :   -0.390661
  24 H :    0.146936
  25 H :    0.128122
  26 H :    0.125074
  27 H :    0.144180
  28 H :    0.250979
  29 O :   -0.284664
  30 H :    0.155027
  31 H :    0.124773
  32 H :    0.156993

  Mayer bond orders larger than 0.100000
B(  0-N ,  1-C ) :   1.1300 B(  0-N ,  8-C ) :   1.0154 B(  0-N ,  9-H ) :   0.8333
B(  1-C ,  2-C ) :   1.5627 B(  1-C , 10-H ) :   0.9074 B(  2-C ,  3-C ) :   1.2346
B(  2-C , 19-C ) :   0.9607 B(  3-C ,  4-C ) :   1.2395 B(  3-C ,  8-C ) :   1.2385
B(  4-C ,  5-C ) :   1.4852 B(  4-C , 11-H ) :   0.9321 B(  5-C ,  6-C ) :   1.3186
B(  5-C , 14-O ) :   0.9502 B(  6-C ,  7-C ) :   1.4839 B(  6-C , 12-H ) :   0.9126
B(  7-C ,  8-C ) :   1.2909 B(  7-C , 13-H ) :   0.9208 B( 14-O , 15-C ) :   0.9544
B( 15-C , 16-H ) :   0.9117 B( 15-C , 17-H ) :   0.9130 B( 15-C , 18-H ) :   0.9286
B( 19-C , 20-C ) :   0.9494 B( 19-C , 24-H ) :   0.9130 B( 19-C , 25-H ) :   0.9206
B( 20-C , 21-N ) :   0.9336 B( 20-C , 26-H ) :   0.9188 B( 20-C , 27-H ) :   0.9006
B( 21-N , 22-C ) :   1.1409 B( 21-N , 28-H ) :   0.8305 B( 22-C , 23-C ) :   0.9266
B( 22-C , 29-O ) :   1.9802 B( 23-C , 30-H ) :   0.9105 B( 23-C , 31-H ) :   0.9228
B( 23-C , 32-H ) :   0.9110

Dispersion correction           -0.020756470
FINAL SINGLE POINT ENERGY      -763.324274461147

DIPOLE MOMENT
-------------
                                X             Y             Z
Electronic contribution:     -6.09206       7.73739       1.35034
Nuclear contribution   :      5.69870      -8.08520      -1.71053
                        -----------------------------------------
Total Dipole Moment    :     -0.39336      -0.34781      -0.36020
                        -----------------------------------------
Magnitude (a.u.)       :      0.63675
Magnitude (Debye)      :      1.61848

Rotational constants in cm-1:     0.027025     0.007224     0.005877
Rotational constants in MHz :   810.180266   216.573777   176.198882

                             ****ORCA TERMINATED NORMALLY****
TOTAL RUN TIME: 0 days 0 hours 4 minutes 38 seconds 995 msec
