                         Program Version 5.0.3 -  RELEASE  -
|  1> ! PBEh-3c def2/J TightSCF DefGrid3
|  2>
|  3> %maxcore 60000
|  4>
|  5> %pal
|  6> nprocs 4
|  7> end
|  8>
|  9> *xyzfile 0 1 14B.xyz
| 10>
| 11>                          ****END OF INPUT****

CARTESIAN COORDINATES (ANGSTROEM)
---------------------------------
  N     -0.360793    0.845033    0.000000
  H      0.050058    1.300917    0.806148
  H      0.050058    1.300917   -0.806148
  C      0.011509   -0.574500    0.000000
  H     -0.422578   -1.054227   -0.874609
  H      1.086915   -0.762877    0.000000
  H     -0.422578   -1.054227    0.874609

 Total Charge           Charge          ....    0
 Multiplicity           Mult            ....    1
 Number of Electrons    NEL             ....   18
 Basis Dimension        Dim             ....   40

ORBITAL ENERGIES
----------------

  NO   OCC          E(Eh)            E(eV)
   0   2.0000     -14.604122      -397.3984
   1   2.0000     -10.445831      -284.2455
   2   2.0000      -0.963857       -26.2279
   3   2.0000      -0.734789       -19.9946
   4   2.0000      -0.544345       -14.8124
   5   2.0000      -0.493024       -13.4159
   6   2.0000      -0.453018       -12.3272
   7   2.0000      -0.416273       -11.3274
   8   2.0000      -0.283653        -7.7186
   9   0.0000       0.137659         3.7459
  10   0.0000       0.201308         5.4779
  11   0.0000       0.213028         5.7968
  12   0.0000       0.227698         6.1960
  13   0.0000       0.234110         6.3704

MULLIKEN ATOMIC CHARGES
-----------------------
   0 N :   -0.736981
   1 H :    0.312330
   2 H :    0.312330
   3 C :   -0.502593
   4 H :    0.216572
   5 H :    0.181769
   6 H :    0.216572
Sum of atomic charges:    0.0000000

LOEWDIN ATOMIC CHARGES
----------------------
   0 N :   -0.487848
   1 H :    0.217370
   2 H :    0.217370
   3 C :   -0.279502
   4 H :    0.120417
   5 H :    0.091777
   6 H :    0.120417

  Mayer bond orders larger than 0.100000
B(  0-N ,  1-H ) :   0.8682 B(  0-N ,  2-H ) :   0.8682 B(  0-N ,  3-C ) :   1.0328
B(  3-C ,  4-H ) :   0.9266 B(  3-C ,  5-H ) :   0.9182 B(  3-C ,  6-H ) :   0.9266

Dispersion correction           -0.001525556
FINAL SINGLE POINT ENERGY       -95.642602130705

DIPOLE MOMENT
-------------
                                X             Y             Z
Electronic contribution:     -0.40742       0.95225       0.00000
Nuclear contribution   :      1.00992      -0.95350       0.00000
                        -----------------------------------------
Total Dipole Moment    :      0.60250      -0.00125       0.00000
                        -----------------------------------------
Magnitude (a.u.)       :      0.60250
Magnitude (Debye)      :      1.53143

Rotational constants in cm-1:     3.460241     0.758908     0.731486
Rotational constants in MHz : 103735.420749 22751.498229 21929.405861

                             ****ORCA TERMINATED NORMALLY****
TOTAL RUN TIME: 0 days 0 hours 1 minutes 16 seconds 492 msec
