                         Program Version 5.0.3 -  RELEASE  -
|  1> ! PBEh-3c def2/J TightSCF DefGrid3
|  2>
|  3> %maxcore 60000
|  4>
|  5> %pal
|  6> nprocs 4
|  7> end
|  8>
|  9> *xyzfile 0 1 E9.xyz
| 10>
| 11>                          ****END OF INPUT****

CARTESIAN COORDINATES (ANGSTROEM)
---------------------------------
  C     -0.667444   -0.392941    0.000000
  C      0.593444    0.440054    0.000000
  F      1.721854   -0.395048    0.000000
  H     -1.543848    0.260749    0.000000
  H     -0.713382   -1.027913   -0.886406
  H     -0.713382   -1.027913    0.886406
  H      0.661379    1.071505    0.889500
  H      0.661379    1.071505   -0.889500

 Total Charge           Charge          ....    0
 Multiplicity           Mult            ....    1
 Number of Electrons    NEL             ....   26
 Basis Dimension        Dim             ....   55

ORBITAL ENERGIES
----------------

  NO   OCC          E(Eh)            E(eV)
   0   2.0000     -25.060264      -681.9245
   1   2.0000     -10.512198      -286.0514
   2   2.0000     -10.435776      -283.9719
   3   2.0000      -1.290220       -35.1087
   4   2.0000      -0.852260       -23.1912
   5   2.0000      -0.704264       -19.1640
   6   2.0000      -0.557173       -15.1614
   7   2.0000      -0.551381       -15.0038
   8   2.0000      -0.508837       -13.8462
   9   2.0000      -0.453668       -12.3449
  10   2.0000      -0.447359       -12.1733
  11   2.0000      -0.392484       -10.6800
  12   2.0000      -0.384379       -10.4595
  13   0.0000       0.147998         4.0272
  14   0.0000       0.159954         4.3526
  15   0.0000       0.201820         5.4918
  16   0.0000       0.201929         5.4948
  17   0.0000       0.221300         6.0219

MULLIKEN ATOMIC CHARGES
-----------------------
   0 C :   -0.688572
   1 C :    0.010058
   2 F :   -0.369728
   3 H :    0.211486
   4 H :    0.233023
   5 H :    0.233023
   6 H :    0.185355
   7 H :    0.185355
Sum of atomic charges:   -0.0000000

LOEWDIN ATOMIC CHARGES
----------------------
   0 C :   -0.382971
   1 C :    0.018899
   2 F :   -0.261512
   3 H :    0.133530
   4 H :    0.136672
   5 H :    0.136672
   6 H :    0.109355
   7 H :    0.109355

  Mayer bond orders larger than 0.100000
B(  0-C ,  1-C ) :   0.9900 B(  0-C ,  3-H ) :   0.9175 B(  0-C ,  4-H ) :   0.9200
B(  0-C ,  5-H ) :   0.9200 B(  1-C ,  2-F ) :   0.9274 B(  1-C ,  6-H ) :   0.9134
B(  1-C ,  7-H ) :   0.9134

Dispersion correction           -0.001960412
FINAL SINGLE POINT ENERGY      -178.691489705491

DIPOLE MOMENT
-------------
                                X             Y             Z
Electronic contribution:      4.84740      -0.82460       0.00000
Nuclear contribution   :     -5.50380       1.20850       0.00000
                        -----------------------------------------
Total Dipole Moment    :     -0.65639       0.38390       0.00000
                        -----------------------------------------
Magnitude (a.u.)       :      0.76042
Magnitude (Debye)      :      1.93283

Rotational constants in cm-1:     1.209782     0.309509     0.271713
Rotational constants in MHz : 36268.347130  9278.851304  8145.761215

                             ****ORCA TERMINATED NORMALLY****
TOTAL RUN TIME: 0 days 0 hours 1 minutes 8 seconds 740 msec
