                         Program Version 5.0.3 -  RELEASE  -
|  1> ! PBEh-3c def2/J TightSCF DefGrid3
|  2>
|  3> %maxcore 60000
|  4>
|  5> %pal
|  6> nprocs 4
|  7> end
|  8>
|  9> *xyzfile 0 1 trans-2-pentene.xyz
| 10>
| 11>                          ****END OF INPUT****

CARTESIAN COORDINATES (ANGSTROEM)
---------------------------------
  C     -1.727586   -0.720777   -1.420677
  H     -1.397127   -1.760844   -1.561281
  H     -1.225072   -0.106580   -2.181389
  H     -2.809812   -0.685047   -1.611734
  C     -1.397001   -0.220252   -0.004781
  H     -1.745693    0.817823    0.117376
  H     -1.962923   -0.827093    0.724362
  C      0.067959   -0.297596    0.316506
  H      0.518970   -1.297728    0.268165
  C      0.849537    0.741296    0.634894
  H      0.396385    1.739559    0.678683
  C      2.313847    0.663088    0.946326
  H      2.904474    1.282763    0.251996
  H      2.528758    1.040680    1.959360
  H      2.685283   -0.369293    0.882194

 Total Charge           Charge          ....    0
 Multiplicity           Mult            ....    1
 Number of Electrons    NEL             ....   40
 Basis Dimension        Dim             ....   95

ORBITAL ENERGIES
----------------

  NO   OCC          E(Eh)            E(eV)
   0   2.0000     -10.439343      -284.0690
   1   2.0000     -10.437894      -284.0295
   2   2.0000     -10.436310      -283.9864
   3   2.0000     -10.431165      -283.8464
   4   2.0000     -10.426593      -283.7220
   5   2.0000      -0.892756       -24.2931
   6   2.0000      -0.837322       -22.7847
   7   2.0000      -0.757985       -20.6258
   8   2.0000      -0.677916       -18.4470
   9   2.0000      -0.611262       -16.6333
  10   2.0000      -0.510594       -13.8940
  11   2.0000      -0.510030       -13.8786
  12   2.0000      -0.467786       -12.7291
  13   2.0000      -0.459133       -12.4936
  14   2.0000      -0.448611       -12.2073
  15   2.0000      -0.418734       -11.3943
  16   2.0000      -0.406905       -11.0725
  17   2.0000      -0.386276       -10.5111
  18   2.0000      -0.378153       -10.2901
  19   2.0000      -0.281045        -7.6476
  20   0.0000       0.055512         1.5106
  21   0.0000       0.156968         4.2713
  22   0.0000       0.169792         4.6203
  23   0.0000       0.171873         4.6769
  24   0.0000       0.197211         5.3664

MULLIKEN ATOMIC CHARGES
-----------------------
   0 C :   -0.634081
   1 H :    0.208781
   2 H :    0.219637
   3 H :    0.216124
   4 C :   -0.466860
   5 H :    0.214842
   6 H :    0.216700
   7 C :   -0.161483
   8 H :    0.198473
   9 C :   -0.195171
  10 H :    0.201331
  11 C :   -0.680814
  12 H :    0.221094
  13 H :    0.221339
  14 H :    0.220088
Sum of atomic charges:   -0.0000000

LOEWDIN ATOMIC CHARGES
----------------------
   0 C :   -0.359775
   1 H :    0.123819
   2 H :    0.127923
   3 H :    0.125702
   4 C :   -0.241190
   5 H :    0.125587
   6 H :    0.127845
   7 C :   -0.155403
   8 H :    0.123173
   9 C :   -0.160543
  10 H :    0.123911
  11 C :   -0.357516
  12 H :    0.132704
  13 H :    0.132842
  14 H :    0.130922

  Mayer bond orders larger than 0.100000
B(  0-C ,  1-H ) :   0.9301 B(  0-C ,  2-H ) :   0.9275 B(  0-C ,  3-H ) :   0.9293
B(  0-C ,  4-C ) :   0.9747 B(  4-C ,  5-H ) :   0.9236 B(  4-C ,  6-H ) :   0.9130
B(  4-C ,  7-C ) :   0.9933 B(  7-C ,  8-H ) :   0.9188 B(  7-C ,  9-C ) :   1.9037
B(  9-C , 10-H ) :   0.9217 B(  9-C , 11-C ) :   0.9946 B( 11-C , 12-H ) :   0.9176
B( 11-C , 13-H ) :   0.9174 B( 11-C , 14-H ) :   0.9312

Dispersion correction           -0.005799356
FINAL SINGLE POINT ENERGY      -196.099594154869

DIPOLE MOMENT
-------------
                                X             Y             Z
Electronic contribution:      0.26687       0.41366       1.13220
Nuclear contribution   :     -0.25729      -0.39948      -1.13818
                        -----------------------------------------
Total Dipole Moment    :      0.00958       0.01418      -0.00598
                        -----------------------------------------
Magnitude (a.u.)       :      0.01812
Magnitude (Debye)      :      0.04607

Rotational constants in cm-1:     0.572715     0.069122     0.067248
Rotational constants in MHz : 17169.566354  2072.239849  2016.033287

                             ****ORCA TERMINATED NORMALLY****
TOTAL RUN TIME: 0 days 0 hours 1 minutes 22 seconds 333 msec
