                         Program Version 5.0.3 -  RELEASE  -
|  1> ! PBEh-3c def2/J TightSCF DefGrid3
|  2>
|  3> %maxcore 60000
|  4>
|  5> %pal
|  6> nprocs 4
|  7> end
|  8>
|  9> *xyzfile 0 1 TS6.xyz
| 10>
| 11>                          ****END OF INPUT****

CARTESIAN COORDINATES (ANGSTROEM)
---------------------------------
  C     -0.003241   -0.259865    1.431048
  C      0.002505    0.260009   -1.431161
  C     -1.220510    0.254897    0.946414
  C      1.220429   -0.253527   -0.946897
  C      1.216694    0.253453    0.951740
  C     -1.216670   -0.254977   -0.951659
  H     -2.148243   -0.189266    1.306863
  H      2.147458    0.193043   -1.306138
  H     -1.300460    1.331980    0.810007
  H      1.302317   -1.330626   -0.811888
  H      1.299499    1.330508    0.816974
  H     -1.297004   -1.332083   -0.815696
  H      2.142140   -0.193425    1.314669
  H     -2.143032    0.189152   -1.315651
  H     -0.004652   -1.277563    1.822880
  H      0.002770    1.278290   -1.821504

 Total Charge           Charge          ....    0
 Multiplicity           Mult            ....    1
 Number of Electrons    NEL             ....   46
 Basis Dimension        Dim             ....  110

ORBITAL ENERGIES
----------------

  NO   OCC          E(Eh)            E(eV)
   0   2.0000     -10.447419      -284.2887
   1   2.0000     -10.447413      -284.2885
   2   2.0000     -10.447367      -284.2873
   3   2.0000     -10.447351      -284.2869
   4   2.0000     -10.430732      -283.8347
   5   2.0000     -10.430716      -283.8342
   6   2.0000      -0.905943       -24.6520
   7   2.0000      -0.842267       -22.9192
   8   2.0000      -0.788138       -21.4463
   9   2.0000      -0.711079       -19.3494
  10   2.0000      -0.630353       -17.1528
  11   2.0000      -0.613290       -16.6885
  12   2.0000      -0.535942       -14.5837
  13   2.0000      -0.512985       -13.9590
  14   2.0000      -0.495411       -13.4808
  15   2.0000      -0.462742       -12.5918
  16   2.0000      -0.428464       -11.6591
  17   2.0000      -0.423984       -11.5372
  18   2.0000      -0.413250       -11.2451
  19   2.0000      -0.403812       -10.9883
  20   2.0000      -0.387930       -10.5561
  21   2.0000      -0.310206        -8.4411
  22   2.0000      -0.234765        -6.3883
  23   0.0000       0.005027         0.1368
  24   0.0000       0.083618         2.2754
  25   0.0000       0.146993         3.9999
  26   0.0000       0.162153         4.4124
  27   0.0000       0.171909         4.6779

MULLIKEN ATOMIC CHARGES
-----------------------
   0 C :   -0.112122
   1 C :   -0.112054
   2 C :   -0.507224
   3 C :   -0.507266
   4 C :   -0.507271
   5 C :   -0.507184
   6 H :    0.232251
   7 H :    0.232252
   8 H :    0.232604
   9 H :    0.232654
  10 H :    0.232683
  11 H :    0.232594
  12 H :    0.232230
  13 H :    0.232277
  14 H :    0.196832
  15 H :    0.196744
Sum of atomic charges:   -0.0000000

LOEWDIN ATOMIC CHARGES
----------------------
   0 C :   -0.190307
   1 C :   -0.190324
   2 C :   -0.235576
   3 C :   -0.235628
   4 C :   -0.235640
   5 C :   -0.235537
   6 H :    0.135293
   7 H :    0.135281
   8 H :    0.133429
   9 H :    0.133459
  10 H :    0.133467
  11 H :    0.133432
  12 H :    0.135274
  13 H :    0.135302
  14 H :    0.124050
  15 H :    0.124026

  Mayer bond orders larger than 0.100000
B(  0-C ,  1-C ) :   0.1334 B(  0-C ,  2-C ) :   1.3772 B(  0-C ,  4-C ) :   1.3773
B(  0-C , 14-H ) :   0.9242 B(  1-C ,  3-C ) :   1.3773 B(  1-C ,  5-C ) :   1.3772
B(  1-C , 15-H ) :   0.9241 B(  2-C ,  5-C ) :   0.5324 B(  2-C ,  6-H ) :   0.9172
B(  2-C ,  8-H ) :   0.9124 B(  3-C ,  4-C ) :   0.5325 B(  3-C ,  7-H ) :   0.9172
B(  3-C ,  9-H ) :   0.9123 B(  4-C , 10-H ) :   0.9123 B(  4-C , 12-H ) :   0.9172
B(  5-C , 11-H ) :   0.9124 B(  5-C , 13-H ) :   0.9172

Dispersion correction           -0.008048194
FINAL SINGLE POINT ENERGY      -234.026691667502

DIPOLE MOMENT
-------------
                                X             Y             Z
Electronic contribution:     -0.00177      -0.00009      -0.00069
Nuclear contribution   :      0.00174       0.00002       0.00113
                        -----------------------------------------
Total Dipole Moment    :     -0.00003      -0.00007       0.00044
                        -----------------------------------------
Magnitude (a.u.)       :      0.00045
Magnitude (Debye)      :      0.00114

Rotational constants in cm-1:     0.150508     0.135852     0.082031
Rotational constants in MHz :  4512.121560  4072.727434  2459.231223

                             ****ORCA TERMINATED NORMALLY****
TOTAL RUN TIME: 0 days 0 hours 1 minutes 21 seconds 43 msec
