                         Program Version 5.0.3 -  RELEASE  -
|  1> ! PBEh-3c def2/J TightSCF DefGrid3
|  2>
|  3> %maxcore 60000
|  4>
|  5> %pal
|  6> nprocs 4
|  7> end
|  8>
|  9> *xyzfile 0 1 hcn.xyz
| 10>
| 11>                          ****END OF INPUT****

CARTESIAN COORDINATES (ANGSTROEM)
---------------------------------
  H     -1.626348    0.000000    0.000000
  C     -0.559548    0.000000    0.000000
  N      0.596852    0.000000    0.000000

 Total Charge           Charge          ....    0
 Multiplicity           Mult            ....    1
 Number of Electrons    NEL             ....   14
 Basis Dimension        Dim             ....   32

ORBITAL ENERGIES
----------------

  NO   OCC          E(Eh)            E(eV)
   0   2.0000     -14.671048      -399.2195
   1   2.0000     -10.505342      -285.8649
   2   2.0000      -1.024118       -27.8677
   3   2.0000      -0.679401       -18.4875
   4   2.0000      -0.448614       -12.2074
   5   2.0000      -0.415255       -11.2997
   6   2.0000      -0.415255       -11.2997
   7   0.0000       0.050859         1.3839
   8   0.0000       0.050859         1.3839
   9   0.0000       0.130071         3.5394
  10   0.0000       0.356530         9.7017
  11   0.0000       0.512157        13.9365

MULLIKEN ATOMIC CHARGES
-----------------------
   0 H :    0.301126
   1 C :   -0.136379
   2 N :   -0.164747
Sum of atomic charges:   -0.0000000

LOEWDIN ATOMIC CHARGES
----------------------
   0 H :    0.159189
   1 C :   -0.110159
   2 N :   -0.049031

  Mayer bond orders larger than 0.100000
B(  0-H ,  1-C ) :   0.8580 B(  1-C ,  2-N ) :   3.1453

Dispersion correction           -0.000447147
FINAL SINGLE POINT ENERGY       -93.206357643568

DIPOLE MOMENT
-------------
                                X             Y             Z
Electronic contribution:      0.34403       0.00000       0.00000
Nuclear contribution   :     -1.52252       0.00000       0.00000
                        -----------------------------------------
Total Dipole Moment    :     -1.17848       0.00000       0.00000
                        -----------------------------------------
Magnitude (a.u.)       :      1.17848
Magnitude (Debye)      :      2.99547

Rotational constants in cm-1:     0.000000     1.476606     1.476606
Rotational constants in MHz :     0.000000 44267.519670 44267.519670

                             ****ORCA TERMINATED NORMALLY****
TOTAL RUN TIME: 0 days 0 hours 0 minutes 43 seconds 841 msec
