                         Program Version 5.0.3 -  RELEASE  -
|  1> ! PBEh-3c def2/J TightSCF DefGrid3
|  2>
|  3> %maxcore 60000
|  4>
|  5> %pal
|  6> nprocs 4
|  7> end
|  8>
|  9> *xyzfile 0 1 1N_A.xyz
| 10>
| 11>                          ****END OF INPUT****

CARTESIAN COORDINATES (ANGSTROEM)
---------------------------------
  N     -1.722651    0.007973   -0.151411
  H     -0.707816    0.006636   -0.159302
  H     -2.010748    0.975427   -0.113142
  H     -2.004249   -0.403802    0.727317

 Total Charge           Charge          ....    0
 Multiplicity           Mult            ....    1
 Number of Electrons    NEL             ....   10
 Basis Dimension        Dim             ....   21

ORBITAL ENERGIES
----------------

  NO   OCC          E(Eh)            E(eV)
   0   2.0000     -14.596310      -397.1858
   1   2.0000      -0.935923       -25.4677
   2   2.0000      -0.510905       -13.9024
   3   2.0000      -0.510449       -13.8900
   4   2.0000      -0.307113        -8.3570
   5   0.0000       0.141938         3.8623
   6   0.0000       0.225365         6.1325
   7   0.0000       0.226302         6.1580
   8   0.0000       0.760273        20.6881
   9   0.0000       0.762898        20.7595

MULLIKEN ATOMIC CHARGES
-----------------------
   0 N :   -0.941637
   1 H :    0.313456
   2 H :    0.314169
   3 H :    0.314013
Sum of atomic charges:    0.0000000

LOEWDIN ATOMIC CHARGES
----------------------
   0 N :   -0.648218
   1 H :    0.216390
   2 H :    0.215929
   3 H :    0.215899

  Mayer bond orders larger than 0.100000
B(  0-N ,  1-H ) :   0.8811 B(  0-N ,  2-H ) :   0.8804 B(  0-N ,  3-H ) :   0.8805

Dispersion correction           -0.000444566
FINAL SINGLE POINT ENERGY       -56.428112916151

DIPOLE MOMENT
-------------
                                X             Y             Z
Electronic contribution:     -0.05198      -0.06301      -0.10430
Nuclear contribution   :      0.34332       0.42755       0.70117
                        -----------------------------------------
Total Dipole Moment    :      0.29135       0.36454       0.59687
                        -----------------------------------------
Magnitude (a.u.)       :      0.75764
Magnitude (Debye)      :      1.92577

Rotational constants in cm-1:    10.017614     9.905907     6.365093
Rotational constants in MHz : 300320.498414 296971.610878 190820.699483

                             ****ORCA TERMINATED NORMALLY****
TOTAL RUN TIME: 0 days 0 hours 0 minutes 23 seconds 642 msec
