                         Program Version 5.0.3 -  RELEASE  -
|  1> ! PBEh-3c def2/J TightSCF DefGrid3
|  2>
|  3> %maxcore 60000
|  4>
|  5> %pal
|  6> nprocs 4
|  7> end
|  8>
|  9> *xyzfile 0 1 ASP_xbc.xyz
| 10>
| 11>                          ****END OF INPUT****

CARTESIAN COORDINATES (ANGSTROEM)
---------------------------------
  N      0.185514    0.946330   -0.876540
  H      0.692200    1.191453   -1.709759
  C     -0.094716   -0.478696   -0.719951
  H      0.184511   -0.935628   -1.665067
  C      0.743276   -1.113099    0.383846
  C     -1.571921   -0.850988   -0.546578
  H      0.468506   -2.163329    0.494099
  H      0.565802   -0.629166    1.342852
  C      2.210457   -1.045073    0.064010
  O     -2.041074   -1.769211   -1.213179
  O      2.955954   -1.541371    1.074022
  O      2.693988   -0.614189   -0.959560
  N     -2.243962   -0.158380    0.393288
  C     -3.633300   -0.433838    0.687033
  H     -1.730419    0.551712    0.905601
  H     -4.287420    0.337212    0.281441
  H     -3.890714   -1.385513    0.232514
  H     -3.783256   -0.492306    1.762540
  C      0.170706    1.871364    0.111136
  C      0.776893    3.205503   -0.241941
  O     -0.297445    1.656289    1.232266
  H      0.133850    3.991664    0.142468
  H      1.740401    3.286926    0.258351
  H      0.921889    3.339512   -1.310650
  H      3.876663   -1.471935    0.779411

 Total Charge           Charge          ....    0
 Multiplicity           Mult            ....    1
 Number of Electrons    NEL             ....  100
 Basis Dimension        Dim             ....  219

ORBITAL ENERGIES
----------------

  NO   OCC          E(Eh)            E(eV)
   0   2.0000     -19.554727      -532.1112
   1   2.0000     -19.501685      -530.6678
   2   2.0000     -19.480455      -530.0901
   3   2.0000     -19.449660      -529.2522
   4   2.0000     -14.683374      -399.5549
   5   2.0000     -14.647430      -398.5768
   6   2.0000     -10.597510      -288.3729
   7   2.0000     -10.571117      -287.6547
   8   2.0000     -10.540653      -286.8257
   9   2.0000     -10.502556      -285.7891
  10   2.0000     -10.466347      -284.8038
  11   2.0000     -10.457146      -284.5534
  12   2.0000     -10.455903      -284.5196
  13   2.0000      -1.234185       -33.5839
  14   2.0000      -1.165102       -31.7040
  15   2.0000      -1.138578       -30.9823
  16   2.0000      -1.133861       -30.8539
  17   2.0000      -1.046048       -28.4644
  18   2.0000      -1.010731       -27.5034
  19   2.0000      -0.903146       -24.5758
  20   2.0000      -0.843861       -22.9626
  21   2.0000      -0.803771       -21.8717
  22   2.0000      -0.764224       -20.7956
  23   2.0000      -0.694708       -18.9040
  24   2.0000      -0.668036       -18.1782
  25   2.0000      -0.639727       -17.4079
  26   2.0000      -0.612163       -16.6578
  27   2.0000      -0.593882       -16.1603
  28   2.0000      -0.570891       -15.5347
  29   2.0000      -0.557846       -15.1798
  30   2.0000      -0.547371       -14.8947
  31   2.0000      -0.539591       -14.6830
  32   2.0000      -0.521090       -14.1796
  33   2.0000      -0.511037       -13.9060
  34   2.0000      -0.501615       -13.6496
  35   2.0000      -0.486039       -13.2258
  36   2.0000      -0.476487       -12.9659
  37   2.0000      -0.474862       -12.9216
  38   2.0000      -0.473639       -12.8884
  39   2.0000      -0.449836       -12.2407
  40   2.0000      -0.442814       -12.0496
  41   2.0000      -0.437934       -11.9168
  42   2.0000      -0.424871       -11.5613
  43   2.0000      -0.411307       -11.1922
  44   2.0000      -0.391131       -10.6432
  45   2.0000      -0.353859        -9.6290
  46   2.0000      -0.339142        -9.2285
  47   2.0000      -0.330785        -9.0011
  48   2.0000      -0.295196        -8.0327
  49   2.0000      -0.292065        -7.9475
  50   0.0000       0.029766         0.8100
  51   0.0000       0.036186         0.9847
  52   0.0000       0.066045         1.7972
  53   0.0000       0.103642         2.8202
  54   0.0000       0.126571         3.4442

MULLIKEN ATOMIC CHARGES
-----------------------
   0 N :   -0.618887
   1 H :    0.378210
   2 C :   -0.209208
   3 H :    0.293223
   4 C :   -0.598609
   5 C :    0.540714
   6 H :    0.297826
   7 H :    0.302581
   8 C :    0.546776
   9 O :   -0.434874
  10 O :   -0.580553
  11 O :   -0.404683
  12 N :   -0.654975
  13 C :   -0.492295
  14 H :    0.415440
  15 H :    0.219577
  16 H :    0.257935
  17 H :    0.218922
  18 C :    0.541769
  19 C :   -0.740090
  20 O :   -0.473089
  21 H :    0.265481
  22 H :    0.261796
  23 H :    0.224324
  24 H :    0.442688
Sum of atomic charges:    0.0000000

LOEWDIN ATOMIC CHARGES
----------------------
   0 N :   -0.210143
   1 H :    0.268739
   2 C :   -0.084884
   3 H :    0.161789
   4 C :   -0.277670
   5 C :    0.100871
   6 H :    0.172491
   7 H :    0.173515
   8 C :    0.142510
   9 O :   -0.287184
  10 O :   -0.292168
  11 O :   -0.243015
  12 N :   -0.250005
  13 C :   -0.255531
  14 H :    0.267472
  15 H :    0.121005
  16 H :    0.148925
  17 H :    0.124013
  18 C :    0.116586
  19 C :   -0.381530
  20 O :   -0.304519
  21 H :    0.159476
  22 H :    0.160762
  23 H :    0.133979
  24 H :    0.334516

  Mayer bond orders larger than 0.100000
B(  0-N ,  1-H ) :   0.8181 B(  0-N ,  2-C ) :   0.9030 B(  0-N , 18-C ) :   1.1889
B(  2-C ,  3-H ) :   0.8923 B(  2-C ,  4-C ) :   0.9302 B(  2-C ,  5-C ) :   0.9082
B(  4-C ,  6-H ) :   0.8808 B(  4-C ,  7-H ) :   0.8644 B(  4-C ,  8-C ) :   0.9281
B(  5-C ,  9-O ) :   1.9791 B(  5-C , 12-N ) :   1.1940 B(  8-C , 10-O ) :   1.1626
B(  8-C , 11-O ) :   2.0297 B(  9-O , 12-N ) :   0.1064 B( 10-O , 24-H ) :   0.7577
B( 12-N , 13-C ) :   0.9595 B( 12-N , 14-H ) :   0.7084 B( 13-C , 15-H ) :   0.9205
B( 13-C , 16-H ) :   0.9032 B( 13-C , 17-H ) :   0.9239 B( 14-H , 20-O ) :   0.1071
B( 18-C , 19-C ) :   0.9355 B( 18-C , 20-O ) :   1.8422 B( 19-C , 21-H ) :   0.9083
B( 19-C , 22-H ) :   0.9039 B( 19-C , 23-H ) :   0.9193

Dispersion correction           -0.014717778
FINAL SINGLE POINT ENERGY      -682.973263628553

DIPOLE MOMENT
-------------
                                X             Y             Z
Electronic contribution:      5.81240      -4.60424      -1.59553
Nuclear contribution   :     -4.88695       5.58802       1.79628
                        -----------------------------------------
Total Dipole Moment    :      0.92545       0.98377       0.20075
                        -----------------------------------------
Magnitude (a.u.)       :      1.36550
Magnitude (Debye)      :      3.47082

Rotational constants in cm-1:     0.031538     0.019788     0.014815
Rotational constants in MHz :   945.489900   593.238635   444.131008

                             ****ORCA TERMINATED NORMALLY****
TOTAL RUN TIME: 0 days 0 hours 3 minutes 11 seconds 19 msec
