                         Program Version 5.0.3 -  RELEASE  -
|  1> ! PBEh-3c def2/J TightSCF DefGrid3
|  2>
|  3> %maxcore 60000
|  4>
|  5> %pal
|  6> nprocs 4
|  7> end
|  8>
|  9> *xyzfile 0 1 n2o.xyz
| 10>
| 11>                          ****END OF INPUT****

CARTESIAN COORDINATES (ANGSTROEM)
---------------------------------
  N      0.000000    0.000000   -1.142727
  N      0.000000    0.000000   -0.022162
  O      0.000000    0.000000    1.164888

 Total Charge           Charge          ....    0
 Multiplicity           Mult            ....    1
 Number of Electrons    NEL             ....   22
 Basis Dimension        Dim             ....   45

ORBITAL ENERGIES
----------------

  NO   OCC          E(Eh)            E(eV)
   0   2.0000     -19.594957      -533.2059
   1   2.0000     -14.882096      -404.9624
   2   2.0000     -14.746058      -401.2606
   3   2.0000      -1.364689       -37.1351
   4   2.0000      -1.201723       -32.7005
   5   2.0000      -0.676912       -18.4197
   6   2.0000      -0.636734       -17.3264
   7   2.0000      -0.636734       -17.3264
   8   2.0000      -0.546791       -14.8789
   9   2.0000      -0.395430       -10.7602
  10   2.0000      -0.395430       -10.7602
  11   0.0000       0.022870         0.6223
  12   0.0000       0.022870         0.6223
  13   0.0000       0.204474         5.5640
  14   0.0000       0.459910        12.5148
  15   0.0000       0.662790        18.0354

MULLIKEN ATOMIC CHARGES
-----------------------
   0 N :   -0.100695
   1 N :    0.450138
   2 O :   -0.349444
Sum of atomic charges:   -0.0000000

LOEWDIN ATOMIC CHARGES
----------------------
   0 N :   -0.071455
   1 N :    0.245340
   2 O :   -0.173885

  Mayer bond orders larger than 0.100000
B(  0-N ,  1-N ) :   2.4679 B(  0-N ,  2-O ) :   0.4068 B(  1-N ,  2-O ) :   1.7616

Dispersion correction           -0.000548970
FINAL SINGLE POINT ENERGY      -184.265431331353

DIPOLE MOMENT
-------------
                                X             Y             Z
Electronic contribution:      0.00000      -0.00000      -0.09639
Nuclear contribution   :      0.00000       0.00000       0.00945
                        -----------------------------------------
Total Dipole Moment    :      0.00000      -0.00000      -0.08693
                        -----------------------------------------
Magnitude (a.u.)       :      0.08693
Magnitude (Debye)      :      0.22097

Rotational constants in cm-1:     0.000000     0.422653     0.422653
Rotational constants in MHz :     0.000000 12670.822716 12670.822716

                             ****ORCA TERMINATED NORMALLY****
TOTAL RUN TIME: 0 days 0 hours 0 minutes 33 seconds 799 msec
