                         Program Version 5.0.3 -  RELEASE  -
|  1> ! PBEh-3c def2/J TightSCF DefGrid3
|  2>
|  3> %maxcore 60000
|  4>
|  5> %pal
|  6> nprocs 4
|  7> end
|  8>
|  9> *xyzfile 0 1 diethylamine.xyz
| 10>
| 11>                          ****END OF INPUT****

CARTESIAN COORDINATES (ANGSTROEM)
---------------------------------
  N     -0.204509    0.095371   -0.705953
  H      0.087258    0.482365   -1.605973
  C      0.159383   -1.325365   -0.657204
  H     -0.075171   -1.757027   -1.642439
  H      1.251481   -1.471220   -0.496066
  C     -0.612946   -2.089899    0.418031
  H     -1.695509   -1.984028    0.261141
  H     -0.356902   -3.158885    0.388076
  H     -0.377536   -1.724540    1.427535
  C      0.382995    0.908596    0.360657
  H     -0.031052    0.569025    1.323024
  H      1.486609    0.772856    0.431209
  C      0.057712    2.385685    0.163979
  H     -1.029395    2.543029    0.134745
  H      0.476983    2.991128    0.979679
  H      0.480599    2.762910   -0.780440

 Total Charge           Charge          ....    0
 Multiplicity           Mult            ....    1
 Number of Electrons    NEL             ....   42
 Basis Dimension        Dim             ....   97

ORBITAL ENERGIES
----------------

  NO   OCC          E(Eh)            E(eV)
   0   2.0000     -14.611678      -397.6040
   1   2.0000     -10.457335      -284.5586
   2   2.0000     -10.456280      -284.5299
   3   2.0000     -10.425695      -283.6976
   4   2.0000     -10.420578      -283.5583
   5   2.0000      -0.991491       -26.9798
   6   2.0000      -0.841833       -22.9074
   7   2.0000      -0.791659       -21.5421
   8   2.0000      -0.690684       -18.7945
   9   2.0000      -0.651264       -17.7218
  10   2.0000      -0.543566       -14.7912
  11   2.0000      -0.514141       -13.9905
  12   2.0000      -0.505547       -13.7566
  13   2.0000      -0.476040       -12.9537
  14   2.0000      -0.436346       -11.8736
  15   2.0000      -0.426719       -11.6116
  16   2.0000      -0.410238       -11.1631
  17   2.0000      -0.397599       -10.8192
  18   2.0000      -0.392332       -10.6759
  19   2.0000      -0.372376       -10.1329
  20   2.0000      -0.266337        -7.2474
  21   0.0000       0.133066         3.6209
  22   0.0000       0.158389         4.3100
  23   0.0000       0.166173         4.5218
  24   0.0000       0.192356         5.2343
  25   0.0000       0.202388         5.5073

MULLIKEN ATOMIC CHARGES
-----------------------
   0 N :   -0.550074
   1 H :    0.311402
   2 C :   -0.268946
   3 H :    0.208188
   4 H :    0.173962
   5 C :   -0.634488
   6 H :    0.223896
   7 H :    0.208775
   8 H :    0.209854
   9 C :   -0.257120
  10 H :    0.209408
  11 H :    0.171754
  12 C :   -0.650918
  13 H :    0.228040
  14 H :    0.215123
  15 H :    0.201144
Sum of atomic charges:    0.0000000

LOEWDIN ATOMIC CHARGES
----------------------
   0 N :   -0.341918
   1 H :    0.224282
   2 C :   -0.159475
   3 H :    0.117127
   4 H :    0.091058
   5 C :   -0.369643
   6 H :    0.131327
   7 H :    0.125733
   8 H :    0.122587
   9 C :   -0.159475
  10 H :    0.115515
  11 H :    0.089186
  12 C :   -0.368121
  13 H :    0.132954
  14 H :    0.128791
  15 H :    0.120072

  Mayer bond orders larger than 0.100000
B(  0-N ,  1-H ) :   0.8525 B(  0-N ,  2-C ) :   1.0048 B(  0-N ,  9-C ) :   1.0040
B(  2-C ,  3-H ) :   0.9276 B(  2-C ,  4-H ) :   0.9049 B(  2-C ,  5-C ) :   0.9807
B(  5-C ,  6-H ) :   0.9245 B(  5-C ,  7-H ) :   0.9273 B(  5-C ,  8-H ) :   0.9286
B(  9-C , 10-H ) :   0.9073 B(  9-C , 11-H ) :   0.9021 B(  9-C , 12-C ) :   0.9935
B( 12-C , 13-H ) :   0.9213 B( 12-C , 14-H ) :   0.9288 B( 12-C , 15-H ) :   0.9298

Dispersion correction           -0.006330506
FINAL SINGLE POINT ENERGY      -213.322610582637

DIPOLE MOMENT
-------------
                                X             Y             Z
Electronic contribution:     -0.24470      -0.01103      -1.35802
Nuclear contribution   :      0.59807       0.03746       1.24271
                        -----------------------------------------
Total Dipole Moment    :      0.35338       0.02643      -0.11531
                        -----------------------------------------
Magnitude (a.u.)       :      0.37266
Magnitude (Debye)      :      0.94722

Rotational constants in cm-1:     0.427943     0.078755     0.073537
Rotational constants in MHz : 12829.420727  2361.021992  2204.591482

                             ****ORCA TERMINATED NORMALLY****
TOTAL RUN TIME: 0 days 0 hours 1 minutes 15 seconds 910 msec
