                         Program Version 5.0.3 -  RELEASE  -
|  1> ! PBEh-3c def2/J TightSCF DefGrid3
|  2>
|  3> %maxcore 60000
|  4>
|  5> %pal
|  6> nprocs 4
|  7> end
|  8>
|  9> *xyzfile 0 1 46B.xyz
| 10>
| 11>                          ****END OF INPUT****

CARTESIAN COORDINATES (ANGSTROEM)
---------------------------------
  C      2.504130    0.327563    0.344978
  H      2.620969    1.081979   -0.433767
  H      2.418020    0.852449    1.296634
  H      3.416221   -0.266679    0.371786
  C      1.275858   -0.535825    0.087426
  H      1.181288   -1.281279    0.880477
  H      1.392278   -1.089289   -0.846417
  C     -0.006680    0.282789    0.022125
  H     -0.118250    0.860524    0.945209
  H      0.072554    1.015604   -0.787528
  C     -1.251036   -0.567546   -0.194755
  H     -1.341838   -1.282032    0.626662
  H     -1.123229   -1.156484   -1.104969
  C     -2.517875    0.272745   -0.284870
  H     -2.450961    0.979796   -1.112639
  H     -3.403217   -0.343272   -0.438702
  H     -2.668231    0.848957    0.628350

 Total Charge           Charge          ....    0
 Multiplicity           Mult            ....    1
 Number of Electrons    NEL             ....   42
 Basis Dimension        Dim             ....   99

ORBITAL ENERGIES
----------------

  NO   OCC          E(Eh)            E(eV)
   0   2.0000     -10.426766      -283.7267
   1   2.0000     -10.426590      -283.7219
   2   2.0000     -10.424648      -283.6691
   3   2.0000     -10.418962      -283.5144
   4   2.0000     -10.418889      -283.5124
   5   2.0000      -0.893231       -24.3060
   6   2.0000      -0.836819       -22.7710
   7   2.0000      -0.754360       -20.5272
   8   2.0000      -0.670622       -18.2485
   9   2.0000      -0.644232       -17.5304
  10   2.0000      -0.536165       -14.5898
  11   2.0000      -0.494800       -13.4642
  12   2.0000      -0.488085       -13.2815
  13   2.0000      -0.457725       -12.4553
  14   2.0000      -0.447014       -12.1639
  15   2.0000      -0.427504       -11.6330
  16   2.0000      -0.402507       -10.9528
  17   2.0000      -0.382408       -10.4058
  18   2.0000      -0.373327       -10.1587
  19   2.0000      -0.366336        -9.9685
  20   2.0000      -0.361079        -9.8255
  21   0.0000       0.137357         3.7377
  22   0.0000       0.155237         4.2242
  23   0.0000       0.185073         5.0361
  24   0.0000       0.186377         5.0716
  25   0.0000       0.202981         5.5234

MULLIKEN ATOMIC CHARGES
-----------------------
   0 C :   -0.639184
   1 H :    0.208693
   2 H :    0.209051
   3 H :    0.218408
   4 C :   -0.409642
   5 H :    0.204262
   6 H :    0.204947
   7 C :   -0.391283
   8 H :    0.199279
   9 H :    0.199010
  10 C :   -0.409683
  11 H :    0.204460
  12 H :    0.204642
  13 C :   -0.638714
  14 H :    0.208445
  15 H :    0.218368
  16 H :    0.208942
Sum of atomic charges:    0.0000000

LOEWDIN ATOMIC CHARGES
----------------------
   0 C :   -0.362025
   1 H :    0.123167
   2 H :    0.123457
   3 H :    0.125682
   4 C :   -0.246158
   5 H :    0.119354
   6 H :    0.119513
   7 C :   -0.241564
   8 H :    0.117957
   9 H :    0.117817
  10 C :   -0.246332
  11 H :    0.119261
  12 H :    0.119360
  13 C :   -0.361817
  14 H :    0.123231
  15 H :    0.125653
  16 H :    0.123445

  Mayer bond orders larger than 0.100000
B(  0-C ,  1-H ) :   0.9296 B(  0-C ,  2-H ) :   0.9296 B(  0-C ,  3-H ) :   0.9324
B(  0-C ,  4-C ) :   0.9985 B(  4-C ,  5-H ) :   0.9205 B(  4-C ,  6-H ) :   0.9203
B(  4-C ,  7-C ) :   0.9922 B(  7-C ,  8-H ) :   0.9184 B(  7-C ,  9-H ) :   0.9181
B(  7-C , 10-C ) :   0.9921 B( 10-C , 11-H ) :   0.9204 B( 10-C , 12-H ) :   0.9203
B( 10-C , 13-C ) :   0.9984 B( 13-C , 14-H ) :   0.9297 B( 13-C , 15-H ) :   0.9325
B( 13-C , 16-H ) :   0.9294

Dispersion correction           -0.006819330
FINAL SINGLE POINT ENERGY      -197.333836596730

DIPOLE MOMENT
-------------
                                X             Y             Z
Electronic contribution:      0.01250      -0.60377      -0.06700
Nuclear contribution   :     -0.01167       0.58483       0.06663
                        -----------------------------------------
Total Dipole Moment    :      0.00083      -0.01893      -0.00037
                        -----------------------------------------
Magnitude (a.u.)       :      0.01895
Magnitude (Debye)      :      0.04818

Rotational constants in cm-1:     0.568001     0.065559     0.062135
Rotational constants in MHz : 17028.235072  1965.399322  1862.763354

                             ****ORCA TERMINATED NORMALLY****
TOTAL RUN TIME: 0 days 0 hours 1 minutes 13 seconds 9 msec
