                         Program Version 5.0.3 -  RELEASE  -
|  1> ! PBEh-3c def2/J TightSCF DefGrid3
|  2>
|  3> %maxcore 60000
|  4>
|  5> %pal
|  6> nprocs 4
|  7> end
|  8>
|  9> *xyzfile 0 1 CO2.xyz
| 10>
| 11>                          ****END OF INPUT****

CARTESIAN COORDINATES (ANGSTROEM)
---------------------------------
  C      0.000000    0.000000    0.000039
  O      0.000000    0.000000    1.171303
  O      0.000000    0.000000   -1.171341

 Total Charge           Charge          ....    0
 Multiplicity           Mult            ....    1
 Number of Electrons    NEL             ....   22
 Basis Dimension        Dim             ....   45

ORBITAL ENERGIES
----------------

  NO   OCC          E(Eh)            E(eV)
   0   2.0000     -19.586522      -532.9764
   1   2.0000     -19.586490      -532.9755
   2   2.0000     -10.654286      -289.9179
   3   2.0000      -1.277362       -34.7588
   4   2.0000      -1.230984       -33.4968
   5   2.0000      -0.641851       -17.4657
   6   2.0000      -0.591684       -16.1005
   7   2.0000      -0.583521       -15.8784
   8   2.0000      -0.583521       -15.8784
   9   2.0000      -0.431214       -11.7339
  10   2.0000      -0.431214       -11.7339
  11   0.0000       0.064500         1.7551
  12   0.0000       0.064500         1.7551
  13   0.0000       0.122385         3.3303
  14   0.0000       0.390498        10.6260
  15   0.0000       0.459092        12.4925

MULLIKEN ATOMIC CHARGES
-----------------------
   0 C :    0.634689
   1 O :   -0.317280
   2 O :   -0.317409
Sum of atomic charges:    0.0000000

LOEWDIN ATOMIC CHARGES
----------------------
   0 C :    0.237168
   1 O :   -0.118506
   2 O :   -0.118662

  Mayer bond orders larger than 0.100000
B(  0-C ,  1-O ) :   2.1067 B(  0-C ,  2-O ) :   2.1065 B(  1-O ,  2-O ) :   0.2440

Dispersion correction           -0.000486346
FINAL SINGLE POINT ENERGY      -188.190084603392

DIPOLE MOMENT
-------------
                                X             Y             Z
Electronic contribution:      0.00000       0.00000       0.00027
Nuclear contribution   :      0.00000       0.00000      -0.00000
                        -----------------------------------------
Total Dipole Moment    :      0.00000       0.00000       0.00027
                        -----------------------------------------
Magnitude (a.u.)       :      0.00027
Magnitude (Debye)      :      0.00068

Rotational constants in cm-1:     0.000000     0.383991     0.383991
Rotational constants in MHz :     0.000000 11511.768771 11511.768771

                             ****ORCA TERMINATED NORMALLY****
TOTAL RUN TIME: 0 days 0 hours 1 minutes 5 seconds 807 msec
