                         Program Version 5.0.3 -  RELEASE  -
|  1> ! PBEh-3c def2/J TightSCF DefGrid3
|  2>
|  3> %maxcore 60000
|  4>
|  5> %pal
|  6> nprocs 4
|  7> end
|  8>
|  9> *xyzfile 0 1 bih3_nh3.xyz
| 10>
| 11>                          ****END OF INPUT****

CARTESIAN COORDINATES (ANGSTROEM)
---------------------------------
  Bi     0.000000    0.000000    1.788439
  H     -1.431967    0.000000    2.824522
  H      0.715984   -1.240120    2.824522
  H      0.715984    1.240120    2.824522
  N      0.000000    0.000000   -2.280209
  H     -0.467841   -0.810324   -2.660599
  H     -0.467841    0.810324   -2.660599
  H      0.935682    0.000000   -2.660599

 Total Charge           Charge          ....    0
 Multiplicity           Mult            ....    1
 Number of Electrons    NEL             ....   36
 Basis Dimension        Dim             ....   53

ORBITAL ENERGIES
----------------

  NO   OCC          E(Eh)            E(eV)
   0   2.0000     -14.603494      -397.3813
   1   2.0000      -6.154120      -167.4621
   2   2.0000      -3.844763      -104.6213
   3   2.0000      -3.844763      -104.6213
   4   2.0000      -3.840484      -104.5049
   5   2.0000      -1.125558       -30.6280
   6   2.0000      -1.125557       -30.6280
   7   2.0000      -1.118881       -30.4463
   8   2.0000      -1.118880       -30.4463
   9   2.0000      -1.115069       -30.3426
  10   2.0000      -0.943251       -25.6672
  11   2.0000      -0.667682       -18.1685
  12   2.0000      -0.518454       -14.1079
  13   2.0000      -0.518453       -14.1078
  14   2.0000      -0.354445        -9.6449
  15   2.0000      -0.354442        -9.6449
  16   2.0000      -0.318878        -8.6771
  17   2.0000      -0.289346        -7.8735
  18   0.0000       0.041948         1.1415
  19   0.0000       0.041950         1.1415
  20   0.0000       0.107151         2.9157
  21   0.0000       0.143126         3.8947
  22   0.0000       0.220908         6.0112

MULLIKEN ATOMIC CHARGES
-----------------------
   0 Bi:    0.038615
   1 H :   -0.018003
   2 H :   -0.018023
   3 H :   -0.018023
   4 N :   -0.937835
   5 H :    0.317757
   6 H :    0.317757
   7 H :    0.317755
Sum of atomic charges:    0.0000000

LOEWDIN ATOMIC CHARGES
----------------------
   0 Bi:    0.022402
   1 H :   -0.011878
   2 H :   -0.011891
   3 H :   -0.011891
   4 N :   -0.640659
   5 H :    0.217973
   6 H :    0.217973
   7 H :    0.217972

  Mayer bond orders larger than 0.100000
B(  0-Bi,  1-H ) :   0.9826 B(  0-Bi,  2-H ) :   0.9826 B(  0-Bi,  3-H ) :   0.9826
B(  4-N ,  5-H ) :   0.8780 B(  4-N ,  6-H ) :   0.8780 B(  4-N ,  7-H ) :   0.8780

Dispersion correction           -0.001618821
FINAL SINGLE POINT ENERGY      -272.825807222022

DIPOLE MOMENT
-------------
                                X             Y             Z
Electronic contribution:     -0.00004      -0.00000      51.89978
Nuclear contribution   :      0.00000       0.00000     -53.17594
                        -----------------------------------------
Total Dipole Moment    :     -0.00004      -0.00000      -1.27616
                        -----------------------------------------
Magnitude (a.u.)       :      1.27616
Magnitude (Debye)      :      3.24374

Rotational constants in cm-1:     1.905181     0.060289     0.060289
Rotational constants in MHz : 57115.904465  1807.405311  1807.405310

                             ****ORCA TERMINATED NORMALLY****
TOTAL RUN TIME: 0 days 0 hours 1 minutes 23 seconds 331 msec
