                         Program Version 5.0.3 -  RELEASE  -
|  1> ! PBEh-3c def2/J TightSCF DefGrid3
|  2>
|  3> %maxcore 60000
|  4>
|  5> %pal
|  6> nprocs 4
|  7> end
|  8>
|  9> *xyzfile 0 1 ISO_C8H8_1.xyz
| 10>
| 11>                          ****END OF INPUT****

CARTESIAN COORDINATES (ANGSTROEM)
---------------------------------
  C      0.534304   -0.213620    0.000000
  C      0.023992    1.091716    0.000000
  C     -0.378933   -1.274140    0.000000
  C     -1.342460    1.321546    0.000000
  C     -1.749264   -1.046114    0.000000
  C     -2.237453    0.254032    0.000000
  C      1.971332   -0.515299    0.000000
  C      2.985262    0.349567    0.000000
  H      0.700627    1.935173    0.000000
  H     -0.004873   -2.290395    0.000000
  H     -1.714404    2.337592    0.000000
  H     -2.433978   -1.883712    0.000000
  H     -3.303408    0.437279    0.000000
  H      2.207805   -1.574756    0.000000
  H      4.008593    0.001931    0.000000
  H      2.842229    1.421960    0.000000

 Total Charge           Charge          ....    0
 Multiplicity           Mult            ....    1
 Number of Electrons    NEL             ....   56
 Basis Dimension        Dim             ....  136

ORBITAL ENERGIES
----------------

  NO   OCC          E(Eh)            E(eV)
   0   2.0000     -10.460447      -284.6432
   1   2.0000     -10.453227      -284.4468
   2   2.0000     -10.450363      -284.3688
   3   2.0000     -10.450211      -284.3647
   4   2.0000     -10.449753      -284.3522
   5   2.0000     -10.449526      -284.3461
   6   2.0000     -10.449229      -284.3380
   7   2.0000     -10.440697      -284.1058
   8   2.0000      -0.962465       -26.1900
   9   2.0000      -0.885893       -24.1064
  10   2.0000      -0.839930       -22.8556
  11   2.0000      -0.816372       -22.2146
  12   2.0000      -0.704831       -19.1794
  13   2.0000      -0.683647       -18.6030
  14   2.0000      -0.633661       -17.2428
  15   2.0000      -0.584069       -15.8933
  16   2.0000      -0.541014       -14.7217
  17   2.0000      -0.520952       -14.1758
  18   2.0000      -0.503062       -13.6890
  19   2.0000      -0.482677       -13.1343
  20   2.0000      -0.473470       -12.8838
  21   2.0000      -0.433391       -11.7932
  22   2.0000      -0.428499       -11.6600
  23   2.0000      -0.400523       -10.8988
  24   2.0000      -0.393407       -10.7052
  25   2.0000      -0.350479        -9.5370
  26   2.0000      -0.296082        -8.0568
  27   2.0000      -0.265715        -7.2305
  28   0.0000      -0.015985        -0.4350
  29   0.0000       0.018398         0.5006
  30   0.0000       0.086039         2.3412
  31   0.0000       0.140612         3.8263
  32   0.0000       0.162233         4.4146

MULLIKEN ATOMIC CHARGES
-----------------------
   0 C :    0.163068
   1 C :   -0.286147
   2 C :   -0.286040
   3 C :   -0.198474
   4 C :   -0.202925
   5 C :   -0.236354
   6 C :   -0.192161
   7 C :   -0.499283
   8 H :    0.209484
   9 H :    0.215007
  10 H :    0.220859
  11 H :    0.220237
  12 H :    0.221251
  13 H :    0.212763
  14 H :    0.224910
  15 H :    0.213805
Sum of atomic charges:    0.0000000

LOEWDIN ATOMIC CHARGES
----------------------
   0 C :   -0.050428
   1 C :   -0.119035
   2 C :   -0.126045
   3 C :   -0.130938
   4 C :   -0.132757
   5 C :   -0.134894
   6 C :   -0.128893
   7 C :   -0.257718
   8 H :    0.135184
   9 H :    0.135432
  10 H :    0.136662
  11 H :    0.136977
  12 H :    0.136584
  13 H :    0.133899
  14 H :    0.137146
  15 H :    0.128823

  Mayer bond orders larger than 0.100000
B(  0-C ,  1-C ) :   1.3508 B(  0-C ,  2-C ) :   1.3548 B(  0-C ,  6-C ) :   1.0480
B(  1-C ,  3-C ) :   1.4525 B(  1-C ,  8-H ) :   0.9211 B(  2-C ,  4-C ) :   1.4256
B(  2-C ,  9-H ) :   0.9215 B(  3-C ,  5-C ) :   1.4031 B(  3-C , 10-H ) :   0.9198
B(  4-C ,  5-C ) :   1.4309 B(  4-C , 11-H ) :   0.9197 B(  5-C , 12-H ) :   0.9188
B(  6-C ,  7-C ) :   1.8696 B(  6-C , 13-H ) :   0.9215 B(  7-C , 14-H ) :   0.9255
B(  7-C , 15-H ) :   0.9241

Dispersion correction           -0.008790448
FINAL SINGLE POINT ENERGY      -308.951523495109

DIPOLE MOMENT
-------------
                                X             Y             Z
Electronic contribution:     -2.22376      -0.36236      -0.00000
Nuclear contribution   :      2.16022       0.36126       0.00000
                        -----------------------------------------
Total Dipole Moment    :     -0.06354      -0.00110      -0.00000
                        -----------------------------------------
Magnitude (a.u.)       :      0.06355
Magnitude (Debye)      :      0.16152

Rotational constants in cm-1:     0.174160     0.051539     0.039770
Rotational constants in MHz :  5221.188979  1545.089072  1192.265818

                             ****ORCA TERMINATED NORMALLY****
TOTAL RUN TIME: 0 days 0 hours 1 minutes 12 seconds 379 msec
