                         Program Version 5.0.3 -  RELEASE  -
|  1> ! PBEh-3c def2/J TightSCF DefGrid3
|  2>
|  3> %maxcore 60000
|  4>
|  5> %pal
|  6> nprocs 4
|  7> end
|  8>
|  9> *xyzfile 0 1 53A.xyz
| 10>
| 11>                          ****END OF INPUT****

CARTESIAN COORDINATES (ANGSTROEM)
---------------------------------
  C     -0.697631    0.000000    1.206945
  H     -1.226197    0.000000    2.150100
  C     -1.393976    0.000000   -0.001081
  H     -2.475623    0.000000   -0.001588
  C     -0.697017    0.000000   -1.208701
  H     -1.237478    0.000000   -2.145558
  C      0.697017    0.000000   -1.208701
  H      1.237478    0.000000   -2.145558
  C      1.393976    0.000000   -0.001081
  H      2.475623    0.000000   -0.001588
  C      0.697631    0.000000    1.206945
  H      1.226197    0.000000    2.150100

 Total Charge           Charge          ....    0
 Multiplicity           Mult            ....    1
 Number of Electrons    NEL             ....   42
 Basis Dimension        Dim             ....  102

ORBITAL ENERGIES
----------------

  NO   OCC          E(Eh)            E(eV)
   0   2.0000     -10.448918      -284.3295
   1   2.0000     -10.448737      -284.3246
   2   2.0000     -10.448625      -284.3215
   3   2.0000     -10.448108      -284.3075
   4   2.0000     -10.448041      -284.3056
   5   2.0000     -10.447816      -284.2995
   6   2.0000      -0.951805       -25.8999
   7   2.0000      -0.835513       -22.7355
   8   2.0000      -0.835173       -22.7262
   9   2.0000      -0.679340       -18.4858
  10   2.0000      -0.678558       -18.4645
  11   2.0000      -0.591882       -16.1059
  12   2.0000      -0.526101       -14.3159
  13   2.0000      -0.508319       -13.8321
  14   2.0000      -0.481781       -13.1099
  15   2.0000      -0.481691       -13.1075
  16   2.0000      -0.420665       -11.4469
  17   2.0000      -0.399078       -10.8595
  18   2.0000      -0.397622       -10.8199
  19   2.0000      -0.292394        -7.9564
  20   2.0000      -0.292389        -7.9563
  21   0.0000       0.019030         0.5178
  22   0.0000       0.019063         0.5187
  23   0.0000       0.140824         3.8320
  24   0.0000       0.195939         5.3318
  25   0.0000       0.201663         5.4875

MULLIKEN ATOMIC CHARGES
-----------------------
   0 C :   -0.219245
   1 H :    0.220200
   2 C :   -0.221229
   3 H :    0.219506
   4 C :   -0.219262
   5 H :    0.220029
   6 C :   -0.219261
   7 H :    0.220029
   8 C :   -0.221230
   9 H :    0.219506
  10 C :   -0.219244
  11 H :    0.220201
Sum of atomic charges:   -0.0000000

LOEWDIN ATOMIC CHARGES
----------------------
   0 C :   -0.135842
   1 H :    0.135645
   2 C :   -0.135595
   3 H :    0.135692
   4 C :   -0.135670
   5 H :    0.135771
   6 C :   -0.135670
   7 H :    0.135771
   8 C :   -0.135595
   9 H :    0.135692
  10 C :   -0.135842
  11 H :    0.135645

  Mayer bond orders larger than 0.100000
B(  0-C ,  1-H ) :   0.9197 B(  0-C ,  2-C ) :   1.4261 B(  0-C , 10-C ) :   1.4276
B(  2-C ,  3-H ) :   0.9203 B(  2-C ,  4-C ) :   1.4260 B(  4-C ,  5-H ) :   0.9199
B(  4-C ,  6-C ) :   1.4266 B(  6-C ,  7-H ) :   0.9199 B(  6-C ,  8-C ) :   1.4260
B(  8-C ,  9-H ) :   0.9203 B(  8-C , 10-C ) :   1.4261 B( 10-C , 11-H ) :   0.9197

Dispersion correction           -0.005879717
FINAL SINGLE POINT ENERGY      -231.725710425167

DIPOLE MOMENT
-------------
                                X             Y             Z
Electronic contribution:     -0.00000      -0.00000      -0.00817
Nuclear contribution   :      0.00000       0.00000       0.01002
                        -----------------------------------------
Total Dipole Moment    :     -0.00000      -0.00000       0.00185
                        -----------------------------------------
Magnitude (a.u.)       :      0.00185
Magnitude (Debye)      :      0.00470

Rotational constants in cm-1:     0.190450     0.190077     0.095132
Rotational constants in MHz :  5709.561405  5698.354019  2851.976103

                             ****ORCA TERMINATED NORMALLY****
TOTAL RUN TIME: 0 days 0 hours 1 minutes 19 seconds 636 msec
