                         Program Version 5.0.3 -  RELEASE  -
|  1> ! PBEh-3c def2/J TightSCF DefGrid3
|  2>
|  3> %maxcore 60000
|  4>
|  5> %pal
|  6> nprocs 4
|  7> end
|  8>
|  9> *xyzfile 0 1 04a.xyz
| 10>
| 11>                          ****END OF INPUT****

CARTESIAN COORDINATES (ANGSTROEM)
---------------------------------
  C     -0.294062    0.576964    0.000000
  O      0.272387    1.667715    0.000000
  N      0.316817   -0.618403    0.000000
  H     -0.240009   -1.452955    0.000000
  H      1.337343   -0.683701    0.000000
  H     -1.392475    0.510380    0.000000

 Total Charge           Charge          ....    0
 Multiplicity           Mult            ....    1
 Number of Electrons    NEL             ....   24
 Basis Dimension        Dim             ....   51

ORBITAL ENERGIES
----------------

  NO   OCC          E(Eh)            E(eV)
   0   2.0000     -19.457335      -529.4610
   1   2.0000     -14.668393      -399.1473
   2   2.0000     -10.546530      -286.9857
   3   2.0000      -1.133318       -30.8392
   4   2.0000      -1.012768       -27.5588
   5   2.0000      -0.703460       -19.1421
   6   2.0000      -0.627946       -17.0873
   7   2.0000      -0.547722       -14.9043
   8   2.0000      -0.469320       -12.7708
   9   2.0000      -0.461780       -12.5657
  10   2.0000      -0.323498        -8.8028
  11   2.0000      -0.310128        -8.4390
  12   0.0000       0.063978         1.7409
  13   0.0000       0.123422         3.3585
  14   0.0000       0.155136         4.2215
  15   0.0000       0.223482         6.0812
  16   0.0000       0.307107         8.3568

MULLIKEN ATOMIC CHARGES
-----------------------
   0 C :    0.271360
   1 O :   -0.411406
   2 N :   -0.755597
   3 H :    0.367036
   4 H :    0.377687
   5 H :    0.150920
Sum of atomic charges:    0.0000000

LOEWDIN ATOMIC CHARGES
----------------------
   0 C :    0.058124
   1 O :   -0.282572
   2 N :   -0.373958
   3 H :    0.254312
   4 H :    0.263521
   5 H :    0.080572

  Mayer bond orders larger than 0.100000
B(  0-C ,  1-O ) :   2.0146 B(  0-C ,  2-N ) :   1.1836 B(  0-C ,  5-H ) :   0.8792
B(  1-O ,  2-N ) :   0.1055 B(  2-N ,  3-H ) :   0.8296 B(  2-N ,  4-H ) :   0.8169

Dispersion correction           -0.001422385
FINAL SINGLE POINT ENERGY      -169.525817344091

DIPOLE MOMENT
-------------
                                X             Y             Z
Electronic contribution:      0.33691       1.33586       0.00000
Nuclear contribution   :     -0.58368      -2.97161       0.00000
                        -----------------------------------------
Total Dipole Moment    :     -0.24677      -1.63574       0.00000
                        -----------------------------------------
Magnitude (a.u.)       :      1.65425
Magnitude (Debye)      :      4.20477

Rotational constants in cm-1:     2.461088     0.377129     0.327018
Rotational constants in MHz : 73781.550399 11306.045192  9803.750327

                             ****ORCA TERMINATED NORMALLY****
TOTAL RUN TIME: 0 days 0 hours 1 minutes 29 seconds 42 msec
