                         Program Version 5.0.3 -  RELEASE  -
|  1> ! PBEh-3c def2/J TightSCF DefGrid3
|  2>
|  3> %maxcore 60000
|  4>
|  5> %pal
|  6> nprocs 4
|  7> end
|  8>
|  9> *xyzfile 0 1 Tetrabenzopyracylene.xyz
| 10>
| 11>                          ****END OF INPUT****

CARTESIAN COORDINATES (ANGSTROEM)
---------------------------------
  C      1.088494    1.356142   -1.486199
  C      2.351699    1.510327   -0.851143
  C      2.863911    0.109226   -0.566575
  C      1.870762   -0.786975   -1.050081
  C      0.868220   -0.020004   -1.667715
  C     -2.113143   -1.832346   -1.203807
  C     -0.701389   -1.792040   -1.379064
  C     -0.365412   -0.502293   -1.828121
  C     -1.481873    0.351750   -1.820396
  C     -2.623193   -0.432675   -1.500740
  C      0.032369    2.284984   -1.518923
  C     -1.346623    1.747308   -1.702042
  C      1.637410   -2.108393   -0.628134
  C      0.255394   -2.644366   -0.797420
  C     -3.795202    0.270640   -1.290629
  C     -3.749471    1.684005   -1.342491
  C     -2.573468    2.414190   -1.495961
  C      0.408824    3.576158   -1.091110
  C      1.693683    3.807228   -0.606381
  C      2.660081    2.789988   -0.429284
  C     -2.610226   -2.961990   -0.579526
  C     -1.691067   -3.939729   -0.131183
  C     -0.308281   -3.789361   -0.193571
  C      2.688464   -2.638524    0.150709
  C      3.761898   -1.833599    0.522589
  C      3.847333   -0.452309    0.226817
  H     -4.726049   -0.218537   -1.031942
  H     -4.670740    2.228753   -1.177827
  H     -2.611198    3.491878   -1.397893
  H     -0.307089    4.388434   -1.082180
  H      1.944549    4.806725   -0.273614
  H      3.585750    3.025624    0.080631
  H     -3.664125   -3.095680   -0.368422
  H     -2.087812   -4.821591    0.356008
  H      0.320810   -4.533338    0.278607
  H      2.649574   -3.656484    0.517759
  H      4.540133   -2.272745    1.133844
  H      4.641005    0.135615    0.670411

 Total Charge           Charge          ....    0
 Multiplicity           Mult            ....    1
 Number of Electrons    NEL             ....  168
 Basis Dimension        Dim             ....  414

ORBITAL ENERGIES
----------------

  NO   OCC          E(Eh)            E(eV)
   0   2.0000     -10.478951      -285.1468
   1   2.0000     -10.478772      -285.1419
   2   2.0000     -10.478657      -285.1387
   3   2.0000     -10.478483      -285.1340
   4   2.0000     -10.474254      -285.0189
   5   2.0000     -10.474038      -285.0131
   6   2.0000     -10.473849      -285.0079
   7   2.0000     -10.473769      -285.0058
   8   2.0000     -10.464815      -284.7621
   9   2.0000     -10.464717      -284.7594
  10   2.0000     -10.464678      -284.7584
  11   2.0000     -10.464439      -284.7519
  12   2.0000     -10.463216      -284.7186
  13   2.0000     -10.463194      -284.7180
  14   2.0000     -10.463127      -284.7162
  15   2.0000     -10.463082      -284.7149
  16   2.0000     -10.460179      -284.6359
  17   2.0000     -10.460152      -284.6352
  18   2.0000     -10.460066      -284.6329
  19   2.0000     -10.460011      -284.6314
  20   2.0000     -10.455817      -284.5172
  21   2.0000     -10.455505      -284.5087
  22   2.0000     -10.455466      -284.5077
  23   2.0000     -10.455418      -284.5064
  24   2.0000     -10.449117      -284.3349
  25   2.0000     -10.448142      -284.3084
  26   2.0000      -1.034888       -28.1607
  27   2.0000      -0.994944       -27.0738
  28   2.0000      -0.975376       -26.5413
  29   2.0000      -0.945918       -25.7397
  30   2.0000      -0.929602       -25.2958
  31   2.0000      -0.904777       -24.6202
  32   2.0000      -0.896275       -24.3889
  33   2.0000      -0.878743       -23.9118
  34   2.0000      -0.841165       -22.8893
  35   2.0000      -0.828098       -22.5337
  36   2.0000      -0.819496       -22.2996
  37   2.0000      -0.813865       -22.1464
  38   2.0000      -0.809879       -22.0379
  39   2.0000      -0.750469       -20.4213
  40   2.0000      -0.731470       -19.9043
  41   2.0000      -0.703225       -19.1357
  42   2.0000      -0.697112       -18.9694
  43   2.0000      -0.690112       -18.7789
  44   2.0000      -0.677512       -18.4360
  45   2.0000      -0.654567       -17.8117
  46   2.0000      -0.624396       -16.9907
  47   2.0000      -0.614346       -16.7172
  48   2.0000      -0.606028       -16.4909
  49   2.0000      -0.590634       -16.0720
  50   2.0000      -0.574444       -15.6314
  51   2.0000      -0.560336       -15.2475
  52   2.0000      -0.543327       -14.7847
  53   2.0000      -0.532456       -14.4889
  54   2.0000      -0.530003       -14.4221
  55   2.0000      -0.520136       -14.1536
  56   2.0000      -0.515910       -14.0386
  57   2.0000      -0.502276       -13.6676
  58   2.0000      -0.501650       -13.6506
  59   2.0000      -0.489045       -13.3076
  60   2.0000      -0.486982       -13.2514
  61   2.0000      -0.483398       -13.1539
  62   2.0000      -0.469975       -12.7887
  63   2.0000      -0.468470       -12.7477
  64   2.0000      -0.455457       -12.3936
  65   2.0000      -0.444635       -12.0991
  66   2.0000      -0.443298       -12.0627
  67   2.0000      -0.437665       -11.9095
  68   2.0000      -0.428291       -11.6544
  69   2.0000      -0.423566       -11.5258
  70   2.0000      -0.405080       -11.0228
  71   2.0000      -0.401359       -10.9215
  72   2.0000      -0.399035       -10.8583
  73   2.0000      -0.388254       -10.5649
  74   2.0000      -0.384499       -10.4627
  75   2.0000      -0.380193       -10.3456
  76   2.0000      -0.360359        -9.8059
  77   2.0000      -0.337777        -9.1914
  78   2.0000      -0.330555        -8.9949
  79   2.0000      -0.292842        -7.9686
  80   2.0000      -0.270398        -7.3579
  81   2.0000      -0.263244        -7.1632
  82   2.0000      -0.259961        -7.0739
  83   2.0000      -0.255535        -6.9535
  84   0.0000      -0.066688        -1.8147
  85   0.0000      -0.047569        -1.2944
  86   0.0000      -0.020509        -0.5581
  87   0.0000       0.015400         0.4190
  88   0.0000       0.026466         0.7202

MULLIKEN ATOMIC CHARGES
-----------------------
   0 C :   -0.062832
   1 C :    0.144450
   2 C :    0.145328
   3 C :   -0.064023
   4 C :    0.022265
   5 C :    0.143108
   6 C :   -0.064054
   7 C :    0.022674
   8 C :   -0.065142
   9 C :    0.145893
  10 C :    0.163923
  11 C :    0.167139
  12 C :    0.166041
  13 C :    0.162197
  14 C :   -0.375028
  15 C :   -0.175921
  16 C :   -0.362546
  17 C :   -0.362669
  18 C :   -0.175654
  19 C :   -0.374129
  20 C :   -0.372912
  21 C :   -0.176212
  22 C :   -0.361224
  23 C :   -0.362283
  24 C :   -0.175922
  25 C :   -0.374499
  26 H :    0.215700
  27 H :    0.225505
  28 H :    0.214271
  29 H :    0.214100
  30 H :    0.225469
  31 H :    0.215694
  32 H :    0.215868
  33 H :    0.225510
  34 H :    0.214255
  35 H :    0.214320
  36 H :    0.225605
  37 H :    0.215734
Sum of atomic charges:   -0.0000000

LOEWDIN ATOMIC CHARGES
----------------------
   0 C :   -0.011847
   1 C :   -0.017095
   2 C :   -0.016880
   3 C :   -0.011842
   4 C :   -0.008589
   5 C :   -0.016957
   6 C :   -0.011825
   7 C :   -0.008448
   8 C :   -0.011818
   9 C :   -0.017081
  10 C :   -0.017304
  11 C :   -0.017267
  12 C :   -0.017161
  13 C :   -0.017334
  14 C :   -0.117392
  15 C :   -0.131545
  16 C :   -0.117787
  17 C :   -0.117519
  18 C :   -0.131659
  19 C :   -0.117386
  20 C :   -0.117202
  21 C :   -0.131789
  22 C :   -0.117395
  23 C :   -0.117842
  24 C :   -0.131533
  25 C :   -0.117381
  26 H :    0.139776
  27 H :    0.139120
  28 H :    0.138097
  29 H :    0.138010
  30 H :    0.139115
  31 H :    0.139717
  32 H :    0.139862
  33 H :    0.139080
  34 H :    0.138090
  35 H :    0.138002
  36 H :    0.139140
  37 H :    0.139868

  Mayer bond orders larger than 0.100000
B(  0-C ,  1-C ) :   1.2332 B(  0-C ,  4-C ) :   1.1621 B(  0-C , 10-C ) :   1.2793
B(  1-C ,  2-C ) :   0.9851 B(  1-C , 19-C ) :   1.3805 B(  2-C ,  3-C ) :   1.2321
B(  2-C , 25-C ) :   1.3816 B(  3-C ,  4-C ) :   1.1627 B(  3-C , 12-C ) :   1.2806
B(  4-C ,  7-C ) :   1.3533 B(  5-C ,  6-C ) :   1.2322 B(  5-C ,  9-C ) :   0.9854
B(  5-C , 20-C ) :   1.3813 B(  6-C ,  7-C ) :   1.1622 B(  6-C , 13-C ) :   1.2798
B(  7-C ,  8-C ) :   1.1617 B(  8-C ,  9-C ) :   1.2338 B(  8-C , 11-C ) :   1.2796
B(  9-C , 14-C ) :   1.3796 B( 10-C , 11-C ) :   1.0239 B( 10-C , 17-C ) :   1.2636
B( 11-C , 16-C ) :   1.2630 B( 12-C , 13-C ) :   1.0251 B( 12-C , 23-C ) :   1.2613
B( 13-C , 22-C ) :   1.2639 B( 14-C , 15-C ) :   1.3591 B( 14-C , 26-H ) :   0.9300
B( 15-C , 16-C ) :   1.4908 B( 15-C , 27-H ) :   0.9182 B( 16-C , 28-H ) :   0.9268
B( 17-C , 18-C ) :   1.4911 B( 17-C , 29-H ) :   0.9268 B( 18-C , 19-C ) :   1.3594
B( 18-C , 30-H ) :   0.9182 B( 19-C , 31-H ) :   0.9299 B( 20-C , 21-C ) :   1.3590
B( 20-C , 32-H ) :   0.9298 B( 21-C , 22-C ) :   1.4923 B( 21-C , 33-H ) :   0.9181
B( 22-C , 34-H ) :   0.9267 B( 23-C , 24-C ) :   1.4930 B( 23-C , 35-H ) :   0.9267
B( 24-C , 25-C ) :   1.3574 B( 24-C , 36-H ) :   0.9181 B( 25-C , 37-H ) :   0.9300

Dispersion correction           -0.035271916
FINAL SINGLE POINT ENERGY      -995.801627438459

DIPOLE MOMENT
-------------
                                X             Y             Z
Electronic contribution:      1.25263      -0.96805      -6.89227
Nuclear contribution   :     -1.46058       1.12680       8.04065
                        -----------------------------------------
Total Dipole Moment    :     -0.20795       0.15875       1.14838
                        -----------------------------------------
Magnitude (a.u.)       :      1.17780
Magnitude (Debye)      :      2.99373

Rotational constants in cm-1:     0.009806     0.009310     0.004965
Rotational constants in MHz :   293.976245   279.100983   148.851276

                             ****ORCA TERMINATED NORMALLY****
TOTAL RUN TIME: 0 days 0 hours 7 minutes 26 seconds 561 msec
