                         Program Version 5.0.3 -  RELEASE  -
|  1> ! PBEh-3c def2/J TightSCF DefGrid3
|  2>
|  3> %maxcore 60000
|  4>
|  5> %pal
|  6> nprocs 4
|  7> end
|  8>
|  9> *xyzfile 1 1 Cp.xyz
| 10>
| 11>                          ****END OF INPUT****

CARTESIAN COORDINATES (ANGSTROEM)
---------------------------------
  O      2.583040    1.243230    0.000000
  N      0.319320    1.094726    0.000000
  N     -1.974813    1.021554    0.000000
  N      1.611764   -0.813294    0.000000
  C     -0.830893    0.388352    0.000000
  C     -0.738541   -1.025539    0.000000
  C      1.594002    0.556372    0.000000
  C      0.496081   -1.571639    0.000000
  H     -1.625897   -1.639771    0.000000
  H      0.651071   -2.641193    0.000000
  H     -2.843511    0.508609    0.000000
  H     -2.042936    2.029032    0.000000
  H      2.520363   -1.259510    0.000000
  H      0.280949    2.109070    0.000000

 Total Charge           Charge          ....    1
 Multiplicity           Mult            ....    1
 Number of Electrons    NEL             ....   58
 Basis Dimension        Dim             ....  132

ORBITAL ENERGIES
----------------

  NO   OCC          E(Eh)            E(eV)
   0   2.0000     -19.647591      -534.6381
   1   2.0000     -14.902040      -405.5051
   2   2.0000     -14.891037      -405.2057
   3   2.0000     -14.885040      -405.0425
   4   2.0000     -10.778210      -293.2900
   5   2.0000     -10.778172      -293.2890
   6   2.0000     -10.715335      -291.5791
   7   2.0000     -10.647262      -289.7267
   8   2.0000      -1.377064       -37.4718
   9   2.0000      -1.310638       -35.6643
  10   2.0000      -1.266073       -34.4516
  11   2.0000      -1.217540       -33.1309
  12   2.0000      -1.085713       -29.5438
  13   2.0000      -0.973931       -26.5020
  14   2.0000      -0.963604       -26.2210
  15   2.0000      -0.871847       -23.7242
  16   2.0000      -0.850129       -23.1332
  17   2.0000      -0.825100       -22.4521
  18   2.0000      -0.778972       -21.1969
  19   2.0000      -0.769286       -20.9333
  20   2.0000      -0.739642       -20.1267
  21   2.0000      -0.696043       -18.9403
  22   2.0000      -0.679492       -18.4899
  23   2.0000      -0.659834       -17.9550
  24   2.0000      -0.656560       -17.8659
  25   2.0000      -0.603584       -16.4244
  26   2.0000      -0.535267       -14.5654
  27   2.0000      -0.518151       -14.0996
  28   2.0000      -0.475655       -12.9432
  29   0.0000      -0.214916        -5.8482
  30   0.0000      -0.142766        -3.8849
  31   0.0000      -0.075655        -2.0587
  32   0.0000      -0.051696        -1.4067
  33   0.0000      -0.036890        -1.0038

MULLIKEN ATOMIC CHARGES
-----------------------
   0 O :   -0.337868
   1 N :   -0.718525
   2 N :   -0.785728
   3 N :   -0.664979
   4 C :    0.729330
   5 C :   -0.424739
   6 C :    0.706120
   7 C :    0.135226
   8 H :    0.310571
   9 H :    0.335969
  10 H :    0.430847
  11 H :    0.416733
  12 H :    0.439850
  13 H :    0.427194
Sum of atomic charges:    1.0000000

LOEWDIN ATOMIC CHARGES
----------------------
   0 O :   -0.184818
   1 N :   -0.145385
   2 N :   -0.263067
   3 N :   -0.138337
   4 C :    0.175334
   5 C :   -0.232290
   6 C :    0.156746
   7 C :    0.059459
   8 H :    0.182678
   9 H :    0.182362
  10 H :    0.299009
  11 H :    0.290394
  12 H :    0.312090
  13 H :    0.305824

  Mayer bond orders larger than 0.100000
B(  0-O ,  6-C ) :   2.1115 B(  1-N ,  4-C ) :   1.1423 B(  1-N ,  6-C ) :   0.9849
B(  1-N , 13-H ) :   0.7813 B(  2-N ,  4-C ) :   1.2710 B(  2-N , 10-H ) :   0.7968
B(  2-N , 11-H ) :   0.7989 B(  3-N ,  6-C ) :   1.0218 B(  3-N ,  7-C ) :   1.1631
B(  3-N , 12-H ) :   0.7756 B(  4-C ,  5-C ) :   1.1846 B(  5-C ,  7-C ) :   1.5454
B(  5-C ,  8-H ) :   0.8799 B(  7-C ,  9-H ) :   0.8653

Dispersion correction           -0.007356450
FINAL SINGLE POINT ENERGY      -394.463015387036

DIPOLE MOMENT
-------------
                                X             Y             Z
Electronic contribution:      2.74244       1.07009      -0.00000
Nuclear contribution   :     -5.04839      -1.69108       0.00000
                        -----------------------------------------
Total Dipole Moment    :     -2.30595      -0.62100      -0.00000
                        -----------------------------------------
Magnitude (a.u.)       :      2.38810
Magnitude (Debye)      :      6.07008

Rotational constants in cm-1:     0.128952     0.066817     0.044012
Rotational constants in MHz :  3865.872163  2003.120739  1319.444210

                             ****ORCA TERMINATED NORMALLY****
TOTAL RUN TIME: 0 days 0 hours 1 minutes 44 seconds 521 msec
