                         Program Version 5.0.3 -  RELEASE  -
|  1> ! PBEh-3c def2/J TightSCF DefGrid3
|  2>
|  3> %maxcore 60000
|  4>
|  5> %pal
|  6> nprocs 4
|  7> end
|  8>
|  9> *xyzfile 0 1 231.xyz
| 10>
| 11>                          ****END OF INPUT****

CARTESIAN COORDINATES (ANGSTROEM)
---------------------------------
  C      0.794160    1.240240    1.841300
  C      0.042400   -0.000630    1.360300
  N      0.020090   -0.043900   -0.156310
  H      0.978510   -0.044340   -0.536290
  H     -0.462900   -0.880910   -0.515350
  H     -0.459550    0.785950   -0.536760
  H     -0.995150   -0.015710    1.713030
  H      0.533600   -0.923060    1.690080
  H      0.826110    1.249050    2.937160
  H      1.824110    1.248700    1.465070
  H      0.297740    2.161580    1.509080
  O      2.198290   -0.031840   -1.736150
  S      1.200240    0.007910   -2.856600
  C      2.282350    0.025370   -4.416500
  O      0.391490   -1.221350   -2.943300
  O      0.430300    1.264680   -2.884900
  F      1.501610    0.023040   -5.524560
  F      3.065340    1.132530   -4.442500
  F      3.081680   -1.069640   -4.447640

 Total Charge           Charge          ....    0
 Multiplicity           Mult            ....    1
 Number of Electrons    NEL             ....  100
 Basis Dimension        Dim             ....  184

ORBITAL ENERGIES
----------------

  NO   OCC          E(Eh)            E(eV)
   0   2.0000     -89.805413     -2443.7295
   1   2.0000     -25.119238      -683.5292
   2   2.0000     -25.119150      -683.5268
   3   2.0000     -25.119066      -683.5245
   4   2.0000     -19.466062      -529.6985
   5   2.0000     -19.456839      -529.4475
   6   2.0000     -19.456781      -529.4459
   7   2.0000     -14.779664      -402.1751
   8   2.0000     -10.693546      -290.9862
   9   2.0000     -10.557460      -287.2831
  10   2.0000     -10.491578      -285.4904
  11   2.0000      -8.404885      -228.7086
  12   2.0000      -6.296836      -171.3456
  13   2.0000      -6.296112      -171.3259
  14   2.0000      -6.295606      -171.3122
  15   2.0000      -1.417405       -38.5696
  16   2.0000      -1.331311       -36.2268
  17   2.0000      -1.331115       -36.2215
  18   2.0000      -1.213498       -33.0210
  19   2.0000      -1.131111       -30.7791
  20   2.0000      -1.070120       -29.1194
  21   2.0000      -1.069997       -29.1161
  22   2.0000      -0.907369       -24.6908
  23   2.0000      -0.795516       -21.6471
  24   2.0000      -0.772562       -21.0225
  25   2.0000      -0.698510       -19.0074
  26   2.0000      -0.681134       -18.5346
  27   2.0000      -0.674566       -18.3559
  28   2.0000      -0.645789       -17.5728
  29   2.0000      -0.645748       -17.5717
  30   2.0000      -0.603514       -16.4224
  31   2.0000      -0.594544       -16.1784
  32   2.0000      -0.559078       -15.2133
  33   2.0000      -0.527071       -14.3423
  34   2.0000      -0.526153       -14.3174
  35   2.0000      -0.508713       -13.8428
  36   2.0000      -0.503438       -13.6992
  37   2.0000      -0.502526       -13.6744
  38   2.0000      -0.499374       -13.5887
  39   2.0000      -0.487675       -13.2703
  40   2.0000      -0.485718       -13.2170
  41   2.0000      -0.484745       -13.1906
  42   2.0000      -0.469406       -12.7732
  43   2.0000      -0.467583       -12.7236
  44   2.0000      -0.385270       -10.4837
  45   2.0000      -0.382598       -10.4110
  46   2.0000      -0.349445        -9.5089
  47   2.0000      -0.343599        -9.3498
  48   2.0000      -0.334931        -9.1139
  49   2.0000      -0.300740        -8.1836
  50   0.0000       0.050673         1.3789
  51   0.0000       0.094053         2.5593
  52   0.0000       0.108768         2.9597
  53   0.0000       0.124561         3.3895
  54   0.0000       0.132389         3.6025

MULLIKEN ATOMIC CHARGES
-----------------------
   0 C :   -0.658555
   1 C :   -0.323725
   2 N :   -0.824600
   3 H :    0.465996
   4 H :    0.441007
   5 H :    0.435045
   6 H :    0.262493
   7 H :    0.276220
   8 H :    0.255351
   9 H :    0.266951
  10 H :    0.239721
  11 O :   -0.706503
  12 S :    1.281163
  13 C :    0.840742
  14 O :   -0.676050
  15 O :   -0.676378
  16 F :   -0.299314
  17 F :   -0.299778
  18 F :   -0.299784
Sum of atomic charges:    0.0000000

LOEWDIN ATOMIC CHARGES
----------------------
   0 C :   -0.370906
   1 C :   -0.149613
   2 N :   -0.257519
   3 H :    0.290804
   4 H :    0.299279
   5 H :    0.297417
   6 H :    0.140678
   7 H :    0.148939
   8 H :    0.152111
   9 H :    0.153828
  10 H :    0.141395
  11 O :   -0.632108
  12 S :    1.144054
  13 C :    0.269618
  14 O :   -0.606053
  15 O :   -0.606911
  16 F :   -0.137543
  17 F :   -0.138772
  18 F :   -0.138698

  Mayer bond orders larger than 0.100000
B(  0-C ,  1-C ) :   0.9849 B(  0-C ,  8-H ) :   0.9119 B(  0-C ,  9-H ) :   0.9043
B(  0-C , 10-H ) :   0.9148 B(  1-C ,  2-N ) :   0.8784 B(  1-C ,  6-H ) :   0.9022
B(  1-C ,  7-H ) :   0.8953 B(  2-N ,  3-H ) :   0.5945 B(  2-N ,  4-H ) :   0.7730
B(  2-N ,  5-H ) :   0.7716 B(  3-H , 11-O ) :   0.2151 B( 11-O , 12-S ) :   1.4220
B( 12-S , 13-C ) :   0.7604 B( 12-S , 14-O ) :   1.6077 B( 12-S , 15-O ) :   1.6056
B( 13-C , 16-F ) :   1.0014 B( 13-C , 17-F ) :   1.0001 B( 13-C , 18-F ) :   0.9999

Dispersion correction           -0.009554829
FINAL SINGLE POINT ENERGY     -1095.360746606185

DIPOLE MOMENT
-------------
                                X             Y             Z
Electronic contribution:      9.82876      -2.70856     -28.65296
Nuclear contribution   :    -11.31725       2.78719      32.62479
                        -----------------------------------------
Total Dipole Moment    :     -1.48849       0.07863       3.97183
                        -----------------------------------------
Magnitude (a.u.)       :      4.24231
Magnitude (Debye)      :     10.78310

Rotational constants in cm-1:     0.069530     0.014262     0.013839
Rotational constants in MHz :  2084.462582   427.573257   414.872521

                             ****ORCA TERMINATED NORMALLY****
TOTAL RUN TIME: 0 days 0 hours 1 minutes 47 seconds 817 msec
