                         Program Version 5.0.3 -  RELEASE  -
|  1> ! PBEh-3c def2/J TightSCF DefGrid3
|  2>
|  3> %maxcore 60000
|  4>
|  5> %pal
|  6> nprocs 4
|  7> end
|  8>
|  9> *xyzfile 0 3 bn3pi.xyz
| 10>
| 11>                          ****END OF INPUT****

CARTESIAN COORDINATES (ANGSTROEM)
---------------------------------
  B     -0.750773    0.000000    0.000000
  N      0.579427    0.000000    0.000000

 Total Charge           Charge          ....    0
 Multiplicity           Mult            ....    3
 Number of Electrons    NEL             ....   12
 Basis Dimension        Dim             ....   30

ORBITAL ENERGIES
----------------
                 SPIN UP ORBITALS
  NO   OCC          E(Eh)            E(eV)
   0   1.0000     -14.704698      -400.1352
   1   1.0000      -7.095528      -193.0791
   2   1.0000      -0.925391       -25.1812
   3   1.0000      -0.539513       -14.6809
   4   1.0000      -0.390926       -10.6376
   5   1.0000      -0.374082       -10.1793
   6   1.0000      -0.374082       -10.1793
   7   0.0000       0.004757         0.1295
   8   0.0000       0.004757         0.1295
   9   0.0000       0.175495         4.7755
  10   0.0000       0.315342         8.5809
  11   0.0000       0.315342         8.5809

                 SPIN DOWN ORBITALS
  NO   OCC          E(Eh)            E(eV)
   0   1.0000     -14.682079      -399.5197
   1   1.0000      -7.067216      -192.3087
   2   1.0000      -0.852831       -23.2067
   3   1.0000      -0.345095        -9.3905
   4   1.0000      -0.345095        -9.3905
   5   0.0000      -0.208027        -5.6607
   6   0.0000      -0.094683        -2.5765
   7   0.0000       0.059920         1.6305
   8   0.0000       0.059920         1.6305
   9   0.0000       0.199493         5.4285

MULLIKEN ATOMIC CHARGES AND SPIN POPULATIONS
--------------------------------------------
   0 B :    0.229938    1.227826
   1 N :   -0.229938    0.772174
Sum of atomic charges         :   -0.0000000

LOEWDIN ATOMIC CHARGES AND SPIN POPULATIONS
-------------------------------------------
   0 B :    0.049234    1.154565
   1 N :   -0.049234    0.845435

  Mayer bond orders larger than 0.100000
B(  0-B ,  1-N ) :   2.4565

Dispersion correction           -0.000292382
FINAL SINGLE POINT ENERGY       -79.160213932535

DIPOLE MOMENT
-------------
                                X             Y             Z
Electronic contribution:     -1.02332      -0.00000       0.00000
Nuclear contribution   :      0.57077       0.00000       0.00000
                        -----------------------------------------
Total Dipole Moment    :     -0.45255      -0.00000       0.00000
                        -----------------------------------------
Magnitude (a.u.)       :      0.45255
Magnitude (Debye)      :      1.15029

Rotational constants in cm-1:     0.000000     1.561498     1.561498
Rotational constants in MHz :     0.000000 46812.543688 46812.543688

                             ****ORCA TERMINATED NORMALLY****
TOTAL RUN TIME: 0 days 0 hours 0 minutes 14 seconds 973 msec
