                         Program Version 5.0.3 -  RELEASE  -
|  1> ! PBEh-3c def2/J TightSCF DefGrid3
|  2>
|  3> %maxcore 60000
|  4>
|  5> %pal
|  6> nprocs 4
|  7> end
|  8>
|  9> *xyzfile 0 1 C3H7CN.xyz
| 10>
| 11>                          ****END OF INPUT****

CARTESIAN COORDINATES (ANGSTROEM)
---------------------------------
  C     -1.074851   -0.605948   -1.049969
  H     -0.729815   -1.650063   -1.082341
  H     -0.730945   -0.110834   -1.970297
  H     -2.172957   -0.617492   -1.068377
  C     -0.559893    0.113555    0.196797
  H     -0.936173    1.147001    0.224321
  H     -0.936283   -0.379546    1.105308
  C      0.982427    0.142462    0.247635
  H      1.383655   -0.884218    0.236967
  H      1.383767    0.645276   -0.647348
  C      1.500825    0.825604    1.429395
  N      1.890242    1.374203    2.377911

 Total Charge           Charge          ....    0
 Multiplicity           Mult            ....    1
 Number of Electrons    NEL             ....   38
 Basis Dimension        Dim             ....   89

ORBITAL ENERGIES
----------------

  NO   OCC          E(Eh)            E(eV)
   0   2.0000     -14.641096      -398.4045
   1   2.0000     -10.494207      -285.5619
   2   2.0000     -10.488608      -285.4095
   3   2.0000     -10.467525      -284.8358
   4   2.0000     -10.448810      -284.3266
   5   2.0000      -1.002995       -27.2929
   6   2.0000      -0.912623       -24.8337
   7   2.0000      -0.817141       -22.2355
   8   2.0000      -0.697292       -18.9743
   9   2.0000      -0.585812       -15.9407
  10   2.0000      -0.558011       -15.1843
  11   2.0000      -0.501943       -13.6586
  12   2.0000      -0.481808       -13.1107
  13   2.0000      -0.451636       -12.2896
  14   2.0000      -0.425887       -11.5890
  15   2.0000      -0.417849       -11.3703
  16   2.0000      -0.410226       -11.1628
  17   2.0000      -0.373093       -10.1524
  18   2.0000      -0.371764       -10.1162
  19   0.0000       0.064067         1.7433
  20   0.0000       0.070145         1.9087
  21   0.0000       0.122937         3.3453
  22   0.0000       0.157939         4.2977
  23   0.0000       0.171186         4.6582

MULLIKEN ATOMIC CHARGES
-----------------------
   0 C :   -0.642416
   1 H :    0.216072
   2 H :    0.216079
   3 H :    0.235411
   4 C :   -0.418612
   5 H :    0.236784
   6 H :    0.236764
   7 C :   -0.512917
   8 H :    0.268411
   9 H :    0.268431
  10 C :    0.096096
  11 N :   -0.200104
Sum of atomic charges:   -0.0000000

LOEWDIN ATOMIC CHARGES
----------------------
   0 C :   -0.362374
   1 H :    0.127654
   2 H :    0.127661
   3 H :    0.136335
   4 C :   -0.234140
   5 H :    0.135251
   6 H :    0.135236
   7 C :   -0.265612
   8 H :    0.159863
   9 H :    0.159861
  10 C :   -0.020622
  11 N :   -0.099113

  Mayer bond orders larger than 0.100000
B(  0-C ,  1-H ) :   0.9259 B(  0-C ,  2-H ) :   0.9260 B(  0-C ,  3-H ) :   0.9265
B(  0-C ,  4-C ) :   0.9887 B(  4-C ,  5-H ) :   0.9126 B(  4-C ,  6-H ) :   0.9126
B(  4-C ,  7-C ) :   0.9537 B(  7-C ,  8-H ) :   0.8919 B(  7-C ,  9-H ) :   0.8919
B(  7-C , 10-C ) :   0.9642 B( 10-C , 11-N ) :   3.1798

Dispersion correction           -0.004660290
FINAL SINGLE POINT ENERGY      -210.908803733036

DIPOLE MOMENT
-------------
                                X             Y             Z
Electronic contribution:      5.08968       3.18352       5.51085
Nuclear contribution   :     -5.78394      -3.92470      -6.79277
                        -----------------------------------------
Total Dipole Moment    :     -0.69426      -0.74118      -1.28192
                        -----------------------------------------
Magnitude (a.u.)       :      1.63544
Magnitude (Debye)      :      4.15696

Rotational constants in cm-1:     0.792745     0.074842     0.071115
Rotational constants in MHz : 23765.888845  2243.720336  2131.988957

                             ****ORCA TERMINATED NORMALLY****
TOTAL RUN TIME: 0 days 0 hours 1 minutes 19 seconds 367 msec
