                         Program Version 5.0.3 -  RELEASE  -
|  1> ! PBEh-3c def2/J TightSCF DefGrid3
|  2>
|  3> %maxcore 60000
|  4>
|  5> %pal
|  6> nprocs 4
|  7> end
|  8>
|  9> *xyzfile 0 1 phosphapyrrol.xyz
| 10>
| 11>                          ****END OF INPUT****

CARTESIAN COORDINATES (ANGSTROEM)
---------------------------------
  P      0.000000    0.000000   -1.395007
  C     -1.295797    0.000000   -0.280773
  C     -0.706900    0.000000    0.975526
  C      0.706900    0.000000    0.975526
  C      1.295797    0.000000   -0.280773
  H      0.000000    0.000000   -2.776641
  H     -2.352906    0.000000   -0.495595
  H     -1.291784    0.000000    1.886666
  H      1.291784    0.000000    1.886666
  H      2.352906    0.000000   -0.495595

 Total Charge           Charge          ....    0
 Multiplicity           Mult            ....    1
 Number of Electrons    NEL             ....   44
 Basis Dimension        Dim             ....   88

ORBITAL ENERGIES
----------------

  NO   OCC          E(Eh)            E(eV)
   0   2.0000     -77.756038     -2115.8494
   1   2.0000     -10.451616      -284.4029
   2   2.0000     -10.451589      -284.4022
   3   2.0000     -10.435784      -283.9721
   4   2.0000     -10.435296      -283.9589
   5   2.0000      -6.834843      -185.9855
   6   2.0000      -4.926295      -134.0513
   7   2.0000      -4.925413      -134.0273
   8   2.0000      -4.925008      -134.0163
   9   2.0000      -0.939763       -25.5722
  10   2.0000      -0.795619       -21.6499
  11   2.0000      -0.758737       -20.6463
  12   2.0000      -0.624599       -16.9962
  13   2.0000      -0.595134       -16.1944
  14   2.0000      -0.578711       -15.7475
  15   2.0000      -0.465987       -12.6802
  16   2.0000      -0.462437       -12.5836
  17   2.0000      -0.428469       -11.6592
  18   2.0000      -0.409516       -11.1435
  19   2.0000      -0.406709       -11.0671
  20   2.0000      -0.266049        -7.2396
  21   2.0000      -0.246462        -6.7066
  22   0.0000       0.027378         0.7450
  23   0.0000       0.055079         1.4988
  24   0.0000       0.087941         2.3930
  25   0.0000       0.101888         2.7725
  26   0.0000       0.140197         3.8150

MULLIKEN ATOMIC CHARGES
-----------------------
   0 P :    0.282225
   1 C :   -0.482416
   2 C :   -0.201790
   3 C :   -0.201790
   4 C :   -0.482416
   5 H :    0.154073
   6 H :    0.244331
   7 H :    0.221725
   8 H :    0.221725
   9 H :    0.244332
Sum of atomic charges:   -0.0000000

LOEWDIN ATOMIC CHARGES
----------------------
   0 P :    0.414874
   1 C :   -0.345021
   2 C :   -0.187610
   3 C :   -0.187610
   4 C :   -0.345021
   5 H :    0.080910
   6 H :    0.147751
   7 H :    0.136989
   8 H :    0.136989
   9 H :    0.147751

  Mayer bond orders larger than 0.100000
B(  0-P ,  1-C ) :   1.2901 B(  0-P ,  4-C ) :   1.2901 B(  0-P ,  5-H ) :   0.9084
B(  1-C ,  2-C ) :   1.4859 B(  1-C ,  6-H ) :   0.9067 B(  2-C ,  3-C ) :   1.3572
B(  2-C ,  7-H ) :   0.9177 B(  3-C ,  4-C ) :   1.4859 B(  3-C ,  8-H ) :   0.9177
B(  4-C ,  9-H ) :   0.9067

Dispersion correction           -0.004697451
FINAL SINGLE POINT ENERGY      -495.963415306510

DIPOLE MOMENT
-------------
                                X             Y             Z
Electronic contribution:      0.00000       0.00000      -3.07820
Nuclear contribution   :      0.00000       0.00000       2.44939
                        -----------------------------------------
Total Dipole Moment    :      0.00000       0.00000      -0.62881
                        -----------------------------------------
Magnitude (a.u.)       :      0.62881
Magnitude (Debye)      :      1.59831

Rotational constants in cm-1:     0.252118     0.183016     0.106040
Rotational constants in MHz :  7558.311587  5486.668361  3178.996764

                             ****ORCA TERMINATED NORMALLY****
TOTAL RUN TIME: 0 days 0 hours 1 minutes 22 seconds 14 msec
