                         Program Version 5.0.3 -  RELEASE  -
|  1> ! PBEh-3c def2/J TightSCF DefGrid3
|  2>
|  3> %maxcore 60000
|  4>
|  5> %pal
|  6> nprocs 4
|  7> end
|  8>
|  9> *xyzfile 0 1 B45.xyz
| 10>
| 11>                          ****END OF INPUT****

CARTESIAN COORDINATES (ANGSTROEM)
---------------------------------
  C      1.713943   -0.017512    0.565137
  H      1.245820   -0.492357    1.426057
  O      1.935105   -1.072188   -0.368234
  C      0.825400    1.093351    0.012838
  H      0.646737    1.815044    0.815611
  H      1.372916    1.630696   -0.766930
  C     -0.506417    0.605744   -0.560705
  H     -0.330462   -0.036711   -1.423153
  H     -1.087306    1.462131   -0.907116
  H      2.374043   -0.692197   -1.134525
  H      2.664243    0.405113    0.905331
  C     -1.349956   -0.157481    0.444208
  H     -0.872795   -1.109172    0.691308
  H     -1.449931    0.425755    1.367381
  O     -2.626902   -0.377547   -0.153230
  H     -3.126711   -0.955030    0.428881

 Total Charge           Charge          ....    0
 Multiplicity           Mult            ....    1
 Number of Electrons    NEL             ....   50
 Basis Dimension        Dim             ....  110

ORBITAL ENERGIES
----------------

  NO   OCC          E(Eh)            E(eV)
   0   2.0000     -19.486605      -530.2575
   1   2.0000     -19.479185      -530.0556
   2   2.0000     -10.481886      -285.2266
   3   2.0000     -10.475507      -285.0530
   4   2.0000     -10.437485      -284.0184
   5   2.0000     -10.426372      -283.7160
   6   2.0000      -1.122601       -30.5475
   7   2.0000      -1.115363       -30.3506
   8   2.0000      -0.881907       -23.9979
   9   2.0000      -0.792186       -21.5565
  10   2.0000      -0.716067       -19.4852
  11   2.0000      -0.646125       -17.5820
  12   2.0000      -0.578524       -15.7424
  13   2.0000      -0.546802       -14.8792
  14   2.0000      -0.539636       -14.6842
  15   2.0000      -0.515678       -14.0323
  16   2.0000      -0.490974       -13.3601
  17   2.0000      -0.457068       -12.4375
  18   2.0000      -0.423666       -11.5285
  19   2.0000      -0.412382       -11.2215
  20   2.0000      -0.401610       -10.9284
  21   2.0000      -0.378521       -10.3001
  22   2.0000      -0.362128        -9.8540
  23   2.0000      -0.325440        -8.8557
  24   2.0000      -0.320226        -8.7138
  25   0.0000       0.116553         3.1716
  26   0.0000       0.131140         3.5685
  27   0.0000       0.171359         4.6629
  28   0.0000       0.180474         4.9109
  29   0.0000       0.191673         5.2157

MULLIKEN ATOMIC CHARGES
-----------------------
   0 C :   -0.163971
   1 H :    0.207657
   2 O :   -0.621397
   3 C :   -0.485762
   4 H :    0.212639
   5 H :    0.213370
   6 C :   -0.429255
   7 H :    0.228590
   8 H :    0.230571
   9 H :    0.409996
  10 H :    0.196262
  11 C :   -0.143415
  12 H :    0.193225
  13 H :    0.168237
  14 O :   -0.630774
  15 H :    0.414028
Sum of atomic charges:    0.0000000

LOEWDIN ATOMIC CHARGES
----------------------
   0 C :   -0.098967
   1 H :    0.116184
   2 O :   -0.412316
   3 C :   -0.269325
   4 H :    0.127408
   5 H :    0.121923
   6 C :   -0.253523
   7 H :    0.132979
   8 H :    0.132773
   9 H :    0.306499
  10 H :    0.101737
  11 C :   -0.092100
  12 H :    0.103936
  13 H :    0.092112
  14 O :   -0.416710
  15 H :    0.307391

  Mayer bond orders larger than 0.100000
B(  0-C ,  1-H ) :   0.9147 B(  0-C ,  2-O ) :   1.0144 B(  0-C ,  3-C ) :   0.9664
B(  0-C , 10-H ) :   0.9129 B(  2-O ,  9-H ) :   0.7951 B(  3-C ,  4-H ) :   0.9100
B(  3-C ,  5-H ) :   0.9239 B(  3-C ,  6-C ) :   0.9659 B(  6-C ,  7-H ) :   0.9089
B(  6-C ,  8-H ) :   0.9144 B(  6-C , 11-C ) :   0.9868 B( 11-C , 12-H ) :   0.9020
B( 11-C , 13-H ) :   0.9058 B( 11-C , 14-O ) :   1.0170 B( 14-O , 15-H ) :   0.7949

Dispersion correction           -0.006679253
FINAL SINGLE POINT ENERGY      -308.205960840427

DIPOLE MOMENT
-------------
                                X             Y             Z
Electronic contribution:     -1.14028      -2.17698      -1.06178
Nuclear contribution   :      1.48547       2.53240       1.45314
                        -----------------------------------------
Total Dipole Moment    :      0.34519       0.35542       0.39137
                        -----------------------------------------
Magnitude (a.u.)       :      0.63139
Magnitude (Debye)      :      1.60486

Rotational constants in cm-1:     0.226723     0.057557     0.052579
Rotational constants in MHz :  6796.975489  1725.530048  1576.273100

                             ****ORCA TERMINATED NORMALLY****
TOTAL RUN TIME: 0 days 0 hours 1 minutes 34 seconds 403 msec
