                         Program Version 5.0.3 -  RELEASE  -
|  1> ! PBEh-3c def2/J TightSCF DefGrid3
|  2>
|  3> %maxcore 60000
|  4>
|  5> %pal
|  6> nprocs 4
|  7> end
|  8>
|  9> *xyzfile 0 1 C7.xyz
| 10>
| 11>                          ****END OF INPUT****

CARTESIAN COORDINATES (ANGSTROEM)
---------------------------------
  C      2.344716   -0.036671    0.868684
  C      1.279961   -0.993345    0.334769
  C      0.201017   -0.305583   -0.513170
  C     -0.848381    0.507309    0.284201
  C     -2.070280   -0.422822    0.319254
  O     -1.899266   -1.271444    1.456440
  C     -1.934435   -1.164738   -1.008458
  O      3.043211    0.632639   -0.175524
  O     -1.239357    1.695602   -0.387992
  O      1.984401   -1.946307   -0.467792
  O     -0.529962   -1.350815   -1.201369
  C     -0.309624    2.765911   -0.261066
  H      1.892775    0.740372    1.492093
  H      3.039728   -0.612031    1.496474
  H      0.794990   -1.499589    1.182288
  H      0.677613    0.329415   -1.267438
  H     -0.519671    0.735020    1.307357
  H     -2.997212    0.157930    0.389913
  H     -2.585728   -1.950950    1.454257
  H     -2.413248   -2.149805   -1.013358
  H     -2.355318   -0.556591   -1.821866
  H      3.362824   -0.054606   -0.779258
  H      1.320599   -2.422764   -0.989527
  H     -0.193074    3.058904    0.792876
  H      0.676582    2.508953   -0.669194
  H     -0.722857    3.606006   -0.822598

 Total Charge           Charge          ....    0
 Multiplicity           Mult            ....    1
 Number of Electrons    NEL             ....   96
 Basis Dimension        Dim             ....  208

ORBITAL ENERGIES
----------------

  NO   OCC          E(Eh)            E(eV)
   0   2.0000     -19.504774      -530.7519
   1   2.0000     -19.504286      -530.7386
   2   2.0000     -19.504230      -530.7371
   3   2.0000     -19.485525      -530.2281
   4   2.0000     -19.482436      -530.1440
   5   2.0000     -10.503636      -285.8185
   6   2.0000     -10.502581      -285.7897
   7   2.0000     -10.493483      -285.5422
   8   2.0000     -10.491231      -285.4809
   9   2.0000     -10.487108      -285.3687
  10   2.0000     -10.481720      -285.2221
  11   2.0000     -10.481113      -285.2056
  12   2.0000      -1.166199       -31.7339
  13   2.0000      -1.140684       -31.0396
  14   2.0000      -1.135010       -30.8852
  15   2.0000      -1.123838       -30.5812
  16   2.0000      -1.103751       -30.0346
  17   2.0000      -0.874718       -23.8023
  18   2.0000      -0.854765       -23.2593
  19   2.0000      -0.800475       -21.7820
  20   2.0000      -0.759095       -20.6560
  21   2.0000      -0.702171       -19.1071
  22   2.0000      -0.676259       -18.4019
  23   2.0000      -0.655724       -17.8432
  24   2.0000      -0.604550       -16.4506
  25   2.0000      -0.590752       -16.0752
  26   2.0000      -0.579181       -15.7603
  27   2.0000      -0.547467       -14.8973
  28   2.0000      -0.537182       -14.6175
  29   2.0000      -0.533496       -14.5172
  30   2.0000      -0.523763       -14.2523
  31   2.0000      -0.513504       -13.9731
  32   2.0000      -0.500234       -13.6121
  33   2.0000      -0.479029       -13.0350
  34   2.0000      -0.470748       -12.8097
  35   2.0000      -0.455244       -12.3878
  36   2.0000      -0.443244       -12.0613
  37   2.0000      -0.436346       -11.8736
  38   2.0000      -0.410755       -11.1772
  39   2.0000      -0.406755       -11.0684
  40   2.0000      -0.401089       -10.9142
  41   2.0000      -0.384712       -10.4686
  42   2.0000      -0.369038       -10.0420
  43   2.0000      -0.349312        -9.5053
  44   2.0000      -0.341549        -9.2940
  45   2.0000      -0.323542        -8.8040
  46   2.0000      -0.312942        -8.5156
  47   2.0000      -0.302755        -8.2384
  48   0.0000       0.104199         2.8354
  49   0.0000       0.122554         3.3349
  50   0.0000       0.131190         3.5699
  51   0.0000       0.141203         3.8423
  52   0.0000       0.156391         4.2556

MULLIKEN ATOMIC CHARGES
-----------------------
   0 C :   -0.166403
   1 C :   -0.012437
   2 C :    0.023771
   3 C :   -0.008200
   4 C :   -0.014450
   5 O :   -0.635580
   6 C :   -0.156184
   7 O :   -0.633934
   8 O :   -0.483813
   9 O :   -0.662701
  10 O :   -0.512789
  11 C :   -0.387913
  12 H :    0.200964
  13 H :    0.210966
  14 H :    0.213550
  15 H :    0.236598
  16 H :    0.227516
  17 H :    0.228026
  18 H :    0.419597
  19 H :    0.207093
  20 H :    0.211408
  21 H :    0.425450
  22 H :    0.435939
  23 H :    0.191032
  24 H :    0.216782
  25 H :    0.225712
Sum of atomic charges:    0.0000000

LOEWDIN ATOMIC CHARGES
----------------------
   0 C :   -0.096958
   1 C :   -0.051810
   2 C :   -0.024718
   3 C :   -0.018412
   4 C :   -0.033891
   5 O :   -0.398326
   6 C :   -0.087942
   7 O :   -0.414956
   8 O :   -0.256476
   9 O :   -0.412125
  10 O :   -0.271090
  11 C :   -0.186805
  12 H :    0.116979
  13 H :    0.113914
  14 H :    0.118602
  15 H :    0.131483
  16 H :    0.122111
  17 H :    0.121003
  18 H :    0.313066
  19 H :    0.119010
  20 H :    0.118626
  21 H :    0.314713
  22 H :    0.317629
  23 H :    0.104724
  24 H :    0.114721
  25 H :    0.126925

  Mayer bond orders larger than 0.100000
B(  0-C ,  1-C ) :   0.9368 B(  0-C ,  7-O ) :   1.0207 B(  0-C , 12-H ) :   0.9142
B(  0-C , 13-H ) :   0.9021 B(  1-C ,  2-C ) :   0.9392 B(  1-C ,  9-O ) :   0.9843
B(  1-C , 14-H ) :   0.8799 B(  2-C ,  3-C ) :   0.9153 B(  2-C , 10-O ) :   0.9212
B(  2-C , 15-H ) :   0.8858 B(  3-C ,  4-C ) :   0.9512 B(  3-C ,  8-O ) :   0.9335
B(  3-C , 16-H ) :   0.8920 B(  4-C ,  5-O ) :   0.9936 B(  4-C ,  6-C ) :   0.9371
B(  4-C , 17-H ) :   0.8959 B(  5-O , 18-H ) :   0.7873 B(  6-C , 10-O ) :   0.9669
B(  6-C , 19-H ) :   0.9196 B(  6-C , 20-H ) :   0.8918 B(  7-O , 21-H ) :   0.7713
B(  8-O , 11-C ) :   0.9602 B(  9-O , 22-H ) :   0.7576 B( 11-C , 23-H ) :   0.9144
B( 11-C , 24-H ) :   0.8978 B( 11-C , 25-H ) :   0.9287

Dispersion correction           -0.014636991
FINAL SINGLE POINT ENERGY      -649.848919418274

DIPOLE MOMENT
-------------
                                X             Y             Z
Electronic contribution:     -0.69453      -4.17443      -1.37943
Nuclear contribution   :     -0.42024       3.94431       1.53689
                        -----------------------------------------
Total Dipole Moment    :     -1.11477      -0.23011       0.15746
                        -----------------------------------------
Magnitude (a.u.)       :      1.14911
Magnitude (Debye)      :      2.92082

Rotational constants in cm-1:     0.037654     0.025667     0.019093
Rotational constants in MHz :  1128.852509   769.464792   572.379460

                             ****ORCA TERMINATED NORMALLY****
TOTAL RUN TIME: 0 days 0 hours 2 minutes 29 seconds 765 msec
