                         Program Version 5.0.3 -  RELEASE  -
|  1> ! PBEh-3c def2/J TightSCF DefGrid3
|  2>
|  3> %maxcore 60000
|  4>
|  5> %pal
|  6> nprocs 4
|  7> end
|  8>
|  9> *xyzfile 0 1 r4.xyz
| 10>
| 11>                          ****END OF INPUT****

CARTESIAN COORDINATES (ANGSTROEM)
---------------------------------
  C     -0.574261    0.846846    0.000000
  C      0.092344    0.277677    1.250276
  C      0.079765   -1.248031    1.255932
  C      0.745034   -1.802698    0.000000
  C      0.079765   -1.248031   -1.255932
  C      0.092344    0.277677   -1.250276
  C     -0.537746    2.368211    0.000000
  H     -1.620824    0.520505    0.000000
  H      1.129044    0.630880    1.281674
  H     -0.400962    0.667617    2.143469
  H     -0.956087   -1.597543    1.296446
  H      0.576946   -1.627940    2.149747
  H      1.801722   -1.519145    0.000000
  H      0.709095   -2.893101    0.000000
  H     -0.956087   -1.597543   -1.296446
  H      0.576946   -1.627940   -2.149747
  H     -0.400962    0.667617   -2.143469
  H      1.129044    0.630880   -1.281674
  H      0.495152    2.720777    0.000000
  H     -1.030137    2.776641   -0.882724
  H     -1.030137    2.776641    0.882724

 Total Charge           Charge          ....    0
 Multiplicity           Mult            ....    1
 Number of Electrons    NEL             ....   56
 Basis Dimension        Dim             ....  133

ORBITAL ENERGIES
----------------

  NO   OCC          E(Eh)            E(eV)
   0   2.0000     -10.432547      -283.8840
   1   2.0000     -10.424750      -283.6719
   2   2.0000     -10.424694      -283.6703
   3   2.0000     -10.424417      -283.6628
   4   2.0000     -10.423454      -283.6366
   5   2.0000     -10.423390      -283.6349
   6   2.0000     -10.417144      -283.4649
   7   2.0000      -0.928254       -25.2591
   8   2.0000      -0.849655       -23.1203
   9   2.0000      -0.822921       -22.3928
  10   2.0000      -0.750935       -20.4340
  11   2.0000      -0.679002       -18.4766
  12   2.0000      -0.652284       -17.7495
  13   2.0000      -0.617375       -16.7996
  14   2.0000      -0.532456       -14.4889
  15   2.0000      -0.503848       -13.7104
  16   2.0000      -0.494141       -13.4463
  17   2.0000      -0.489863       -13.3299
  18   2.0000      -0.464708       -12.6454
  19   2.0000      -0.433654       -11.8003
  20   2.0000      -0.426082       -11.5943
  21   2.0000      -0.415020       -11.2933
  22   2.0000      -0.395933       -10.7739
  23   2.0000      -0.385356       -10.4861
  24   2.0000      -0.375330       -10.2132
  25   2.0000      -0.358175        -9.7464
  26   2.0000      -0.339495        -9.2381
  27   2.0000      -0.335902        -9.1404
  28   0.0000       0.136435         3.7126
  29   0.0000       0.157423         4.2837
  30   0.0000       0.163054         4.4369
  31   0.0000       0.177932         4.8418
  32   0.0000       0.194451         5.2913

MULLIKEN ATOMIC CHARGES
-----------------------
   0 C :   -0.229493
   1 C :   -0.397810
   2 C :   -0.419872
   3 C :   -0.418943
   4 C :   -0.419872
   5 C :   -0.397810
   6 C :   -0.626982
   7 H :    0.200029
   8 H :    0.195560
   9 H :    0.214335
  10 H :    0.201082
  11 H :    0.218119
  12 H :    0.200961
  13 H :    0.218133
  14 H :    0.201082
  15 H :    0.218119
  16 H :    0.214335
  17 H :    0.195560
  18 H :    0.204063
  19 H :    0.214703
  20 H :    0.214703
Sum of atomic charges:    0.0000000

LOEWDIN ATOMIC CHARGES
----------------------
   0 C :   -0.159506
   1 C :   -0.232682
   2 C :   -0.239182
   3 C :   -0.240047
   4 C :   -0.239182
   5 C :   -0.232682
   6 C :   -0.351055
   7 H :    0.116540
   8 H :    0.117607
   9 H :    0.122477
  10 H :    0.118369
  11 H :    0.123345
  12 H :    0.118125
  13 H :    0.122971
  14 H :    0.118369
  15 H :    0.123345
  16 H :    0.122477
  17 H :    0.117607
  18 H :    0.123173
  19 H :    0.124965
  20 H :    0.124965

  Mayer bond orders larger than 0.100000
B(  0-C ,  1-C ) :   0.9770 B(  0-C ,  5-C ) :   0.9770 B(  0-C ,  6-C ) :   1.0006
B(  0-C ,  7-H ) :   0.9062 B(  1-C ,  2-C ) :   0.9898 B(  1-C ,  8-H ) :   0.9155
B(  1-C ,  9-H ) :   0.9256 B(  2-C ,  3-C ) :   0.9869 B(  2-C , 10-H ) :   0.9178
B(  2-C , 11-H ) :   0.9269 B(  3-C ,  4-C ) :   0.9869 B(  3-C , 12-H ) :   0.9179
B(  3-C , 13-H ) :   0.9267 B(  4-C ,  5-C ) :   0.9898 B(  4-C , 14-H ) :   0.9178
B(  4-C , 15-H ) :   0.9269 B(  5-C , 16-H ) :   0.9256 B(  5-C , 17-H ) :   0.9155
B(  6-C , 18-H ) :   0.9272 B(  6-C , 19-H ) :   0.9312 B(  6-C , 20-H ) :   0.9312

Dispersion correction           -0.011049482
FINAL SINGLE POINT ENERGY      -274.595132798835

DIPOLE MOMENT
-------------
                                X             Y             Z
Electronic contribution:     -0.07069      -1.30072       0.00000
Nuclear contribution   :      0.05484       1.27333       0.00000
                        -----------------------------------------
Total Dipole Moment    :     -0.01585      -0.02739       0.00000
                        -----------------------------------------
Magnitude (a.u.)       :      0.03164
Magnitude (Debye)      :      0.08043

Rotational constants in cm-1:     0.141774     0.073665     0.053598
Rotational constants in MHz :  4250.266361  2208.415191  1606.815473

                             ****ORCA TERMINATED NORMALLY****
TOTAL RUN TIME: 0 days 0 hours 1 minutes 38 seconds 370 msec
