                         Program Version 5.0.3 -  RELEASE  -
|  1> ! PBEh-3c def2/J TightSCF DefGrid3
|  2>
|  3> %maxcore 60000
|  4>
|  5> %pal
|  6> nprocs 4
|  7> end
|  8>
|  9> *xyzfile 0 1 ts7.xyz
| 10>
| 11>                          ****END OF INPUT****

CARTESIAN COORDINATES (ANGSTROEM)
---------------------------------
  C      0.000000    0.791704    0.000000
  H     -0.553245    1.729573    0.000000
  H      0.995636   -0.561664    0.000000
  O      1.261969    0.776427    0.000000
  S     -0.658634   -0.758097    0.000000

 Total Charge           Charge          ....    0
 Multiplicity           Mult            ....    1
 Number of Electrons    NEL             ....   32
 Basis Dimension        Dim             ....   52

ORBITAL ENERGIES
----------------

  NO   OCC          E(Eh)            E(eV)
   0   2.0000     -89.594009     -2437.9769
   1   2.0000     -19.546915      -531.8986
   2   2.0000     -10.588399      -288.1250
   3   2.0000      -8.236261      -224.1201
   4   2.0000      -6.126350      -166.7064
   5   2.0000      -6.121979      -166.5875
   6   2.0000      -6.120963      -166.5599
   7   2.0000      -1.206964       -32.8432
   8   2.0000      -0.866941       -23.5907
   9   2.0000      -0.704858       -19.1802
  10   2.0000      -0.570752       -15.5309
  11   2.0000      -0.519180       -14.1276
  12   2.0000      -0.495746       -13.4899
  13   2.0000      -0.424113       -11.5407
  14   2.0000      -0.326419        -8.8823
  15   2.0000      -0.319395        -8.6912
  16   0.0000      -0.032039        -0.8718
  17   0.0000       0.020728         0.5640
  18   0.0000       0.139239         3.7889
  19   0.0000       0.226544         6.1646
  20   0.0000       0.234987         6.3943

MULLIKEN ATOMIC CHARGES
-----------------------
   0 C :    0.035413
   1 H :    0.260817
   2 H :    0.336094
   3 O :   -0.425181
   4 S :   -0.207143
Sum of atomic charges:   -0.0000000

LOEWDIN ATOMIC CHARGES
----------------------
   0 C :   -0.091067
   1 H :    0.135393
   2 H :    0.296023
   3 O :   -0.287169
   4 S :   -0.053181

  Mayer bond orders larger than 0.100000
B(  0-C ,  1-H ) :   0.8652 B(  0-C ,  3-O ) :   1.6135 B(  0-C ,  4-S ) :   1.3781
B(  2-H ,  3-O ) :   0.3364 B(  2-H ,  4-S ) :   0.5224 B(  3-O ,  4-S ) :   0.2072

Dispersion correction           -0.001485527
FINAL SINGLE POINT ENERGY      -511.955290445272

DIPOLE MOMENT
-------------
                                X             Y             Z
Electronic contribution:     -0.74441      -0.84360      -0.00000
Nuclear contribution   :      0.46716       1.16501       0.00000
                        -----------------------------------------
Total Dipole Moment    :     -0.27726       0.32141      -0.00000
                        -----------------------------------------
Magnitude (a.u.)       :      0.42447
Magnitude (Debye)      :      1.07891

Rotational constants in cm-1:     1.748690     0.240962     0.211780
Rotational constants in MHz : 52424.410315  7223.862642  6348.997555

                             ****ORCA TERMINATED NORMALLY****
TOTAL RUN TIME: 0 days 0 hours 1 minutes 11 seconds 256 msec
