                         Program Version 5.0.3 -  RELEASE  -
|  1> ! PBEh-3c def2/J TightSCF DefGrid3
|  2>
|  3> %maxcore 60000
|  4>
|  5> %pal
|  6> nprocs 4
|  7> end
|  8>
|  9> *xyzfile 0 1 N4H6_3.xyz
| 10>
| 11>                          ****END OF INPUT****

CARTESIAN COORDINATES (ANGSTROEM)
---------------------------------
  N     -0.012346   -0.598962    0.855291
  N      1.400578   -0.672792    0.691675
  H      1.791100    0.278967    0.698667
  H      1.544418   -1.033809   -0.250619
  H     -0.157051   -0.360559    1.840259
  N     -0.535926    0.612370    0.149494
  N     -0.567647    0.256084   -1.241064
  H     -1.497416    0.679039    0.507969
  H     -0.562433    1.123342   -1.771497
  H     -1.403277   -0.283680   -1.480175

 Total Charge           Charge          ....    0
 Multiplicity           Mult            ....    1
 Number of Electrons    NEL             ....   34
 Basis Dimension        Dim             ....   72

ORBITAL ENERGIES
----------------

  NO   OCC          E(Eh)            E(eV)
   0   2.0000     -14.673608      -399.2892
   1   2.0000     -14.665325      -399.0638
   2   2.0000     -14.641819      -398.4242
   3   2.0000     -14.624619      -397.9561
   4   2.0000      -1.102484       -30.0001
   5   2.0000      -1.005071       -27.3494
   6   2.0000      -0.867903       -23.6168
   7   2.0000      -0.751470       -20.4485
   8   2.0000      -0.588460       -16.0128
   9   2.0000      -0.567419       -15.4403
  10   2.0000      -0.539159       -14.6712
  11   2.0000      -0.508352       -13.8330
  12   2.0000      -0.476057       -12.9542
  13   2.0000      -0.376658       -10.2494
  14   2.0000      -0.315705        -8.5908
  15   2.0000      -0.295999        -8.0546
  16   2.0000      -0.260732        -7.0949
  17   0.0000       0.122499         3.3334
  18   0.0000       0.159612         4.3433
  19   0.0000       0.163081         4.4377
  20   0.0000       0.187154         5.0927
  21   0.0000       0.203115         5.5270

MULLIKEN ATOMIC CHARGES
-----------------------
   0 N :   -0.332637
   1 N :   -0.611178
   2 H :    0.305575
   3 H :    0.342972
   4 H :    0.325930
   5 N :   -0.368643
   6 N :   -0.621691
   7 H :    0.310047
   8 H :    0.333833
   9 H :    0.315792
Sum of atomic charges:   -0.0000000

LOEWDIN ATOMIC CHARGES
----------------------
   0 N :   -0.223270
   1 N :   -0.397058
   2 H :    0.201202
   3 H :    0.226276
   4 H :    0.214684
   5 N :   -0.244725
   6 N :   -0.408288
   7 H :    0.200924
   8 H :    0.221882
   9 H :    0.208373

  Mayer bond orders larger than 0.100000
B(  0-N ,  1-N ) :   1.0551 B(  0-N ,  4-H ) :   0.8433 B(  0-N ,  5-N ) :   0.9319
B(  1-N ,  2-H ) :   0.8488 B(  1-N ,  3-H ) :   0.8460 B(  5-N ,  6-N ) :   1.0161
B(  5-N ,  7-H ) :   0.8462 B(  6-N ,  8-H ) :   0.8522 B(  6-N ,  9-H ) :   0.8532

Dispersion correction           -0.003318417
FINAL SINGLE POINT ENERGY      -222.016293683552

DIPOLE MOMENT
-------------
                                X             Y             Z
Electronic contribution:     -0.20298      -0.14812       0.62728
Nuclear contribution   :     -0.60235       0.85340      -0.96363
                        -----------------------------------------
Total Dipole Moment    :     -0.80533       0.70528      -0.33635
                        -----------------------------------------
Magnitude (a.u.)       :      1.12210
Magnitude (Debye)      :      2.85216

Rotational constants in cm-1:     0.559001     0.184636     0.157957
Rotational constants in MHz : 16758.414348  5535.255575  4735.438821

                             ****ORCA TERMINATED NORMALLY****
TOTAL RUN TIME: 0 days 0 hours 0 minutes 59 seconds 556 msec
