                         Program Version 5.0.3 -  RELEASE  -
|  1> ! PBEh-3c def2/J TightSCF DefGrid3
|  2>
|  3> %maxcore 60000
|  4>
|  5> %pal
|  6> nprocs 4
|  7> end
|  8>
|  9> *xyzfile 0 1 hf.xyz
| 10>
| 11>                          ****END OF INPUT****

CARTESIAN COORDINATES (ANGSTROEM)
---------------------------------
  H      0.000000    0.000000    0.457871
  F      0.000000    0.000000   -0.457871

 Total Charge           Charge          ....    0
 Multiplicity           Mult            ....    1
 Number of Electrons    NEL             ....   10
 Basis Dimension        Dim             ....   17

ORBITAL ENERGIES
----------------

  NO   OCC          E(Eh)            E(eV)
   0   2.0000     -25.064177      -682.0309
   1   2.0000      -1.302221       -35.4352
   2   2.0000      -0.599496       -16.3131
   3   2.0000      -0.463875       -12.6227
   4   2.0000      -0.463875       -12.6227
   5   0.0000       0.130201         3.5429
   6   0.0000       0.840437        22.8695
   7   0.0000       1.159752        31.5585
   8   0.0000       1.159752        31.5585
   9   0.0000       1.255363        34.1602

MULLIKEN ATOMIC CHARGES
-----------------------
   0 H :    0.510024
   1 F :   -0.510024
Sum of atomic charges:   -0.0000000

LOEWDIN ATOMIC CHARGES
----------------------
   0 H :    0.382744
   1 F :   -0.382744

  Mayer bond orders larger than 0.100000
B(  0-H ,  1-F ) :   0.7316

Dispersion correction           -0.000066326
FINAL SINGLE POINT ENERGY      -100.241662047250

DIPOLE MOMENT
-------------
                                X             Y             Z
Electronic contribution:     -0.00000       0.00000      -0.13797
Nuclear contribution   :      0.00000       0.00000       0.85859
                        -----------------------------------------
Total Dipole Moment    :     -0.00000       0.00000       0.72062
                        -----------------------------------------
Magnitude (a.u.)       :      0.72062
Magnitude (Debye)      :      1.83166

Rotational constants in cm-1:     0.000000    21.001158    21.001158
Rotational constants in MHz :     0.000000 629598.877620 629598.877620

                             ****ORCA TERMINATED NORMALLY****
TOTAL RUN TIME: 0 days 0 hours 0 minutes 44 seconds 869 msec
