                         Program Version 5.0.3 -  RELEASE  -
|  1> ! PBEh-3c def2/J TightSCF DefGrid3
|  2>
|  3> %maxcore 60000
|  4>
|  5> %pal
|  6> nprocs 4
|  7> end
|  8>
|  9> *xyzfile 1 1 7p3.xyz
| 10>
| 11>                          ****END OF INPUT****

CARTESIAN COORDINATES (ANGSTROEM)
---------------------------------
  C     -1.129922   -0.962319    0.000000
  H     -2.154842   -0.581424    0.000000
  C     -0.133177   -0.185180    0.000000
  H     -0.980292   -2.046886    0.000000
  C      0.936723    0.712981    0.000000
  H      0.405698    1.694705    0.000000
  H      1.527906    0.684062   -0.920990
  H      1.527906    0.684062    0.920990

 Total Charge           Charge          ....    1
 Multiplicity           Mult            ....    1
 Number of Electrons    NEL             ....   22
 Basis Dimension        Dim             ....   55

ORBITAL ENERGIES
----------------

  NO   OCC          E(Eh)            E(eV)
   0   2.0000     -10.810152      -294.1592
   1   2.0000     -10.716356      -291.6069
   2   2.0000     -10.703165      -291.2479
   3   2.0000      -1.178726       -32.0748
   4   2.0000      -1.081530       -29.4299
   5   2.0000      -0.851034       -23.1578
   6   2.0000      -0.778793       -21.1920
   7   2.0000      -0.773280       -21.0420
   8   2.0000      -0.749785       -20.4027
   9   2.0000      -0.712955       -19.4005
  10   2.0000      -0.593616       -16.1531
  11   0.0000      -0.324284        -8.8242
  12   0.0000      -0.207976        -5.6593
  13   0.0000      -0.063394        -1.7250
  14   0.0000      -0.029191        -0.7943
  15   0.0000      -0.023446        -0.6380

MULLIKEN ATOMIC CHARGES
-----------------------
   0 C :   -0.648146
   1 H :    0.384227
   2 C :    0.593161
   3 H :    0.388681
   4 C :   -0.802622
   5 H :    0.361892
   6 H :    0.361404
   7 H :    0.361404
Sum of atomic charges:    1.0000000

LOEWDIN ATOMIC CHARGES
----------------------
   0 C :   -0.195527
   1 H :    0.256163
   2 C :    0.322600
   3 H :    0.258920
   4 C :   -0.345624
   5 H :    0.261600
   6 H :    0.220934
   7 H :    0.220934

  Mayer bond orders larger than 0.100000
B(  0-C ,  1-H ) :   0.8232 B(  0-C ,  2-C ) :   1.9293 B(  0-C ,  3-H ) :   0.8161
B(  2-C ,  4-C ) :   1.0671 B(  4-C ,  5-H ) :   0.7714 B(  4-C ,  6-H ) :   0.8391
B(  4-C ,  7-H ) :   0.8391

Dispersion correction           -0.002184442
FINAL SINGLE POINT ENERGY      -116.674819689871

DIPOLE MOMENT
-------------
                                X             Y             Z
Electronic contribution:     -0.85081      -0.90154      -0.00000
Nuclear contribution   :      0.71633       0.95369       0.00000
                        -----------------------------------------
Total Dipole Moment    :     -0.13448       0.05215      -0.00000
                        -----------------------------------------
Magnitude (a.u.)       :      0.14423
Magnitude (Debye)      :      0.36661

Rotational constants in cm-1:     3.358073     0.280118     0.272863
Rotational constants in MHz : 100672.500360  8397.721937  8180.236214

                             ****ORCA TERMINATED NORMALLY****
TOTAL RUN TIME: 0 days 0 hours 1 minutes 43 seconds 926 msec
