                         Program Version 5.0.3 -  RELEASE  -
|  1> ! PBEh-3c def2/J TightSCF DefGrid3
|  2>
|  3> %maxcore 60000
|  4>
|  5> %pal
|  6> nprocs 4
|  7> end
|  8>
|  9> *xyzfile 0 2 P1.xyz
| 10>
| 11>                          ****END OF INPUT****

CARTESIAN COORDINATES (ANGSTROEM)
---------------------------------
  C      0.000000    0.000000    0.000000
  H      0.539880   -0.935099    0.000000
  H      0.539880    0.935099    0.000000
  H     -1.079760    0.000000    0.000000

 Total Charge           Charge          ....    0
 Multiplicity           Mult            ....    2
 Number of Electrons    NEL             ....    9
 Basis Dimension        Dim             ....   21

ORBITAL ENERGIES
----------------
                 SPIN UP ORBITALS
  NO   OCC          E(Eh)            E(eV)
   0   1.0000     -10.445994      -284.2499
   1   1.0000      -0.769660       -20.9435
   2   1.0000      -0.476751       -12.9730
   3   1.0000      -0.476750       -12.9730
   4   1.0000      -0.283613        -7.7175
   5   0.0000       0.165363         4.4997
   6   0.0000       0.228934         6.2296
   7   0.0000       0.228935         6.2296
   8   0.0000       0.498346        13.5607
   9   0.0000       0.498358        13.5610

                 SPIN DOWN ORBITALS
  NO   OCC          E(Eh)            E(eV)
   0   1.0000     -10.429887      -283.8116
   1   1.0000      -0.716488       -19.4966
   2   1.0000      -0.464828       -12.6486
   3   1.0000      -0.464828       -12.6486
   4   0.0000      -0.014146        -0.3849
   5   0.0000       0.185856         5.0574
   6   0.0000       0.235452         6.4070
   7   0.0000       0.235452         6.4070
   8   0.0000       0.510614        13.8945

MULLIKEN ATOMIC CHARGES AND SPIN POPULATIONS
--------------------------------------------
   0 C :   -0.661227    1.180634
   1 H :    0.220408   -0.060212
   2 H :    0.220408   -0.060212
   3 H :    0.220411   -0.060211
Sum of atomic charges         :    0.0000000

LOEWDIN ATOMIC CHARGES AND SPIN POPULATIONS
-------------------------------------------
   0 C :   -0.392667    1.091938
   1 H :    0.130889   -0.030646
   2 H :    0.130889   -0.030646
   3 H :    0.130890   -0.030646

  Mayer bond orders larger than 0.100000
B(  0-C ,  1-H ) :   0.9265 B(  0-C ,  2-H ) :   0.9265 B(  0-C ,  3-H ) :   0.9265

Dispersion correction           -0.000481896
FINAL SINGLE POINT ENERGY       -39.748113025294

DIPOLE MOMENT
-------------
                                X             Y             Z
Electronic contribution:     -0.00000      -0.00000      -0.00000
Nuclear contribution   :      0.00000       0.00000       0.00000
                        -----------------------------------------
Total Dipole Moment    :     -0.00000      -0.00000      -0.00000
                        -----------------------------------------
Magnitude (a.u.)       :      0.00000
Magnitude (Debye)      :      0.00001

Rotational constants in cm-1:     9.562931     9.562930     4.781465
Rotational constants in MHz : 286689.445919 286689.419197 143344.716279

                             ****ORCA TERMINATED NORMALLY****
TOTAL RUN TIME: 0 days 0 hours 1 minutes 15 seconds 593 msec
