                         Program Version 5.0.3 -  RELEASE  -
|  1> ! PBEh-3c def2/J TightSCF DefGrid3
|  2>
|  3> %maxcore 60000
|  4>
|  5> %pal
|  6> nprocs 4
|  7> end
|  8>
|  9> *xyzfile 0 1 29_CF3Br-benA.xyz
| 10>
| 11>                          ****END OF INPUT****

CARTESIAN COORDINATES (ANGSTROEM)
---------------------------------
  H      0.002144    0.361044    0.029800
  C      0.015021    0.274790    1.107648
  C      1.227633    0.296655    1.794629
  C      1.243959    0.183703    3.183704
  C      0.047958    0.048915    3.886485
  C     -1.165136    0.026954    3.200213
  C     -1.181832    0.139829    1.810377
  H      2.155808    0.399177    1.249442
  H      2.184979    0.198599    3.716171
  H      0.060935   -0.040673    4.964014
  H     -2.093221   -0.078629    3.745125
  H     -2.122845    0.123257    1.277646

 Total Charge           Charge          ....    0
 Multiplicity           Mult            ....    1
 Number of Electrons    NEL             ....   42
 Basis Dimension        Dim             ....  102

ORBITAL ENERGIES
----------------

  NO   OCC          E(Eh)            E(eV)
   0   2.0000     -10.448789      -284.3260
   1   2.0000     -10.448552      -284.3196
   2   2.0000     -10.448548      -284.3195
   3   2.0000     -10.447959      -284.3034
   4   2.0000     -10.447933      -284.3027
   5   2.0000     -10.447699      -284.2963
   6   2.0000      -0.952005       -25.9054
   7   2.0000      -0.835481       -22.7346
   8   2.0000      -0.835400       -22.7324
   9   2.0000      -0.679011       -18.4768
  10   2.0000      -0.678977       -18.4759
  11   2.0000      -0.591993       -16.1089
  12   2.0000      -0.526033       -14.3141
  13   2.0000      -0.508397       -13.8342
  14   2.0000      -0.481833       -13.1114
  15   2.0000      -0.481750       -13.1091
  16   2.0000      -0.420797       -11.4505
  17   2.0000      -0.398354       -10.8398
  18   2.0000      -0.398332       -10.8392
  19   2.0000      -0.292477        -7.9587
  20   2.0000      -0.292407        -7.9568
  21   0.0000       0.019116         0.5202
  22   0.0000       0.019164         0.5215
  23   0.0000       0.140856         3.8329
  24   0.0000       0.196144         5.3374
  25   0.0000       0.201847         5.4925

MULLIKEN ATOMIC CHARGES
-----------------------
   0 H :    0.219895
   1 C :   -0.219904
   2 C :   -0.219766
   3 C :   -0.219779
   4 C :   -0.219770
   5 C :   -0.219941
   6 C :   -0.220101
   7 H :    0.219871
   8 H :    0.219845
   9 H :    0.219877
  10 H :    0.219892
  11 H :    0.219881
Sum of atomic charges:    0.0000000

LOEWDIN ATOMIC CHARGES
----------------------
   0 H :    0.135683
   1 C :   -0.135692
   2 C :   -0.135694
   3 C :   -0.135673
   4 C :   -0.135701
   5 C :   -0.135680
   6 C :   -0.135644
   7 H :    0.135682
   8 H :    0.135678
   9 H :    0.135683
  10 H :    0.135683
  11 H :    0.135677

  Mayer bond orders larger than 0.100000
B(  0-H ,  1-C ) :   0.9200 B(  1-C ,  2-C ) :   1.4265 B(  1-C ,  6-C ) :   1.4264
B(  2-C ,  3-C ) :   1.4265 B(  2-C ,  7-H ) :   0.9200 B(  3-C ,  4-C ) :   1.4265
B(  3-C ,  8-H ) :   0.9200 B(  4-C ,  5-C ) :   1.4265 B(  4-C ,  9-H ) :   0.9200
B(  5-C ,  6-C ) :   1.4265 B(  5-C , 10-H ) :   0.9200 B(  6-C , 11-H ) :   0.9200

Dispersion correction           -0.005880477
FINAL SINGLE POINT ENERGY      -231.725783275014

DIPOLE MOMENT
-------------
                                X             Y             Z
Electronic contribution:     -0.00004       0.00478       0.00054
Nuclear contribution   :      0.00017      -0.00699      -0.00074
                        -----------------------------------------
Total Dipole Moment    :      0.00013      -0.00220      -0.00020
                        -----------------------------------------
Magnitude (a.u.)       :      0.00222
Magnitude (Debye)      :      0.00563

Rotational constants in cm-1:     0.190389     0.190339     0.095182
Rotational constants in MHz :  5707.731906  5706.215084  2853.487156

                             ****ORCA TERMINATED NORMALLY****
TOTAL RUN TIME: 0 days 0 hours 1 minutes 25 seconds 44 msec
