                         Program Version 5.0.3 -  RELEASE  -
|  1> ! PBEh-3c def2/J TightSCF DefGrid3
|  2>
|  3> %maxcore 60000
|  4>
|  5> %pal
|  6> nprocs 4
|  7> end
|  8>
|  9> *xyzfile 0 1 G2.xyz
| 10>
| 11>                          ****END OF INPUT****

CARTESIAN COORDINATES (ANGSTROEM)
---------------------------------
  C     -1.250396   -1.208617   -0.279193
  O      0.042063   -1.506158    0.236541
  C      1.052652   -0.592192   -0.212191
  C      0.695831    0.815479    0.294542
  C     -1.715973    0.167082    0.204409
  C     -0.689639    1.220875   -0.197452
  H      1.093443   -0.585876   -1.313296
  O     -0.978219    2.498408    0.365503
  O     -2.958034    0.548704   -0.379345
  O     -2.159471   -2.150041    0.211303
  O      1.694478    1.729105   -0.162410
  H     -3.632042   -0.096295   -0.109840
  C      2.399561   -1.096712    0.317200
  H     -1.896323   -3.033924   -0.092423
  H      1.399302    2.627340    0.064440
  H     -1.874125    2.754290    0.090765
  H      2.489564   -2.162661    0.089809
  H     -0.670926    1.296930   -1.296144
  H     -1.797810    0.129377    1.300099
  H     -1.212447   -1.233656   -1.382699
  H      0.686186    0.798529    1.395120
  O      3.496097   -0.451134   -0.310272
  H      3.353402    0.510037   -0.246316
  H      2.432828   -0.978888    1.411849

 Total Charge           Charge          ....    0
 Multiplicity           Mult            ....    1
 Number of Electrons    NEL             ....   96
 Basis Dimension        Dim             ....  204

ORBITAL ENERGIES
----------------

  NO   OCC          E(Eh)            E(eV)
   0   2.0000     -19.518563      -531.1271
   1   2.0000     -19.516334      -531.0665
   2   2.0000     -19.510590      -530.9101
   3   2.0000     -19.508992      -530.8667
   4   2.0000     -19.505860      -530.7814
   5   2.0000     -19.473569      -529.9028
   6   2.0000     -10.554992      -287.2159
   7   2.0000     -10.505001      -285.8556
   8   2.0000     -10.504483      -285.8415
   9   2.0000     -10.503386      -285.8117
  10   2.0000     -10.503151      -285.8053
  11   2.0000     -10.481289      -285.2104
  12   2.0000      -1.195053       -32.5190
  13   2.0000      -1.156693       -31.4752
  14   2.0000      -1.145186       -31.1621
  15   2.0000      -1.125945       -30.6385
  16   2.0000      -1.124998       -30.6128
  17   2.0000      -1.107512       -30.1369
  18   2.0000      -0.883625       -24.0447
  19   2.0000      -0.860503       -23.4155
  20   2.0000      -0.769715       -20.9450
  21   2.0000      -0.729489       -19.8504
  22   2.0000      -0.696848       -18.9622
  23   2.0000      -0.667901       -18.1745
  24   2.0000      -0.632306       -17.2059
  25   2.0000      -0.603459       -16.4210
  26   2.0000      -0.591896       -16.1063
  27   2.0000      -0.583436       -15.8761
  28   2.0000      -0.565273       -15.3819
  29   2.0000      -0.555934       -15.1277
  30   2.0000      -0.527213       -14.3462
  31   2.0000      -0.510974       -13.9043
  32   2.0000      -0.500715       -13.6251
  33   2.0000      -0.490467       -13.3463
  34   2.0000      -0.476015       -12.9530
  35   2.0000      -0.463653       -12.6166
  36   2.0000      -0.446994       -12.1633
  37   2.0000      -0.431712       -11.7475
  38   2.0000      -0.428248       -11.6532
  39   2.0000      -0.409926       -11.1547
  40   2.0000      -0.401525       -10.9260
  41   2.0000      -0.384363       -10.4591
  42   2.0000      -0.363948        -9.9035
  43   2.0000      -0.356722        -9.7069
  44   2.0000      -0.346356        -9.4248
  45   2.0000      -0.341255        -9.2860
  46   2.0000      -0.322719        -8.7816
  47   2.0000      -0.315351        -8.5811
  48   0.0000       0.087433         2.3792
  49   0.0000       0.105780         2.8784
  50   0.0000       0.134394         3.6570
  51   0.0000       0.143721         3.9108
  52   0.0000       0.152570         4.1516

MULLIKEN ATOMIC CHARGES
-----------------------
   0 C :    0.282488
   1 O :   -0.493844
   2 C :   -0.014173
   3 C :    0.045129
   4 C :   -0.024955
   5 C :   -0.004418
   6 H :    0.213547
   7 O :   -0.653072
   8 O :   -0.648538
   9 O :   -0.637419
  10 O :   -0.664206
  11 H :    0.433321
  12 C :   -0.154626
  13 H :    0.432752
  14 H :    0.441842
  15 H :    0.435706
  16 H :    0.224019
  17 H :    0.206989
  18 H :    0.223210
  19 H :    0.169454
  20 H :    0.210307
  21 O :   -0.640286
  22 H :    0.434912
  23 H :    0.181862
Sum of atomic charges:   -0.0000000

LOEWDIN ATOMIC CHARGES
----------------------
   0 C :    0.073794
   1 O :   -0.248864
   2 C :   -0.031395
   3 C :   -0.031151
   4 C :   -0.053705
   5 C :   -0.039256
   6 H :    0.117591
   7 O :   -0.403225
   8 O :   -0.400510
   9 O :   -0.373764
  10 O :   -0.399464
  11 H :    0.323585
  12 C :   -0.086431
  13 H :    0.324971
  14 H :    0.327076
  15 H :    0.324900
  16 H :    0.127397
  17 H :    0.116903
  18 H :    0.123989
  19 H :    0.089774
  20 H :    0.117358
  21 O :   -0.413953
  22 H :    0.311119
  23 H :    0.103260

  Mayer bond orders larger than 0.100000
B(  0-C ,  1-O ) :   0.9609 B(  0-C ,  4-C ) :   0.8959 B(  0-C ,  9-O ) :   1.0635
B(  0-C , 19-H ) :   0.8817 B(  1-O ,  2-C ) :   0.9230 B(  2-C ,  3-C ) :   0.9177
B(  2-C ,  6-H ) :   0.8765 B(  2-C , 12-C ) :   0.9668 B(  3-C ,  5-C ) :   0.9558
B(  3-C , 10-O ) :   0.9655 B(  3-C , 20-H ) :   0.8795 B(  4-C ,  5-C ) :   0.9373
B(  4-C ,  8-O ) :   1.0065 B(  4-C , 18-H ) :   0.8751 B(  5-C ,  7-O ) :   1.0076
B(  5-C , 17-H ) :   0.8805 B(  7-O , 15-H ) :   0.7696 B(  8-O , 11-H ) :   0.7731
B(  9-O , 13-H ) :   0.7748 B( 10-O , 14-H ) :   0.7612 B( 12-C , 16-H ) :   0.9116
B( 12-C , 21-O ) :   1.0445 B( 12-C , 23-H ) :   0.9003 B( 21-O , 22-H ) :   0.7432

Dispersion correction           -0.013518616
FINAL SINGLE POINT ENERGY      -685.714934548884

DIPOLE MOMENT
-------------
                                X             Y             Z
Electronic contribution:     -2.02887       0.12384       0.04699
Nuclear contribution   :      0.80927      -0.11701      -0.13544
                        -----------------------------------------
Total Dipole Moment    :     -1.21960       0.00683      -0.08845
                        -----------------------------------------
Magnitude (a.u.)       :      1.22282
Magnitude (Debye)      :      3.10816

Rotational constants in cm-1:     0.043637     0.024222     0.016294
Rotational constants in MHz :  1308.197084   726.168975   488.468017

                             ****ORCA TERMINATED NORMALLY****
TOTAL RUN TIME: 0 days 0 hours 2 minutes 9 seconds 211 msec
