                         Program Version 5.0.3 -  RELEASE  -
|  1> ! PBEh-3c def2/J TightSCF DefGrid3
|  2>
|  3> %maxcore 60000
|  4>
|  5> %pal
|  6> nprocs 4
|  7> end
|  8>
|  9> *xyzfile 0 1 VAL_xah.xyz
| 10>
| 11>                          ****END OF INPUT****

CARTESIAN COORDINATES (ANGSTROEM)
---------------------------------
  N     -1.028118   -0.423913    0.418552
  C      0.067979    0.115061   -0.348048
  C      1.338532   -0.577018    0.131936
  O      1.382415   -1.181085    1.199997
  C      0.199438    1.644722   -0.198763
  C     -1.063499    2.336087   -0.695869
  C      0.504604    2.037715    1.241226
  H     -0.750476   -0.877975    1.277475
  H     -0.119532   -0.117036   -1.399303
  H      1.037831    1.951744   -0.831048
  H     -1.300266    2.054095   -1.720087
  H     -0.944321    3.418087   -0.644629
  H     -1.913543    2.059330   -0.073092
  H      1.435074    1.599168    1.600210
  H      0.582485    3.120796    1.328051
  H     -0.300672    1.706476    1.897311
  N      2.410311   -0.417356   -0.679061
  H      2.265709    0.018932   -1.572559
  C      3.708361   -0.975865   -0.362714
  H      4.490585   -0.251554   -0.575597
  H      3.712857   -1.212792    0.696251
  H      3.901783   -1.888345   -0.925199
  C     -2.190459   -0.801873   -0.188125
  O     -2.451854   -0.525179   -1.352498
  C     -3.147765   -1.570872    0.690376
  H     -2.816753   -1.640644    1.723373
  H     -3.264012   -2.572090    0.280762
  H     -4.118979   -1.084396    0.652667

 Total Charge           Charge          ....    0
 Multiplicity           Mult            ....    1
 Number of Electrons    NEL             ....   94
 Basis Dimension        Dim             ....  212

ORBITAL ENERGIES
----------------

  NO   OCC          E(Eh)            E(eV)
   0   2.0000     -19.470396      -529.8164
   1   2.0000     -19.450836      -529.2842
   2   2.0000     -14.674959      -399.3259
   3   2.0000     -14.653354      -398.7380
   4   2.0000     -10.555534      -287.2307
   5   2.0000     -10.543609      -286.9062
   6   2.0000     -10.485837      -285.3341
   7   2.0000     -10.475289      -285.0471
   8   2.0000     -10.451897      -284.4106
   9   2.0000     -10.436836      -284.0007
  10   2.0000     -10.422287      -283.6048
  11   2.0000     -10.417351      -283.4705
  12   2.0000      -1.156480       -31.4694
  13   2.0000      -1.135356       -30.8946
  14   2.0000      -1.034327       -28.1455
  15   2.0000      -1.021737       -27.8029
  16   2.0000      -0.902657       -24.5625
  17   2.0000      -0.836459       -22.7612
  18   2.0000      -0.815687       -22.1960
  19   2.0000      -0.765072       -20.8187
  20   2.0000      -0.761196       -20.7132
  21   2.0000      -0.670606       -18.2481
  22   2.0000      -0.665496       -18.1091
  23   2.0000      -0.633385       -17.2353
  24   2.0000      -0.607352       -16.5269
  25   2.0000      -0.553313       -15.0564
  26   2.0000      -0.538921       -14.6648
  27   2.0000      -0.529965       -14.4211
  28   2.0000      -0.527468       -14.3531
  29   2.0000      -0.515059       -14.0155
  30   2.0000      -0.497730       -13.5439
  31   2.0000      -0.491272       -13.3682
  32   2.0000      -0.481624       -13.1057
  33   2.0000      -0.458249       -12.4696
  34   2.0000      -0.455984       -12.4080
  35   2.0000      -0.449027       -12.2187
  36   2.0000      -0.437520       -11.9055
  37   2.0000      -0.433606       -11.7990
  38   2.0000      -0.431541       -11.7428
  39   2.0000      -0.416438       -11.3319
  40   2.0000      -0.391643       -10.6571
  41   2.0000      -0.384085       -10.4515
  42   2.0000      -0.381036       -10.3685
  43   2.0000      -0.324716        -8.8360
  44   2.0000      -0.316164        -8.6033
  45   2.0000      -0.303467        -8.2577
  46   2.0000      -0.296369        -8.0646
  47   0.0000       0.051037         1.3888
  48   0.0000       0.065238         1.7752
  49   0.0000       0.108343         2.9482
  50   0.0000       0.135165         3.6780
  51   0.0000       0.160912         4.3786

MULLIKEN ATOMIC CHARGES
-----------------------
   0 N :   -0.632945
   1 C :   -0.200576
   2 C :    0.555296
   3 O :   -0.442659
   4 C :   -0.220674
   5 C :   -0.630347
   6 C :   -0.646213
   7 H :    0.380130
   8 H :    0.270018
   9 H :    0.198471
  10 H :    0.236422
  11 H :    0.214037
  12 H :    0.224499
  13 H :    0.234213
  14 H :    0.220642
  15 H :    0.220286
  16 N :   -0.630221
  17 H :    0.362719
  18 C :   -0.494367
  19 H :    0.222455
  20 H :    0.266141
  21 H :    0.226275
  22 C :    0.519637
  23 O :   -0.435534
  24 C :   -0.749440
  25 H :    0.219475
  26 H :    0.254564
  27 H :    0.257695
Sum of atomic charges:   -0.0000000

LOEWDIN ATOMIC CHARGES
----------------------
   0 N :   -0.227135
   1 C :   -0.095967
   2 C :    0.113579
   3 O :   -0.287159
   4 C :   -0.155183
   5 C :   -0.351603
   6 C :   -0.357675
   7 H :    0.266235
   8 H :    0.149326
   9 H :    0.115758
  10 H :    0.135980
  11 H :    0.124715
  12 H :    0.133716
  13 H :    0.132340
  14 H :    0.129141
  15 H :    0.130612
  16 N :   -0.237559
  17 H :    0.256211
  18 C :   -0.255784
  19 H :    0.125480
  20 H :    0.154239
  21 H :    0.124013
  22 C :    0.106325
  23 O :   -0.284230
  24 C :   -0.387923
  25 H :    0.130511
  26 H :    0.155789
  27 H :    0.156247

  Mayer bond orders larger than 0.100000
B(  0-N ,  1-C ) :   0.9499 B(  0-N ,  7-H ) :   0.7805 B(  0-N , 22-C ) :   1.1406
B(  1-C ,  2-C ) :   0.9189 B(  1-C ,  4-C ) :   0.9339 B(  1-C ,  8-H ) :   0.8747
B(  2-C ,  3-O ) :   1.9522 B(  2-C , 16-N ) :   1.1381 B(  4-C ,  5-C ) :   1.0003
B(  4-C ,  6-C ) :   0.9873 B(  4-C ,  9-H ) :   0.9060 B(  5-C , 10-H ) :   0.9217
B(  5-C , 11-H ) :   0.9260 B(  5-C , 12-H ) :   0.9190 B(  6-C , 13-H ) :   0.9186
B(  6-C , 14-H ) :   0.9282 B(  6-C , 15-H ) :   0.9195 B( 16-N , 17-H ) :   0.8231
B( 16-N , 18-C ) :   0.9489 B( 18-C , 19-H ) :   0.9225 B( 18-C , 20-H ) :   0.9006
B( 18-C , 21-H ) :   0.9178 B( 22-C , 23-O ) :   1.9720 B( 22-C , 24-C ) :   0.9275
B( 24-C , 25-H ) :   0.9201 B( 24-C , 26-H ) :   0.9101 B( 24-C , 27-H ) :   0.9116

Dispersion correction           -0.016440258
FINAL SINGLE POINT ENERGY      -573.251944708392

DIPOLE MOMENT
-------------
                                X             Y             Z
Electronic contribution:     -0.95631      -6.17559      -1.77504
Nuclear contribution   :      2.02015       6.40975       1.70254
                        -----------------------------------------
Total Dipole Moment    :      1.06383       0.23416      -0.07251
                        -----------------------------------------
Magnitude (a.u.)       :      1.09171
Magnitude (Debye)      :      2.77491

Rotational constants in cm-1:     0.041474     0.020502     0.016953
Rotational constants in MHz :  1243.357057   614.639089   508.229422

                             ****ORCA TERMINATED NORMALLY****
TOTAL RUN TIME: 0 days 0 hours 2 minutes 27 seconds 31 msec
