                         Program Version 5.0.3 -  RELEASE  -
|  1> ! PBEh-3c def2/J TightSCF DefGrid3
|  2>
|  3> %maxcore 60000
|  4>
|  5> %pal
|  6> nprocs 4
|  7> end
|  8>
|  9> *xyzfile 0 1 6b.xyz
| 10>
| 11>                          ****END OF INPUT****

CARTESIAN COORDINATES (ANGSTROEM)
---------------------------------
  C     -2.867608   -0.192246    0.027734
  N     -2.063983    0.918368   -0.003392
  H     -2.351065    1.881727   -0.016758
  C     -0.774340    0.472843   -0.016498
  C     -0.872669   -0.910711    0.010076
  N     -2.185457   -1.315860    0.036613
  C      0.337505   -1.687553   -0.006611
  O      0.512329   -2.888204   -0.002162
  N      1.457263   -0.809058   -0.043346
  H      2.343190   -1.285310   -0.128537
  C      1.429028    0.555594   -0.056300
  N      0.334449    1.259971   -0.035479
  N      2.648973    1.186700   -0.155128
  H     -3.940959   -0.116118    0.042776
  H      3.414811    0.753511    0.332506
  H      2.578532    2.176346    0.014506

 Total Charge           Charge          ....    0
 Multiplicity           Mult            ....    1
 Number of Electrons    NEL             ....   78
 Basis Dimension        Dim             ....  175

ORBITAL ENERGIES
----------------

  NO   OCC          E(Eh)            E(eV)
   0   2.0000     -19.460739      -529.5536
   1   2.0000     -14.705600      -400.1597
   2   2.0000     -14.699769      -400.0010
   3   2.0000     -14.677147      -399.3855
   4   2.0000     -14.642858      -398.4524
   5   2.0000     -14.630762      -398.1233
   6   2.0000     -10.585947      -288.0583
   7   2.0000     -10.559001      -287.3250
   8   2.0000     -10.524151      -286.3767
   9   2.0000     -10.509831      -285.9870
  10   2.0000     -10.462226      -284.6917
  11   2.0000      -1.165688       -31.7200
  12   2.0000      -1.138627       -30.9836
  13   2.0000      -1.117338       -30.4043
  14   2.0000      -1.018350       -27.7107
  15   2.0000      -1.012742       -27.5581
  16   2.0000      -0.978638       -26.6301
  17   2.0000      -0.853180       -23.2162
  18   2.0000      -0.758543       -20.6410
  19   2.0000      -0.739399       -20.1201
  20   2.0000      -0.704299       -19.1650
  21   2.0000      -0.675020       -18.3682
  22   2.0000      -0.620919       -16.8961
  23   2.0000      -0.610967       -16.6253
  24   2.0000      -0.582983       -15.8638
  25   2.0000      -0.556913       -15.1544
  26   2.0000      -0.545232       -14.8365
  27   2.0000      -0.524142       -14.2626
  28   2.0000      -0.494774       -13.4635
  29   2.0000      -0.491745       -13.3811
  30   2.0000      -0.482257       -13.1229
  31   2.0000      -0.450879       -12.2690
  32   2.0000      -0.381753       -10.3880
  33   2.0000      -0.367589       -10.0026
  34   2.0000      -0.342762        -9.3270
  35   2.0000      -0.334668        -9.1068
  36   2.0000      -0.328953        -8.9513
  37   2.0000      -0.316913        -8.6236
  38   2.0000      -0.250534        -6.8174
  39   0.0000       0.019368         0.5270
  40   0.0000       0.027396         0.7455
  41   0.0000       0.078155         2.1267
  42   0.0000       0.102109         2.7785
  43   0.0000       0.126261         3.4357

MULLIKEN ATOMIC CHARGES
-----------------------
   0 C :    0.099752
   1 N :   -0.651369
   2 H :    0.374490
   3 C :    0.465977
   4 C :   -0.043048
   5 N :   -0.363289
   6 C :    0.502616
   7 O :   -0.382528
   8 N :   -0.726338
   9 H :    0.378443
  10 C :    0.654320
  11 N :   -0.470982
  12 N :   -0.809442
  13 H :    0.241479
  14 H :    0.354816
  15 H :    0.375103
Sum of atomic charges:   -0.0000000

LOEWDIN ATOMIC CHARGES
----------------------
   0 C :   -0.031360
   1 N :   -0.144633
   2 H :    0.272956
   3 C :    0.049670
   4 C :   -0.123635
   5 N :   -0.146756
   6 C :    0.122176
   7 O :   -0.240418
   8 N :   -0.199571
   9 H :    0.273422
  10 C :    0.135973
  11 N :   -0.238231
  12 N :   -0.380178
  13 H :    0.133941
  14 H :    0.251674
  15 H :    0.264968

  Mayer bond orders larger than 0.100000
B(  0-C ,  1-N ) :   1.1362 B(  0-C ,  5-N ) :   1.6888 B(  0-C , 13-H ) :   0.9095
B(  1-N ,  2-H ) :   0.8163 B(  1-N ,  3-C ) :   1.0887 B(  3-C ,  4-C ) :   1.3081
B(  3-C , 11-N ) :   1.2990 B(  4-C ,  5-N ) :   1.3075 B(  4-C ,  6-C ) :   1.0488
B(  6-C ,  7-O ) :   2.0748 B(  6-C ,  8-N ) :   0.9362 B(  8-N ,  9-H ) :   0.8077
B(  8-N , 10-C ) :   1.1297 B( 10-C , 11-N ) :   1.6210 B( 10-C , 12-N ) :   1.1006
B( 12-N , 14-H ) :   0.8349 B( 12-N , 15-H ) :   0.8285

Dispersion correction           -0.009529772
FINAL SINGLE POINT ENERGY      -541.397424295043

DIPOLE MOMENT
-------------
                                X             Y             Z
Electronic contribution:     -1.62954      -2.17538       0.01199
Nuclear contribution   :      2.55534       4.62180       0.32531
                        -----------------------------------------
Total Dipole Moment    :      0.92580       2.44643       0.33730
                        -----------------------------------------
Magnitude (a.u.)       :      2.63740
Magnitude (Debye)      :      6.70375

Rotational constants in cm-1:     0.064286     0.037428     0.023673
Rotational constants in MHz :  1927.244542  1122.061709   709.708238

                             ****ORCA TERMINATED NORMALLY****
TOTAL RUN TIME: 0 days 0 hours 2 minutes 23 seconds 574 msec
