                         Program Version 5.0.3 -  RELEASE  -
|  1> ! PBEh-3c def2/J TightSCF DefGrid3
|  2>
|  3> %maxcore 60000
|  4>
|  5> %pal
|  6> nprocs 4
|  7> end
|  8>
|  9> *xyzfile 0 1 Norbornene.xyz
| 10>
| 11>                          ****END OF INPUT****

CARTESIAN COORDINATES (ANGSTROEM)
---------------------------------
  C      0.152916    0.343028    1.128504
  C      1.063382    0.884683    0.000000
  H      1.138717    1.976634    0.000000
  C      0.152916    0.343028   -1.128504
  H      2.068872    0.444852    0.000000
  C     -1.194390    0.885087   -0.670298
  H      0.441914    0.570391   -2.157749
  H      1.053658   -1.668653    1.177749
  H     -2.029409    1.105255   -1.328726
  C     -1.194390    0.885087    0.670298
  H      1.053658   -1.668653   -1.177749
  C      0.152916   -1.186409   -0.780534
  H     -0.713090   -1.701784    1.206609
  H      0.441914    0.570391    2.157749
  H     -2.029409    1.105255    1.328726
  H     -0.713090   -1.701784   -1.206609
  C      0.152916   -1.186409    0.780534

 Total Charge           Charge          ....    0
 Multiplicity           Mult            ....    1
 Number of Electrons    NEL             ....   52
 Basis Dimension        Dim             ....  125

ORBITAL ENERGIES
----------------

  NO   OCC          E(Eh)            E(eV)
   0   2.0000     -10.444603      -284.2121
   1   2.0000     -10.444548      -284.2106
   2   2.0000     -10.434615      -283.9403
   3   2.0000     -10.433690      -283.9151
   4   2.0000     -10.433185      -283.9014
   5   2.0000     -10.433009      -283.8966
   6   2.0000     -10.431822      -283.8643
   7   2.0000      -0.973555       -26.4918
   8   2.0000      -0.824478       -22.4352
   9   2.0000      -0.795551       -21.6480
  10   2.0000      -0.772540       -21.0219
  11   2.0000      -0.650974       -17.7139
  12   2.0000      -0.624760       -17.0006
  13   2.0000      -0.574968       -15.6457
  14   2.0000      -0.574959       -15.6454
  15   2.0000      -0.530410       -14.4332
  16   2.0000      -0.494007       -13.4426
  17   2.0000      -0.447202       -12.1690
  18   2.0000      -0.431810       -11.7501
  19   2.0000      -0.397293       -10.8109
  20   2.0000      -0.394273       -10.7287
  21   2.0000      -0.390423       -10.6240
  22   2.0000      -0.379265       -10.3203
  23   2.0000      -0.369507       -10.0548
  24   2.0000      -0.346819        -9.4374
  25   2.0000      -0.277327        -7.5465
  26   0.0000       0.046910         1.2765
  27   0.0000       0.145213         3.9515
  28   0.0000       0.163736         4.4555
  29   0.0000       0.186998         5.0885
  30   0.0000       0.192401         5.2355

MULLIKEN ATOMIC CHARGES
-----------------------
   0 C :   -0.303943
   1 C :   -0.393477
   2 H :    0.233815
   3 C :   -0.303942
   4 H :    0.211376
   5 C :   -0.178733
   6 H :    0.212213
   7 H :    0.220743
   8 H :    0.213062
   9 C :   -0.178733
  10 H :    0.220743
  11 C :   -0.414508
  12 H :    0.225308
  13 H :    0.212213
  14 H :    0.213062
  15 H :    0.225308
  16 C :   -0.414508
Sum of atomic charges:   -0.0000000

LOEWDIN ATOMIC CHARGES
----------------------
   0 C :   -0.146279
   1 C :   -0.212235
   2 H :    0.129862
   3 C :   -0.146279
   4 H :    0.118325
   5 C :   -0.143702
   6 H :    0.122587
   7 H :    0.124206
   8 H :    0.130507
   9 C :   -0.143702
  10 H :    0.124206
  11 C :   -0.230962
  12 H :    0.125668
  13 H :    0.122587
  14 H :    0.130507
  15 H :    0.125668
  16 C :   -0.230962

  Mayer bond orders larger than 0.100000
B(  0-C ,  1-C ) :   0.9491 B(  0-C ,  9-C ) :   0.9836 B(  0-C , 13-H ) :   0.9309
B(  0-C , 16-C ) :   0.9577 B(  1-C ,  2-H ) :   0.9215 B(  1-C ,  3-C ) :   0.9491
B(  1-C ,  4-H ) :   0.9245 B(  3-C ,  5-C ) :   0.9836 B(  3-C ,  6-H ) :   0.9309
B(  3-C , 11-C ) :   0.9577 B(  5-C ,  8-H ) :   0.9267 B(  5-C ,  9-C ) :   1.8721
B(  7-H , 16-C ) :   0.9234 B(  9-C , 14-H ) :   0.9267 B( 10-H , 11-C ) :   0.9234
B( 11-C , 15-H ) :   0.9274 B( 11-C , 16-C ) :   0.9575 B( 12-H , 16-C ) :   0.9274

Dispersion correction           -0.009277485
FINAL SINGLE POINT ENERGY      -272.132519514980

DIPOLE MOMENT
-------------
                                X             Y             Z
Electronic contribution:     -1.40514       1.84769       0.00000
Nuclear contribution   :      1.45210      -1.96960       0.00000
                        -----------------------------------------
Total Dipole Moment    :      0.04696      -0.12191       0.00000
                        -----------------------------------------
Magnitude (a.u.)       :      0.13064
Magnitude (Debye)      :      0.33207

Rotational constants in cm-1:     0.130846     0.113702     0.099855
Rotational constants in MHz :  3922.658977  3408.691537  2993.575397

                             ****ORCA TERMINATED NORMALLY****
TOTAL RUN TIME: 0 days 0 hours 1 minutes 36 seconds 84 msec
