                         Program Version 5.0.3 -  RELEASE  -
|  1> ! PBEh-3c def2/J TightSCF DefGrid3
|  2>
|  3> %maxcore 60000
|  4>
|  5> %pal
|  6> nprocs 4
|  7> end
|  8>
|  9> *xyzfile 0 1 ts8.xyz
| 10>
| 11>                          ****END OF INPUT****

CARTESIAN COORDINATES (ANGSTROEM)
---------------------------------
  C      1.683647    0.610579    0.000000
  C      1.683647   -0.610579    0.000000
  C     -0.313047   -1.763370    0.000000
  C     -1.370600   -1.152792    0.000000
  C     -1.370600    1.152792    0.000000
  C     -0.313047    1.763370    0.000000
  H      2.144822    1.568989    0.000000
  H      2.144822   -1.568989    0.000000
  H      0.286374   -2.641965    0.000000
  H     -2.431196   -1.072976    0.000000
  H     -2.431196    1.072976    0.000000
  H      0.286374    2.641965    0.000000

 Total Charge           Charge          ....    0
 Multiplicity           Mult            ....    1
 Number of Electrons    NEL             ....   42
 Basis Dimension        Dim             ....  102

ORBITAL ENERGIES
----------------

  NO   OCC          E(Eh)            E(eV)
   0   2.0000     -10.452918      -284.4383
   1   2.0000     -10.452916      -284.4383
   2   2.0000     -10.452858      -284.4367
   3   2.0000     -10.450704      -284.3781
   4   2.0000     -10.450619      -284.3758
   5   2.0000     -10.450617      -284.3758
   6   2.0000      -0.855856       -23.2890
   7   2.0000      -0.828170       -22.5356
   8   2.0000      -0.828169       -22.5356
   9   2.0000      -0.650178       -17.6922
  10   2.0000      -0.650177       -17.6922
  11   2.0000      -0.590010       -16.0550
  12   2.0000      -0.568971       -15.4825
  13   2.0000      -0.530274       -14.4295
  14   2.0000      -0.530273       -14.4295
  15   2.0000      -0.405425       -11.0322
  16   2.0000      -0.351489        -9.5645
  17   2.0000      -0.317880        -8.6499
  18   2.0000      -0.317879        -8.6499
  19   2.0000      -0.284928        -7.7533
  20   2.0000      -0.284927        -7.7533
  21   0.0000       0.009778         0.2661
  22   0.0000       0.009778         0.2661
  23   0.0000       0.053982         1.4689
  24   0.0000       0.053982         1.4689
  25   0.0000       0.124618         3.3910

MULLIKEN ATOMIC CHARGES
-----------------------
   0 C :   -0.249259
   1 C :   -0.249260
   2 C :   -0.249322
   3 C :   -0.249242
   4 C :   -0.249242
   5 C :   -0.249321
   6 H :    0.249260
   7 H :    0.249260
   8 H :    0.249282
   9 H :    0.249281
  10 H :    0.249281
  11 H :    0.249282
Sum of atomic charges:   -0.0000000

LOEWDIN ATOMIC CHARGES
----------------------
   0 C :   -0.161735
   1 C :   -0.161735
   2 C :   -0.161742
   3 C :   -0.161739
   4 C :   -0.161739
   5 C :   -0.161742
   6 H :    0.161734
   7 H :    0.161734
   8 H :    0.161742
   9 H :    0.161739
  10 H :    0.161739
  11 H :    0.161742

  Mayer bond orders larger than 0.100000
B(  0-C ,  1-C ) :   2.6108 B(  0-C ,  5-C ) :   0.2499 B(  0-C ,  6-H ) :   0.8971
B(  1-C ,  2-C ) :   0.2499 B(  1-C ,  7-H ) :   0.8971 B(  2-C ,  3-C ) :   2.6108
B(  2-C ,  8-H ) :   0.8971 B(  3-C ,  4-C ) :   0.2499 B(  3-C ,  9-H ) :   0.8971
B(  4-C ,  5-C ) :   2.6108 B(  4-C , 10-H ) :   0.8971 B(  5-C , 11-H ) :   0.8971

Dispersion correction           -0.005623591
FINAL SINGLE POINT ENERGY      -231.359149251886

DIPOLE MOMENT
-------------
                                X             Y             Z
Electronic contribution:      0.00001       0.00000      -0.00000
Nuclear contribution   :     -0.00000       0.00000       0.00000
                        -----------------------------------------
Total Dipole Moment    :      0.00001       0.00000      -0.00000
                        -----------------------------------------
Magnitude (a.u.)       :      0.00001
Magnitude (Debye)      :      0.00001

Rotational constants in cm-1:     0.123111     0.123111     0.061556
Rotational constants in MHz :  3690.777515  3690.777468  1845.388746

                             ****ORCA TERMINATED NORMALLY****
TOTAL RUN TIME: 0 days 0 hours 1 minutes 19 seconds 852 msec
