                         Program Version 5.0.3 -  RELEASE  -
|  1> ! PBEh-3c def2/J TightSCF DefGrid3
|  2>
|  3> %maxcore 60000
|  4>
|  5> %pal
|  6> nprocs 4
|  7> end
|  8>
|  9> *xyzfile 0 1 h14.xyz
| 10>
| 11>                          ****END OF INPUT****

CARTESIAN COORDINATES (ANGSTROEM)
---------------------------------
  C      2.415846   -0.811385   -0.309305
  C      1.087460   -0.967338    0.421702
  C      0.000000    0.000000   -0.052953
  C      0.294009    1.425436    0.421702
  C     -0.505243    2.497876   -0.309305
  C     -1.381469   -0.458099    0.421702
  C     -1.910603   -1.686491   -0.309305
  H      2.832244    0.187336   -0.189703
  H      3.154666   -1.520293    0.061649
  H      2.287380   -0.991841   -1.376674
  H      1.231430   -0.820476    1.496450
  H      0.742057   -1.994608    0.297017
  H      0.000000    0.000000   -1.150453
  H      1.356352    1.639944    0.297017
  H      0.094838    1.476688    1.496450
  H     -0.284730    2.476849   -1.376674
  H     -0.260721    3.492167    0.061649
  H     -1.578360    2.359128   -0.189703
  H     -1.326268   -0.656212    1.496450
  H     -2.098409    0.354663    0.297017
  H     -1.253884   -2.546464   -0.189703
  H     -2.893945   -1.971875    0.061649
  H     -2.002649   -1.485008   -1.376674

 Total Charge           Charge          ....    0
 Multiplicity           Mult            ....    1
 Number of Electrons    NEL             ....   58
 Basis Dimension        Dim             ....  137

ORBITAL ENERGIES
----------------

  NO   OCC          E(Eh)            E(eV)
   0   2.0000     -10.432186      -283.8742
   1   2.0000     -10.425631      -283.6958
   2   2.0000     -10.425630      -283.6958
   3   2.0000     -10.425548      -283.6936
   4   2.0000     -10.418792      -283.5098
   5   2.0000     -10.418790      -283.5097
   6   2.0000     -10.418788      -283.5096
   7   2.0000      -0.913029       -24.8448
   8   2.0000      -0.834091       -22.6968
   9   2.0000      -0.834090       -22.6968
  10   2.0000      -0.753171       -20.4948
  11   2.0000      -0.680814       -18.5259
  12   2.0000      -0.680813       -18.5259
  13   2.0000      -0.621825       -16.9207
  14   2.0000      -0.512916       -13.9571
  15   2.0000      -0.512915       -13.9571
  16   2.0000      -0.509150       -13.8547
  17   2.0000      -0.480218       -13.0674
  18   2.0000      -0.480218       -13.0674
  19   2.0000      -0.440950       -11.9989
  20   2.0000      -0.437695       -11.9103
  21   2.0000      -0.413165       -11.2428
  22   2.0000      -0.413165       -11.2428
  23   2.0000      -0.398339       -10.8393
  24   2.0000      -0.387833       -10.5535
  25   2.0000      -0.387832       -10.5534
  26   2.0000      -0.360909        -9.8208
  27   2.0000      -0.348256        -9.4765
  28   2.0000      -0.348256        -9.4765
  29   0.0000       0.138368         3.7652
  30   0.0000       0.152542         4.1509
  31   0.0000       0.152545         4.1510
  32   0.0000       0.169440         4.6107
  33   0.0000       0.184643         5.0244

MULLIKEN ATOMIC CHARGES
-----------------------
   0 C :   -0.642928
   1 C :   -0.413563
   2 C :   -0.199903
   3 C :   -0.413500
   4 C :   -0.642997
   5 C :   -0.413553
   6 C :   -0.642927
   7 H :    0.210741
   8 H :    0.219929
   9 H :    0.209930
  10 H :    0.203321
  11 H :    0.214851
  12 H :    0.193050
  13 H :    0.214825
  14 H :    0.203312
  15 H :    0.209944
  16 H :    0.219938
  17 H :    0.210766
  18 H :    0.203309
  19 H :    0.214844
  20 H :    0.210758
  21 H :    0.219933
  22 H :    0.209919
Sum of atomic charges:   -0.0000000

LOEWDIN ATOMIC CHARGES
----------------------
   0 C :   -0.361691
   1 C :   -0.237771
   2 C :   -0.153394
   3 C :   -0.237761
   4 C :   -0.361708
   5 C :   -0.237768
   6 C :   -0.361690
   7 H :    0.121293
   8 H :    0.126784
   9 H :    0.123623
  10 H :    0.119967
  11 H :    0.120761
  12 H :    0.114487
  13 H :    0.120757
  14 H :    0.119968
  15 H :    0.123627
  16 H :    0.126788
  17 H :    0.121299
  18 H :    0.119965
  19 H :    0.120760
  20 H :    0.121297
  21 H :    0.126786
  22 H :    0.123620

  Mayer bond orders larger than 0.100000
B(  0-C ,  1-C ) :   0.9977 B(  0-C ,  7-H ) :   0.9240 B(  0-C ,  8-H ) :   0.9310
B(  0-C ,  9-H ) :   0.9293 B(  1-C ,  2-C ) :   0.9702 B(  1-C , 10-H ) :   0.9174
B(  1-C , 11-H ) :   0.9178 B(  2-C ,  3-C ) :   0.9702 B(  2-C ,  5-C ) :   0.9702
B(  2-C , 12-H ) :   0.9114 B(  3-C ,  4-C ) :   0.9977 B(  3-C , 13-H ) :   0.9178
B(  3-C , 14-H ) :   0.9174 B(  4-C , 15-H ) :   0.9293 B(  4-C , 16-H ) :   0.9310
B(  4-C , 17-H ) :   0.9240 B(  5-C ,  6-C ) :   0.9977 B(  5-C , 18-H ) :   0.9174
B(  5-C , 19-H ) :   0.9178 B(  6-C , 20-H ) :   0.9240 B(  6-C , 21-H ) :   0.9310
B(  6-C , 22-H ) :   0.9293

Dispersion correction           -0.011378359
FINAL SINGLE POINT ENERGY      -275.788217471455

DIPOLE MOMENT
-------------
                                X             Y             Z
Electronic contribution:     -0.00002      -0.00003       0.74664
Nuclear contribution   :      0.00000       0.00000      -0.73516
                        -----------------------------------------
Total Dipole Moment    :     -0.00002      -0.00003       0.01148
                        -----------------------------------------
Magnitude (a.u.)       :      0.01148
Magnitude (Debye)      :      0.02918

Rotational constants in cm-1:     0.073463     0.073463     0.041025
Rotational constants in MHz :  2202.360867  2202.360808  1229.895393

                             ****ORCA TERMINATED NORMALLY****
TOTAL RUN TIME: 0 days 0 hours 1 minutes 43 seconds 527 msec
