                         Program Version 5.0.3 -  RELEASE  -
|  1> ! PBEh-3c def2/J TightSCF DefGrid3
|  2>
|  3> %maxcore 60000
|  4>
|  5> %pal
|  6> nprocs 4
|  7> end
|  8>
|  9> *xyzfile 0 1 25.xyz
| 10>
| 11>                          ****END OF INPUT****

CARTESIAN COORDINATES (ANGSTROEM)
---------------------------------
  C      0.000000    0.000000    0.598234
  H      0.000000    0.000000    1.660554
  C      0.000000    0.000000   -0.598234
  H      0.000000    0.000000   -1.660554

 Total Charge           Charge          ....    0
 Multiplicity           Mult            ....    1
 Number of Electrons    NEL             ....   14
 Basis Dimension        Dim             ....   34

ORBITAL ENERGIES
----------------

  NO   OCC          E(Eh)            E(eV)
   0   2.0000     -10.455033      -284.4959
   1   2.0000     -10.452354      -284.4230
   2   2.0000      -0.843174       -22.9439
   3   2.0000      -0.637378       -17.3439
   4   2.0000      -0.560184       -15.2434
   5   2.0000      -0.340389        -9.2625
   6   2.0000      -0.340389        -9.2625
   7   0.0000       0.073000         1.9864
   8   0.0000       0.073000         1.9864
   9   0.0000       0.164309         4.4711
  10   0.0000       0.209174         5.6919
  11   0.0000       0.420622        11.4457

MULLIKEN ATOMIC CHARGES
-----------------------
   0 C :   -0.235081
   1 H :    0.235081
   2 C :   -0.235081
   3 H :    0.235081
Sum of atomic charges:   -0.0000000

LOEWDIN ATOMIC CHARGES
----------------------
   0 C :   -0.162120
   1 H :    0.162120
   2 C :   -0.162120
   3 H :    0.162120

  Mayer bond orders larger than 0.100000
B(  0-C ,  1-H ) :   0.9301 B(  0-C ,  2-C ) :   2.8296 B(  2-C ,  3-H ) :   0.9301

Dispersion correction           -0.000699005
FINAL SINGLE POINT ENERGY       -77.142547929009

DIPOLE MOMENT
-------------
                                X             Y             Z
Electronic contribution:      0.00000      -0.00000       0.00000
Nuclear contribution   :      0.00000       0.00000      -0.00000
                        -----------------------------------------
Total Dipole Moment    :      0.00000      -0.00000       0.00000
                        -----------------------------------------
Magnitude (a.u.)       :      0.00000
Magnitude (Debye)      :      0.00000

Rotational constants in cm-1:     0.000000     1.190841     1.190841
Rotational constants in MHz :     0.000000 35700.525724 35700.525724

                             ****ORCA TERMINATED NORMALLY****
TOTAL RUN TIME: 0 days 0 hours 0 minutes 21 seconds 439 msec
