                         Program Version 5.0.3 -  RELEASE  -
|  1> ! PBEh-3c def2/J TightSCF DefGrid3
|  2>
|  3> %maxcore 60000
|  4>
|  5> %pal
|  6> nprocs 4
|  7> end
|  8>
|  9> *xyzfile 0 1 sbh3_hcl.xyz
| 10>
| 11>                          ****END OF INPUT****

CARTESIAN COORDINATES (ANGSTROEM)
---------------------------------
  Sb     0.000000    0.681285    0.000000
  H      0.000000   -2.106558    0.000000
  Cl     0.000000   -3.386850    0.000000
  H      1.400553    1.604041    0.000000
  H     -0.700277    1.604041    1.212915
  H     -0.700277    1.604041   -1.212915

 Total Charge           Charge          ....    0
 Multiplicity           Mult            ....    1
 Number of Electrons    NEL             ....   44
 Basis Dimension        Dim             ....   52

ORBITAL ENERGIES
----------------

  NO   OCC          E(Eh)            E(eV)
   0   2.0000    -102.281740     -2783.2276
   1   2.0000      -9.751171      -265.3429
   2   2.0000      -7.438698      -202.4173
   3   2.0000      -7.430450      -202.1928
   4   2.0000      -7.430450      -202.1928
   5   2.0000      -5.954343      -162.0259
   6   2.0000      -4.140805      -112.6770
   7   2.0000      -4.140805      -112.6770
   8   2.0000      -4.135665      -112.5372
   9   2.0000      -1.413799       -38.4714
  10   2.0000      -1.413798       -38.4714
  11   2.0000      -1.408450       -38.3259
  12   2.0000      -1.408450       -38.3259
  13   2.0000      -1.405052       -38.2334
  14   2.0000      -0.913037       -24.8450
  15   2.0000      -0.667804       -18.1719
  16   2.0000      -0.510859       -13.9012
  17   2.0000      -0.408791       -11.1238
  18   2.0000      -0.408788       -11.1237
  19   2.0000      -0.362209        -9.8562
  20   2.0000      -0.362209        -9.8562
  21   2.0000      -0.320516        -8.7217
  22   0.0000       0.015508         0.4220
  23   0.0000       0.015510         0.4221
  24   0.0000       0.067501         1.8368
  25   0.0000       0.137906         3.7526
  26   0.0000       0.253715         6.9039

MULLIKEN ATOMIC CHARGES
-----------------------
   0 Sb:   -0.042662
   1 H :    0.289574
   2 Cl:   -0.321792
   3 H :    0.024972
   4 H :    0.024954
   5 H :    0.024954
Sum of atomic charges:   -0.0000000

LOEWDIN ATOMIC CHARGES
----------------------
   0 Sb:   -0.016838
   1 H :    0.176952
   2 Cl:   -0.209122
   3 H :    0.016343
   4 H :    0.016333
   5 H :    0.016333

  Mayer bond orders larger than 0.100000
B(  0-Sb,  3-H ) :   0.9803 B(  0-Sb,  4-H ) :   0.9803 B(  0-Sb,  5-H ) :   0.9803
B(  1-H ,  2-Cl) :   0.8346

Dispersion correction           -0.001557198
FINAL SINGLE POINT ENERGY      -702.339027179417

DIPOLE MOMENT
-------------
                                X             Y             Z
Electronic contribution:      0.00003      57.30388       0.00000
Nuclear contribution   :     -0.00000     -56.33972       0.00000
                        -----------------------------------------
Total Dipole Moment    :      0.00003       0.96416       0.00000
                        -----------------------------------------
Magnitude (a.u.)       :      0.96416
Magnitude (Debye)      :      2.45069

Rotational constants in cm-1:     2.841946     0.035786     0.035786
Rotational constants in MHz : 85199.390289  1072.849526  1072.849524

                             ****ORCA TERMINATED NORMALLY****
TOTAL RUN TIME: 0 days 0 hours 1 minutes 11 seconds 894 msec
