                         Program Version 5.0.3 -  RELEASE  -
|  1> ! PBEh-3c def2/J TightSCF DefGrid3
|  2>
|  3> %maxcore 60000
|  4>
|  5> %pal
|  6> nprocs 4
|  7> end
|  8>
|  9> *xyzfile 0 1 B31.xyz
| 10>
| 11>                          ****END OF INPUT****

CARTESIAN COORDINATES (ANGSTROEM)
---------------------------------
  C     -1.927198   -0.439332   -0.271016
  H     -2.199525   -1.219006    0.448873
  O     -2.362695    0.840086    0.187884
  C     -0.432800   -0.490868   -0.562136
  H     -0.200109   -1.468069   -0.996605
  H     -0.188322    0.261353   -1.311918
  C      0.431711   -0.275749    0.677734
  H      0.195604   -1.030538    1.435346
  H      0.211802    0.700526    1.122062
  H     -2.053872    0.945440    1.090583
  H     -2.488833   -0.625460   -1.184977
  C      1.925530   -0.344017    0.380607
  H      2.497855   -0.257449    1.309316
  H      2.171533   -1.304948   -0.071029
  O      2.348174    0.634754   -0.564888
  H      2.186577    1.499229   -0.176760

 Total Charge           Charge          ....    0
 Multiplicity           Mult            ....    1
 Number of Electrons    NEL             ....   50
 Basis Dimension        Dim             ....  110

ORBITAL ENERGIES
----------------

  NO   OCC          E(Eh)            E(eV)
   0   2.0000     -19.487257      -530.2752
   1   2.0000     -19.484055      -530.1881
   2   2.0000     -10.484492      -285.2975
   3   2.0000     -10.479570      -285.1636
   4   2.0000     -10.442053      -284.1427
   5   2.0000     -10.430818      -283.8370
   6   2.0000      -1.123904       -30.5830
   7   2.0000      -1.120015       -30.4772
   8   2.0000      -0.883701       -24.0467
   9   2.0000      -0.800493       -21.7825
  10   2.0000      -0.714334       -19.4380
  11   2.0000      -0.660146       -17.9635
  12   2.0000      -0.573891       -15.6164
  13   2.0000      -0.559717       -15.2307
  14   2.0000      -0.534726       -14.5506
  15   2.0000      -0.511959       -13.9311
  16   2.0000      -0.490572       -13.3491
  17   2.0000      -0.467829       -12.7303
  18   2.0000      -0.438945       -11.9443
  19   2.0000      -0.418719       -11.3939
  20   2.0000      -0.395374       -10.7587
  21   2.0000      -0.382452       -10.4070
  22   2.0000      -0.370715       -10.0877
  23   2.0000      -0.329852        -8.9757
  24   2.0000      -0.320620        -8.7245
  25   0.0000       0.117749         3.2041
  26   0.0000       0.124994         3.4013
  27   0.0000       0.165529         4.5043
  28   0.0000       0.175175         4.7668
  29   0.0000       0.190096         5.1728

MULLIKEN ATOMIC CHARGES
-----------------------
   0 C :   -0.161197
   1 H :    0.174035
   2 O :   -0.626771
   3 C :   -0.426139
   4 H :    0.202906
   5 H :    0.240812
   6 C :   -0.472826
   7 H :    0.207592
   8 H :    0.190928
   9 H :    0.411709
  10 H :    0.220472
  11 C :   -0.153223
  12 H :    0.191841
  13 H :    0.209266
  14 O :   -0.619427
  15 H :    0.410023
Sum of atomic charges:    0.0000000

LOEWDIN ATOMIC CHARGES
----------------------
   0 C :   -0.093266
   1 H :    0.095625
   2 O :   -0.415118
   3 C :   -0.264299
   4 H :    0.125798
   5 H :    0.137811
   6 C :   -0.272743
   7 H :    0.124441
   8 H :    0.112065
   9 H :    0.304266
  10 H :    0.121871
  11 C :   -0.092099
  12 H :    0.100388
  13 H :    0.119536
  14 O :   -0.410578
  15 H :    0.306301

  Mayer bond orders larger than 0.100000
B(  0-C ,  1-H ) :   0.9151 B(  0-C ,  2-O ) :   1.0146 B(  0-C ,  3-C ) :   0.9654
B(  0-C , 10-H ) :   0.9208 B(  2-O ,  9-H ) :   0.7928 B(  3-C ,  4-H ) :   0.9130
B(  3-C ,  5-H ) :   0.9025 B(  3-C ,  6-C ) :   0.9726 B(  6-C ,  7-H ) :   0.9105
B(  6-C ,  8-H ) :   0.9161 B(  6-C , 11-C ) :   0.9750 B( 11-C , 12-H ) :   0.9150
B( 11-C , 13-H ) :   0.9158 B( 11-C , 14-O ) :   1.0193 B( 14-O , 15-H ) :   0.7946

Dispersion correction           -0.006593386
FINAL SINGLE POINT ENERGY      -308.207210423601

DIPOLE MOMENT
-------------
                                X             Y             Z
Electronic contribution:     -0.00391       2.33228      -0.82282
Nuclear contribution   :      0.13804      -2.57956       1.72856
                        -----------------------------------------
Total Dipole Moment    :      0.13413      -0.24727       0.90574
                        -----------------------------------------
Magnitude (a.u.)       :      0.94842
Magnitude (Debye)      :      2.41070

Rotational constants in cm-1:     0.263220     0.050983     0.049783
Rotational constants in MHz :  7891.145903  1528.432667  1492.464265

                             ****ORCA TERMINATED NORMALLY****
TOTAL RUN TIME: 0 days 0 hours 1 minutes 40 seconds 791 msec
