                         Program Version 5.0.3 -  RELEASE  -
|  1> ! PBEh-3c def2/J TightSCF DefGrid3
|  2>
|  3> %maxcore 60000
|  4>
|  5> %pal
|  6> nprocs 4
|  7> end
|  8>
|  9> *xyzfile 1 1 147A.xyz
| 10>
| 11>                          ****END OF INPUT****

CARTESIAN COORDINATES (ANGSTROEM)
---------------------------------
  C      0.049040   -0.084480    0.021420
  C      0.049040   -0.084480    1.535490
  N      1.446830   -0.084480    2.045840
  H      1.964410    0.730610    1.708030
  H      1.476360   -0.079960    3.067300
  H      1.982830   -0.926590    1.674260
  H     -0.453960    0.791580    1.938980
  H     -0.431130   -0.974810    1.935770
  H      0.553240    0.798050   -0.369050
  H      0.549420   -0.968880   -0.367200
  H     -0.977580   -0.080020   -0.337960

 Total Charge           Charge          ....    1
 Multiplicity           Mult            ....    1
 Number of Electrons    NEL             ....   26
 Basis Dimension        Dim             ....   61

ORBITAL ENERGIES
----------------

  NO   OCC          E(Eh)            E(eV)
   0   2.0000     -14.975610      -407.5071
   1   2.0000     -10.695438      -291.0377
   2   2.0000     -10.616404      -288.8870
   3   2.0000      -1.316894       -35.8345
   4   2.0000      -1.055216       -28.7139
   5   2.0000      -0.922393       -25.0996
   6   2.0000      -0.859570       -23.3901
   7   2.0000      -0.857334       -23.3292
   8   2.0000      -0.760909       -20.7054
   9   2.0000      -0.700754       -19.0685
  10   2.0000      -0.637846       -17.3567
  11   2.0000      -0.624556       -16.9950
  12   2.0000      -0.603494       -16.4219
  13   0.0000      -0.129261        -3.5174
  14   0.0000      -0.070950        -1.9306
  15   0.0000      -0.059932        -1.6308
  16   0.0000      -0.029084        -0.7914
  17   0.0000       0.002462         0.0670

MULLIKEN ATOMIC CHARGES
-----------------------
   0 C :   -0.664352
   1 C :   -0.362474
   2 N :   -0.776854
   3 H :    0.454063
   4 H :    0.464216
   5 H :    0.454746
   6 H :    0.310712
   7 H :    0.309023
   8 H :    0.252849
   9 H :    0.251528
  10 H :    0.306544
Sum of atomic charges:    1.0000000

LOEWDIN ATOMIC CHARGES
----------------------
   0 C :   -0.369396
   1 C :   -0.158262
   2 N :   -0.210010
   3 H :    0.307156
   4 H :    0.311001
   5 H :    0.317581
   6 H :    0.164447
   7 H :    0.163357
   8 H :    0.148080
   9 H :    0.147508
  10 H :    0.178538

  Mayer bond orders larger than 0.100000
B(  0-C ,  1-C ) :   0.9811 B(  0-C ,  8-H ) :   0.9057 B(  0-C ,  9-H ) :   0.9060
B(  0-C , 10-H ) :   0.8922 B(  1-C ,  2-N ) :   0.8251 B(  1-C ,  6-H ) :   0.8775
B(  1-C ,  7-H ) :   0.8785 B(  2-N ,  3-H ) :   0.7707 B(  2-N ,  4-H ) :   0.7678
B(  2-N ,  5-H ) :   0.7701

Dispersion correction           -0.003543789
FINAL SINGLE POINT ENERGY      -135.237752779527

DIPOLE MOMENT
-------------
                                X             Y             Z
Electronic contribution:      1.01007       0.01469       1.61771
Nuclear contribution   :      0.12292      -0.02645      -0.54661
                        -----------------------------------------
Total Dipole Moment    :      1.13300      -0.01176       1.07111
                        -----------------------------------------
Magnitude (a.u.)       :      1.55920
Magnitude (Debye)      :      3.96316

Rotational constants in cm-1:     0.983471     0.285984     0.251508
Rotational constants in MHz : 29483.727047  8573.594644  7540.006715

                             ****ORCA TERMINATED NORMALLY****
TOTAL RUN TIME: 0 days 0 hours 0 minutes 37 seconds 83 msec
