                         Program Version 5.0.3 -  RELEASE  -
|  1> ! PBEh-3c def2/J TightSCF DefGrid3
|  2>
|  3> %maxcore 60000
|  4>
|  5> %pal
|  6> nprocs 4
|  7> end
|  8>
|  9> *xyzfile 0 1 H2O6c.xyz
| 10>
| 11>                          ****END OF INPUT****

CARTESIAN COORDINATES (ANGSTROEM)
---------------------------------
  O     -2.126243    0.919750    1.826496
  H     -2.188122    1.462015    2.615848
  H     -1.598636    1.426518    1.173772
  O     -0.624200   -1.353317    1.175710
  H     -1.198805   -0.679429    1.587776
  H      0.272983   -0.996307    1.264523
  O      1.828762    0.175482    0.642264
  H      2.039250   -0.202946   -0.240156
  H      2.663251    0.297934    1.101375
  O     -0.842299   -0.843854   -1.449044
  H     -1.545476   -1.316182   -1.901652
  H     -0.861342   -1.136636   -0.498637
  O     -0.453715    1.832826   -0.191539
  H     -0.728166    1.163811   -0.836455
  H      0.401369    1.505430    0.130342
  O      1.892204   -0.909985   -1.870697
  H      2.153755   -0.372014   -2.622249
  H      0.915431   -0.973096   -1.907677

 Total Charge           Charge          ....    0
 Multiplicity           Mult            ....    1
 Number of Electrons    NEL             ....   60
 Basis Dimension        Dim             ....  114

ORBITAL ENERGIES
----------------

  NO   OCC          E(Eh)            E(eV)
   0   2.0000     -19.494189      -530.4639
   1   2.0000     -19.490932      -530.3752
   2   2.0000     -19.488669      -530.3136
   3   2.0000     -19.470279      -529.8132
   4   2.0000     -19.467058      -529.7256
   5   2.0000     -19.466006      -529.6969
   6   2.0000      -1.124498       -30.5992
   7   2.0000      -1.113227       -30.2924
   8   2.0000      -1.106889       -30.1200
   9   2.0000      -1.097554       -29.8660
  10   2.0000      -1.089537       -29.6478
  11   2.0000      -1.080082       -29.3905
  12   2.0000      -0.612208       -16.6590
  13   2.0000      -0.599257       -16.3066
  14   2.0000      -0.589435       -16.0393
  15   2.0000      -0.582878       -15.8609
  16   2.0000      -0.570070       -15.5124
  17   2.0000      -0.564965       -15.3735
  18   2.0000      -0.488118       -13.2824
  19   2.0000      -0.459936       -12.5155
  20   2.0000      -0.452188       -12.3047
  21   2.0000      -0.435677       -11.8554
  22   2.0000      -0.433183       -11.7875
  23   2.0000      -0.410636       -11.1740
  24   2.0000      -0.379059       -10.3147
  25   2.0000      -0.376061       -10.2331
  26   2.0000      -0.372438       -10.1345
  27   2.0000      -0.357804        -9.7363
  28   2.0000      -0.349688        -9.5155
  29   2.0000      -0.349049        -9.4981
  30   0.0000       0.095242         2.5917
  31   0.0000       0.143116         3.8944
  32   0.0000       0.145769         3.9666
  33   0.0000       0.160302         4.3620
  34   0.0000       0.209822         5.7095

MULLIKEN ATOMIC CHARGES
-----------------------
   0 O :   -0.870882
   1 H :    0.414614
   2 H :    0.443738
   3 O :   -0.884109
   4 H :    0.448805
   5 H :    0.434900
   6 O :   -0.876831
   7 H :    0.455138
   8 H :    0.426480
   9 O :   -0.886840
  10 H :    0.429011
  11 H :    0.459178
  12 O :   -0.872632
  13 H :    0.433445
  14 H :    0.434909
  15 O :   -0.862161
  16 H :    0.419935
  17 H :    0.453302
Sum of atomic charges:   -0.0000000

LOEWDIN ATOMIC CHARGES
----------------------
   0 O :   -0.613620
   1 H :    0.302345
   2 H :    0.298909
   3 O :   -0.605623
   4 H :    0.303246
   5 H :    0.300512
   6 O :   -0.608766
   7 H :    0.303330
   8 H :    0.308899
   9 O :   -0.613554
  10 H :    0.310502
  11 H :    0.307410
  12 O :   -0.602798
  13 H :    0.301448
  14 H :    0.298271
  15 O :   -0.600018
  16 H :    0.306458
  17 H :    0.303051

  Mayer bond orders larger than 0.100000
B(  0-O ,  1-H ) :   0.8078 B(  0-O ,  2-H ) :   0.6838 B(  0-O ,  4-H ) :   0.1233
B(  2-H , 12-O ) :   0.1401 B(  3-O ,  4-H ) :   0.6969 B(  3-O ,  5-H ) :   0.7384
B(  3-O , 11-H ) :   0.1861 B(  6-O ,  7-H ) :   0.6659 B(  6-O ,  8-H ) :   0.7974
B(  7-H , 15-O ) :   0.1472 B(  9-O , 10-H ) :   0.7952 B(  9-O , 11-H ) :   0.6278
B(  9-O , 17-H ) :   0.1299 B( 12-O , 13-H ) :   0.7466 B( 12-O , 14-H ) :   0.7353
B( 15-O , 16-H ) :   0.8045 B( 15-O , 17-H ) :   0.6840

Dispersion correction           -0.006006399
FINAL SINGLE POINT ENERGY      -457.637037875144

DIPOLE MOMENT
-------------
                                X             Y             Z
Electronic contribution:     -0.02537      -0.11442      -0.02778
Nuclear contribution   :      0.81278       0.44722      -0.33259
                        -----------------------------------------
Total Dipole Moment    :      0.78741       0.33280      -0.36037
                        -----------------------------------------
Magnitude (a.u.)       :      0.92770
Magnitude (Debye)      :      2.35804

Rotational constants in cm-1:     0.074211     0.037806     0.036130
Rotational constants in MHz :  2224.797981  1133.382270  1083.162549

                             ****ORCA TERMINATED NORMALLY****
TOTAL RUN TIME: 0 days 0 hours 1 minutes 27 seconds 663 msec
