                         Program Version 5.0.3 -  RELEASE  -
|  1> ! PBEh-3c def2/J TightSCF DefGrid3
|  2>
|  3> %maxcore 60000
|  4>
|  5> %pal
|  6> nprocs 4
|  7> end
|  8>
|  9> *xyzfile 0 1 B24.xyz
| 10>
| 11>                          ****END OF INPUT****

CARTESIAN COORDINATES (ANGSTROEM)
---------------------------------
  C      0.421691    1.898289    0.398278
  H      1.077573    1.899220    1.276359
  O      1.191768    1.925497   -0.803162
  C     -0.421691    0.636516    0.385716
  H     -1.070502    0.648845    1.266675
  H     -1.065996    0.647988   -0.493045
  C      0.421691   -0.636516    0.385716
  H      1.070502   -0.648845    1.266675
  H      1.065996   -0.647988   -0.493045
  H      1.731452    2.719524   -0.788411
  H     -0.227085    2.777253    0.459755
  C     -0.421691   -1.898289    0.398278
  H      0.227085   -2.777253    0.459755
  H     -1.077573   -1.899220    1.276359
  O     -1.191768   -1.925497   -0.803162
  H     -1.731452   -2.719524   -0.788411

 Total Charge           Charge          ....    0
 Multiplicity           Mult            ....    1
 Number of Electrons    NEL             ....   50
 Basis Dimension        Dim             ....  110

ORBITAL ENERGIES
----------------

  NO   OCC          E(Eh)            E(eV)
   0   2.0000     -19.478085      -530.0256
   1   2.0000     -19.478079      -530.0255
   2   2.0000     -10.475100      -285.0420
   3   2.0000     -10.475064      -285.0410
   4   2.0000     -10.421514      -283.5838
   5   2.0000     -10.421295      -283.5779
   6   2.0000      -1.114973       -30.3399
   7   2.0000      -1.113840       -30.3091
   8   2.0000      -0.873878       -23.7794
   9   2.0000      -0.793870       -21.6023
  10   2.0000      -0.693059       -18.8591
  11   2.0000      -0.638605       -17.3773
  12   2.0000      -0.580669       -15.8008
  13   2.0000      -0.569400       -15.4942
  14   2.0000      -0.521009       -14.1774
  15   2.0000      -0.507053       -13.7976
  16   2.0000      -0.461636       -12.5618
  17   2.0000      -0.456404       -12.4194
  18   2.0000      -0.429722       -11.6933
  19   2.0000      -0.399978       -10.8840
  20   2.0000      -0.390936       -10.6379
  21   2.0000      -0.369330       -10.0500
  22   2.0000      -0.361687        -9.8420
  23   2.0000      -0.322646        -8.7796
  24   2.0000      -0.313858        -8.5405
  25   0.0000       0.130938         3.5630
  26   0.0000       0.135574         3.6892
  27   0.0000       0.178455         4.8560
  28   0.0000       0.180903         4.9226
  29   0.0000       0.208319         5.6686

MULLIKEN ATOMIC CHARGES
-----------------------
   0 C :   -0.152560
   1 H :    0.170090
   2 O :   -0.630496
   3 C :   -0.435918
   4 H :    0.194829
   5 H :    0.251637
   6 C :   -0.435918
   7 H :    0.194829
   8 H :    0.251637
   9 H :    0.415308
  10 H :    0.187111
  11 C :   -0.152561
  12 H :    0.187111
  13 H :    0.170090
  14 O :   -0.630496
  15 H :    0.415308
Sum of atomic charges:    0.0000000

LOEWDIN ATOMIC CHARGES
----------------------
   0 C :   -0.089998
   1 H :    0.092941
   2 O :   -0.419307
   3 C :   -0.252416
   4 H :    0.120364
   5 H :    0.142303
   6 C :   -0.252416
   7 H :    0.120364
   8 H :    0.142303
   9 H :    0.307236
  10 H :    0.098877
  11 C :   -0.089998
  12 H :    0.098877
  13 H :    0.092941
  14 O :   -0.419307
  15 H :    0.307236

  Mayer bond orders larger than 0.100000
B(  0-C ,  1-H ) :   0.9071 B(  0-C ,  2-O ) :   1.0082 B(  0-C ,  3-C ) :   0.9899
B(  0-C , 10-H ) :   0.9115 B(  2-O ,  9-H ) :   0.7945 B(  3-C ,  4-H ) :   0.9224
B(  3-C ,  5-H ) :   0.8992 B(  3-C ,  6-C ) :   0.9768 B(  6-C ,  7-H ) :   0.9224
B(  6-C ,  8-H ) :   0.8992 B(  6-C , 11-C ) :   0.9899 B( 11-C , 12-H ) :   0.9115
B( 11-C , 13-H ) :   0.9071 B( 11-C , 14-O ) :   1.0082 B( 14-O , 15-H ) :   0.7945

Dispersion correction           -0.006431953
FINAL SINGLE POINT ENERGY      -308.205489240613

DIPOLE MOMENT
-------------
                                X             Y             Z
Electronic contribution:     -0.00000       0.00000      -2.76334
Nuclear contribution   :      0.00000      -0.00000       3.56074
                        -----------------------------------------
Total Dipole Moment    :     -0.00000       0.00000       0.79740
                        -----------------------------------------
Magnitude (a.u.)       :      0.79740
Magnitude (Debye)      :      2.02682

Rotational constants in cm-1:     0.266025     0.052445     0.050893
Rotational constants in MHz :  7975.242437  1572.252188  1525.723685

                             ****ORCA TERMINATED NORMALLY****
TOTAL RUN TIME: 0 days 0 hours 1 minutes 31 seconds 57 msec
