                         Program Version 5.0.3 -  RELEASE  -
|  1> ! PBEh-3c def2/J TightSCF DefGrid3
|  2>
|  3> %maxcore 60000
|  4>
|  5> %pal
|  6> nprocs 4
|  7> end
|  8>
|  9> *xyzfile 0 1 46A.xyz
| 10>
| 11>                          ****END OF INPUT****

CARTESIAN COORDINATES (ANGSTROEM)
---------------------------------
  C      1.692226    0.838546    0.132643
  H      1.272212    1.840118    0.194936
  H      2.267457    0.752584   -0.787464
  H      2.371737    0.677893    0.964771
  C      0.646772   -0.251579    0.150017
  O      0.938856   -1.426413    0.333100
  N     -0.629993    0.170955   -0.064267
  H     -0.784636    1.148094   -0.232069
  C     -1.739819   -0.751301   -0.158028
  H     -1.349321   -1.740728    0.059003
  H     -2.514556   -0.505312    0.565480
  H     -2.170935   -0.752857   -1.158121

 Total Charge           Charge          ....    0
 Multiplicity           Mult            ....    1
 Number of Electrons    NEL             ....   40
 Basis Dimension        Dim             ....   89

ORBITAL ENERGIES
----------------

  NO   OCC          E(Eh)            E(eV)
   0   2.0000     -19.447045      -529.1810
   1   2.0000     -14.660478      -398.9319
   2   2.0000     -10.543059      -286.8912
   3   2.0000     -10.463704      -284.7319
   4   2.0000     -10.439905      -284.0843
   5   2.0000      -1.133977       -30.8571
   6   2.0000      -1.017734       -27.6939
   7   2.0000      -0.840507       -22.8713
   8   2.0000      -0.768445       -20.9104
   9   2.0000      -0.653774       -17.7901
  10   2.0000      -0.569069       -15.4852
  11   2.0000      -0.529420       -14.4063
  12   2.0000      -0.520657       -14.1678
  13   2.0000      -0.483112       -13.1462
  14   2.0000      -0.461968       -12.5708
  15   2.0000      -0.451855       -12.2956
  16   2.0000      -0.440675       -11.9914
  17   2.0000      -0.404647       -11.0110
  18   2.0000      -0.302773        -8.2389
  19   2.0000      -0.298408        -8.1201
  20   0.0000       0.069809         1.8996
  21   0.0000       0.121186         3.2976
  22   0.0000       0.177121         4.8197
  23   0.0000       0.189775         5.1640
  24   0.0000       0.197822         5.3830

MULLIKEN ATOMIC CHARGES
-----------------------
   0 C :   -0.749734
   1 H :    0.207371
   2 H :    0.254952
   3 H :    0.262160
   4 C :    0.518600
   5 O :   -0.430356
   6 N :   -0.626667
   7 H :    0.351902
   8 C :   -0.493375
   9 H :    0.270108
  10 H :    0.218088
  11 H :    0.216949
Sum of atomic charges:   -0.0000000

LOEWDIN ATOMIC CHARGES
----------------------
   0 C :   -0.390706
   1 H :    0.124929
   2 H :    0.155675
   3 H :    0.156952
   4 C :    0.104283
   5 O :   -0.285152
   6 N :   -0.253866
   7 H :    0.249800
   8 C :   -0.260287
   9 H :    0.156685
  10 H :    0.121473
  11 H :    0.120212

  Mayer bond orders larger than 0.100000
B(  0-C ,  1-H ) :   0.9220 B(  0-C ,  2-H ) :   0.9090 B(  0-C ,  3-H ) :   0.9122
B(  0-C ,  4-C ) :   0.9260 B(  4-C ,  5-O ) :   1.9972 B(  4-C ,  6-N ) :   1.1341
B(  6-N ,  7-H ) :   0.8299 B(  6-N ,  8-C ) :   0.9498 B(  8-C ,  9-H ) :   0.8947
B(  8-C , 10-H ) :   0.9227 B(  8-C , 11-H ) :   0.9219

Dispersion correction           -0.004435167
FINAL SINGLE POINT ENERGY      -247.988965530218

DIPOLE MOMENT
-------------
                                X             Y             Z
Electronic contribution:      1.29122      -1.90941       0.55006
Nuclear contribution   :     -1.96603       3.20167      -0.86289
                        -----------------------------------------
Total Dipole Moment    :     -0.67481       1.29226      -0.31284
                        -----------------------------------------
Magnitude (a.u.)       :      1.49103
Magnitude (Debye)      :      3.78991

Rotational constants in cm-1:     0.333573     0.129547     0.096704
Rotational constants in MHz : 10000.280347  3883.733597  2899.119836

                             ****ORCA TERMINATED NORMALLY****
TOTAL RUN TIME: 0 days 0 hours 1 minutes 11 seconds 238 msec
