                         Program Version 5.0.3 -  RELEASE  -
|  1> ! PBEh-3c def2/J TightSCF DefGrid3
|  2>
|  3> %maxcore 60000
|  4>
|  5> %pal
|  6> nprocs 4
|  7> end
|  8>
|  9> *xyzfile 0 1 li3_me.xyz
| 10>
| 11>                          ****END OF INPUT****

CARTESIAN COORDINATES (ANGSTROEM)
---------------------------------
  C      0.022152    0.932211    0.000000
  Li    -0.084632   -3.613135    0.000000
  H     -0.940884    1.465911    0.000000
  H      0.533990    1.361838   -0.873690
  H      0.533990    1.361838    0.873690
  Li     1.163745   -0.780558    0.000000
  Li    -1.228361   -0.728105    0.000000

 Total Charge           Charge          ....    0
 Multiplicity           Mult            ....    1
 Number of Electrons    NEL             ....   18
 Basis Dimension        Dim             ....   48

ORBITAL ENERGIES
----------------

  NO   OCC          E(Eh)            E(eV)
   0   2.0000     -10.366009      -282.0734
   1   2.0000      -2.097436       -57.0741
   2   2.0000      -2.082080       -56.6563
   3   2.0000      -2.079733       -56.5924
   4   2.0000      -0.712999       -19.4017
   5   2.0000      -0.406660       -11.0658
   6   2.0000      -0.400609       -10.9011
   7   2.0000      -0.265852        -7.2342
   8   2.0000      -0.150492        -4.0951
   9   0.0000      -0.028202        -0.7674
  10   0.0000      -0.017889        -0.4868
  11   0.0000       0.008840         0.2405
  12   0.0000       0.010100         0.2748
  13   0.0000       0.050962         1.3867

MULLIKEN ATOMIC CHARGES
-----------------------
   0 C :   -1.255937
   1 Li:   -0.188374
   2 H :    0.192255
   3 H :    0.209554
   4 H :    0.209554
   5 Li:    0.408965
   6 Li:    0.423983
Sum of atomic charges:   -0.0000000

LOEWDIN ATOMIC CHARGES
----------------------
   0 C :   -0.738812
   1 Li:   -0.009128
   2 H :    0.143328
   3 H :    0.141788
   4 H :    0.141788
   5 Li:    0.157430
   6 Li:    0.163605

  Mayer bond orders larger than 0.100000
B(  0-C ,  2-H ) :   0.9148 B(  0-C ,  3-H ) :   0.9117 B(  0-C ,  4-H ) :   0.9117
B(  0-C ,  5-Li) :   0.3016 B(  0-C ,  6-Li) :   0.2840 B(  1-Li,  5-Li) :   0.4839
B(  1-Li,  6-Li) :   0.4747 B(  5-Li,  6-Li) :   0.1795

Dispersion correction           -0.001918229
FINAL SINGLE POINT ENERGY       -62.264967007502

DIPOLE MOMENT
-------------
                                X             Y             Z
Electronic contribution:     -0.27322      -8.74041       0.00000
Nuclear contribution   :      0.25400       8.54642       0.00000
                        -----------------------------------------
Total Dipole Moment    :     -0.01923      -0.19399       0.00000
                        -----------------------------------------
Magnitude (a.u.)       :      0.19494
Magnitude (Debye)      :      0.49550

Rotational constants in cm-1:     0.736934     0.160320     0.134918
Rotational constants in MHz : 22092.717332  4806.266467  4044.726778

                             ****ORCA TERMINATED NORMALLY****
TOTAL RUN TIME: 0 days 0 hours 1 minutes 22 seconds 136 msec
