                         Program Version 5.0.3 -  RELEASE  -
|  1> ! PBEh-3c def2/J TightSCF DefGrid3
|  2>
|  3> %maxcore 60000
|  4>
|  5> %pal
|  6> nprocs 4
|  7> end
|  8>
|  9> *xyzfile 0 2 P12.xyz
| 10>
| 11>                          ****END OF INPUT****

CARTESIAN COORDINATES (ANGSTROEM)
---------------------------------
  C     -0.659158    0.300612    0.000000
  C      0.624705   -0.307989    0.000000
  O      1.677808    0.336663    0.000000
  H     -0.736373    1.380799    0.000000
  H     -1.561858   -0.297763    0.000000
  H      0.654877   -1.412323    0.000000

 Total Charge           Charge          ....    0
 Multiplicity           Mult            ....    2
 Number of Electrons    NEL             ....   23
 Basis Dimension        Dim             ....   51

ORBITAL ENERGIES
----------------
                 SPIN UP ORBITALS
  NO   OCC          E(Eh)            E(eV)
   0   1.0000     -19.508004      -530.8398
   1   1.0000     -10.527333      -286.4633
   2   1.0000     -10.488730      -285.4128
   3   1.0000      -1.161385       -31.6029
   4   1.0000      -0.857090       -23.3226
   5   1.0000      -0.658057       -17.9067
   6   1.0000      -0.566625       -15.4186
   7   1.0000      -0.520348       -14.1594
   8   1.0000      -0.480643       -13.0789
   9   1.0000      -0.475514       -12.9394
  10   1.0000      -0.331669        -9.0252
  11   1.0000      -0.323971        -8.8157
  12   0.0000       0.039080         1.0634
  13   0.0000       0.162059         4.4099
  14   0.0000       0.174903         4.7594
  15   0.0000       0.215775         5.8715
  16   0.0000       0.291176         7.9233

                 SPIN DOWN ORBITALS
  NO   OCC          E(Eh)            E(eV)
   0   1.0000     -19.495997      -530.5131
   1   1.0000     -10.531280      -286.5707
   2   1.0000     -10.475810      -285.0613
   3   1.0000      -1.137143       -30.9432
   4   1.0000      -0.820837       -22.3361
   5   1.0000      -0.649331       -17.6692
   6   1.0000      -0.558330       -15.1929
   7   1.0000      -0.508912       -13.8482
   8   1.0000      -0.467576       -12.7234
   9   1.0000      -0.421870       -11.4797
  10   1.0000      -0.318707        -8.6725
  11   0.0000      -0.097044        -2.6407
  12   0.0000       0.083475         2.2715
  13   0.0000       0.169646         4.6163
  14   0.0000       0.182098         4.9551
  15   0.0000       0.219298         5.9674

MULLIKEN ATOMIC CHARGES AND SPIN POPULATIONS
--------------------------------------------
   0 C :   -0.460961    0.923840
   1 C :    0.120014   -0.242836
   2 O :   -0.316040    0.411394
   3 H :    0.255273   -0.049210
   4 H :    0.238735   -0.048539
   5 H :    0.162979    0.005351
Sum of atomic charges         :   -0.0000000

LOEWDIN ATOMIC CHARGES AND SPIN POPULATIONS
-------------------------------------------
   0 C :   -0.201387    0.803370
   1 C :   -0.010969   -0.143063
   2 O :   -0.171598    0.384730
   3 H :    0.151303   -0.023347
   4 H :    0.142028   -0.023773
   5 H :    0.090623    0.002083

  Mayer bond orders larger than 0.100000
B(  0-C ,  1-C ) :   1.1798 B(  0-C ,  3-H ) :   0.9053 B(  0-C ,  4-H ) :   0.9080
B(  1-C ,  2-O ) :   1.9016 B(  1-C ,  5-H ) :   0.8832

Dispersion correction           -0.001477402
FINAL SINGLE POINT ENERGY      -152.837606784601

DIPOLE MOMENT
-------------
                                X             Y             Z
Electronic contribution:      2.06094       0.30573       0.00000
Nuclear contribution   :     -3.14525      -0.63035       0.00000
                        -----------------------------------------
Total Dipole Moment    :     -1.08431      -0.32462       0.00000
                        -----------------------------------------
Magnitude (a.u.)       :      1.13186
Magnitude (Debye)      :      2.87696

Rotational constants in cm-1:     2.251563     0.382047     0.326625
Rotational constants in MHz : 67500.171916 11453.489333  9791.977811

                             ****ORCA TERMINATED NORMALLY****
TOTAL RUN TIME: 0 days 0 hours 2 minutes 33 seconds 798 msec
