                         Program Version 5.0.3 -  RELEASE  -
|  1> ! PBEh-3c def2/J TightSCF DefGrid3
|  2>
|  3> %maxcore 60000
|  4>
|  5> %pal
|  6> nprocs 4
|  7> end
|  8>
|  9> *xyzfile 0 2 pbme3.xyz
| 10>
| 11>                          ****END OF INPUT****

CARTESIAN COORDINATES (ANGSTROEM)
---------------------------------
  Pb    -0.000000    0.000000   -0.895988
  C      1.045997    1.811720   -0.034445
  C      1.045997   -1.811720   -0.034445
  C     -2.091994    0.000000   -0.034445
  H      0.994935    1.723277    1.052445
  H      2.084780    1.824474   -0.359669
  H      0.537651    2.717709   -0.359669
  H     -2.622431    0.893235   -0.359669
  H     -2.622431   -0.893235   -0.359669
  H     -1.989869    0.000000    1.052445
  H      0.537651   -2.717709   -0.359669
  H      2.084780   -1.824474   -0.359669
  H      0.994935   -1.723277    1.052445

 Total Charge           Charge          ....    0
 Multiplicity           Mult            ....    2
 Number of Electrons    NEL             ....   49
 Basis Dimension        Dim             ....   89

ORBITAL ENERGIES
----------------
                 SPIN UP ORBITALS
  NO   OCC          E(Eh)            E(eV)
   0   1.0000     -10.427657      -283.7510
   1   1.0000     -10.427654      -283.7509
   2   1.0000     -10.427649      -283.7508
   3   1.0000      -5.666190      -154.1849
   4   1.0000      -3.461011       -94.1789
   5   1.0000      -3.456635       -94.0598
   6   1.0000      -3.456634       -94.0598
   7   1.0000      -0.903183       -24.5769
   8   1.0000      -0.903181       -24.5768
   9   1.0000      -0.897185       -24.4137
  10   1.0000      -0.891865       -24.2689
  11   1.0000      -0.891865       -24.2689
  12   1.0000      -0.772918       -21.0322
  13   1.0000      -0.745030       -20.2733
  14   1.0000      -0.745029       -20.2733
  15   1.0000      -0.530571       -14.4376
  16   1.0000      -0.458441       -12.4748
  17   1.0000      -0.452814       -12.3217
  18   1.0000      -0.452814       -12.3217
  19   1.0000      -0.447489       -12.1768
  20   1.0000      -0.447489       -12.1768
  21   1.0000      -0.444307       -12.0902
  22   1.0000      -0.305810        -8.3215
  23   1.0000      -0.305806        -8.3214
  24   1.0000      -0.221041        -6.0148
  25   0.0000       0.061602         1.6763
  26   0.0000       0.065386         1.7793
  27   0.0000       0.065401         1.7797
  28   0.0000       0.138786         3.7766
  29   0.0000       0.185469         5.0469

                 SPIN DOWN ORBITALS
  NO   OCC          E(Eh)            E(eV)
   0   1.0000     -10.425184      -283.6837
   1   1.0000     -10.425184      -283.6837
   2   1.0000     -10.425179      -283.6836
   3   1.0000      -5.663640      -154.1155
   4   1.0000      -3.456530       -94.0570
   5   1.0000      -3.456066       -94.0443
   6   1.0000      -3.456065       -94.0443
   7   1.0000      -0.899056       -24.4646
   8   1.0000      -0.899053       -24.4645
   9   1.0000      -0.891513       -24.2593
  10   1.0000      -0.888731       -24.1836
  11   1.0000      -0.888730       -24.1836
  12   1.0000      -0.764107       -20.7924
  13   1.0000      -0.738962       -20.1082
  14   1.0000      -0.738962       -20.1082
  15   1.0000      -0.506983       -13.7957
  16   1.0000      -0.452956       -12.3256
  17   1.0000      -0.450839       -12.2680
  18   1.0000      -0.450839       -12.2680
  19   1.0000      -0.443610       -12.0712
  20   1.0000      -0.443609       -12.0712
  21   1.0000      -0.442681       -12.0460
  22   1.0000      -0.286700        -7.8015
  23   1.0000      -0.286699        -7.8015
  24   0.0000      -0.081493        -2.2175
  25   0.0000       0.075326         2.0497
  26   0.0000       0.080660         2.1949
  27   0.0000       0.080671         2.1952
  28   0.0000       0.143305         3.8995

MULLIKEN ATOMIC CHARGES AND SPIN POPULATIONS
--------------------------------------------
   0 Pb:    0.684319    0.628499
   1 C :   -0.929018    0.129306
   2 C :   -0.929018    0.129306
   3 C :   -0.929034    0.129278
   4 H :    0.231224    0.008566
   5 H :    0.234839   -0.007016
   6 H :    0.234841   -0.007017
   7 H :    0.234858   -0.007013
   8 H :    0.234858   -0.007013
   9 H :    0.231228    0.008572
  10 H :    0.234841   -0.007017
  11 H :    0.234839   -0.007016
  12 H :    0.231224    0.008566
Sum of atomic charges         :    0.0000000

LOEWDIN ATOMIC CHARGES AND SPIN POPULATIONS
-------------------------------------------
   0 Pb:    0.405743    0.670650
   1 C :   -0.563506    0.106388
   2 C :   -0.563506    0.106388
   3 C :   -0.563513    0.106371
   4 H :    0.143069    0.011273
   5 H :    0.142594   -0.003937
   6 H :    0.142594   -0.003938
   7 H :    0.142600   -0.003935
   8 H :    0.142600   -0.003935
   9 H :    0.143071    0.011276
  10 H :    0.142594   -0.003938
  11 H :    0.142594   -0.003937
  12 H :    0.143069    0.011273

  Mayer bond orders larger than 0.100000
B(  0-Pb,  1-C ) :   0.8599 B(  0-Pb,  2-C ) :   0.8599 B(  0-Pb,  3-C ) :   0.8599
B(  1-C ,  4-H ) :   0.9102 B(  1-C ,  5-H ) :   0.9156 B(  1-C ,  6-H ) :   0.9156
B(  2-C , 10-H ) :   0.9156 B(  2-C , 11-H ) :   0.9156 B(  2-C , 12-H ) :   0.9102
B(  3-C ,  7-H ) :   0.9156 B(  3-C ,  8-H ) :   0.9156 B(  3-C ,  9-H ) :   0.9102

Dispersion correction           -0.004567099
FINAL SINGLE POINT ENERGY      -312.280462714273

DIPOLE MOMENT
-------------
                                X             Y             Z
Electronic contribution:     -0.00005       0.00000     -31.63394
Nuclear contribution   :     -0.00000       0.00000      31.68638
                        -----------------------------------------
Total Dipole Moment    :     -0.00005       0.00000       0.05244
                        -----------------------------------------
Magnitude (a.u.)       :      0.05244
Magnitude (Debye)      :      0.13330

Rotational constants in cm-1:     0.119042     0.119042     0.078013
Rotational constants in MHz :  3568.780429  3568.780368  2338.761609

                             ****ORCA TERMINATED NORMALLY****
TOTAL RUN TIME: 0 days 0 hours 2 minutes 50 seconds 540 msec
