                         Program Version 5.0.3 -  RELEASE  -
|  1> ! PBEh-3c def2/J TightSCF DefGrid3
|  2>
|  3> %maxcore 60000
|  4>
|  5> %pal
|  6> nprocs 4
|  7> end
|  8>
|  9> *xyzfile 0 1 PHE_xal.xyz
| 10>
| 11>                          ****END OF INPUT****

CARTESIAN COORDINATES (ANGSTROEM)
---------------------------------
  N     -1.589583   -0.436449   -0.419789
  C     -1.230385    0.572356    0.537294
  C     -0.757447    1.778143   -0.266185
  O     -0.508568    1.706213   -1.465018
  C     -0.130701    0.091312    1.515410
  C      1.069054   -0.429189    0.784475
  C      2.072376    0.432957    0.331327
  C      1.172193   -1.792622    0.492176
  C      3.153179   -0.054560   -0.399180
  C      2.251884   -2.284657   -0.238132
  C      3.243357   -1.415031   -0.688770
  H     -1.256728   -0.276404   -1.359351
  H     -2.109253    0.841739    1.129014
  H     -0.573815   -0.692735    2.126904
  H      0.144382    0.920789    2.169099
  H      2.007222    1.490686    0.556801
  H      0.406017   -2.467315    0.855050
  H      3.922760    0.624266   -0.740908
  H      2.321131   -3.342970   -0.451081
  H      4.082983   -1.794803   -1.254668
  N     -0.583070    2.913541    0.450360
  H     -0.924517    2.945071    1.394571
  C     -0.143384    4.136128   -0.191316
  H      0.246110    4.813514    0.562756
  H      0.641853    3.894261   -0.901515
  H     -0.952905    4.624777   -0.732702
  C     -2.186903   -1.597282   -0.058060
  O     -2.531670   -1.827853    1.098207
  C     -2.372081   -2.595730   -1.174410
  H     -3.330625   -3.089625   -1.046281
  H     -1.589843   -3.349803   -1.096837
  H     -2.318937   -2.139646   -2.159964

 Total Charge           Charge          ....    0
 Multiplicity           Mult            ....    1
 Number of Electrons    NEL             ....  118
 Basis Dimension        Dim             ....  272

ORBITAL ENERGIES
----------------

  NO   OCC          E(Eh)            E(eV)
   0   2.0000     -19.474262      -529.9216
   1   2.0000     -19.449697      -529.2532
   2   2.0000     -14.678025      -399.4094
   3   2.0000     -14.653728      -398.7482
   4   2.0000     -10.558637      -287.3151
   5   2.0000     -10.542887      -286.8865
   6   2.0000     -10.496591      -285.6268
   7   2.0000     -10.478878      -285.1448
   8   2.0000     -10.454639      -284.4852
   9   2.0000     -10.448695      -284.3234
  10   2.0000     -10.446034      -284.2510
  11   2.0000     -10.445869      -284.2466
  12   2.0000     -10.445081      -284.2251
  13   2.0000     -10.444709      -284.2150
  14   2.0000     -10.443715      -284.1879
  15   2.0000     -10.435708      -283.9700
  16   2.0000      -1.160452       -31.5775
  17   2.0000      -1.134587       -30.8737
  18   2.0000      -1.037308       -28.2266
  19   2.0000      -1.023471       -27.8501
  20   2.0000      -0.955205       -25.9924
  21   2.0000      -0.889648       -24.2086
  22   2.0000      -0.842974       -22.9385
  23   2.0000      -0.833193       -22.6723
  24   2.0000      -0.817284       -22.2394
  25   2.0000      -0.787501       -21.4290
  26   2.0000      -0.736417       -20.0389
  27   2.0000      -0.682307       -18.5665
  28   2.0000      -0.674515       -18.3545
  29   2.0000      -0.667455       -18.1624
  30   2.0000      -0.638656       -17.3787
  31   2.0000      -0.609273       -16.5792
  32   2.0000      -0.579906       -15.7800
  33   2.0000      -0.552884       -15.0447
  34   2.0000      -0.538793       -14.6613
  35   2.0000      -0.535250       -14.5649
  36   2.0000      -0.527271       -14.3478
  37   2.0000      -0.520514       -14.1639
  38   2.0000      -0.512768       -13.9531
  39   2.0000      -0.509528       -13.8650
  40   2.0000      -0.490683       -13.3522
  41   2.0000      -0.477660       -12.9978
  42   2.0000      -0.474796       -12.9199
  43   2.0000      -0.464654       -12.6439
  44   2.0000      -0.463315       -12.6075
  45   2.0000      -0.451833       -12.2950
  46   2.0000      -0.441435       -12.0121
  47   2.0000      -0.438574       -11.9342
  48   2.0000      -0.429578       -11.6894
  49   2.0000      -0.414450       -11.2778
  50   2.0000      -0.404495       -11.0069
  51   2.0000      -0.390965       -10.6387
  52   2.0000      -0.383942       -10.4476
  53   2.0000      -0.327911        -8.9229
  54   2.0000      -0.319390        -8.6910
  55   2.0000      -0.303490        -8.2584
  56   2.0000      -0.299910        -8.1610
  57   2.0000      -0.287763        -7.8304
  58   2.0000      -0.281264        -7.6536
  59   0.0000       0.017046         0.4638
  60   0.0000       0.019846         0.5400
  61   0.0000       0.046679         1.2702
  62   0.0000       0.067960         1.8493
  63   0.0000       0.106453         2.8967

MULLIKEN ATOMIC CHARGES
-----------------------
   0 N :   -0.636061
   1 C :   -0.161488
   2 C :    0.551625
   3 O :   -0.429223
   4 C :   -0.545962
   5 C :    0.162513
   6 C :   -0.263206
   7 C :   -0.296130
   8 C :   -0.203571
   9 C :   -0.207351
  10 C :   -0.233062
  11 H :    0.390457
  12 H :    0.261747
  13 H :    0.289395
  14 H :    0.224972
  15 H :    0.210133
  16 H :    0.231527
  17 H :    0.215934
  18 H :    0.217018
  19 H :    0.217768
  20 N :   -0.636706
  21 H :    0.361766
  22 C :   -0.491865
  23 H :    0.220200
  24 H :    0.256533
  25 H :    0.233429
  26 C :    0.521914
  27 O :   -0.446555
  28 C :   -0.746651
  29 H :    0.257855
  30 H :    0.249033
  31 H :    0.224012
Sum of atomic charges:   -0.0000000

LOEWDIN ATOMIC CHARGES
----------------------
   0 N :   -0.219681
   1 C :   -0.084896
   2 C :    0.113649
   3 O :   -0.270446
   4 C :   -0.226784
   5 C :   -0.049335
   6 C :   -0.130801
   7 C :   -0.135001
   8 C :   -0.131090
   9 C :   -0.135061
  10 C :   -0.138524
  11 H :    0.271970
  12 H :    0.143587
  13 H :    0.157569
  14 H :    0.129624
  15 H :    0.133778
  16 H :    0.140733
  17 H :    0.135320
  18 H :    0.135225
  19 H :    0.135078
  20 N :   -0.242756
  21 H :    0.256069
  22 C :   -0.253187
  23 H :    0.126969
  24 H :    0.146263
  25 H :    0.126845
  26 C :    0.105001
  27 O :   -0.295278
  28 C :   -0.386815
  29 H :    0.154511
  30 H :    0.153614
  31 H :    0.133852

  Mayer bond orders larger than 0.100000
B(  0-N ,  1-C ) :   0.9625 B(  0-N , 11-H ) :   0.7719 B(  0-N , 26-C ) :   1.1526
B(  1-C ,  2-C ) :   0.9168 B(  1-C ,  4-C ) :   0.9371 B(  1-C , 12-H ) :   0.8836
B(  2-C ,  3-O ) :   1.9595 B(  2-C , 20-N ) :   1.1231 B(  4-C ,  5-C ) :   0.9415
B(  4-C , 13-H ) :   0.8870 B(  4-C , 14-H ) :   0.9155 B(  5-C ,  6-C ) :   1.3940
B(  5-C ,  7-C ) :   1.4095 B(  6-C ,  8-C ) :   1.4298 B(  6-C , 15-H ) :   0.9187
B(  7-C ,  9-C ) :   1.4207 B(  7-C , 16-H ) :   0.9076 B(  8-C , 10-C ) :   1.4247
B(  8-C , 17-H ) :   0.9212 B(  9-C , 10-C ) :   1.4250 B(  9-C , 18-H ) :   0.9211
B( 10-C , 19-H ) :   0.9199 B( 20-N , 21-H ) :   0.8246 B( 20-N , 22-C ) :   0.9505
B( 22-C , 23-H ) :   0.9254 B( 22-C , 24-H ) :   0.9074 B( 22-C , 25-H ) :   0.9147
B( 26-C , 27-O ) :   1.9535 B( 26-C , 28-C ) :   0.9344 B( 28-C , 29-H ) :   0.9134
B( 28-C , 30-H ) :   0.9088 B( 28-C , 31-H ) :   0.9194

Dispersion correction           -0.021968134
FINAL SINGLE POINT ENERGY      -725.332890913767

DIPOLE MOMENT
-------------
                                X             Y             Z
Electronic contribution:     -0.57000      -1.80115       1.04241
Nuclear contribution   :      0.92832       2.97542      -0.98763
                        -----------------------------------------
Total Dipole Moment    :      0.35831       1.17426       0.05477
                        -----------------------------------------
Magnitude (a.u.)       :      1.22894
Magnitude (Debye)      :      3.12371

Rotational constants in cm-1:     0.018530     0.017132     0.010624
Rotational constants in MHz :   555.520056   513.611143   318.484623

                             ****ORCA TERMINATED NORMALLY****
TOTAL RUN TIME: 0 days 0 hours 4 minutes 5 seconds 818 msec
