                         Program Version 5.0.3 -  RELEASE  -
|  1> ! PBEh-3c def2/J TightSCF DefGrid3
|  2>
|  3> %maxcore 60000
|  4>
|  5> %pal
|  6> nprocs 4
|  7> end
|  8>
|  9> *xyzfile 0 1 228.xyz
| 10>
| 11>                          ****END OF INPUT****

CARTESIAN COORDINATES (ANGSTROEM)
---------------------------------
  C     -0.125010    1.397210    1.913740
  C      0.007990   -0.032420    1.379390
  N      0.028150   -0.049020   -0.151600
  H      0.986570   -0.049470   -0.531580
  H     -0.454840   -0.886040   -0.510630
  H     -0.451490    0.780830   -0.532050
  H     -0.834510   -0.668930    1.720700
  H      0.928130   -0.508880    1.709570
  H     -0.029120    1.368280    3.002980
  H      0.676250    2.066300    1.462180
  H     -1.110490    1.847370    1.695510
  O      2.124660   -0.082500   -1.835370
  N      1.393200    0.001190   -2.925420
  O      1.935420   -0.075870   -4.037530
  O      0.127250    0.187340   -2.795260

 Total Charge           Charge          ....    0
 Multiplicity           Mult            ....    1
 Number of Electrons    NEL             ....   58
 Basis Dimension        Dim             ....  121

ORBITAL ENERGIES
----------------

  NO   OCC          E(Eh)            E(eV)
   0   2.0000     -19.456278      -529.4322
   1   2.0000     -19.455786      -529.4189
   2   2.0000     -19.452975      -529.3424
   3   2.0000     -14.852900      -404.1680
   4   2.0000     -14.768644      -401.8752
   5   2.0000     -10.552801      -287.1563
   6   2.0000     -10.498600      -285.6814
   7   2.0000      -1.283811       -34.9343
   8   2.0000      -1.117513       -30.4091
   9   2.0000      -1.073807       -29.2198
  10   2.0000      -1.050023       -28.5726
  11   2.0000      -0.902144       -24.5486
  12   2.0000      -0.766783       -20.8652
  13   2.0000      -0.673436       -18.3251
  14   2.0000      -0.664444       -18.0804
  15   2.0000      -0.633337       -17.2340
  16   2.0000      -0.589292       -16.0355
  17   2.0000      -0.555890       -15.1265
  18   2.0000      -0.540621       -14.7111
  19   2.0000      -0.529533       -14.4093
  20   2.0000      -0.521261       -14.1842
  21   2.0000      -0.498308       -13.5597
  22   2.0000      -0.490252       -13.3404
  23   2.0000      -0.462484       -12.5848
  24   2.0000      -0.334588        -9.1046
  25   2.0000      -0.319058        -8.6820
  26   2.0000      -0.301742        -8.2108
  27   2.0000      -0.296497        -8.0681
  28   2.0000      -0.266408        -7.2493
  29   0.0000       0.047335         1.2881
  30   0.0000       0.054648         1.4870
  31   0.0000       0.098134         2.6704
  32   0.0000       0.103018         2.8033
  33   0.0000       0.125193         3.4067

MULLIKEN ATOMIC CHARGES
-----------------------
   0 C :   -0.670477
   1 C :   -0.305690
   2 N :   -0.792690
   3 H :    0.450588
   4 H :    0.429017
   5 H :    0.433658
   6 H :    0.252429
   7 H :    0.276339
   8 H :    0.259751
   9 H :    0.246715
  10 H :    0.238256
  11 O :   -0.538507
  12 N :    0.669452
  13 O :   -0.406094
  14 O :   -0.542748
Sum of atomic charges:    0.0000000

LOEWDIN ATOMIC CHARGES
----------------------
   0 C :   -0.374160
   1 C :   -0.153552
   2 N :   -0.252358
   3 H :    0.290161
   4 H :    0.296367
   5 H :    0.296788
   6 H :    0.138260
   7 H :    0.148787
   8 H :    0.153127
   9 H :    0.147741
  10 H :    0.138977
  11 O :   -0.432257
  12 N :    0.290756
  13 O :   -0.273495
  14 O :   -0.415142

  Mayer bond orders larger than 0.100000
B(  0-C ,  1-C ) :   0.9814 B(  0-C ,  8-H ) :   0.9103 B(  0-C ,  9-H ) :   0.9139
B(  0-C , 10-H ) :   0.9139 B(  1-C ,  2-N ) :   0.8560 B(  1-C ,  6-H ) :   0.9085
B(  1-C ,  7-H ) :   0.8971 B(  2-N ,  3-H ) :   0.5924 B(  2-N ,  4-H ) :   0.7951
B(  2-N ,  5-H ) :   0.7789 B(  3-H , 11-O ) :   0.2494 B( 11-O , 12-N ) :   1.3316
B( 11-O , 13-O ) :   0.1416 B( 11-O , 14-O ) :   0.1139 B( 12-N , 13-O ) :   1.6588
B( 12-N , 14-O ) :   1.4718 B( 13-O , 14-O ) :   0.1634

Dispersion correction           -0.005841236
FINAL SINGLE POINT ENERGY      -415.170837194502

DIPOLE MOMENT
-------------
                                X             Y             Z
Electronic contribution:      4.15309      -2.26170     -12.54170
Nuclear contribution   :     -6.16144       2.29488      16.75877
                        -----------------------------------------
Total Dipole Moment    :     -2.00836       0.03317       4.21707
                        -----------------------------------------
Magnitude (a.u.)       :      4.67100
Magnitude (Debye)      :     11.87275

Rotational constants in cm-1:     0.241118     0.029897     0.028684
Rotational constants in MHz :  7228.534768   896.289423   859.930709

                             ****ORCA TERMINATED NORMALLY****
TOTAL RUN TIME: 0 days 0 hours 1 minutes 25 seconds 848 msec
