                         Program Version 5.0.3 -  RELEASE  -
|  1> ! PBEh-3c def2/J TightSCF DefGrid3
|  2>
|  3> %maxcore 60000
|  4>
|  5> %pal
|  6> nprocs 4
|  7> end
|  8>
|  9> *xyzfile 0 1 pbh4_hi.xyz
| 10>
| 11>                          ****END OF INPUT****

CARTESIAN COORDINATES (ANGSTROEM)
---------------------------------
  Pb     0.000000    0.000000    1.413013
  H      0.000000    1.399218    0.405135
  H      0.000000   -1.399218    0.405135
  H      1.408654    0.000000    2.402176
  H     -1.408654    0.000000    2.402176
  H      0.000000    0.000000   -4.309724
  I      0.000000    0.000000   -2.717912

 Total Charge           Charge          ....    0
 Multiplicity           Mult            ....    1
 Number of Electrons    NEL             ....   52
 Basis Dimension        Dim             ....   62

ORBITAL ENERGIES
----------------

  NO   OCC          E(Eh)            E(eV)
   0   2.0000      -7.104602      -193.3261
   1   2.0000      -5.701795      -155.1537
   2   2.0000      -5.088283      -138.4592
   3   2.0000      -5.071502      -138.0026
   4   2.0000      -5.071422      -138.0004
   5   2.0000      -3.494270       -95.0839
   6   2.0000      -3.494130       -95.0801
   7   2.0000      -3.494091       -95.0790
   8   2.0000      -2.043360       -55.6026
   9   2.0000      -2.036798       -55.4241
  10   2.0000      -2.036726       -55.4221
  11   2.0000      -2.022226       -55.0276
  12   2.0000      -2.022226       -55.0276
  13   2.0000      -0.937439       -25.5090
  14   2.0000      -0.937316       -25.5057
  15   2.0000      -0.936978       -25.4965
  16   2.0000      -0.926067       -25.1996
  17   2.0000      -0.925693       -25.1894
  18   2.0000      -0.790334       -21.5061
  19   2.0000      -0.629776       -17.1371
  20   2.0000      -0.464640       -12.6435
  21   2.0000      -0.366595        -9.9756
  22   2.0000      -0.366018        -9.9599
  23   2.0000      -0.365754        -9.9527
  24   2.0000      -0.321149        -8.7389
  25   2.0000      -0.319390        -8.6910
  26   0.0000       0.002027         0.0552
  27   0.0000       0.049796         1.3550
  28   0.0000       0.073479         1.9995
  29   0.0000       0.075616         2.0576
  30   0.0000       0.086631         2.3573

MULLIKEN ATOMIC CHARGES
-----------------------
   0 Pb:   -0.028797
   1 H :    0.007349
   2 H :    0.007349
   3 H :    0.010510
   4 H :    0.010510
   5 H :    0.148694
   6 I :   -0.155615
Sum of atomic charges:   -0.0000000

LOEWDIN ATOMIC CHARGES
----------------------
   0 Pb:   -0.074259
   1 H :    0.016059
   2 H :    0.016059
   3 H :    0.017419
   4 H :    0.017419
   5 H :    0.096372
   6 I :   -0.089069

  Mayer bond orders larger than 0.100000
B(  0-Pb,  1-H ) :   0.9380 B(  0-Pb,  2-H ) :   0.9380 B(  0-Pb,  3-H ) :   0.9422
B(  0-Pb,  4-H ) :   0.9422 B(  5-H ,  6-I ) :   0.9521

Dispersion correction           -0.001895861
FINAL SINGLE POINT ENERGY      -493.517336186356

DIPOLE MOMENT
-------------
                                X             Y             Z
Electronic contribution:     -0.00000       0.00000      52.29692
Nuclear contribution   :      0.00000       0.00000     -52.46967
                        -----------------------------------------
Total Dipole Moment    :     -0.00000       0.00000      -0.17275
                        -----------------------------------------
Magnitude (a.u.)       :      0.17275
Magnitude (Debye)      :      0.43909

Rotational constants in cm-1:     2.121177     0.012232     0.012232
Rotational constants in MHz : 63591.287337   366.713085   366.698872

                             ****ORCA TERMINATED NORMALLY****
TOTAL RUN TIME: 0 days 0 hours 1 minutes 8 seconds 66 msec
