                         Program Version 5.0.3 -  RELEASE  -
|  1> ! PBEh-3c def2/J TightSCF DefGrid3
|  2>
|  3> %maxcore 60000
|  4>
|  5> %pal
|  6> nprocs 4
|  7> end
|  8>
|  9> *xyzfile 0 1 12_benF6-benB.xyz
| 10>
| 11>                          ****END OF INPUT****

CARTESIAN COORDINATES (ANGSTROEM)
---------------------------------
  H     -1.719266   -1.313071    3.235115
  H     -2.117120    1.131566    3.250807
  C      0.409478   -1.125980    3.476774
  C     -0.887014   -0.630037    3.342090
  C     -1.111190    0.746397    3.352791
  C     -0.039418    1.626443    3.499616
  C      1.256371    1.130101    3.634841
  C      1.481109   -0.245785    3.623479
  H     -0.213650    2.693767    3.507371
  H      2.087583    1.812594    3.746421
  H      0.583631   -2.193776    3.470689
  H      2.486380   -0.630785    3.727095

 Total Charge           Charge          ....    0
 Multiplicity           Mult            ....    1
 Number of Electrons    NEL             ....   42
 Basis Dimension        Dim             ....  102

ORBITAL ENERGIES
----------------

  NO   OCC          E(Eh)            E(eV)
   0   2.0000     -10.448943      -284.3302
   1   2.0000     -10.448716      -284.3240
   2   2.0000     -10.448690      -284.3233
   3   2.0000     -10.448106      -284.3074
   4   2.0000     -10.448098      -284.3072
   5   2.0000     -10.447852      -284.3005
   6   2.0000      -0.951804       -25.8999
   7   2.0000      -0.835340       -22.7307
   8   2.0000      -0.835308       -22.7299
   9   2.0000      -0.678921       -18.4744
  10   2.0000      -0.678906       -18.4740
  11   2.0000      -0.591835       -16.1047
  12   2.0000      -0.526037       -14.3142
  13   2.0000      -0.508290       -13.8313
  14   2.0000      -0.481744       -13.1089
  15   2.0000      -0.481703       -13.1078
  16   2.0000      -0.420665       -11.4469
  17   2.0000      -0.398371       -10.8402
  18   2.0000      -0.398303       -10.8384
  19   2.0000      -0.292411        -7.9569
  20   2.0000      -0.292377        -7.9560
  21   0.0000       0.019030         0.5178
  22   0.0000       0.019059         0.5186
  23   0.0000       0.140756         3.8302
  24   0.0000       0.195935         5.3317
  25   0.0000       0.201752         5.4899

MULLIKEN ATOMIC CHARGES
-----------------------
   0 H :    0.219906
   1 H :    0.219882
   2 C :   -0.220103
   3 C :   -0.219904
   4 C :   -0.220091
   5 C :   -0.219718
   6 C :   -0.219965
   7 C :   -0.219695
   8 H :    0.219951
   9 H :    0.219900
  10 H :    0.219891
  11 H :    0.219946
Sum of atomic charges:   -0.0000000

LOEWDIN ATOMIC CHARGES
----------------------
   0 H :    0.135727
   1 H :    0.135691
   2 C :   -0.135661
   3 C :   -0.135739
   4 C :   -0.135653
   5 C :   -0.135747
   6 C :   -0.135693
   7 C :   -0.135740
   8 H :    0.135719
   9 H :    0.135687
  10 H :    0.135692
  11 H :    0.135717

  Mayer bond orders larger than 0.100000
B(  0-H ,  3-C ) :   0.9200 B(  1-H ,  4-C ) :   0.9200 B(  2-C ,  3-C ) :   1.4263
B(  2-C ,  7-C ) :   1.4264 B(  2-C , 10-H ) :   0.9200 B(  3-C ,  4-C ) :   1.4263
B(  4-C ,  5-C ) :   1.4264 B(  5-C ,  6-C ) :   1.4264 B(  5-C ,  8-H ) :   0.9199
B(  6-C ,  7-C ) :   1.4264 B(  6-C ,  9-H ) :   0.9200 B(  7-C , 11-H ) :   0.9199

Dispersion correction           -0.005879498
FINAL SINGLE POINT ENERGY      -231.725751588666

DIPOLE MOMENT
-------------
                                X             Y             Z
Electronic contribution:      0.00143       0.00077      -0.00463
Nuclear contribution   :     -0.00154      -0.00073       0.00684
                        -----------------------------------------
Total Dipole Moment    :     -0.00011       0.00004       0.00221
                        -----------------------------------------
Magnitude (a.u.)       :      0.00221
Magnitude (Debye)      :      0.00563

Rotational constants in cm-1:     0.190258     0.190254     0.095128
Rotational constants in MHz :  5703.797038  5703.665665  2851.867640

                             ****ORCA TERMINATED NORMALLY****
TOTAL RUN TIME: 0 days 0 hours 1 minutes 19 seconds 116 msec
