                         Program Version 5.0.3 -  RELEASE  -
|  1> ! PBEh-3c def2/J TightSCF DefGrid3
|  2>
|  3> %maxcore 60000
|  4>
|  5> %pal
|  6> nprocs 4
|  7> end
|  8>
|  9> *xyzfile 0 1 05B.xyz
| 10>
| 11>                          ****END OF INPUT****

CARTESIAN COORDINATES (ANGSTROEM)
---------------------------------
  O     -0.476185   -0.219086   -0.963658
  H     -0.007396    0.395298   -1.533324
  C      0.032648   -0.062068    0.358059
  H     -0.520921   -0.750264    0.988190
  H      1.091645   -0.312506    0.414782
  H     -0.119791    0.948626    0.735951

 Total Charge           Charge          ....    0
 Multiplicity           Mult            ....    1
 Number of Electrons    NEL             ....   18
 Basis Dimension        Dim             ....   38

ORBITAL ENERGIES
----------------

  NO   OCC          E(Eh)            E(eV)
   0   2.0000     -19.481518      -530.1191
   1   2.0000     -10.472942      -284.9832
   2   2.0000      -1.115746       -30.3610
   3   2.0000      -0.761134       -20.7115
   4   2.0000      -0.565320       -15.3831
   5   2.0000      -0.498149       -13.5553
   6   2.0000      -0.479067       -13.0361
   7   2.0000      -0.388148       -10.5620
   8   2.0000      -0.325344        -8.8531
   9   0.0000       0.130555         3.5526
  10   0.0000       0.194501         5.2926
  11   0.0000       0.219555         5.9744
  12   0.0000       0.233700         6.3593
  13   0.0000       0.237363         6.4590

MULLIKEN ATOMIC CHARGES
-----------------------
   0 O :   -0.630493
   1 H :    0.412245
   2 C :   -0.370814
   3 H :    0.218918
   4 H :    0.185245
   5 H :    0.184900
Sum of atomic charges:    0.0000000

LOEWDIN ATOMIC CHARGES
----------------------
   0 O :   -0.427329
   1 H :    0.304894
   2 C :   -0.196801
   3 H :    0.122750
   4 H :    0.098302
   5 H :    0.098183

  Mayer bond orders larger than 0.100000
B(  0-O ,  1-H ) :   0.7977 B(  0-O ,  2-C ) :   1.0135 B(  2-C ,  3-H ) :   0.9250
B(  2-C ,  4-H ) :   0.9184 B(  2-C ,  5-H ) :   0.9186

Dispersion correction           -0.001080951
FINAL SINGLE POINT ENERGY      -115.466841050832

DIPOLE MOMENT
-------------
                                X             Y             Z
Electronic contribution:     -0.69991      -0.26877      -1.61582
Nuclear contribution   :      1.20618       0.72700       1.78926
                        -----------------------------------------
Total Dipole Moment    :      0.50627       0.45823       0.17344
                        -----------------------------------------
Magnitude (a.u.)       :      0.70453
Magnitude (Debye)      :      1.79077

Rotational constants in cm-1:     4.297050     0.824538     0.795870
Rotational constants in MHz : 128822.325334 24719.022781 23859.576321

                             ****ORCA TERMINATED NORMALLY****
TOTAL RUN TIME: 0 days 0 hours 1 minutes 3 seconds 53 msec
