                         Program Version 5.0.3 -  RELEASE  -
|  1> ! PBEh-3c def2/J TightSCF DefGrid3
|  2>
|  3> %maxcore 60000
|  4>
|  5> %pal
|  6> nprocs 4
|  7> end
|  8>
|  9> *xyzfile 0 1 Sumanene_TS.xyz
| 10>
| 11>                          ****END OF INPUT****

CARTESIAN COORDINATES (ANGSTROEM)
---------------------------------
  C      2.671712   -2.378643    0.000010
  C      3.396106   -1.122285    0.000003
  C      2.743385    0.130212    0.000012
  C      1.259913   -2.441722    0.000019
  C     -0.000002   -3.421572   -0.000002
  C     -0.725158    3.501719   -0.000005
  C     -1.483896    2.310148    0.000001
  C     -2.961520    1.711284    0.000002
  C      0.725162    3.501732   -0.000009
  C      1.483892    2.310151   -0.000005
  C      0.680798    1.198261    0.000019
  C     -0.680802    1.198264    0.000007
  C     -1.379234   -0.010989    0.000003
  C     -2.743398    0.130212   -0.000000
  C     -3.396116   -1.122284   -0.000007
  C     -2.671707   -2.378636   -0.000009
  C     -1.259912   -2.441718    0.000003
  C     -0.698491   -1.190466    0.000015
  C      0.698488   -1.190476    0.000037
  C      1.379221   -0.010994    0.000037
  C      2.961528    1.711281   -0.000007
  H      1.201011    4.474630   -0.000016
  H     -1.200977    4.474634   -0.000009
  H      4.476360   -1.198285   -0.000009
  H      3.280133   -3.274247   -0.000007
  H     -3.280118   -3.274246   -0.000021
  H     -4.476367   -1.198310   -0.000010
  H     -3.523094    2.035641    0.876822
  H     -3.523114    2.035647   -0.876803
  H      3.523087    2.035637   -0.876833
  H      3.523107    2.035658    0.876798
  H      0.000007   -4.070097   -0.876863
  H     -0.000004   -4.070139    0.876827

 Total Charge           Charge          ....    0
 Multiplicity           Mult            ....    1
 Number of Electrons    NEL             ....  138
 Basis Dimension        Dim             ....  339

ORBITAL ENERGIES
----------------

  NO   OCC          E(Eh)            E(eV)
   0   2.0000     -10.477311      -285.1021
   1   2.0000     -10.477110      -285.0967
   2   2.0000     -10.477101      -285.0964
   3   2.0000     -10.466075      -284.7964
   4   2.0000     -10.466024      -284.7950
   5   2.0000     -10.465874      -284.7909
   6   2.0000     -10.465843      -284.7901
   7   2.0000     -10.465827      -284.7896
   8   2.0000     -10.465735      -284.7871
   9   2.0000     -10.462765      -284.7063
  10   2.0000     -10.462762      -284.7062
  11   2.0000     -10.462744      -284.7057
  12   2.0000     -10.462404      -284.6965
  13   2.0000     -10.462404      -284.6965
  14   2.0000     -10.462398      -284.6963
  15   2.0000     -10.433599      -283.9127
  16   2.0000     -10.433406      -283.9074
  17   2.0000     -10.433388      -283.9069
  18   2.0000     -10.432628      -283.8862
  19   2.0000     -10.432622      -283.8861
  20   2.0000     -10.432309      -283.8776
  21   2.0000      -1.025878       -27.9156
  22   2.0000      -0.972609       -26.4660
  23   2.0000      -0.972524       -26.4637
  24   2.0000      -0.903632       -24.5891
  25   2.0000      -0.903577       -24.5876
  26   2.0000      -0.881952       -23.9991
  27   2.0000      -0.830214       -22.5913
  28   2.0000      -0.818803       -22.2808
  29   2.0000      -0.807407       -21.9707
  30   2.0000      -0.807256       -21.9666
  31   2.0000      -0.756948       -20.5976
  32   2.0000      -0.756867       -20.5954
  33   2.0000      -0.704757       -19.1774
  34   2.0000      -0.704622       -19.1738
  35   2.0000      -0.686947       -18.6928
  36   2.0000      -0.634654       -17.2698
  37   2.0000      -0.634547       -17.2669
  38   2.0000      -0.617131       -16.7930
  39   2.0000      -0.605565       -16.4783
  40   2.0000      -0.549757       -14.9596
  41   2.0000      -0.549703       -14.9582
  42   2.0000      -0.519544       -14.1375
  43   2.0000      -0.516698       -14.0601
  44   2.0000      -0.503364       -13.6972
  45   2.0000      -0.503253       -13.6942
  46   2.0000      -0.499834       -13.6012
  47   2.0000      -0.499788       -13.5999
  48   2.0000      -0.491091       -13.3633
  49   2.0000      -0.491045       -13.3620
  50   2.0000      -0.465354       -12.6629
  51   2.0000      -0.456351       -12.4179
  52   2.0000      -0.448063       -12.1924
  53   2.0000      -0.447774       -12.1845
  54   2.0000      -0.445320       -12.1178
  55   2.0000      -0.423987       -11.5373
  56   2.0000      -0.406678       -11.0663
  57   2.0000      -0.406604       -11.0643
  58   2.0000      -0.396104       -10.7785
  59   2.0000      -0.390505       -10.6262
  60   2.0000      -0.390443       -10.6245
  61   2.0000      -0.372722       -10.1423
  62   2.0000      -0.372718       -10.1422
  63   2.0000      -0.328760        -8.9460
  64   2.0000      -0.320536        -8.7222
  65   2.0000      -0.320429        -8.7193
  66   2.0000      -0.282155        -7.6778
  67   2.0000      -0.243819        -6.6346
  68   2.0000      -0.243733        -6.6323
  69   0.0000      -0.012066        -0.3283
  70   0.0000      -0.011977        -0.3259
  71   0.0000      -0.005370        -0.1461
  72   0.0000       0.046597         1.2680
  73   0.0000       0.046623         1.2687

MULLIKEN ATOMIC CHARGES
-----------------------
   0 C :   -0.356298
   1 C :   -0.356304
   2 C :    0.012163
   3 C :    0.012498
   4 C :   -0.567356
   5 C :   -0.356366
   6 C :    0.012978
   7 C :   -0.566659
   8 C :   -0.356342
   9 C :    0.012952
  10 C :    0.153872
  11 C :    0.153856
  12 C :    0.154880
  13 C :    0.012173
  14 C :   -0.356301
  15 C :   -0.356306
  16 C :    0.012504
  17 C :    0.154241
  18 C :    0.154266
  19 C :    0.154874
  20 C :   -0.566657
  21 H :    0.213633
  22 H :    0.213628
  23 H :    0.213682
  24 H :    0.213630
  25 H :    0.213631
  26 H :    0.213679
  27 H :    0.259237
  28 H :    0.259236
  29 H :    0.259237
  30 H :    0.259237
  31 H :    0.259251
  32 H :    0.259251
Sum of atomic charges:    0.0000000

LOEWDIN ATOMIC CHARGES
----------------------
   0 C :   -0.135389
   1 C :   -0.135386
   2 C :   -0.026107
   3 C :   -0.026089
   4 C :   -0.200637
   5 C :   -0.135348
   6 C :   -0.026267
   7 C :   -0.200708
   8 C :   -0.135351
   9 C :   -0.026264
  10 C :   -0.025696
  11 C :   -0.025693
  12 C :   -0.025664
  13 C :   -0.026106
  14 C :   -0.135387
  15 C :   -0.135388
  16 C :   -0.026089
  17 C :   -0.025731
  18 C :   -0.025734
  19 C :   -0.025663
  20 C :   -0.200710
  21 H :    0.134917
  22 H :    0.134916
  23 H :    0.134883
  24 H :    0.134889
  25 H :    0.134888
  26 H :    0.134883
  27 H :    0.152677
  28 H :    0.152676
  29 H :    0.152677
  30 H :    0.152677
  31 H :    0.152662
  32 H :    0.152661

  Mayer bond orders larger than 0.100000
B(  0-C ,  1-C ) :   1.4040 B(  0-C ,  3-C ) :   1.4342 B(  0-C , 24-H ) :   0.9244
B(  1-C ,  2-C ) :   1.4346 B(  1-C , 23-H ) :   0.9244 B(  2-C ,  3-C ) :   0.1018
B(  2-C , 19-C ) :   1.2475 B(  2-C , 20-C ) :   0.9776 B(  3-C ,  4-C ) :   0.9775
B(  3-C , 18-C ) :   1.2476 B(  4-C , 16-C ) :   0.9775 B(  4-C , 31-H ) :   0.8965
B(  4-C , 32-H ) :   0.8965 B(  5-C ,  6-C ) :   1.4347 B(  5-C ,  8-C ) :   1.4031
B(  5-C , 22-H ) :   0.9245 B(  6-C ,  7-C ) :   0.9772 B(  6-C ,  9-C ) :   0.1016
B(  6-C , 11-C ) :   1.2483 B(  7-C , 13-C ) :   0.9776 B(  7-C , 27-H ) :   0.8966
B(  7-C , 28-H ) :   0.8966 B(  8-C ,  9-C ) :   1.4347 B(  8-C , 21-H ) :   0.9245
B(  9-C , 10-C ) :   1.2483 B(  9-C , 20-C ) :   0.9772 B( 10-C , 11-C ) :   1.2049
B( 10-C , 19-C ) :   1.1172 B( 11-C , 12-C ) :   1.1172 B( 12-C , 13-C ) :   1.2475
B( 12-C , 17-C ) :   1.2047 B( 13-C , 14-C ) :   1.4345 B( 13-C , 16-C ) :   0.1018
B( 14-C , 15-C ) :   1.4040 B( 14-C , 26-H ) :   0.9244 B( 15-C , 16-C ) :   1.4343
B( 15-C , 25-H ) :   0.9244 B( 16-C , 17-C ) :   1.2476 B( 17-C , 18-C ) :   1.1173
B( 18-C , 19-C ) :   1.2047 B( 20-C , 29-H ) :   0.8966 B( 20-C , 30-H ) :   0.8966

Dispersion correction           -0.027621326
FINAL SINGLE POINT ENERGY      -805.630951177851

DIPOLE MOMENT
-------------
                                X             Y             Z
Electronic contribution:     -0.00004      -0.00737       0.00015
Nuclear contribution   :      0.00004       0.00918      -0.00018
                        -----------------------------------------
Total Dipole Moment    :      0.00001       0.00180      -0.00003
                        -----------------------------------------
Magnitude (a.u.)       :      0.00180
Magnitude (Debye)      :      0.00458

Rotational constants in cm-1:     0.014896     0.014893     0.007478
Rotational constants in MHz :   446.571973   446.483171   224.184814

                             ****ORCA TERMINATED NORMALLY****
TOTAL RUN TIME: 0 days 0 hours 4 minutes 41 seconds 309 msec
