                         Program Version 5.0.3 -  RELEASE  -
|  1> ! PBEh-3c def2/J TightSCF DefGrid3
|  2>
|  3> %maxcore 60000
|  4>
|  5> %pal
|  6> nprocs 4
|  7> end
|  8>
|  9> *xyzfile 0 1 pme3-ch2.xyz
| 10>
| 11>                          ****END OF INPUT****

CARTESIAN COORDINATES (ANGSTROEM)
---------------------------------
  C      1.809184    0.260190    0.000000
  P      0.150871    0.001558    0.000000
  H      2.338272    0.062089    0.923680
  H      2.338272    0.062089   -0.923680
  C     -0.613282    0.751370   -1.463964
  C     -0.613282    0.751370    1.463964
  C     -0.613282   -1.676752    0.000000
  H     -1.680384    0.537421   -1.500228
  H     -0.441483    1.824867   -1.442853
  H     -0.135094    0.336296   -2.350876
  H     -1.703681   -1.633379    0.000000
  H     -0.269018   -2.214200   -0.883416
  H     -0.269018   -2.214200    0.883416
  H     -1.680384    0.537421    1.500228
  H     -0.135094    0.336296    2.350876
  H     -0.441483    1.824867    1.442853

 Total Charge           Charge          ....    0
 Multiplicity           Mult            ....    1
 Number of Electrons    NEL             ....   50
 Basis Dimension        Dim             ....  100

ORBITAL ENERGIES
----------------

  NO   OCC          E(Eh)            E(eV)
   0   2.0000     -77.782657     -2116.5737
   1   2.0000     -10.441743      -284.1343
   2   2.0000     -10.441728      -284.1339
   3   2.0000     -10.431872      -283.8657
   4   2.0000     -10.360639      -281.9273
   5   2.0000      -6.847880      -186.3403
   6   2.0000      -4.940513      -134.4382
   7   2.0000      -4.939450      -134.4093
   8   2.0000      -4.938265      -134.3770
   9   2.0000      -0.879306       -23.9271
  10   2.0000      -0.792487       -21.5647
  11   2.0000      -0.781463       -21.2647
  12   2.0000      -0.726131       -19.7590
  13   2.0000      -0.584257       -15.8984
  14   2.0000      -0.506122       -13.7723
  15   2.0000      -0.500153       -13.6098
  16   2.0000      -0.500140       -13.6095
  17   2.0000      -0.479976       -13.0608
  18   2.0000      -0.465511       -12.6672
  19   2.0000      -0.452368       -12.3095
  20   2.0000      -0.428241       -11.6530
  21   2.0000      -0.397372       -10.8130
  22   2.0000      -0.384543       -10.4640
  23   2.0000      -0.383680       -10.4405
  24   2.0000      -0.195684        -5.3248
  25   0.0000       0.114179         3.1070
  26   0.0000       0.115007         3.1295
  27   0.0000       0.125826         3.4239
  28   0.0000       0.148856         4.0506
  29   0.0000       0.170700         4.6450

MULLIKEN ATOMIC CHARGES
-----------------------
   0 C :   -0.844630
   1 P :    0.742693
   2 H :    0.190960
   3 H :    0.190960
   4 C :   -0.829413
   5 C :   -0.829413
   6 C :   -0.837142
   7 H :    0.231916
   8 H :    0.265925
   9 H :    0.253764
  10 H :    0.220911
  11 H :    0.245931
  12 H :    0.245931
  13 H :    0.231916
  14 H :    0.253764
  15 H :    0.265925
Sum of atomic charges:   -0.0000000

LOEWDIN ATOMIC CHARGES
----------------------
   0 C :   -0.796656
   1 P :    0.802155
   2 H :    0.127423
   3 H :    0.127423
   4 C :   -0.511576
   5 C :   -0.511576
   6 C :   -0.546719
   7 H :    0.137912
   8 H :    0.154827
   9 H :    0.152119
  10 H :    0.131570
  11 H :    0.144120
  12 H :    0.144120
  13 H :    0.137912
  14 H :    0.152119
  15 H :    0.154827

  Mayer bond orders larger than 0.100000
B(  0-C ,  1-P ) :   1.5419 B(  0-C ,  2-H ) :   0.9207 B(  0-C ,  3-H ) :   0.9207
B(  1-P ,  4-C ) :   0.9751 B(  1-P ,  5-C ) :   0.9751 B(  1-P ,  6-C ) :   0.8699
B(  4-C ,  7-H ) :   0.9058 B(  4-C ,  8-H ) :   0.9030 B(  4-C ,  9-H ) :   0.9045
B(  5-C , 13-H ) :   0.9058 B(  5-C , 14-H ) :   0.9045 B(  5-C , 15-H ) :   0.9030
B(  6-C , 10-H ) :   0.9046 B(  6-C , 11-H ) :   0.9123 B(  6-C , 12-H ) :   0.9123

Dispersion correction           -0.007884201
FINAL SINGLE POINT ENERGY      -499.609583395873

DIPOLE MOMENT
-------------
                                X             Y             Z
Electronic contribution:      1.09198       0.26165      -0.00000
Nuclear contribution   :     -2.31646      -0.56476      -0.00000
                        -----------------------------------------
Total Dipole Moment    :     -1.22448      -0.30311      -0.00000
                        -----------------------------------------
Magnitude (a.u.)       :      1.26144
Magnitude (Debye)      :      3.20632

Rotational constants in cm-1:     0.122623     0.118733     0.109601
Rotational constants in MHz :  3676.136838  3559.538046  3285.751815

                             ****ORCA TERMINATED NORMALLY****
TOTAL RUN TIME: 0 days 0 hours 0 minutes 49 seconds 781 msec
