                         Program Version 5.0.3 -  RELEASE  -
|  1> ! PBEh-3c def2/J TightSCF DefGrid3
|  2>
|  3> %maxcore 60000
|  4>
|  5> %pal
|  6> nprocs 4
|  7> end
|  8>
|  9> *xyzfile 0 1 10b.xyz
| 10>
| 11>                          ****END OF INPUT****

CARTESIAN COORDINATES (ANGSTROEM)
---------------------------------
  C     -1.358640   -0.013282    0.000000
  C     -0.736496    1.204916    0.000000
  C      0.676209    1.297053    0.000000
  C      1.390688    0.137204    0.000000
  N      0.746653   -1.057778    0.000000
  C     -0.620122   -1.239442    0.000000
  S     -1.267411   -2.765670    0.000000
  H      1.280408   -1.916458    0.000000
  H     -1.332174    2.107087    0.000000
  H      1.186781    2.245772    0.000000
  H      2.468553    0.094763    0.000000
  H     -2.434449   -0.094166    0.000000

 Total Charge           Charge          ....    0
 Multiplicity           Mult            ....    1
 Number of Electrons    NEL             ....   58
 Basis Dimension        Dim             ....  118

ORBITAL ENERGIES
----------------

  NO   OCC          E(Eh)            E(eV)
   0   2.0000     -89.516144     -2435.8581
   1   2.0000     -14.721658      -400.5967
   2   2.0000     -10.536573      -286.7147
   3   2.0000     -10.526243      -286.4336
   4   2.0000     -10.485191      -285.3166
   5   2.0000     -10.471605      -284.9468
   6   2.0000     -10.467194      -284.8268
   7   2.0000      -8.156466      -221.9487
   8   2.0000      -6.047928      -164.5725
   9   2.0000      -6.043405      -164.4494
  10   2.0000      -6.039594      -164.3457
  11   2.0000      -1.111672       -30.2501
  12   2.0000      -0.930309       -25.3150
  13   2.0000      -0.903942       -24.5975
  14   2.0000      -0.788680       -21.4611
  15   2.0000      -0.746649       -20.3174
  16   2.0000      -0.709619       -19.3097
  17   2.0000      -0.638557       -17.3760
  18   2.0000      -0.580796       -15.8043
  19   2.0000      -0.564154       -15.3514
  20   2.0000      -0.536410       -14.5965
  21   2.0000      -0.505101       -13.7445
  22   2.0000      -0.482758       -13.1365
  23   2.0000      -0.440035       -11.9740
  24   2.0000      -0.404746       -11.0137
  25   2.0000      -0.369841       -10.0639
  26   2.0000      -0.354868        -9.6565
  27   2.0000      -0.246004        -6.6941
  28   2.0000      -0.237090        -6.4515
  29   0.0000      -0.036682        -0.9982
  30   0.0000      -0.000457        -0.0124
  31   0.0000       0.097702         2.6586
  32   0.0000       0.149510         4.0684
  33   0.0000       0.160143         4.3577

MULLIKEN ATOMIC CHARGES
-----------------------
   0 C :   -0.331560
   1 C :   -0.094885
   2 C :   -0.363444
   3 C :    0.069476
   4 N :   -0.617972
   5 C :    0.183785
   6 S :   -0.251902
   7 H :    0.386008
   8 H :    0.243462
   9 H :    0.243873
  10 H :    0.268943
  11 H :    0.264216
Sum of atomic charges:   -0.0000000

LOEWDIN ATOMIC CHARGES
----------------------
   0 C :   -0.154597
   1 C :   -0.091887
   2 C :   -0.196043
   3 C :   -0.027323
   4 N :   -0.120646
   5 C :   -0.102569
   6 S :   -0.185907
   7 H :    0.276923
   8 H :    0.147484
   9 H :    0.149349
  10 H :    0.147370
  11 H :    0.157847

  Mayer bond orders larger than 0.100000
B(  0-C ,  1-C ) :   1.5557 B(  0-C ,  5-C ) :   1.1409 B(  0-C , 11-H ) :   0.9082
B(  1-C ,  2-C ) :   1.2252 B(  1-C ,  8-H ) :   0.9144 B(  2-C ,  3-C ) :   1.5722
B(  2-C ,  9-H ) :   0.9122 B(  3-C ,  4-N ) :   1.1652 B(  3-C , 10-H ) :   0.8986
B(  4-N ,  5-C ) :   1.0575 B(  4-N ,  7-H ) :   0.7978 B(  5-C ,  6-S ) :   1.5560

Dispersion correction           -0.006873153
FINAL SINGLE POINT ENERGY      -645.480168838151

DIPOLE MOMENT
-------------
                                X             Y             Z
Electronic contribution:     -1.25520      -4.28515       0.00000
Nuclear contribution   :      2.68211       5.90327       0.00000
                        -----------------------------------------
Total Dipole Moment    :      1.42691       1.61812       0.00000
                        -----------------------------------------
Magnitude (a.u.)       :      2.15740
Magnitude (Debye)      :      5.48368

Rotational constants in cm-1:     0.192165     0.055294     0.042939
Rotational constants in MHz :  5760.975759  1657.667430  1287.267987

                             ****ORCA TERMINATED NORMALLY****
TOTAL RUN TIME: 0 days 0 hours 1 minutes 54 seconds 117 msec
