                         Program Version 5.0.3 -  RELEASE  -
|  1> ! PBEh-3c def2/J TightSCF DefGrid3
|  2>
|  3> %maxcore 60000
|  4>
|  5> %pal
|  6> nprocs 4
|  7> end
|  8>
|  9> *xyzfile 0 1 21.xyz
| 10>
| 11>                          ****END OF INPUT****

CARTESIAN COORDINATES (ANGSTROEM)
---------------------------------
  C     -2.044705    0.058051   -0.079642
  O     -1.460256    1.033023    0.398241
  N     -1.400577   -1.027070   -0.546466
  H     -0.380373   -1.070676   -0.513781
  H     -1.918583   -1.795724   -0.925228
  C     -3.551675    0.033874   -0.165078
  H     -3.955584    0.140417    0.838610
  H     -3.944383   -0.873490   -0.616372
  H     -3.878114    0.894471   -0.743365
  C      2.044646   -0.058239    0.079885
  O      1.460224   -1.032259   -0.399846
  N      1.400558    1.026504    0.547732
  H      0.380453    1.070942    0.513431
  H      1.918582    1.794465    0.927852
  C      3.551645   -0.033955    0.165110
  H      3.943516    0.865695    0.632294
  H      3.955201   -0.121500   -0.840670
  H      3.879424   -0.904529    0.727291

 Total Charge           Charge          ....    0
 Multiplicity           Mult            ....    1
 Number of Electrons    NEL             ....   64
 Basis Dimension        Dim             ....  140

ORBITAL ENERGIES
----------------

  NO   OCC          E(Eh)            E(eV)
   0   2.0000     -19.453892      -529.3673
   1   2.0000     -19.453869      -529.3667
   2   2.0000     -14.638795      -398.3419
   3   2.0000     -14.638788      -398.3417
   4   2.0000     -10.547512      -287.0124
   5   2.0000     -10.547502      -287.0121
   6   2.0000     -10.439008      -284.0599
   7   2.0000     -10.439004      -284.0597
   8   2.0000      -1.137540       -30.9540
   9   2.0000      -1.133031       -30.8313
  10   2.0000      -0.995862       -27.0988
  11   2.0000      -0.989941       -26.9377
  12   2.0000      -0.826185       -22.4816
  13   2.0000      -0.821499       -22.3541
  14   2.0000      -0.658178       -17.9099
  15   2.0000      -0.647195       -17.6111
  16   2.0000      -0.599417       -16.3110
  17   2.0000      -0.593489       -16.1496
  18   2.0000      -0.547185       -14.8896
  19   2.0000      -0.522570       -14.2198
  20   2.0000      -0.505545       -13.7566
  21   2.0000      -0.503889       -13.7115
  22   2.0000      -0.470133       -12.7930
  23   2.0000      -0.461335       -12.5536
  24   2.0000      -0.449689       -12.2367
  25   2.0000      -0.449044       -12.2191
  26   2.0000      -0.420255       -11.4357
  27   2.0000      -0.415693       -11.3116
  28   2.0000      -0.318810        -8.6753
  29   2.0000      -0.315023        -8.5722
  30   2.0000      -0.306798        -8.3484
  31   2.0000      -0.302324        -8.2267
  32   0.0000       0.067319         1.8318
  33   0.0000       0.072917         1.9842
  34   0.0000       0.128899         3.5075
  35   0.0000       0.137788         3.7494
  36   0.0000       0.185839         5.0569

MULLIKEN ATOMIC CHARGES
-----------------------
   0 C :    0.521703
   1 O :   -0.478281
   2 N :   -0.822899
   3 H :    0.437253
   4 H :    0.354879
   5 C :   -0.738414
   6 H :    0.256805
   7 H :    0.211919
   8 H :    0.257023
   9 C :    0.521692
  10 O :   -0.478227
  11 N :   -0.822895
  12 H :    0.437242
  13 H :    0.354881
  14 C :   -0.738445
  15 H :    0.211943
  16 H :    0.256676
  17 H :    0.257146
Sum of atomic charges:   -0.0000000

LOEWDIN ATOMIC CHARGES
----------------------
   0 C :    0.111009
   1 O :   -0.313373
   2 N :   -0.365900
   3 H :    0.268255
   4 H :    0.249682
   5 C :   -0.388550
   6 H :    0.156169
   7 H :    0.126558
   8 H :    0.156134
   9 C :    0.111007
  10 O :   -0.313299
  11 N :   -0.365928
  12 H :    0.268251
  13 H :    0.249680
  14 C :   -0.388560
  15 H :    0.126576
  16 H :    0.156191
  17 H :    0.156097

  Mayer bond orders larger than 0.100000
B(  0-C ,  1-O ) :   1.8527 B(  0-C ,  2-N ) :   1.2550 B(  0-C ,  5-C ) :   0.9366
B(  1-O ,  2-N ) :   0.1049 B(  1-O , 12-H ) :   0.1376 B(  2-N ,  3-H ) :   0.6703
B(  2-N ,  4-H ) :   0.8368 B(  3-H , 10-O ) :   0.1377 B(  5-C ,  6-H ) :   0.9097
B(  5-C ,  7-H ) :   0.9238 B(  5-C ,  8-H ) :   0.9100 B(  9-C , 10-O ) :   1.8528
B(  9-C , 11-N ) :   1.2550 B(  9-C , 14-C ) :   0.9366 B( 10-O , 11-N ) :   0.1049
B( 11-N , 12-H ) :   0.6703 B( 11-N , 13-H ) :   0.8368 B( 14-C , 15-H ) :   0.9238
B( 14-C , 16-H ) :   0.9096 B( 14-C , 17-H ) :   0.9101

Dispersion correction           -0.007588162
FINAL SINGLE POINT ENERGY      -417.558655203863

DIPOLE MOMENT
-------------
                                X             Y             Z
Electronic contribution:     -0.00005      -0.00007      -0.00048
Nuclear contribution   :      0.00027      -0.00002       0.00041
                        -----------------------------------------
Total Dipole Moment    :      0.00022      -0.00008      -0.00007
                        -----------------------------------------
Magnitude (a.u.)       :      0.00025
Magnitude (Debye)      :      0.00063

Rotational constants in cm-1:     0.178972     0.026670     0.023411
Rotational constants in MHz :  5365.437992   799.532125   701.836881

                             ****ORCA TERMINATED NORMALLY****
TOTAL RUN TIME: 0 days 0 hours 1 minutes 46 seconds 3 msec
