                         Program Version 5.0.3 -  RELEASE  -
|  1> ! PBEh-3c def2/J TightSCF DefGrid3
|  2>
|  3> %maxcore 60000
|  4>
|  5> %pal
|  6> nprocs 4
|  7> end
|  8>
|  9> *xyzfile 0 1 C3H7NH2.xyz
| 10>
| 11>                          ****END OF INPUT****

CARTESIAN COORDINATES (ANGSTROEM)
---------------------------------
  C     -1.253664   -0.662119   -1.067817
  H     -0.844184   -1.679199   -1.164704
  H     -1.027597   -0.123933   -2.000831
  H     -2.346417   -0.750194   -0.992519
  C     -0.668416    0.063970    0.145236
  H     -1.102482    1.072039    0.237277
  H     -0.944725   -0.476697    1.067686
  C      0.853260    0.195937    0.085331
  H      1.131780    0.756598   -0.822407
  H      1.297311   -0.816670   -0.022088
  N      1.358902    0.946927    1.244540
  H      1.172184    0.424326    2.104044
  H      2.374050    1.049016    1.186252

 Total Charge           Charge          ....    0
 Multiplicity           Mult            ....    1
 Number of Electrons    NEL             ....   34
 Basis Dimension        Dim             ....   78

ORBITAL ENERGIES
----------------

  NO   OCC          E(Eh)            E(eV)
   0   2.0000     -14.605640      -397.4397
   1   2.0000     -10.455267      -284.5023
   2   2.0000     -10.429693      -283.8064
   3   2.0000     -10.425004      -283.6788
   4   2.0000      -0.966332       -26.2952
   5   2.0000      -0.850026       -23.1304
   6   2.0000      -0.733436       -19.9578
   7   2.0000      -0.650632       -17.7046
   8   2.0000      -0.540341       -14.7034
   9   2.0000      -0.516420       -14.0525
  10   2.0000      -0.494818       -13.4647
  11   2.0000      -0.458141       -12.4666
  12   2.0000      -0.427795       -11.6409
  13   2.0000      -0.401109       -10.9147
  14   2.0000      -0.381315       -10.3761
  15   2.0000      -0.373977       -10.1764
  16   2.0000      -0.281925        -7.6716
  17   0.0000       0.134946         3.6721
  18   0.0000       0.148631         4.0445
  19   0.0000       0.186427         5.0729
  20   0.0000       0.204135         5.5548
  21   0.0000       0.207708         5.6520

MULLIKEN ATOMIC CHARGES
-----------------------
   0 C :   -0.641286
   1 H :    0.206258
   2 H :    0.209228
   3 H :    0.220239
   4 C :   -0.416025
   5 H :    0.225276
   6 H :    0.195544
   7 C :   -0.256223
   8 H :    0.202734
   9 H :    0.169934
  10 N :   -0.738850
  11 H :    0.307544
  12 H :    0.315626
Sum of atomic charges:    0.0000000

LOEWDIN ATOMIC CHARGES
----------------------
   0 C :   -0.363512
   1 H :    0.122249
   2 H :    0.123768
   3 H :    0.128028
   4 C :   -0.253882
   5 H :    0.129343
   6 H :    0.115524
   7 C :   -0.163729
   8 H :    0.114773
   9 H :    0.088008
  10 N :   -0.479041
  11 H :    0.217818
  12 H :    0.220655

  Mayer bond orders larger than 0.100000
B(  0-C ,  1-H ) :   0.9288 B(  0-C ,  2-H ) :   0.9289 B(  0-C ,  3-H ) :   0.9313
B(  0-C ,  4-C ) :   0.9857 B(  4-C ,  5-H ) :   0.9123 B(  4-C ,  6-H ) :   0.9224
B(  4-C ,  7-C ) :   0.9829 B(  7-C ,  8-H ) :   0.9141 B(  7-C ,  9-H ) :   0.9075
B(  7-C , 10-N ) :   1.0319 B( 10-N , 11-H ) :   0.8655 B( 10-N , 12-H ) :   0.8643

Dispersion correction           -0.004626542
FINAL SINGLE POINT ENERGY      -174.100495551911

DIPOLE MOMENT
-------------
                                X             Y             Z
Electronic contribution:      1.37869       1.18063       1.41959
Nuclear contribution   :     -1.10856      -1.63265      -1.37086
                        -----------------------------------------
Total Dipole Moment    :      0.27012      -0.45202       0.04872
                        -----------------------------------------
Magnitude (a.u.)       :      0.52883
Magnitude (Debye)      :      1.34418

Rotational constants in cm-1:     0.837245     0.123272     0.115393
Rotational constants in MHz : 25099.959054  3695.609440  3459.406198

                             ****ORCA TERMINATED NORMALLY****
TOTAL RUN TIME: 0 days 0 hours 1 minutes 19 seconds 283 msec
