                         Program Version 5.0.3 -  RELEASE  -
|  1> ! PBEh-3c def2/J TightSCF DefGrid3
|  2>
|  3> %maxcore 60000
|  4>
|  5> %pal
|  6> nprocs 4
|  7> end
|  8>
|  9> *xyzfile 0 1 C4H9NO2.xyz
| 10>
| 11>                          ****END OF INPUT****

CARTESIAN COORDINATES (ANGSTROEM)
---------------------------------
  C     -1.716335    0.485764   -1.633461
  H     -1.319340   -0.148996   -2.439354
  H     -1.414130    1.521689   -1.847085
  H     -2.813217    0.440904   -1.681457
  C     -1.202066    0.029993   -0.265487
  H     -1.643472    0.662110    0.523066
  H     -1.550509   -0.997101   -0.064092
  C      0.329303    0.077830   -0.166251
  H      0.684665    1.101988   -0.360700
  H      0.778640   -0.559147   -0.941563
  C      0.809282   -0.372844    1.201703
  H      0.527893   -1.413686    1.420377
  H      0.434481    0.252052    2.021808
  N      2.326001   -0.356508    1.363687
  O      2.748031   -0.410405    2.518645
  O      3.020773   -0.313642    0.350164

 Total Charge           Charge          ....    0
 Multiplicity           Mult            ....    1
 Number of Electrons    NEL             ....   56
 Basis Dimension        Dim             ....  123

ORBITAL ENERGIES
----------------

  NO   OCC          E(Eh)            E(eV)
   0   2.0000     -19.532979      -531.5194
   1   2.0000     -19.529172      -531.4158
   2   2.0000     -14.882002      -404.9599
   3   2.0000     -10.510658      -286.0096
   4   2.0000     -10.462218      -284.6914
   5   2.0000     -10.459015      -284.6043
   6   2.0000     -10.441768      -284.1349
   7   2.0000      -1.340358       -36.4730
   8   2.0000      -1.160440       -31.5772
   9   2.0000      -0.934513       -25.4294
  10   2.0000      -0.870302       -23.6821
  11   2.0000      -0.778043       -21.1716
  12   2.0000      -0.686666       -18.6851
  13   2.0000      -0.671141       -18.2627
  14   2.0000      -0.612879       -16.6773
  15   2.0000      -0.606052       -16.4915
  16   2.0000      -0.580329       -15.7916
  17   2.0000      -0.548183       -14.9168
  18   2.0000      -0.507937       -13.8217
  19   2.0000      -0.492343       -13.3973
  20   2.0000      -0.464048       -12.6274
  21   2.0000      -0.431627       -11.7452
  22   2.0000      -0.423953       -11.5364
  23   2.0000      -0.407749       -11.0954
  24   2.0000      -0.395875       -10.7723
  25   2.0000      -0.361515        -9.8373
  26   2.0000      -0.360079        -9.7982
  27   2.0000      -0.354138        -9.6366
  28   0.0000      -0.034184        -0.9302
  29   0.0000       0.113841         3.0978
  30   0.0000       0.128146         3.4870
  31   0.0000       0.149396         4.0653
  32   0.0000       0.163711         4.4548

MULLIKEN ATOMIC CHARGES
-----------------------
   0 C :   -0.634931
   1 H :    0.216534
   2 H :    0.215801
   3 H :    0.226147
   4 C :   -0.421556
   5 H :    0.212068
   6 H :    0.211772
   7 C :   -0.438717
   8 H :    0.233900
   9 H :    0.244946
  10 C :   -0.302090
  11 H :    0.265037
  12 H :    0.264109
  13 N :    0.414039
  14 O :   -0.354283
  15 O :   -0.352777
Sum of atomic charges:    0.0000000

LOEWDIN ATOMIC CHARGES
----------------------
   0 C :   -0.359129
   1 H :    0.127866
   2 H :    0.127558
   3 H :    0.131119
   4 C :   -0.244359
   5 H :    0.122872
   6 H :    0.122920
   7 C :   -0.255919
   8 H :    0.136316
   9 H :    0.141471
  10 C :   -0.170122
  11 H :    0.152884
  12 H :    0.150358
  13 N :    0.250379
  14 O :   -0.220981
  15 O :   -0.213234

  Mayer bond orders larger than 0.100000
B(  0-C ,  1-H ) :   0.9266 B(  0-C ,  2-H ) :   0.9268 B(  0-C ,  3-H ) :   0.9290
B(  0-C ,  4-C ) :   0.9955 B(  4-C ,  5-H ) :   0.9167 B(  4-C ,  6-H ) :   0.9169
B(  4-C ,  7-C ) :   0.9641 B(  7-C ,  8-H ) :   0.9101 B(  7-C ,  9-H ) :   0.9034
B(  7-C , 10-C ) :   0.9651 B( 10-C , 11-H ) :   0.8894 B( 10-C , 12-H ) :   0.8920
B( 10-C , 13-N ) :   0.7903 B( 13-N , 14-O ) :   1.6502 B( 13-N , 15-O ) :   1.6600
B( 14-O , 15-O ) :   0.2813

Dispersion correction           -0.006844168
FINAL SINGLE POINT ENERGY      -362.175551955307

DIPOLE MOMENT
-------------
                                X             Y             Z
Electronic contribution:     12.26025      -1.83395       6.96433
Nuclear contribution   :    -13.81275       1.86775      -7.32309
                        -----------------------------------------
Total Dipole Moment    :     -1.55250       0.03380      -0.35877
                        -----------------------------------------
Magnitude (a.u.)       :      1.59377
Magnitude (Debye)      :      4.05104

Rotational constants in cm-1:     0.272884     0.036012     0.032737
Rotational constants in MHz :  8180.871495  1079.600860   981.428733

                             ****ORCA TERMINATED NORMALLY****
TOTAL RUN TIME: 0 days 0 hours 1 minutes 53 seconds 13 msec
