                         Program Version 5.0.3 -  RELEASE  -
|  1> ! PBEh-3c def2/J TightSCF DefGrid3
|  2>
|  3> %maxcore 60000
|  4>
|  5> %pal
|  6> nprocs 4
|  7> end
|  8>
|  9> *xyzfile 0 1 40B.xyz
| 10>
| 11>                          ****END OF INPUT****

CARTESIAN COORDINATES (ANGSTROEM)
---------------------------------
  C      0.000000    0.000000    0.000000
  C      0.881411   -0.881411   -0.881411
  H      1.522023   -1.522023   -0.276862
  H      0.276862   -1.522023   -1.522023
  H      1.522023   -0.276862   -1.522023
  C     -0.881411   -0.881411    0.881411
  H     -1.522023   -0.276862    1.522023
  H     -1.522023   -1.522023    0.276862
  H     -0.276862   -1.522023    1.522023
  C     -0.881411    0.881411   -0.881411
  H     -1.522023    1.522023   -0.276862
  H     -1.522023    0.276862   -1.522023
  H     -0.276862    1.522023   -1.522023
  C      0.881411    0.881411    0.881411
  H      1.522023    1.522023    0.276862
  H      0.276862    1.522023    1.522023
  H      1.522023    0.276862    1.522023

 Total Charge           Charge          ....    0
 Multiplicity           Mult            ....    1
 Number of Electrons    NEL             ....   42
 Basis Dimension        Dim             ....   99

ORBITAL ENERGIES
----------------

  NO   OCC          E(Eh)            E(eV)
   0   2.0000     -10.446134      -284.2538
   1   2.0000     -10.416592      -283.4499
   2   2.0000     -10.416592      -283.4499
   3   2.0000     -10.416592      -283.4499
   4   2.0000     -10.416480      -283.4468
   5   2.0000      -0.913879       -24.8679
   6   2.0000      -0.762547       -20.7499
   7   2.0000      -0.762547       -20.7499
   8   2.0000      -0.762547       -20.7499
   9   2.0000      -0.597561       -16.2605
  10   2.0000      -0.505206       -13.7473
  11   2.0000      -0.505205       -13.7473
  12   2.0000      -0.505205       -13.7473
  13   2.0000      -0.452363       -12.3094
  14   2.0000      -0.452363       -12.3094
  15   2.0000      -0.411308       -11.1923
  16   2.0000      -0.411308       -11.1923
  17   2.0000      -0.411308       -11.1923
  18   2.0000      -0.365088        -9.9345
  19   2.0000      -0.365088        -9.9345
  20   2.0000      -0.365088        -9.9345
  21   0.0000       0.118702         3.2300
  22   0.0000       0.187560         5.1038
  23   0.0000       0.187560         5.1038
  24   0.0000       0.187560         5.1038
  25   0.0000       0.219285         5.9671

MULLIKEN ATOMIC CHARGES
-----------------------
   0 C :   -0.111530
   1 C :   -0.606952
   2 H :    0.211611
   3 H :    0.211611
   4 H :    0.211611
   5 C :   -0.606951
   6 H :    0.211611
   7 H :    0.211611
   8 H :    0.211611
   9 C :   -0.606952
  10 H :    0.211611
  11 H :    0.211611
  12 H :    0.211611
  13 C :   -0.606951
  14 H :    0.211611
  15 H :    0.211611
  16 H :    0.211611
Sum of atomic charges:   -0.0000000

LOEWDIN ATOMIC CHARGES
----------------------
   0 C :   -0.115845
   1 C :   -0.343771
   2 H :    0.124244
   3 H :    0.124244
   4 H :    0.124244
   5 C :   -0.343770
   6 H :    0.124244
   7 H :    0.124244
   8 H :    0.124244
   9 C :   -0.343770
  10 H :    0.124244
  11 H :    0.124244
  12 H :    0.124244
  13 C :   -0.343770
  14 H :    0.124244
  15 H :    0.124244
  16 H :    0.124244

  Mayer bond orders larger than 0.100000
B(  0-C ,  1-C ) :   0.9829 B(  0-C ,  5-C ) :   0.9829 B(  0-C ,  9-C ) :   0.9829
B(  0-C , 13-C ) :   0.9829 B(  1-C ,  2-H ) :   0.9304 B(  1-C ,  3-H ) :   0.9304
B(  1-C ,  4-H ) :   0.9304 B(  5-C ,  6-H ) :   0.9304 B(  5-C ,  7-H ) :   0.9304
B(  5-C ,  8-H ) :   0.9304 B(  9-C , 10-H ) :   0.9304 B(  9-C , 11-H ) :   0.9304
B(  9-C , 12-H ) :   0.9304 B( 13-C , 14-H ) :   0.9304 B( 13-C , 15-H ) :   0.9304
B( 13-C , 16-H ) :   0.9304

Dispersion correction           -0.007723412
FINAL SINGLE POINT ENERGY      -197.340848714257

DIPOLE MOMENT
-------------
                                X             Y             Z
Electronic contribution:      0.00000       0.00000      -0.00000
Nuclear contribution   :     -0.00000      -0.00000      -0.00000
                        -----------------------------------------
Total Dipole Moment    :      0.00000       0.00000      -0.00000
                        -----------------------------------------
Magnitude (a.u.)       :      0.00000
Magnitude (Debye)      :      0.00000

Rotational constants in cm-1:     0.149674     0.149674     0.149674
Rotational constants in MHz :  4487.123614  4487.123614  4487.123614

                             ****ORCA TERMINATED NORMALLY****
TOTAL RUN TIME: 0 days 0 hours 1 minutes 8 seconds 586 msec
