                         Program Version 5.0.3 -  RELEASE  -
|  1> ! PBEh-3c def2/J TightSCF DefGrid3
|  2>
|  3> %maxcore 60000
|  4>
|  5> %pal
|  6> nprocs 4
|  7> end
|  8>
|  9> *xyzfile 0 1 P9.xyz
| 10>
| 11>                          ****END OF INPUT****

CARTESIAN COORDINATES (ANGSTROEM)
---------------------------------
  C      0.822368    0.045674   -1.123770
  C     -0.514966    0.773094   -0.764331
  C     -0.514966    0.773094    0.764331
  C      0.822368    0.045674    1.123770
  C      0.674735   -1.387048   -0.666443
  C      0.674735   -1.387048    0.666443
  C      1.709105    0.602825    0.000000
  C     -1.764414    0.022527   -1.141594
  C     -1.764414    0.022527    1.141594
  O     -2.432121   -0.365873    0.000000
  O     -2.183471   -0.239252    2.220812
  O     -2.183471   -0.239252   -2.220812
  H      1.141079    0.200006   -2.151979
  H     -0.547708    1.765679   -1.216216
  H     -0.547708    1.765679    1.216216
  H      1.141079    0.200006    2.151979
  H      0.490204   -2.227732   -1.322171
  H      0.490204   -2.227732    1.322171
  H      1.780086    1.694105    0.000000
  H      2.707276    0.163045    0.000000

 Total Charge           Charge          ....    0
 Multiplicity           Mult            ....    1
 Number of Electrons    NEL             ....   86
 Basis Dimension        Dim             ....  196

ORBITAL ENERGIES
----------------

  NO   OCC          E(Eh)            E(eV)
   0   2.0000     -19.571018      -532.5545
   1   2.0000     -19.507521      -530.8266
   2   2.0000     -19.507497      -530.8260
   3   2.0000     -10.599637      -288.4308
   4   2.0000     -10.599585      -288.4294
   5   2.0000     -10.488590      -285.4090
   6   2.0000     -10.488358      -285.4027
   7   2.0000     -10.483627      -285.2740
   8   2.0000     -10.483577      -285.2726
   9   2.0000     -10.466247      -284.8011
  10   2.0000     -10.464653      -284.7577
  11   2.0000     -10.463662      -284.7307
  12   2.0000      -1.263996       -34.3951
  13   2.0000      -1.192175       -32.4407
  14   2.0000      -1.149612       -31.2825
  15   2.0000      -1.028231       -27.9796
  16   2.0000      -0.898344       -24.4452
  17   2.0000      -0.852662       -23.2021
  18   2.0000      -0.825529       -22.4638
  19   2.0000      -0.766335       -20.8530
  20   2.0000      -0.708302       -19.2739
  21   2.0000      -0.680057       -18.5053
  22   2.0000      -0.647976       -17.6323
  23   2.0000      -0.621640       -16.9157
  24   2.0000      -0.620944       -16.8967
  25   2.0000      -0.583853       -15.8875
  26   2.0000      -0.557050       -15.1581
  27   2.0000      -0.538469       -14.6525
  28   2.0000      -0.526634       -14.3304
  29   2.0000      -0.507275       -13.8036
  30   2.0000      -0.493119       -13.4185
  31   2.0000      -0.485468       -13.2103
  32   2.0000      -0.483802       -13.1649
  33   2.0000      -0.454637       -12.3713
  34   2.0000      -0.447299       -12.1716
  35   2.0000      -0.432218       -11.7612
  36   2.0000      -0.418317       -11.3830
  37   2.0000      -0.416844       -11.3429
  38   2.0000      -0.393152       -10.6982
  39   2.0000      -0.386810       -10.5256
  40   2.0000      -0.362074        -9.8525
  41   2.0000      -0.339041        -9.2258
  42   2.0000      -0.314575        -8.5600
  43   0.0000       0.001277         0.0347
  44   0.0000       0.018611         0.5064
  45   0.0000       0.026425         0.7191
  46   0.0000       0.120510         3.2792
  47   0.0000       0.150797         4.1034

MULLIKEN ATOMIC CHARGES
-----------------------
   0 C :   -0.268476
   1 C :   -0.410987
   2 C :   -0.410987
   3 C :   -0.268476
   4 C :   -0.198471
   5 C :   -0.198470
   6 C :   -0.407283
   7 C :    0.582982
   8 C :    0.582982
   9 O :   -0.428370
  10 O :   -0.322473
  11 O :   -0.322473
  12 H :    0.247517
  13 H :    0.296850
  14 H :    0.296850
  15 H :    0.247517
  16 H :    0.247031
  17 H :    0.247031
  18 H :    0.227758
  19 H :    0.259951
Sum of atomic charges:   -0.0000000

LOEWDIN ATOMIC CHARGES
----------------------
   0 C :   -0.121274
   1 C :   -0.170529
   2 C :   -0.170529
   3 C :   -0.121274
   4 C :   -0.136495
   5 C :   -0.136495
   6 C :   -0.203072
   7 C :    0.162708
   8 C :    0.162708
   9 O :   -0.117404
  10 O :   -0.154785
  11 O :   -0.154785
  12 H :    0.139246
  13 H :    0.162460
  14 H :    0.162460
  15 H :    0.139246
  16 H :    0.145705
  17 H :    0.145705
  18 H :    0.125303
  19 H :    0.141101

  Mayer bond orders larger than 0.100000
B(  0-C ,  1-C ) :   0.9366 B(  0-C ,  4-C ) :   0.9819 B(  0-C ,  6-C ) :   0.9478
B(  0-C , 12-H ) :   0.9211 B(  1-C ,  2-C ) :   0.9318 B(  1-C ,  7-C ) :   0.9332
B(  1-C , 13-H ) :   0.8816 B(  2-C ,  3-C ) :   0.9366 B(  2-C ,  8-C ) :   0.9332
B(  2-C , 14-H ) :   0.8816 B(  3-C ,  5-C ) :   0.9819 B(  3-C ,  6-C ) :   0.9478
B(  3-C , 15-H ) :   0.9211 B(  4-C ,  5-C ) :   1.8569 B(  4-C , 16-H ) :   0.9169
B(  5-C , 17-H ) :   0.9169 B(  6-C , 18-H ) :   0.9173 B(  6-C , 19-H ) :   0.9142
B(  7-C ,  9-O ) :   1.0075 B(  7-C , 11-O ) :   2.1595 B(  8-C ,  9-O ) :   1.0075
B(  8-C , 10-O ) :   2.1595

Dispersion correction           -0.013889105
FINAL SINGLE POINT ENERGY      -572.222620043986

DIPOLE MOMENT
-------------
                                X             Y             Z
Electronic contribution:     -8.97825      -1.23967      -0.00000
Nuclear contribution   :     10.75696       2.06759       0.00000
                        -----------------------------------------
Total Dipole Moment    :      1.77871       0.82793      -0.00000
                        -----------------------------------------
Magnitude (a.u.)       :      1.96195
Magnitude (Debye)      :      4.98689

Rotational constants in cm-1:     0.048681     0.039216     0.027929
Rotational constants in MHz :  1459.431191  1175.667765   837.295580

                             ****ORCA TERMINATED NORMALLY****
TOTAL RUN TIME: 0 days 0 hours 2 minutes 8 seconds 406 msec
