                         Program Version 5.0.3 -  RELEASE  -
|  1> ! PBEh-3c def2/J TightSCF DefGrid3
|  2>
|  3> %maxcore 60000
|  4>
|  5> %pal
|  6> nprocs 4
|  7> end
|  8>
|  9> *xyzfile 0 1 ed10.xyz
| 10>
| 11>                          ****END OF INPUT****

CARTESIAN COORDINATES (ANGSTROEM)
---------------------------------
  C     -0.000000    0.000000   -0.486141
  C      0.000000    0.000000    0.965375
  N      0.000000    0.000000    2.114543
  H     -0.510215    0.883718   -0.864592
  H     -0.510215   -0.883718   -0.864592
  H      1.020429    0.000000   -0.864592

 Total Charge           Charge          ....    0
 Multiplicity           Mult            ....    1
 Number of Electrons    NEL             ....   22
 Basis Dimension        Dim             ....   51

ORBITAL ENERGIES
----------------

  NO   OCC          E(Eh)            E(eV)
   0   2.0000     -14.641567      -398.4173
   1   2.0000     -10.491345      -285.4840
   2   2.0000     -10.490599      -285.4637
   3   2.0000      -1.011606       -27.5272
   4   2.0000      -0.868350       -23.6290
   5   2.0000      -0.583651       -15.8820
   6   2.0000      -0.526733       -14.3331
   7   2.0000      -0.526733       -14.3331
   8   2.0000      -0.425926       -11.5900
   9   2.0000      -0.383225       -10.4281
  10   2.0000      -0.383225       -10.4281
  11   0.0000       0.070635         1.9221
  12   0.0000       0.070635         1.9221
  13   0.0000       0.136474         3.7137
  14   0.0000       0.212865         5.7924
  15   0.0000       0.214010         5.8235

MULLIKEN ATOMIC CHARGES
-----------------------
   0 C :   -0.725341
   1 C :    0.086868
   2 N :   -0.191403
   3 H :    0.276627
   4 H :    0.276627
   5 H :    0.276622
Sum of atomic charges:   -0.0000000

LOEWDIN ATOMIC CHARGES
----------------------
   0 C :   -0.381319
   1 C :   -0.030998
   2 N :   -0.091398
   3 H :    0.167905
   4 H :    0.167905
   5 H :    0.167904

  Mayer bond orders larger than 0.100000
B(  0-C ,  1-C ) :   0.9684 B(  0-C ,  3-H ) :   0.8968 B(  0-C ,  4-H ) :   0.8968
B(  0-C ,  5-H ) :   0.8968 B(  1-C ,  2-N ) :   3.1841

Dispersion correction           -0.001535285
FINAL SINGLE POINT ENERGY      -132.453974340605

DIPOLE MOMENT
-------------
                                X             Y             Z
Electronic contribution:     -0.00000       0.00000       3.13989
Nuclear contribution   :      0.00000       0.00000      -4.67214
                        -----------------------------------------
Total Dipole Moment    :     -0.00000       0.00000      -1.53226
                        -----------------------------------------
Magnitude (a.u.)       :      1.53226
Magnitude (Debye)      :      3.89469

Rotational constants in cm-1:     5.353640     0.310143     0.310143
Rotational constants in MHz : 160498.095498  9297.863381  9297.863371

                             ****ORCA TERMINATED NORMALLY****
TOTAL RUN TIME: 0 days 0 hours 1 minutes 41 seconds 581 msec
