                         Program Version 5.0.3 -  RELEASE  -
|  1> ! PBEh-3c def2/J TightSCF DefGrid3
|  2>
|  3> %maxcore 60000
|  4>
|  5> %pal
|  6> nprocs 4
|  7> end
|  8>
|  9> *xyzfile 0 1 GLY_xac.xyz
| 10>
| 11>                          ****END OF INPUT****

CARTESIAN COORDINATES (ANGSTROEM)
---------------------------------
  C      1.465338   -3.065334    1.113105
  H      2.466189   -2.676933    1.296814
  H      1.249666   -3.868433    1.810330
  N      1.436709   -3.594122   -0.239143
  H      0.852578   -4.386419   -0.438231
  C      0.423234   -1.971554    1.334670
  O     -0.569036   -2.158284    2.030573
  C      2.073371   -2.972235   -1.260630
  O      2.705221   -1.928218   -1.099434
  N      0.711371   -0.816499    0.692247
  H      1.518158   -0.823100    0.081007
  C     -0.198644    0.307118    0.704012
  H      0.351784    1.233566    0.847851
  H     -0.769132    0.374481   -0.222278
  H     -0.890109    0.165776    1.528776
  C      1.976219   -3.643769   -2.605978
  H      1.380016   -4.552516   -2.592415
  H      2.982236   -3.879933   -2.944344
  H      1.546734   -2.939899   -3.314534

 Total Charge           Charge          ....    0
 Multiplicity           Mult            ....    1
 Number of Electrons    NEL             ....   70
 Basis Dimension        Dim             ....  155

ORBITAL ENERGIES
----------------

  NO   OCC          E(Eh)            E(eV)
   0   2.0000     -19.473849      -529.9104
   1   2.0000     -19.450005      -529.2615
   2   2.0000     -14.683286      -399.5525
   3   2.0000     -14.647826      -398.5876
   4   2.0000     -10.566145      -287.5194
   5   2.0000     -10.538355      -286.7632
   6   2.0000     -10.485907      -285.3360
   7   2.0000     -10.457408      -284.5605
   8   2.0000     -10.455372      -284.5051
   9   2.0000      -1.160238       -31.5717
  10   2.0000      -1.132689       -30.8220
  11   2.0000      -1.040631       -28.3170
  12   2.0000      -1.010414       -27.4948
  13   2.0000      -0.864843       -23.5336
  14   2.0000      -0.813615       -22.1396
  15   2.0000      -0.765920       -20.8418
  16   2.0000      -0.677714       -18.4415
  17   2.0000      -0.643178       -17.5018
  18   2.0000      -0.601686       -16.3727
  19   2.0000      -0.578495       -15.7417
  20   2.0000      -0.554635       -15.0924
  21   2.0000      -0.522724       -14.2240
  22   2.0000      -0.516371       -14.0512
  23   2.0000      -0.501731       -13.6528
  24   2.0000      -0.479481       -13.0473
  25   2.0000      -0.475049       -12.9267
  26   2.0000      -0.465582       -12.6691
  27   2.0000      -0.457742       -12.4558
  28   2.0000      -0.437600       -11.9077
  29   2.0000      -0.427238       -11.6257
  30   2.0000      -0.417254       -11.3540
  31   2.0000      -0.339875        -9.2485
  32   2.0000      -0.326768        -8.8918
  33   2.0000      -0.294292        -8.0081
  34   2.0000      -0.290544        -7.9061
  35   0.0000       0.038983         1.0608
  36   0.0000       0.064535         1.7561
  37   0.0000       0.110079         2.9954
  38   0.0000       0.165470         4.5027
  39   0.0000       0.167639         4.5617

MULLIKEN ATOMIC CHARGES
-----------------------
   0 C :   -0.418579
   1 H :    0.265512
   2 H :    0.267553
   3 N :   -0.616126
   4 H :    0.367446
   5 C :    0.519137
   6 O :   -0.433854
   7 C :    0.541256
   8 O :   -0.461963
   9 N :   -0.640564
  10 H :    0.403308
  11 C :   -0.489678
  12 H :    0.220318
  13 H :    0.215878
  14 H :    0.258249
  15 C :   -0.741944
  16 H :    0.216488
  17 H :    0.265614
  18 H :    0.261949
Sum of atomic charges:   -0.0000000

LOEWDIN ATOMIC CHARGES
----------------------
   0 C :   -0.171241
   1 H :    0.151163
   2 H :    0.148017
   3 N :   -0.223019
   4 H :    0.261181
   5 C :    0.090431
   6 O :   -0.284195
   7 C :    0.112459
   8 O :   -0.300535
   9 N :   -0.252081
  10 H :    0.265926
  11 C :   -0.256585
  12 H :    0.124172
  13 H :    0.118725
  14 H :    0.149455
  15 C :   -0.384059
  16 H :    0.129542
  17 H :    0.161582
  18 H :    0.159062

  Mayer bond orders larger than 0.100000
B(  0-C ,  1-H ) :   0.8906 B(  0-C ,  2-H ) :   0.9105 B(  0-C ,  3-N ) :   0.9375
B(  0-C ,  5-C ) :   0.8819 B(  3-N ,  4-H ) :   0.8226 B(  3-N ,  7-C ) :   1.1653
B(  5-C ,  6-O ) :   1.9882 B(  5-C ,  9-N ) :   1.1902 B(  6-O ,  9-N ) :   0.1061
B(  7-C ,  8-O ) :   1.8863 B(  7-C , 15-C ) :   0.9336 B(  9-N , 10-H ) :   0.7426
B(  9-N , 11-C ) :   0.9570 B( 11-C , 12-H ) :   0.9241 B( 11-C , 13-H ) :   0.9207
B( 11-C , 14-H ) :   0.9036 B( 15-C , 16-H ) :   0.9212 B( 15-C , 17-H ) :   0.9058
B( 15-C , 18-H ) :   0.9070

Dispersion correction           -0.009451081
FINAL SINGLE POINT ENERGY      -455.561262732762

DIPOLE MOMENT
-------------
                                X             Y             Z
Electronic contribution:      0.59603      -1.27729       3.27451
Nuclear contribution   :     -0.35278       0.51233      -4.31512
                        -----------------------------------------
Total Dipole Moment    :      0.24326      -0.76496      -1.04061
                        -----------------------------------------
Magnitude (a.u.)       :      1.31424
Magnitude (Debye)      :      3.34052

Rotational constants in cm-1:     0.092793     0.033936     0.028299
Rotational constants in MHz :  2781.867186  1017.382503   848.367690

                             ****ORCA TERMINATED NORMALLY****
TOTAL RUN TIME: 0 days 0 hours 2 minutes 0 seconds 83 msec
