                         Program Version 5.0.3 -  RELEASE  -
|  1> ! PBEh-3c def2/J TightSCF DefGrid3
|  2>
|  3> %maxcore 60000
|  4>
|  5> %pal
|  6> nprocs 4
|  7> end
|  8>
|  9> *xyzfile 0 1 05a.xyz
| 10>
| 11>                          ****END OF INPUT****

CARTESIAN COORDINATES (ANGSTROEM)
---------------------------------
  O     -1.763728   -1.965759    0.000000
  O     -0.894619    2.508479    0.000000
  N      0.423113   -1.289660    0.000000
  N     -1.275119    0.261715    0.000000
  C      0.979508    1.028248    0.000000
  C     -0.425997    1.384227    0.000000
  C      1.339333   -0.272652    0.000000
  C     -0.925543   -1.063661    0.000000
  H      1.712955    1.815937    0.000000
  H      0.725855   -2.271747    0.000000
  H     -2.267424    0.454457    0.000000
  H      2.371666   -0.589587    0.000000

 Total Charge           Charge          ....    0
 Multiplicity           Mult            ....    1
 Number of Electrons    NEL             ....   58
 Basis Dimension        Dim             ....  128

ORBITAL ENERGIES
----------------

  NO   OCC          E(Eh)            E(eV)
   0   2.0000     -19.478574      -530.0390
   1   2.0000     -19.477208      -530.0018
   2   2.0000     -14.723071      -400.6351
   3   2.0000     -14.697235      -399.9321
   4   2.0000     -10.607375      -288.6414
   5   2.0000     -10.575176      -287.7652
   6   2.0000     -10.540703      -286.8271
   7   2.0000     -10.469888      -284.9001
   8   2.0000      -1.193243       -32.4698
   9   2.0000      -1.157730       -31.5034
  10   2.0000      -1.092221       -29.7209
  11   2.0000      -1.035235       -28.1702
  12   2.0000      -0.901636       -24.5348
  13   2.0000      -0.783868       -21.3301
  14   2.0000      -0.750169       -20.4131
  15   2.0000      -0.678326       -18.4582
  16   2.0000      -0.639460       -17.4006
  17   2.0000      -0.594921       -16.1886
  18   2.0000      -0.554107       -15.0780
  19   2.0000      -0.546279       -14.8650
  20   2.0000      -0.519428       -14.1344
  21   2.0000      -0.489514       -13.3204
  22   2.0000      -0.486857       -13.2481
  23   2.0000      -0.469552       -12.7772
  24   2.0000      -0.428899       -11.6709
  25   2.0000      -0.357233        -9.7208
  26   2.0000      -0.339232        -9.2310
  27   2.0000      -0.328409        -8.9365
  28   2.0000      -0.302078        -8.2200
  29   0.0000      -0.024954        -0.6790
  30   0.0000       0.039100         1.0640
  31   0.0000       0.088049         2.3959
  32   0.0000       0.153209         4.1690
  33   0.0000       0.160274         4.3613

MULLIKEN ATOMIC CHARGES
-----------------------
   0 O :   -0.433714
   1 O :   -0.389009
   2 N :   -0.672655
   3 N :   -0.718920
   4 C :   -0.451617
   5 C :    0.566344
   6 C :    0.081672
   7 C :    0.678502
   8 H :    0.267995
   9 H :    0.397660
  10 H :    0.401297
  11 H :    0.272445
Sum of atomic charges:    0.0000000

LOEWDIN ATOMIC CHARGES
----------------------
   0 O :   -0.284648
   1 O :   -0.239190
   2 N :   -0.181135
   3 N :   -0.201398
   4 C :   -0.239438
   5 C :    0.124383
   6 C :   -0.012960
   7 C :    0.143514
   8 H :    0.164535
   9 H :    0.288502
  10 H :    0.288124
  11 H :    0.149711

  Mayer bond orders larger than 0.100000
B(  0-O ,  7-C ) :   2.0232 B(  1-O ,  5-C ) :   2.0439 B(  2-N ,  6-C ) :   1.0773
B(  2-N ,  7-C ) :   1.0372 B(  2-N ,  9-H ) :   0.8043 B(  3-N ,  5-C ) :   0.9748
B(  3-N ,  7-C ) :   1.0751 B(  3-N , 10-H ) :   0.7971 B(  4-C ,  5-C ) :   1.0550
B(  4-C ,  6-C ) :   1.6466 B(  4-C ,  8-H ) :   0.9055 B(  6-C , 11-H ) :   0.8996

Dispersion correction           -0.006237735
FINAL SINGLE POINT ENERGY      -413.936867909630

DIPOLE MOMENT
-------------
                                X             Y             Z
Electronic contribution:     -2.06924      -0.04680       0.00000
Nuclear contribution   :      3.70510      -0.77589       0.00000
                        -----------------------------------------
Total Dipole Moment    :      1.63586      -0.82269       0.00000
                        -----------------------------------------
Magnitude (a.u.)       :      1.83108
Magnitude (Debye)      :      4.65424

Rotational constants in cm-1:     0.130251     0.067573     0.044491
Rotational constants in MHz :  3904.813933  2025.777204  1333.810217

                             ****ORCA TERMINATED NORMALLY****
TOTAL RUN TIME: 0 days 0 hours 1 minutes 44 seconds 442 msec
