                         Program Version 5.0.3 -  RELEASE  -
|  1> ! PBEh-3c def2/J TightSCF DefGrid3
|  2>
|  3> %maxcore 60000
|  4>
|  5> %pal
|  6> nprocs 4
|  7> end
|  8>
|  9> *xyzfile 0 1 05.xyz
| 10>
| 11>                          ****END OF INPUT****

CARTESIAN COORDINATES (ANGSTROEM)
---------------------------------
  O     -1.466332    1.012170    0.000000
  O     -0.597223    5.486408    0.000000
  O      1.466332   -1.012170    0.000000
  O      0.597223   -5.486408    0.000000
  C      1.276904    4.006177    0.000000
  C     -0.128601    4.362156    0.000000
  C     -0.628147    1.914268    0.000000
  C      0.628147   -1.914268    0.000000
  C     -1.636729   -2.705277    0.000000
  C     -1.276904   -4.006177    0.000000
  C      0.128601   -4.362156    0.000000
  C      1.636729    2.705277    0.000000
  N      0.720509    1.688269    0.000000
  N     -0.977723    3.239644    0.000000
  N     -0.720509   -1.688269    0.000000
  N      0.977723   -3.239644    0.000000
  H      1.023252    0.706182    0.000000
  H     -1.970027    3.432386    0.000000
  H      2.010351    4.793866    0.000000
  H      2.669063    2.388342    0.000000
  H     -2.010351   -4.793866    0.000000
  H     -1.023252   -0.706182    0.000000
  H      1.970027   -3.432386    0.000000
  H     -2.669063   -2.388342    0.000000

 Total Charge           Charge          ....    0
 Multiplicity           Mult            ....    1
 Number of Electrons    NEL             ....  116
 Basis Dimension        Dim             ....  256

ORBITAL ENERGIES
----------------

  NO   OCC          E(Eh)            E(eV)
   0   2.0000     -19.503897      -530.7280
   1   2.0000     -19.503893      -530.7279
   2   2.0000     -19.481279      -530.1125
   3   2.0000     -19.481278      -530.1125
   4   2.0000     -14.710620      -400.2963
   5   2.0000     -14.710615      -400.2962
   6   2.0000     -14.706849      -400.1937
   7   2.0000     -14.706845      -400.1936
   8   2.0000     -10.622741      -289.0595
   9   2.0000     -10.622732      -289.0592
  10   2.0000     -10.578581      -287.8578
  11   2.0000     -10.578580      -287.8578
  12   2.0000     -10.536708      -286.7184
  13   2.0000     -10.536705      -286.7183
  14   2.0000     -10.468643      -284.8663
  15   2.0000     -10.468642      -284.8662
  16   2.0000      -1.210939       -32.9513
  17   2.0000      -1.206440       -32.8289
  18   2.0000      -1.164766       -31.6949
  19   2.0000      -1.164192       -31.6793
  20   2.0000      -1.101103       -29.9625
  21   2.0000      -1.094748       -29.7896
  22   2.0000      -1.042173       -28.3590
  23   2.0000      -1.038757       -28.2660
  24   2.0000      -0.902218       -24.5506
  25   2.0000      -0.900042       -24.4914
  26   2.0000      -0.784116       -21.3369
  27   2.0000      -0.782800       -21.3011
  28   2.0000      -0.762493       -20.7485
  29   2.0000      -0.748355       -20.3638
  30   2.0000      -0.683181       -18.5903
  31   2.0000      -0.674441       -18.3525
  32   2.0000      -0.642943       -17.4954
  33   2.0000      -0.639140       -17.3919
  34   2.0000      -0.600349       -16.3363
  35   2.0000      -0.594215       -16.1694
  36   2.0000      -0.566124       -15.4050
  37   2.0000      -0.562298       -15.3009
  38   2.0000      -0.559286       -15.2190
  39   2.0000      -0.548212       -14.9176
  40   2.0000      -0.536253       -14.5922
  41   2.0000      -0.524863       -14.2822
  42   2.0000      -0.499350       -13.5880
  43   2.0000      -0.491666       -13.3789
  44   2.0000      -0.489728       -13.3262
  45   2.0000      -0.486322       -13.2335
  46   2.0000      -0.475858       -12.9487
  47   2.0000      -0.473498       -12.8845
  48   2.0000      -0.435563       -11.8523
  49   2.0000      -0.431402       -11.7391
  50   2.0000      -0.387583       -10.5467
  51   2.0000      -0.374622       -10.1940
  52   2.0000      -0.353829        -9.6282
  53   2.0000      -0.353376        -9.6158
  54   2.0000      -0.335977        -9.1424
  55   2.0000      -0.335033        -9.1167
  56   2.0000      -0.304265        -8.2795
  57   2.0000      -0.301407        -8.2017
  58   0.0000      -0.024537        -0.6677
  59   0.0000      -0.024465        -0.6657
  60   0.0000       0.026100         0.7102
  61   0.0000       0.030156         0.8206
  62   0.0000       0.121492         3.3060

MULLIKEN ATOMIC CHARGES
-----------------------
   0 O :   -0.493756
   1 O :   -0.389266
   2 O :   -0.493756
   3 O :   -0.389266
   4 C :   -0.452045
   5 C :    0.564720
   6 C :    0.727238
   7 C :    0.727239
   8 C :    0.081920
   9 C :   -0.452045
  10 C :    0.564720
  11 C :    0.081920
  12 N :   -0.722779
  13 N :   -0.717950
  14 N :   -0.722779
  15 N :   -0.717950
  16 H :    0.457284
  17 H :    0.398658
  18 H :    0.267755
  19 H :    0.278219
  20 H :    0.267755
  21 H :    0.457284
  22 H :    0.398658
  23 H :    0.278219
Sum of atomic charges:   -0.0000000

LOEWDIN ATOMIC CHARGES
----------------------
   0 O :   -0.309068
   1 O :   -0.239894
   2 O :   -0.309068
   3 O :   -0.239894
   4 C :   -0.240302
   5 C :    0.124796
   6 C :    0.162529
   7 C :    0.162529
   8 C :   -0.003827
   9 C :   -0.240302
  10 C :    0.124796
  11 C :   -0.003827
  12 N :   -0.191671
  13 N :   -0.194733
  14 N :   -0.191671
  15 N :   -0.194733
  16 H :    0.286770
  17 H :    0.286632
  18 H :    0.164223
  19 H :    0.154545
  20 H :    0.164223
  21 H :    0.286770
  22 H :    0.286632
  23 H :    0.154545

  Mayer bond orders larger than 0.100000
B(  0-O ,  6-C ) :   1.8191 B(  0-O , 21-H ) :   0.1529 B(  1-O ,  5-C ) :   2.0439
B(  2-O ,  7-C ) :   1.8191 B(  2-O , 16-H ) :   0.1529 B(  3-O , 10-C ) :   2.0439
B(  4-C ,  5-C ) :   1.0650 B(  4-C , 11-C ) :   1.6293 B(  4-C , 18-H ) :   0.9060
B(  5-C , 13-N ) :   0.9611 B(  6-C , 12-N ) :   1.1111 B(  6-C , 13-N ) :   1.1080
B(  7-C , 14-N ) :   1.1111 B(  7-C , 15-N ) :   1.1080 B(  8-C ,  9-C ) :   1.6293
B(  8-C , 14-N ) :   1.1058 B(  8-C , 23-H ) :   0.8987 B(  9-C , 10-C ) :   1.0650
B(  9-C , 20-H ) :   0.9060 B( 10-C , 15-N ) :   0.9611 B( 11-C , 12-N ) :   1.1058
B( 11-C , 19-H ) :   0.8987 B( 12-N , 16-H ) :   0.6360 B( 13-N , 17-H ) :   0.7978
B( 14-N , 21-H ) :   0.6360 B( 15-N , 22-H ) :   0.7978

Dispersion correction           -0.014907229
FINAL SINGLE POINT ENERGY      -827.904838770469

DIPOLE MOMENT
-------------
                                X             Y             Z
Electronic contribution:      0.00000      -0.00000       0.00000
Nuclear contribution   :      0.00000      -0.00000       0.00000
                        -----------------------------------------
Total Dipole Moment    :      0.00000      -0.00000       0.00000
                        -----------------------------------------
Magnitude (a.u.)       :      0.00000
Magnitude (Debye)      :      0.00000

Rotational constants in cm-1:     0.063049     0.006588     0.005965
Rotational constants in MHz :  1890.151200   197.501498   178.816953

                             ****ORCA TERMINATED NORMALLY****
TOTAL RUN TIME: 0 days 0 hours 3 minutes 10 seconds 255 msec
