                         Program Version 5.0.3 -  RELEASE  -
|  1> ! PBEh-3c def2/J TightSCF DefGrid3
|  2>
|  3> %maxcore 60000
|  4>
|  5> %pal
|  6> nprocs 4
|  7> end
|  8>
|  9> *xyzfile 0 1 P12.xyz
| 10>
| 11>                          ****END OF INPUT****

CARTESIAN COORDINATES (ANGSTROEM)
---------------------------------
  C      1.242011    0.665547   -0.581208
  C      1.242011   -0.665547   -0.581208
  C      0.000000   -1.121649    0.211501
  C     -1.242011   -0.665547   -0.581208
  C     -1.242011    0.665547   -0.581208
  C      0.000000    1.121649    0.211501
  C      0.000000    0.000000    1.295655
  H      1.930167    1.333337   -1.080060
  H      1.930167   -1.333337   -1.080060
  H      0.000000   -2.156192    0.547833
  H     -1.930167   -1.333337   -1.080060
  H     -1.930167    1.333337   -1.080060
  H      0.000000    2.156192    0.547833
  H      0.897924    0.000000    1.915376
  H     -0.897924    0.000000    1.915376

 Total Charge           Charge          ....    0
 Multiplicity           Mult            ....    1
 Number of Electrons    NEL             ....   50
 Basis Dimension        Dim             ....  121

ORBITAL ENERGIES
----------------

  NO   OCC          E(Eh)            E(eV)
   0   2.0000     -10.452579      -284.4291
   1   2.0000     -10.452530      -284.4278
   2   2.0000     -10.439498      -284.0732
   3   2.0000     -10.436519      -283.9921
   4   2.0000     -10.436382      -283.9884
   5   2.0000     -10.435487      -283.9640
   6   2.0000     -10.435409      -283.9619
   7   2.0000      -0.984895       -26.8004
   8   2.0000      -0.834536       -22.7089
   9   2.0000      -0.788343       -21.4519
  10   2.0000      -0.774248       -21.0683
  11   2.0000      -0.633775       -17.2459
  12   2.0000      -0.625239       -17.0136
  13   2.0000      -0.585674       -15.9370
  14   2.0000      -0.564188       -15.3523
  15   2.0000      -0.539489       -14.6802
  16   2.0000      -0.472199       -12.8492
  17   2.0000      -0.438068       -11.9204
  18   2.0000      -0.421560       -11.4712
  19   2.0000      -0.418137       -11.3781
  20   2.0000      -0.398093       -10.8327
  21   2.0000      -0.379892       -10.3374
  22   2.0000      -0.375810       -10.2263
  23   2.0000      -0.297016        -8.0822
  24   2.0000      -0.264422        -7.1953
  25   0.0000       0.019412         0.5282
  26   0.0000       0.079318         2.1584
  27   0.0000       0.160079         4.3560
  28   0.0000       0.185252         5.0409
  29   0.0000       0.196399         5.3443

MULLIKEN ATOMIC CHARGES
-----------------------
   0 C :   -0.164800
   1 C :   -0.164800
   2 C :   -0.364345
   3 C :   -0.164800
   4 C :   -0.164800
   5 C :   -0.364345
   6 C :   -0.365506
   7 H :    0.217748
   8 H :    0.217748
   9 H :    0.213276
  10 H :    0.217748
  11 H :    0.217748
  12 H :    0.213276
  13 H :    0.227925
  14 H :    0.227925
Sum of atomic charges:   -0.0000000

LOEWDIN ATOMIC CHARGES
----------------------
   0 C :   -0.138264
   1 C :   -0.138264
   2 C :   -0.144692
   3 C :   -0.138264
   4 C :   -0.138264
   5 C :   -0.144692
   6 C :   -0.187697
   7 H :    0.133154
   8 H :    0.133154
   9 H :    0.124395
  10 H :    0.133154
  11 H :    0.133154
  12 H :    0.124395
  13 H :    0.124366
  14 H :    0.124366

  Mayer bond orders larger than 0.100000
B(  0-C ,  1-C ) :   1.8956 B(  0-C ,  5-C ) :   0.9634 B(  0-C ,  7-H ) :   0.9259
B(  1-C ,  2-C ) :   0.9634 B(  1-C ,  8-H ) :   0.9259 B(  2-C ,  3-C ) :   0.9634
B(  2-C ,  6-C ) :   0.9444 B(  2-C ,  9-H ) :   0.9337 B(  3-C ,  4-C ) :   1.8956
B(  3-C , 10-H ) :   0.9259 B(  4-C ,  5-C ) :   0.9634 B(  4-C , 11-H ) :   0.9259
B(  5-C ,  6-C ) :   0.9444 B(  5-C , 12-H ) :   0.9337 B(  6-C , 13-H ) :   0.9189
B(  6-C , 14-H ) :   0.9189

Dispersion correction           -0.008197473
FINAL SINGLE POINT ENERGY      -270.880258228295

DIPOLE MOMENT
-------------
                                X             Y             Z
Electronic contribution:      0.00000       0.00000      -1.10390
Nuclear contribution   :      0.00000       0.00000       1.11199
                        -----------------------------------------
Total Dipole Moment    :      0.00000       0.00000       0.00809
                        -----------------------------------------
Magnitude (a.u.)       :      0.00809
Magnitude (Debye)      :      0.02057

Rotational constants in cm-1:     0.143186     0.120028     0.106154
Rotational constants in MHz :  4292.596815  3598.342039  3182.429711

                             ****ORCA TERMINATED NORMALLY****
TOTAL RUN TIME: 0 days 0 hours 1 minutes 20 seconds 334 msec
