                         Program Version 5.0.3 -  RELEASE  -
|  1> ! PBEh-3c def2/J TightSCF DefGrid3
|  2>
|  3> %maxcore 60000
|  4>
|  5> %pal
|  6> nprocs 4
|  7> end
|  8>
|  9> *xyzfile 0 1 8B.xyz
| 10>
| 11>                          ****END OF INPUT****

CARTESIAN COORDINATES (ANGSTROEM)
---------------------------------
  H     -0.918925    0.276741   -0.594448
  Cl    -0.754890    0.933209   -1.998314

 Total Charge           Charge          ....    0
 Multiplicity           Mult            ....    1
 Number of Electrons    NEL             ....   18
 Basis Dimension        Dim             ....   20

ORBITAL ENERGIES
----------------

  NO   OCC          E(Eh)            E(eV)
   0   2.0000    -102.309529     -2783.9838
   1   2.0000      -9.772790      -265.9311
   2   2.0000      -7.461647      -203.0417
   3   2.0000      -7.451830      -202.7746
   4   2.0000      -7.451829      -202.7746
   5   2.0000      -0.892307       -24.2809
   6   2.0000      -0.480654       -13.0792
   7   2.0000      -0.369240       -10.0475
   8   2.0000      -0.369240       -10.0475
   9   0.0000      -0.029228        -0.7953
  10   0.0000       0.527541        14.3551
  11   0.0000       0.711340        19.3566
  12   0.0000       0.817929        22.2570
  13   0.0000       0.817931        22.2570

MULLIKEN ATOMIC CHARGES
-----------------------
   0 H :    0.258142
   1 Cl:   -0.258142
Sum of atomic charges:   -0.0000000

LOEWDIN ATOMIC CHARGES
----------------------
   0 H :    0.195693
   1 Cl:   -0.195693

  Mayer bond orders larger than 0.100000
B(  0-H ,  1-Cl) :   0.9197

Dispersion correction           -0.000169888
FINAL SINGLE POINT ENERGY      -460.266890572160

DIPOLE MOMENT
-------------
                                X             Y             Z
Electronic contribution:      0.08594       0.34395      -0.73553
Nuclear contribution   :     -0.15573      -0.62322       1.33276
                        -----------------------------------------
Total Dipole Moment    :     -0.06978      -0.27927       0.59722
                        -----------------------------------------
Magnitude (a.u.)       :      0.66298
Magnitude (Debye)      :      1.68515

Rotational constants in cm-1:     0.000000     7.081710     7.081710
Rotational constants in MHz :     0.000000 212304.335428 212304.335428

                             ****ORCA TERMINATED NORMALLY****
TOTAL RUN TIME: 0 days 0 hours 0 minutes 6 seconds 26 msec
