                         Program Version 5.0.3 -  RELEASE  -
|  1> ! PBEh-3c def2/J TightSCF DefGrid3
|  2>
|  3> %maxcore 60000
|  4>
|  5> %pal
|  6> nprocs 4
|  7> end
|  8>
|  9> *xyzfile 0 1 PPh3.xyz
| 10>
| 11>                          ****END OF INPUT****

CARTESIAN COORDINATES (ANGSTROEM)
---------------------------------
  C     -1.865411    2.453055   -2.041136
  C     -1.123675    1.622111   -1.200824
  C     -0.817191    0.329043   -1.636536
  C     -1.271423   -0.137361   -2.862160
  C     -2.025588    0.693542   -3.684628
  C     -2.310966    1.989907   -3.274078
  P     -0.554234    2.075337    0.485737
  C     -0.903167    3.877405    0.577027
  C     -2.177430    4.411327    0.787359
  C     -2.362155    5.785940    0.862580
  C     -1.275310    6.646083    0.739466
  C     -0.002420    6.126136    0.536853
  C      0.180420    4.750573    0.457972
  C     -1.934662    1.403511    1.505779
  C     -3.060912    0.759241    0.990244
  C     -4.043576    0.263455    1.842289
  C     -3.918721    0.405898    3.218046
  C     -2.799940    1.047376    3.743063
  C     -1.815163    1.531461    2.894294
  H     -3.178669    0.642765   -0.077649
  H     -4.909683   -0.234258    1.425706
  H     -4.683025    0.017298    3.877635
  H     -2.689679    1.163362    4.813419
  H     -0.943333    2.020494    3.311600
  H     -3.023530    3.747879    0.901501
  H     -3.353821    6.187598    1.025368
  H     -1.419204    7.716036    0.811567
  H      0.848285    6.788872    0.450890
  H      1.174280    4.346138    0.313896
  H     -0.230781   -0.320959   -0.998921
  H     -1.031682   -1.143874   -3.179446
  H     -2.384108    0.333862   -4.640095
  H     -2.887861    2.644557   -3.913740
  H     -2.108039    3.458902   -1.729289

 Total Charge           Charge          ....    0
 Multiplicity           Mult            ....    1
 Number of Electrons    NEL             ....  138
 Basis Dimension        Dim             ....  318

ORBITAL ENERGIES
----------------

  NO   OCC          E(Eh)            E(eV)
   0   2.0000     -77.743684     -2115.5132
   1   2.0000     -10.459276      -284.6114
   2   2.0000     -10.459140      -284.6077
   3   2.0000     -10.458022      -284.5772
   4   2.0000     -10.453938      -284.4661
   5   2.0000     -10.453744      -284.4608
   6   2.0000     -10.452639      -284.4308
   7   2.0000     -10.452614      -284.4301
   8   2.0000     -10.452261      -284.4205
   9   2.0000     -10.451571      -284.4017
  10   2.0000     -10.451506      -284.3999
  11   2.0000     -10.451119      -284.3894
  12   2.0000     -10.450952      -284.3849
  13   2.0000     -10.450374      -284.3691
  14   2.0000     -10.449977      -284.3583
  15   2.0000     -10.449355      -284.3414
  16   2.0000     -10.448612      -284.3212
  17   2.0000     -10.448432      -284.3163
  18   2.0000     -10.447945      -284.3030
  19   2.0000      -6.813740      -185.4113
  20   2.0000      -4.904832      -133.4673
  21   2.0000      -4.904657      -133.4625
  22   2.0000      -4.902612      -133.4069
  23   2.0000      -0.964524       -26.2460
  24   2.0000      -0.957170       -26.0459
  25   2.0000      -0.954363       -25.9695
  26   2.0000      -0.866542       -23.5798
  27   2.0000      -0.841507       -22.8986
  28   2.0000      -0.841320       -22.8935
  29   2.0000      -0.838744       -22.8234
  30   2.0000      -0.834626       -22.7113
  31   2.0000      -0.833171       -22.6717
  32   2.0000      -0.730462       -19.8769
  33   2.0000      -0.688087       -18.7238
  34   2.0000      -0.686029       -18.6678
  35   2.0000      -0.683487       -18.5986
  36   2.0000      -0.673635       -18.3305
  37   2.0000      -0.672723       -18.3057
  38   2.0000      -0.631606       -17.1869
  39   2.0000      -0.589029       -16.0283
  40   2.0000      -0.587545       -15.9879
  41   2.0000      -0.563243       -15.3266
  42   2.0000      -0.523099       -14.2342
  43   2.0000      -0.521795       -14.1988
  44   2.0000      -0.519250       -14.1295
  45   2.0000      -0.513491       -13.9728
  46   2.0000      -0.512373       -13.9424
  47   2.0000      -0.506007       -13.7692
  48   2.0000      -0.485529       -13.2119
  49   2.0000      -0.484118       -13.1735
  50   2.0000      -0.481963       -13.1149
  51   2.0000      -0.468997       -12.7621
  52   2.0000      -0.466450       -12.6928
  53   2.0000      -0.430287       -11.7087
  54   2.0000      -0.427051       -11.6206
  55   2.0000      -0.423322       -11.5192
  56   2.0000      -0.419999       -11.4288
  57   2.0000      -0.401645       -10.9293
  58   2.0000      -0.400791       -10.9061
  59   2.0000      -0.398352       -10.8397
  60   2.0000      -0.375012       -10.2046
  61   2.0000      -0.374002       -10.1771
  62   2.0000      -0.321415        -8.7462
  63   2.0000      -0.303367        -8.2550
  64   2.0000      -0.300779        -8.1846
  65   2.0000      -0.299166        -8.1407
  66   2.0000      -0.292519        -7.9599
  67   2.0000      -0.291325        -7.9273
  68   2.0000      -0.253994        -6.9115
  69   0.0000      -0.005582        -0.1519
  70   0.0000      -0.000845        -0.0230
  71   0.0000       0.004430         0.1206
  72   0.0000       0.016295         0.4434
  73   0.0000       0.021053         0.5729

MULLIKEN ATOMIC CHARGES
-----------------------
   0 C :   -0.229007
   1 C :   -0.213558
   2 C :   -0.258877
   3 C :   -0.207139
   4 C :   -0.233670
   5 C :   -0.203809
   6 P :    0.573420
   7 C :   -0.205798
   8 C :   -0.227027
   9 C :   -0.207611
  10 C :   -0.230076
  11 C :   -0.205884
  12 C :   -0.266181
  13 C :   -0.187078
  14 C :   -0.244928
  15 C :   -0.201433
  16 C :   -0.236447
  17 C :   -0.202709
  18 C :   -0.259038
  19 H :    0.249184
  20 H :    0.220269
  21 H :    0.220995
  22 H :    0.220977
  23 H :    0.229873
  24 H :    0.254179
  25 H :    0.222291
  26 H :    0.223533
  27 H :    0.222500
  28 H :    0.233134
  29 H :    0.234619
  30 H :    0.222569
  31 H :    0.222791
  32 H :    0.221442
  33 H :    0.248494
Sum of atomic charges:   -0.0000000

LOEWDIN ATOMIC CHARGES
----------------------
   0 C :   -0.132523
   1 C :   -0.186907
   2 C :   -0.133118
   3 C :   -0.135278
   4 C :   -0.131454
   5 C :   -0.134300
   6 P :    0.458578
   7 C :   -0.191006
   8 C :   -0.129330
   9 C :   -0.136175
  10 C :   -0.127084
  11 C :   -0.135921
  12 C :   -0.129031
  13 C :   -0.183538
  14 C :   -0.138953
  15 C :   -0.134774
  16 C :   -0.133457
  17 C :   -0.133967
  18 C :   -0.130036
  19 H :    0.147432
  20 H :    0.136510
  21 H :    0.136223
  22 H :    0.137075
  23 H :    0.139846
  24 H :    0.147464
  25 H :    0.137511
  26 H :    0.137230
  27 H :    0.137805
  28 H :    0.141325
  29 H :    0.141223
  30 H :    0.137788
  31 H :    0.136950
  32 H :    0.137077
  33 H :    0.146816

  Mayer bond orders larger than 0.100000
B(  0-C ,  1-C ) :   1.3841 B(  0-C ,  5-C ) :   1.4297 B(  0-C , 33-H ) :   0.9026
B(  1-C ,  2-C ) :   1.3753 B(  1-C ,  6-P ) :   0.9333 B(  2-C ,  3-C ) :   1.4424
B(  2-C , 29-H ) :   0.9130 B(  3-C ,  4-C ) :   1.4145 B(  3-C , 30-H ) :   0.9188
B(  4-C ,  5-C ) :   1.4242 B(  4-C , 31-H ) :   0.9185 B(  5-C , 32-H ) :   0.9192
B(  6-P ,  7-C ) :   0.9458 B(  6-P , 13-C ) :   0.9380 B(  7-C ,  8-C ) :   1.3653
B(  7-C , 12-C ) :   1.3931 B(  8-C ,  9-C ) :   1.4416 B(  8-C , 24-H ) :   0.9000
B(  9-C , 10-C ) :   1.4158 B(  9-C , 25-H ) :   0.9190 B( 10-C , 11-C ) :   1.4243
B( 10-C , 26-H ) :   0.9183 B( 11-C , 12-C ) :   1.4300 B( 11-C , 27-H ) :   0.9188
B( 12-C , 28-H ) :   0.9155 B( 13-C , 14-C ) :   1.3896 B( 13-C , 18-C ) :   1.3665
B( 14-C , 15-C ) :   1.4262 B( 14-C , 19-H ) :   0.9040 B( 15-C , 16-C ) :   1.4309
B( 15-C , 20-H ) :   0.9194 B( 16-C , 17-C ) :   1.4091 B( 16-C , 21-H ) :   0.9188
B( 17-C , 18-C ) :   1.4516 B( 17-C , 22-H ) :   0.9191 B( 18-C , 23-H ) :   0.9146

Dispersion correction           -0.027312844
FINAL SINGLE POINT ENERGY     -1034.358214312783

DIPOLE MOMENT
-------------
                                X             Y             Z
Electronic contribution:      5.18719      -1.30178       1.00995
Nuclear contribution   :     -5.76268       1.55222      -1.15209
                        -----------------------------------------
Total Dipole Moment    :     -0.57549       0.25044      -0.14214
                        -----------------------------------------
Magnitude (a.u.)       :      0.64352
Magnitude (Debye)      :      1.63569

Rotational constants in cm-1:     0.012568     0.011416     0.007135
Rotational constants in MHz :   376.787126   342.228479   213.912104

                             ****ORCA TERMINATED NORMALLY****
TOTAL RUN TIME: 0 days 0 hours 5 minutes 10 seconds 321 msec
