                         Program Version 5.0.3 -  RELEASE  -
|  1> ! PBEh-3c def2/J TightSCF DefGrid3
|  2>
|  3> %maxcore 60000
|  4>
|  5> %pal
|  6> nprocs 4
|  7> end
|  8>
|  9> *xyzfile 0 2 P15.xyz
| 10>
| 11>                          ****END OF INPUT****

CARTESIAN COORDINATES (ANGSTROEM)
---------------------------------
  C     -1.200306   -0.241008    0.000000
  C      0.028400    0.536908    0.000000
  N      1.200774   -0.179918    0.000000
  O      0.021436    1.765339    0.000000
  H     -1.209597   -1.323763    0.000000
  H     -2.135699    0.298181    0.000000
  H      1.225619   -1.184186    0.000000
  H      2.069373    0.328447    0.000000

 Total Charge           Charge          ....    0
 Multiplicity           Mult            ....    2
 Number of Electrons    NEL             ....   31
 Basis Dimension        Dim             ....   68

ORBITAL ENERGIES
----------------
                 SPIN UP ORBITALS
  NO   OCC          E(Eh)            E(eV)
   0   1.0000     -19.458731      -529.4990
   1   1.0000     -14.653487      -398.7417
   2   1.0000     -10.549228      -287.0591
   3   1.0000     -10.476721      -285.0861
   4   1.0000      -1.141248       -31.0549
   5   1.0000      -1.000108       -27.2143
   6   1.0000      -0.833830       -22.6897
   7   1.0000      -0.660247       -17.9662
   8   1.0000      -0.605001       -16.4629
   9   1.0000      -0.555644       -15.1198
  10   1.0000      -0.487143       -13.2558
  11   1.0000      -0.479925       -13.0594
  12   1.0000      -0.469986       -12.7890
  13   1.0000      -0.327987        -8.9250
  14   1.0000      -0.316736        -8.6188
  15   1.0000      -0.301858        -8.2140
  16   0.0000       0.099072         2.6959
  17   0.0000       0.120961         3.2915
  18   0.0000       0.172336         4.6895
  19   0.0000       0.191993         5.2244
  20   0.0000       0.223700         6.0872

                 SPIN DOWN ORBITALS
  NO   OCC          E(Eh)            E(eV)
   0   1.0000     -19.453532      -529.3575
   1   1.0000     -14.652818      -398.7235
   2   1.0000     -10.551490      -287.1206
   3   1.0000     -10.461974      -284.6848
   4   1.0000      -1.132726       -30.8231
   5   1.0000      -0.996328       -27.1115
   6   1.0000      -0.794864       -21.6294
   7   1.0000      -0.653646       -17.7866
   8   1.0000      -0.601269       -16.3614
   9   1.0000      -0.547170       -14.8893
  10   1.0000      -0.478196       -13.0124
  11   1.0000      -0.463872       -12.6226
  12   1.0000      -0.457500       -12.4492
  13   1.0000      -0.309515        -8.4223
  14   1.0000      -0.305548        -8.3144
  15   0.0000      -0.072298        -1.9673
  16   0.0000       0.124271         3.3816
  17   0.0000       0.129188         3.5154
  18   0.0000       0.174332         4.7438
  19   0.0000       0.205608         5.5949

MULLIKEN ATOMIC CHARGES AND SPIN POPULATIONS
--------------------------------------------
   0 C :   -0.500925    1.039307
   1 C :    0.510549   -0.124149
   2 N :   -0.818557    0.027535
   3 O :   -0.409317    0.174235
   4 H :    0.225544   -0.054828
   5 H :    0.261012   -0.057645
   6 H :    0.357992   -0.001387
   7 H :    0.373702   -0.003068
Sum of atomic charges         :   -0.0000000

LOEWDIN ATOMIC CHARGES AND SPIN POPULATIONS
-------------------------------------------
   0 C :   -0.217286    0.918160
   1 C :    0.072379   -0.052011
   2 N :   -0.387940    0.026747
   3 O :   -0.263021    0.163809
   4 H :    0.132066   -0.026827
   5 H :    0.154372   -0.027018
   6 H :    0.249833   -0.000925
   7 H :    0.259598   -0.001934

  Mayer bond orders larger than 0.100000
B(  0-C ,  1-C ) :   1.0371 B(  0-C ,  4-H ) :   0.9067 B(  0-C ,  5-H ) :   0.9106
B(  1-C ,  2-N ) :   1.0959 B(  1-C ,  3-O ) :   1.9765 B(  2-N ,  6-H ) :   0.8346
B(  2-N ,  7-H ) :   0.8269

Dispersion correction           -0.002530662
FINAL SINGLE POINT ENERGY      -208.102564075919

DIPOLE MOMENT
-------------
                                X             Y             Z
Electronic contribution:      0.53424       2.00563       0.00000
Nuclear contribution   :     -0.23754      -3.51925       0.00000
                        -----------------------------------------
Total Dipole Moment    :      0.29670      -1.51362       0.00000
                        -----------------------------------------
Magnitude (a.u.)       :      1.54243
Magnitude (Debye)      :      3.92054

Rotational constants in cm-1:     0.375129     0.342201     0.178955
Rotational constants in MHz : 11246.079245 10258.938117  5364.926198

                             ****ORCA TERMINATED NORMALLY****
TOTAL RUN TIME: 0 days 0 hours 2 minutes 29 seconds 675 msec
