                         Program Version 5.0.3 -  RELEASE  -
|  1> ! PBEh-3c def2/J TightSCF DefGrid3
|  2>
|  3> %maxcore 60000
|  4>
|  5> %pal
|  6> nprocs 4
|  7> end
|  8>
|  9> *xyzfile 0 1 4CL.xyz
| 10>
| 11>                          ****END OF INPUT****

CARTESIAN COORDINATES (ANGSTROEM)
---------------------------------
  C     -0.092397   -0.090821   -0.558182
  C      0.081893    0.685824    1.558607
  C      0.060156   -0.659471    1.626533
  N     -0.031656   -1.107077    0.326867
  N      0.003502    1.002863    0.222302
  H      0.146388    1.425379    2.340793
  H      0.103144   -1.317289    2.480500
  C     -0.066349   -2.500778   -0.044843
  C      0.013962    2.349626   -0.297271
  H      0.820724   -3.024395    0.314651
  H     -0.950026   -2.992340    0.364048
  H     -0.095835   -2.564924   -1.128521
  H     -0.850535    2.908177    0.061072
  H      0.923983    2.871342   -0.001102
  H     -0.021525    2.304420   -1.382773
  Cl     0.084658    0.525892   -3.588361
  H     -0.130084    0.183572   -2.294321

 Total Charge           Charge          ....    0
 Multiplicity           Mult            ....    1
 Number of Electrons    NEL             ....   70
 Basis Dimension        Dim             ....  141

ORBITAL ENERGIES
----------------

  NO   OCC          E(Eh)            E(eV)
   0   2.0000    -102.215994     -2781.4386
   1   2.0000     -14.710467      -400.2922
   2   2.0000     -14.708622      -400.2420
   3   2.0000     -10.490726      -285.4672
   4   2.0000     -10.489693      -285.4390
   5   2.0000     -10.486637      -285.3559
   6   2.0000     -10.480766      -285.1961
   7   2.0000     -10.480004      -285.1754
   8   2.0000      -9.685006      -263.5424
   9   2.0000      -7.371062      -200.5768
  10   2.0000      -7.365356      -200.4215
  11   2.0000      -7.365196      -200.4172
  12   2.0000      -1.161481       -31.6055
  13   2.0000      -1.040125       -28.3032
  14   2.0000      -0.886638       -24.1266
  15   2.0000      -0.844485       -22.9796
  16   2.0000      -0.835524       -22.7358
  17   2.0000      -0.785619       -21.3778
  18   2.0000      -0.696535       -18.9537
  19   2.0000      -0.662754       -18.0345
  20   2.0000      -0.613528       -16.6949
  21   2.0000      -0.559507       -15.2250
  22   2.0000      -0.538898       -14.6642
  23   2.0000      -0.520310       -14.1584
  24   2.0000      -0.515452       -14.0262
  25   2.0000      -0.513562       -13.9747
  26   2.0000      -0.465519       -12.6674
  27   2.0000      -0.460825       -12.5397
  28   2.0000      -0.454958       -12.3800
  29   2.0000      -0.452426       -12.3111
  30   2.0000      -0.341451        -9.2914
  31   2.0000      -0.308379        -8.3914
  32   2.0000      -0.307826        -8.3764
  33   2.0000      -0.293290        -7.9808
  34   2.0000      -0.285613        -7.7719
  35   0.0000       0.043821         1.1924
  36   0.0000       0.055362         1.5065
  37   0.0000       0.136925         3.7259
  38   0.0000       0.142146         3.8680
  39   0.0000       0.156280         4.2526

MULLIKEN ATOMIC CHARGES
-----------------------
   0 C :    0.159491
   1 C :   -0.069606
   2 C :   -0.087033
   3 N :   -0.425487
   4 N :   -0.403757
   5 H :    0.255943
   6 H :    0.255567
   7 C :   -0.502673
   8 C :   -0.506711
   9 H :    0.233483
  10 H :    0.233087
  11 H :    0.271221
  12 H :    0.231455
  13 H :    0.232913
  14 H :    0.275679
  15 Cl:   -0.462505
  16 H :    0.308933
Sum of atomic charges:   -0.0000000

LOEWDIN ATOMIC CHARGES
----------------------
   0 C :   -0.166493
   1 C :   -0.116673
   2 C :   -0.117626
   3 N :   -0.035764
   4 N :   -0.033864
   5 H :    0.146850
   6 H :    0.146562
   7 C :   -0.242251
   8 C :   -0.247140
   9 H :    0.131205
  10 H :    0.130403
  11 H :    0.155624
  12 H :    0.129890
  13 H :    0.131288
  14 H :    0.156163
  15 Cl:   -0.365762
  16 H :    0.197589

  Mayer bond orders larger than 0.100000
B(  0-C ,  3-N ) :   1.2098 B(  0-C ,  4-N ) :   1.2359 B(  0-C , 16-H ) :   0.2543
B(  1-C ,  2-C ) :   1.6821 B(  1-C ,  4-N ) :   1.1067 B(  1-C ,  5-H ) :   0.9001
B(  2-C ,  3-N ) :   1.1130 B(  2-C ,  6-H ) :   0.9001 B(  3-N ,  7-C ) :   0.9369
B(  4-N ,  8-C ) :   0.9282 B(  7-C ,  9-H ) :   0.9132 B(  7-C , 10-H ) :   0.9128
B(  7-C , 11-H ) :   0.9090 B(  8-C , 12-H ) :   0.9132 B(  8-C , 13-H ) :   0.9138
B(  8-C , 14-H ) :   0.8902 B( 15-Cl, 16-H ) :   0.6416

Dispersion correction           -0.008821953
FINAL SINGLE POINT ENERGY      -764.450119045060

DIPOLE MOMENT
-------------
                                X             Y             Z
Electronic contribution:      0.26481       1.33474      -7.83772
Nuclear contribution   :     -0.29940      -1.67148      10.42562
                        -----------------------------------------
Total Dipole Moment    :     -0.03459      -0.33674       2.58790
                        -----------------------------------------
Magnitude (a.u.)       :      2.60995
Magnitude (Debye)      :      6.63397

Rotational constants in cm-1:     0.073773     0.033469     0.023252
Rotational constants in MHz :  2211.667986  1003.374482   697.080242

                             ****ORCA TERMINATED NORMALLY****
TOTAL RUN TIME: 0 days 0 hours 1 minutes 9 seconds 782 msec
