                         Program Version 5.0.3 -  RELEASE  -
|  1> ! PBEh-3c def2/J TightSCF DefGrid3
|  2>
|  3> %maxcore 60000
|  4>
|  5> %pal
|  6> nprocs 4
|  7> end
|  8>
|  9> *xyzfile 0 1 PHE_xar.xyz
| 10>
| 11>                          ****END OF INPUT****

CARTESIAN COORDINATES (ANGSTROEM)
---------------------------------
  N      0.577807    0.620316    1.044836
  C      0.794945   -0.731090    0.536551
  C      2.261388   -1.109879    0.309288
  O      2.695936   -2.165424    0.761395
  C     -0.042093   -1.032040   -0.720318
  C     -1.488004   -0.707017   -0.486311
  C     -2.046901    0.468172   -0.996549
  C     -2.285963   -1.544056    0.300050
  C     -3.373321    0.801177   -0.725258
  C     -3.611146   -1.214957    0.574010
  C     -4.157441   -0.037741    0.064027
  H      0.155990    0.687847    1.954899
  H      0.464176   -1.398459    1.329725
  H      0.089493   -2.093254   -0.938932
  H      0.343258   -0.461093   -1.562240
  H     -1.436333    1.118027   -1.611419
  H     -1.867585   -2.464432    0.691155
  H     -3.794308    1.710235   -1.133853
  H     -4.217402   -1.876851    1.177690
  H     -5.187117    0.217983    0.273209
  N      2.967484   -0.241696   -0.443945
  H      2.480521    0.579787   -0.786805
  C      4.352442   -0.481672   -0.783721
  H      4.500132   -0.400015   -1.858621
  H      5.012562    0.225703   -0.283234
  H      4.603797   -1.487318   -0.461077
  C      0.616814    1.758721    0.313270
  O      1.068961    1.806810   -0.833070
  C      0.035192    2.974305    0.988055
  H      0.095805    2.919646    2.072688
  H     -1.013999    3.051685    0.702879
  H      0.555998    3.857857    0.633595

 Total Charge           Charge          ....    0
 Multiplicity           Mult            ....    1
 Number of Electrons    NEL             ....  118
 Basis Dimension        Dim             ....  272

ORBITAL ENERGIES
----------------

  NO   OCC          E(Eh)            E(eV)
   0   2.0000     -19.478273      -530.0307
   1   2.0000     -19.447136      -529.1835
   2   2.0000     -14.680757      -399.4837
   3   2.0000     -14.644792      -398.5050
   4   2.0000     -10.568529      -287.5843
   5   2.0000     -10.536992      -286.7261
   6   2.0000     -10.497992      -285.6649
   7   2.0000     -10.462624      -284.7025
   8   2.0000     -10.455102      -284.4978
   9   2.0000     -10.454877      -284.4917
  10   2.0000     -10.454356      -284.4775
  11   2.0000     -10.453697      -284.4596
  12   2.0000     -10.452892      -284.4376
  13   2.0000     -10.452787      -284.4348
  14   2.0000     -10.450406      -284.3700
  15   2.0000     -10.450070      -284.3609
  16   2.0000      -1.162333       -31.6287
  17   2.0000      -1.130824       -30.7713
  18   2.0000      -1.043776       -28.4026
  19   2.0000      -1.007890       -27.4261
  20   2.0000      -0.963457       -26.2170
  21   2.0000      -0.896586       -24.3973
  22   2.0000      -0.852511       -23.1980
  23   2.0000      -0.841184       -22.8898
  24   2.0000      -0.818831       -22.2815
  25   2.0000      -0.780973       -21.2514
  26   2.0000      -0.740028       -20.1372
  27   2.0000      -0.689459       -18.7611
  28   2.0000      -0.678521       -18.4635
  29   2.0000      -0.656156       -17.8549
  30   2.0000      -0.637201       -17.3391
  31   2.0000      -0.606639       -16.5075
  32   2.0000      -0.586881       -15.9698
  33   2.0000      -0.579571       -15.7709
  34   2.0000      -0.542428       -14.7602
  35   2.0000      -0.536286       -14.5931
  36   2.0000      -0.522695       -14.2233
  37   2.0000      -0.520053       -14.1514
  38   2.0000      -0.508090       -13.8258
  39   2.0000      -0.501537       -13.6475
  40   2.0000      -0.487097       -13.2546
  41   2.0000      -0.481768       -13.1096
  42   2.0000      -0.480292       -13.0694
  43   2.0000      -0.474991       -12.9252
  44   2.0000      -0.470598       -12.8056
  45   2.0000      -0.449504       -12.2316
  46   2.0000      -0.439954       -11.9718
  47   2.0000      -0.431791       -11.7496
  48   2.0000      -0.428534       -11.6610
  49   2.0000      -0.419399       -11.4124
  50   2.0000      -0.408633       -11.1195
  51   2.0000      -0.396332       -10.7847
  52   2.0000      -0.395389       -10.7591
  53   2.0000      -0.337436        -9.1821
  54   2.0000      -0.328137        -8.9291
  55   2.0000      -0.299795        -8.1578
  56   2.0000      -0.297517        -8.0959
  57   2.0000      -0.289032        -7.8650
  58   2.0000      -0.284589        -7.7441
  59   0.0000       0.007955         0.2165
  60   0.0000       0.011581         0.3151
  61   0.0000       0.038579         1.0498
  62   0.0000       0.070807         1.9268
  63   0.0000       0.101350         2.7579

MULLIKEN ATOMIC CHARGES
-----------------------
   0 N :   -0.617890
   1 C :   -0.191249
   2 C :    0.542189
   3 O :   -0.437001
   4 C :   -0.546766
   5 C :    0.157233
   6 C :   -0.307537
   7 C :   -0.284293
   8 C :   -0.214975
   9 C :   -0.206692
  10 C :   -0.235445
  11 H :    0.369233
  12 H :    0.272375
  13 H :    0.262464
  14 H :    0.270903
  15 H :    0.246229
  16 H :    0.219164
  17 H :    0.221225
  18 H :    0.221290
  19 H :    0.220828
  20 N :   -0.655540
  21 H :    0.412975
  22 C :   -0.492002
  23 H :    0.218220
  24 H :    0.217494
  25 H :    0.258681
  26 C :    0.545032
  27 O :   -0.473328
  28 C :   -0.745467
  29 H :    0.223871
  30 H :    0.263694
  31 H :    0.265088
Sum of atomic charges:   -0.0000000

LOEWDIN ATOMIC CHARGES
----------------------
   0 N :   -0.211616
   1 C :   -0.081860
   2 C :    0.100819
   3 O :   -0.288716
   4 C :   -0.225726
   5 C :   -0.048223
   6 C :   -0.140799
   7 C :   -0.138240
   8 C :   -0.135685
   9 C :   -0.131986
  10 C :   -0.141010
  11 H :    0.264173
  12 H :    0.149763
  13 H :    0.150095
  14 H :    0.149761
  15 H :    0.145405
  16 H :    0.136242
  17 H :    0.136437
  18 H :    0.136950
  19 H :    0.136183
  20 N :   -0.250087
  21 H :    0.266656
  22 C :   -0.256015
  23 H :    0.122759
  24 H :    0.120189
  25 H :    0.149776
  26 C :    0.117743
  27 O :   -0.303215
  28 C :   -0.383645
  29 H :    0.135342
  30 H :    0.161369
  31 H :    0.157162

  Mayer bond orders larger than 0.100000
B(  0-N ,  1-C ) :   0.9053 B(  0-N , 11-H ) :   0.8270 B(  0-N , 26-C ) :   1.1837
B(  1-C ,  2-C ) :   0.9057 B(  1-C ,  4-C ) :   0.9397 B(  1-C , 12-H ) :   0.8985
B(  2-C ,  3-O ) :   1.9778 B(  2-C , 20-N ) :   1.1883 B(  3-O , 20-N ) :   0.1057
B(  4-C ,  5-C ) :   0.9545 B(  4-C , 13-H ) :   0.9028 B(  4-C , 14-H ) :   0.8957
B(  5-C ,  6-C ) :   1.4167 B(  5-C ,  7-C ) :   1.3801 B(  6-C ,  8-C ) :   1.4167
B(  6-C , 15-H ) :   0.8988 B(  7-C ,  9-C ) :   1.4326 B(  7-C , 16-H ) :   0.9212
B(  8-C , 10-C ) :   1.4272 B(  8-C , 17-H ) :   0.9201 B(  9-C , 10-C ) :   1.4201
B(  9-C , 18-H ) :   0.9193 B( 10-C , 19-H ) :   0.9192 B( 20-N , 21-H ) :   0.7138
B( 20-N , 22-C ) :   0.9605 B( 21-H , 27-O ) :   0.1016 B( 22-C , 23-H ) :   0.9232
B( 22-C , 24-H ) :   0.9215 B( 22-C , 25-H ) :   0.9023 B( 26-C , 27-O ) :   1.8442
B( 26-C , 28-C ) :   0.9402 B( 28-C , 29-H ) :   0.9188 B( 28-C , 30-H ) :   0.8985
B( 28-C , 31-H ) :   0.9110

Dispersion correction           -0.021864167
FINAL SINGLE POINT ENERGY      -725.331506283397

DIPOLE MOMENT
-------------
                                X             Y             Z
Electronic contribution:     -1.52401      -3.26314       0.42211
Nuclear contribution   :      0.58909       4.36910       0.19356
                        -----------------------------------------
Total Dipole Moment    :     -0.93492       1.10596       0.61568
                        -----------------------------------------
Magnitude (a.u.)       :      1.57362
Magnitude (Debye)      :      3.99982

Rotational constants in cm-1:     0.030649     0.011487     0.009483
Rotational constants in MHz :   918.840543   344.377295   284.278801

                             ****ORCA TERMINATED NORMALLY****
TOTAL RUN TIME: 0 days 0 hours 4 minutes 11 seconds 932 msec
