                         Program Version 5.0.3 -  RELEASE  -
|  1> ! PBEh-3c def2/J TightSCF DefGrid3
|  2>
|  3> %maxcore 60000
|  4>
|  5> %pal
|  6> nprocs 4
|  7> end
|  8>
|  9> *xyzfile 0 2 P9.xyz
| 10>
| 11>                          ****END OF INPUT****

CARTESIAN COORDINATES (ANGSTROEM)
---------------------------------
  C     -0.772851    0.417602    0.000000
  C      0.457640   -0.398989    0.000000
  F      1.608967    0.440556    0.000000
  H     -1.182924    0.792852   -0.928390
  H     -1.182924    0.792852    0.928390
  H      0.536046   -1.022437   -0.892551
  H      0.536046   -1.022437    0.892551

 Total Charge           Charge          ....    0
 Multiplicity           Mult            ....    2
 Number of Electrons    NEL             ....   25
 Basis Dimension        Dim             ....   53

ORBITAL ENERGIES
----------------
                 SPIN UP ORBITALS
  NO   OCC          E(Eh)            E(eV)
   0   1.0000     -25.059106      -681.8929
   1   1.0000     -10.515965      -286.1540
   2   1.0000     -10.466183      -284.7993
   3   1.0000      -1.285998       -34.9938
   4   1.0000      -0.860295       -23.4098
   5   1.0000      -0.701357       -19.0849
   6   1.0000      -0.565092       -15.3769
   7   1.0000      -0.545951       -14.8561
   8   1.0000      -0.520054       -14.1514
   9   1.0000      -0.475218       -12.9313
  10   1.0000      -0.408295       -11.1103
  11   1.0000      -0.391629       -10.6568
  12   1.0000      -0.297743        -8.1020
  13   0.0000       0.149132         4.0581
  14   0.0000       0.172262         4.6875
  15   0.0000       0.187621         5.1054
  16   0.0000       0.196111         5.3365
  17   0.0000       0.273442         7.4407

                 SPIN DOWN ORBITALS
  NO   OCC          E(Eh)            E(eV)
   0   1.0000     -25.056129      -681.8119
   1   1.0000     -10.517181      -286.1870
   2   1.0000     -10.450363      -284.3688
   3   1.0000      -1.278286       -34.7839
   4   1.0000      -0.832276       -22.6474
   5   1.0000      -0.676852       -18.4181
   6   1.0000      -0.560263       -15.2455
   7   1.0000      -0.529010       -14.3951
   8   1.0000      -0.512910       -13.9570
   9   1.0000      -0.467136       -12.7114
  10   1.0000      -0.400237       -10.8910
  11   1.0000      -0.389158       -10.5895
  12   0.0000      -0.044810        -1.2193
  13   0.0000       0.157278         4.2797
  14   0.0000       0.190349         5.1797
  15   0.0000       0.192958         5.2506
  16   0.0000       0.209829         5.7098

MULLIKEN ATOMIC CHARGES AND SPIN POPULATIONS
--------------------------------------------
   0 C :   -0.461922    1.110331
   1 C :   -0.005829   -0.055587
   2 F :   -0.373472    0.054513
   3 H :    0.230850   -0.059576
   4 H :    0.230850   -0.059576
   5 H :    0.189762    0.004947
   6 H :    0.189762    0.004947
Sum of atomic charges         :   -0.0000000

LOEWDIN ATOMIC CHARGES AND SPIN POPULATIONS
-------------------------------------------
   0 C :   -0.233115    0.981468
   1 C :    0.000399    0.004279
   2 F :   -0.270082    0.060532
   3 H :    0.134487   -0.028793
   4 H :    0.134487   -0.028793
   5 H :    0.116911    0.005654
   6 H :    0.116911    0.005654

  Mayer bond orders larger than 0.100000
B(  0-C ,  1-C ) :   1.0376 B(  0-C ,  3-H ) :   0.9152 B(  0-C ,  4-H ) :   0.9152
B(  1-C ,  2-F ) :   0.9170 B(  1-C ,  5-H ) :   0.9109 B(  1-C ,  6-H ) :   0.9109

Dispersion correction           -0.001641606
FINAL SINGLE POINT ENERGY      -178.017540611970

DIPOLE MOMENT
-------------
                                X             Y             Z
Electronic contribution:      3.57268       0.96688      -0.00000
Nuclear contribution   :     -4.23481      -1.32732       0.00000
                        -----------------------------------------
Total Dipole Moment    :     -0.66213      -0.36045      -0.00000
                        -----------------------------------------
Magnitude (a.u.)       :      0.75388
Magnitude (Debye)      :      1.91621

Rotational constants in cm-1:     1.295995     0.325310     0.289947
Rotational constants in MHz : 38852.950721  9752.558945  8692.398945

                             ****ORCA TERMINATED NORMALLY****
TOTAL RUN TIME: 0 days 0 hours 2 minutes 5 seconds 504 msec
