                         Program Version 5.0.3 -  RELEASE  -
|  1> ! PBEh-3c def2/J TightSCF DefGrid3
|  2>
|  3> %maxcore 60000
|  4>
|  5> %pal
|  6> nprocs 4
|  7> end
|  8>
|  9> *xyzfile 0 1 E8.xyz
| 10>
| 11>                          ****END OF INPUT****

CARTESIAN COORDINATES (ANGSTROEM)
---------------------------------
  C     -0.642595   -0.483802    0.000000
  C      0.457931    0.555103    0.000000
  Cl     2.114621   -0.221769    0.000000
  H     -1.614513    0.019110    0.000000
  H     -0.586563   -1.118840   -0.884927
  H     -0.586563   -1.118840    0.884927
  H      0.428841    1.184519    0.886459
  H      0.428841    1.184519   -0.886459

 Total Charge           Charge          ....    0
 Multiplicity           Mult            ....    1
 Number of Electrons    NEL             ....   34
 Basis Dimension        Dim             ....   58

ORBITAL ENERGIES
----------------

  NO   OCC          E(Eh)            E(eV)
   0   2.0000    -102.277750     -2783.1191
   1   2.0000     -10.502281      -285.7816
   2   2.0000     -10.444366      -284.2056
   3   2.0000      -9.744604      -265.1641
   4   2.0000      -7.432308      -202.2434
   5   2.0000      -7.424020      -202.0178
   6   2.0000      -7.423982      -202.0168
   7   2.0000      -0.936973       -25.4963
   8   2.0000      -0.827077       -22.5059
   9   2.0000      -0.695492       -18.9253
  10   2.0000      -0.538173       -14.6444
  11   2.0000      -0.506959       -13.7951
  12   2.0000      -0.465112       -12.6563
  13   2.0000      -0.430802       -11.7227
  14   2.0000      -0.416741       -11.3401
  15   2.0000      -0.339349        -9.2341
  16   2.0000      -0.337678        -9.1887
  17   0.0000       0.070342         1.9141
  18   0.0000       0.147652         4.0178
  19   0.0000       0.185445         5.0462
  20   0.0000       0.192211         5.2303
  21   0.0000       0.201841         5.4924

MULLIKEN ATOMIC CHARGES
-----------------------
   0 C :   -0.629999
   1 C :   -0.431438
   2 Cl:   -0.150610
   3 H :    0.221402
   4 H :    0.237682
   5 H :    0.237681
   6 H :    0.257640
   7 H :    0.257640
Sum of atomic charges:   -0.0000000

LOEWDIN ATOMIC CHARGES
----------------------
   0 C :   -0.379539
   1 C :   -0.260284
   2 Cl:   -0.040866
   3 H :    0.134389
   4 H :    0.138152
   5 H :    0.138152
   6 H :    0.134998
   7 H :    0.134998

  Mayer bond orders larger than 0.100000
B(  0-C ,  1-C ) :   0.9681 B(  0-C ,  3-H ) :   0.9118 B(  0-C ,  4-H ) :   0.9202
B(  0-C ,  5-H ) :   0.9202 B(  1-C ,  2-Cl) :   1.0160 B(  1-C ,  6-H ) :   0.8915
B(  1-C ,  7-H ) :   0.8915

Dispersion correction           -0.002595212
FINAL SINGLE POINT ENERGY      -538.751390214608

DIPOLE MOMENT
-------------
                                X             Y             Z
Electronic contribution:      7.50597      -0.49656      -0.00000
Nuclear contribution   :     -8.32413       0.79460       0.00000
                        -----------------------------------------
Total Dipole Moment    :     -0.81815       0.29804      -0.00000
                        -----------------------------------------
Magnitude (a.u.)       :      0.87075
Magnitude (Debye)      :      2.21327

Rotational constants in cm-1:     1.050756     0.177161     0.160745
Rotational constants in MHz : 31500.872162  5311.142940  4819.008731

                             ****ORCA TERMINATED NORMALLY****
TOTAL RUN TIME: 0 days 0 hours 1 minutes 6 seconds 724 msec
