                         Program Version 5.0.3 -  RELEASE  -
|  1> ! PBEh-3c def2/J TightSCF DefGrid3
|  2>
|  3> %maxcore 60000
|  4>
|  5> %pal
|  6> nprocs 4
|  7> end
|  8>
|  9> *xyzfile 0 1 7b.xyz
| 10>
| 11>                          ****END OF INPUT****

CARTESIAN COORDINATES (ANGSTROEM)
---------------------------------
  N     -0.722195    0.277844    0.000000
  N      0.025649    1.387254    0.000000
  N      1.266402    0.977392    0.000000
  N      1.330044   -0.376570    0.000000
  C      0.081369   -0.795856    0.000000
  H     -1.725822    0.345080    0.000000
  H     -0.255446   -1.815143    0.000000

 Total Charge           Charge          ....    0
 Multiplicity           Mult            ....    1
 Number of Electrons    NEL             ....   36
 Basis Dimension        Dim             ....   79

ORBITAL ENERGIES
----------------

  NO   OCC          E(Eh)            E(eV)
   0   2.0000     -14.757484      -401.5716
   1   2.0000     -14.721611      -400.5954
   2   2.0000     -14.704352      -400.1258
   3   2.0000     -14.674589      -399.3159
   4   2.0000     -10.539147      -286.7848
   5   2.0000      -1.262305       -34.3491
   6   2.0000      -1.055339       -28.7172
   7   2.0000      -0.991655       -26.9843
   8   2.0000      -0.764078       -20.7916
   9   2.0000      -0.748114       -20.3572
  10   2.0000      -0.672346       -18.2955
  11   2.0000      -0.567375       -15.4391
  12   2.0000      -0.566338       -15.4108
  13   2.0000      -0.445022       -12.1097
  14   2.0000      -0.385520       -10.4905
  15   2.0000      -0.368270       -10.0211
  16   2.0000      -0.355077        -9.6621
  17   2.0000      -0.351691        -9.5700
  18   0.0000       0.007069         0.1924
  19   0.0000       0.047742         1.2991
  20   0.0000       0.104501         2.8436
  21   0.0000       0.163105         4.4383
  22   0.0000       0.223167         6.0727

MULLIKEN ATOMIC CHARGES
-----------------------
   0 N :   -0.437612
   1 N :   -0.045205
   2 N :   -0.083447
   3 N :   -0.267264
   4 C :    0.161983
   5 H :    0.397116
   6 H :    0.274429
Sum of atomic charges:   -0.0000000

LOEWDIN ATOMIC CHARGES
----------------------
   0 N :   -0.081656
   1 N :   -0.078315
   2 N :   -0.063661
   3 N :   -0.137357
   4 C :   -0.065065
   5 H :    0.276087
   6 H :    0.149966

  Mayer bond orders larger than 0.100000
B(  0-N ,  1-N ) :   1.2372 B(  0-N ,  4-C ) :   1.1691 B(  0-N ,  5-H ) :   0.7984
B(  1-N ,  2-N ) :   1.5825 B(  2-N ,  3-N ) :   1.3420 B(  3-N ,  4-C ) :   1.5587
B(  4-C ,  6-H ) :   0.9001

Dispersion correction           -0.002695527
FINAL SINGLE POINT ENERGY      -257.688602797657

DIPOLE MOMENT
-------------
                                X             Y             Z
Electronic contribution:      0.61256       0.94836       0.00000
Nuclear contribution   :     -2.54182      -1.92758       0.00000
                        -----------------------------------------
Total Dipole Moment    :     -1.92926      -0.97922       0.00000
                        -----------------------------------------
Magnitude (a.u.)       :      2.16354
Magnitude (Debye)      :      5.49929

Rotational constants in cm-1:     0.352047     0.345378     0.174340
Rotational constants in MHz : 10554.103980 10354.172111  5226.591069

                             ****ORCA TERMINATED NORMALLY****
TOTAL RUN TIME: 0 days 0 hours 1 minutes 9 seconds 279 msec
