                         Program Version 5.0.3 -  RELEASE  -
|  1> ! PBEh-3c def2/J TightSCF DefGrid3
|  2>
|  3> %maxcore 60000
|  4>
|  5> %pal
|  6> nprocs 4
|  7> end
|  8>
|  9> *xyzfile 0 2 c3h7ts.xyz
| 10>
| 11>                          ****END OF INPUT****

CARTESIAN COORDINATES (ANGSTROEM)
---------------------------------
  C     -0.593499    0.665864   -0.000048
  C     -1.503985   -0.343956   -0.000007
  H     -0.353411    1.184505   -0.917270
  H     -0.353709    1.184690    0.917165
  H     -1.848495   -0.789881    0.922515
  H     -1.848305   -0.790204   -0.922440
  C      1.490650   -0.222260    0.000030
  H      2.073814    0.688603   -0.001274
  H      1.468060   -0.789691   -0.918635
  H      1.468880   -0.787669    0.919964

 Total Charge           Charge          ....    0
 Multiplicity           Mult            ....    2
 Number of Electrons    NEL             ....   25
 Basis Dimension        Dim             ....   59

ORBITAL ENERGIES
----------------
                 SPIN UP ORBITALS
  NO   OCC          E(Eh)            E(eV)
   0   1.0000     -10.444402      -284.2066
   1   1.0000     -10.440054      -284.0883
   2   1.0000     -10.434886      -283.9477
   3   1.0000      -0.848762       -23.0960
   4   1.0000      -0.760157       -20.6849
   5   1.0000      -0.651529       -17.7290
   6   1.0000      -0.527717       -14.3599
   7   1.0000      -0.478745       -13.0273
   8   1.0000      -0.462108       -12.5746
   9   1.0000      -0.456108       -12.4113
  10   1.0000      -0.405735       -11.0406
  11   1.0000      -0.354043        -9.6340
  12   1.0000      -0.230703        -6.2778
  13   0.0000       0.065567         1.7842
  14   0.0000       0.149892         4.0788
  15   0.0000       0.186888         5.0855
  16   0.0000       0.193899         5.2763
  17   0.0000       0.221254         6.0206

                 SPIN DOWN ORBITALS
  NO   OCC          E(Eh)            E(eV)
   0   1.0000     -10.449024      -284.3324
   1   1.0000     -10.426270      -283.7132
   2   1.0000     -10.426177      -283.7107
   3   1.0000      -0.840266       -22.8648
   4   1.0000      -0.721465       -19.6321
   5   1.0000      -0.642946       -17.4954
   6   1.0000      -0.525057       -14.2875
   7   1.0000      -0.472973       -12.8702
   8   1.0000      -0.452221       -12.3055
   9   1.0000      -0.447693       -12.1823
  10   1.0000      -0.403377       -10.9765
  11   1.0000      -0.314870        -8.5680
  12   0.0000      -0.020749        -0.5646
  13   0.0000       0.091686         2.4949
  14   0.0000       0.155623         4.2347
  15   0.0000       0.195010         5.3065
  16   0.0000       0.197547         5.3755

MULLIKEN ATOMIC CHARGES AND SPIN POPULATIONS
--------------------------------------------
   0 C :   -0.448973   -0.349942
   1 C :   -0.422095    0.606529
   2 H :    0.231162    0.020560
   3 H :    0.231147    0.020555
   4 H :    0.209518   -0.033165
   5 H :    0.209517   -0.033164
   6 C :   -0.676546    0.882912
   7 H :    0.217558   -0.035051
   8 H :    0.224362   -0.039617
   9 H :    0.224352   -0.039616
Sum of atomic charges         :   -0.0000000

LOEWDIN ATOMIC CHARGES AND SPIN POPULATIONS
-------------------------------------------
   0 C :   -0.242128   -0.232661
   1 C :   -0.276683    0.511901
   2 H :    0.135819    0.014974
   3 H :    0.135816    0.014967
   4 H :    0.127612   -0.015701
   5 H :    0.127610   -0.015701
   6 C :   -0.396288    0.783411
   7 H :    0.127591   -0.018275
   8 H :    0.130326   -0.021458
   9 H :    0.130324   -0.021457

  Mayer bond orders larger than 0.100000
B(  0-C ,  1-C ) :   1.6190 B(  0-C ,  2-H ) :   0.9184 B(  0-C ,  3-H ) :   0.9184
B(  0-C ,  6-C ) :   0.2923 B(  1-C ,  4-H ) :   0.9309 B(  1-C ,  5-H ) :   0.9309
B(  6-C ,  7-H ) :   0.9254 B(  6-C ,  8-H ) :   0.9276 B(  6-C ,  9-H ) :   0.9276

Dispersion correction           -0.003186585
FINAL SINGLE POINT ENERGY      -118.148456246051

DIPOLE MOMENT
-------------
                                X             Y             Z
Electronic contribution:     -1.49119       0.27763      -0.00006
Nuclear contribution   :      1.58696      -0.26059       0.00006
                        -----------------------------------------
Total Dipole Moment    :      0.09577       0.01704       0.00000
                        -----------------------------------------
Magnitude (a.u.)       :      0.09728
Magnitude (Debye)      :      0.24726

Rotational constants in cm-1:     0.924989     0.216088     0.196004
Rotational constants in MHz : 27730.471738  6478.159933  5876.037584

                             ****ORCA TERMINATED NORMALLY****
TOTAL RUN TIME: 0 days 0 hours 1 minutes 56 seconds 78 msec
