                         Program Version 5.0.3 -  RELEASE  -
|  1> ! PBEh-3c def2/J TightSCF DefGrid3
|  2>
|  3> %maxcore 60000
|  4>
|  5> %pal
|  6> nprocs 4
|  7> end
|  8>
|  9> *xyzfile 0 1 P18.xyz
| 10>
| 11>                          ****END OF INPUT****

CARTESIAN COORDINATES (ANGSTROEM)
---------------------------------
  C     -1.123254    0.361033   -0.039559
  C     -0.025483   -0.628689    0.416843
  C      1.041417    0.407161   -0.063597
  C     -0.063458    1.493998   -0.002463
  N     -0.100108   -1.982592   -0.093648
  H     -2.014821    0.455232    0.581625
  H     -1.433727    0.142074   -1.065087
  H     -0.011955   -0.685477    1.508887
  H      1.340887    0.199743   -1.094888
  H      1.938542    0.543666    0.543691
  H     -0.064428    2.017938    0.955093
  H     -0.088193    2.233441   -0.802984
  H     -0.047439   -1.995772   -1.106902
  H      0.652019   -2.561758    0.262989

 Total Charge           Charge          ....    0
 Multiplicity           Mult            ....    1
 Number of Electrons    NEL             ....   40
 Basis Dimension        Dim             ....   93

ORBITAL ENERGIES
----------------

  NO   OCC          E(Eh)            E(eV)
   0   2.0000     -14.604831      -397.4177
   1   2.0000     -10.462002      -284.6855
   2   2.0000     -10.430487      -283.8280
   3   2.0000     -10.426675      -283.7243
   4   2.0000     -10.426362      -283.7157
   5   2.0000      -0.981793       -26.7160
   6   2.0000      -0.902696       -24.5636
   7   2.0000      -0.732947       -19.9445
   8   2.0000      -0.709872       -19.3166
   9   2.0000      -0.620773       -16.8921
  10   2.0000      -0.552818       -15.0429
  11   2.0000      -0.534994       -14.5579
  12   2.0000      -0.512992       -13.9592
  13   2.0000      -0.435691       -11.8557
  14   2.0000      -0.434947       -11.8355
  15   2.0000      -0.422399       -11.4941
  16   2.0000      -0.375068       -10.2061
  17   2.0000      -0.361307        -9.8317
  18   2.0000      -0.350888        -9.5481
  19   2.0000      -0.273920        -7.4537
  20   0.0000       0.133149         3.6232
  21   0.0000       0.149159         4.0588
  22   0.0000       0.153293         4.1713
  23   0.0000       0.182743         4.9727
  24   0.0000       0.191032         5.1982

MULLIKEN ATOMIC CHARGES
-----------------------
   0 C :   -0.430674
   1 C :   -0.057786
   2 C :   -0.447135
   3 C :   -0.439914
   4 N :   -0.744459
   5 H :    0.224502
   6 H :    0.207203
   7 H :    0.211843
   8 H :    0.201864
   9 H :    0.215221
  10 H :    0.215420
  11 H :    0.220226
  12 H :    0.308191
  13 H :    0.315497
Sum of atomic charges:   -0.0000000

LOEWDIN ATOMIC CHARGES
----------------------
   0 C :   -0.239963
   1 C :   -0.083961
   2 C :   -0.263609
   3 C :   -0.243122
   4 N :   -0.460980
   5 H :    0.123017
   6 H :    0.123453
   7 H :    0.119431
   8 H :    0.120118
   9 H :    0.118316
  10 H :    0.124736
  11 H :    0.120451
  12 H :    0.218277
  13 H :    0.223835

  Mayer bond orders larger than 0.100000
B(  0-C ,  1-C ) :   0.9640 B(  0-C ,  3-C ) :   0.9630 B(  0-C ,  5-H ) :   0.9316
B(  0-C ,  6-H ) :   0.9203 B(  1-C ,  2-C ) :   0.9432 B(  1-C ,  4-N ) :   1.0571
B(  1-C ,  7-H ) :   0.9052 B(  2-C ,  3-C ) :   0.9695 B(  2-C ,  8-H ) :   0.9211
B(  2-C ,  9-H ) :   0.9319 B(  3-C , 10-H ) :   0.9206 B(  3-C , 11-H ) :   0.9322
B(  4-N , 12-H ) :   0.8625 B(  4-N , 13-H ) :   0.8608

Dispersion correction           -0.005827106
FINAL SINGLE POINT ENERGY      -212.096588032388

DIPOLE MOMENT
-------------
                                X             Y             Z
Electronic contribution:     -0.16922      -1.17487       0.30532
Nuclear contribution   :      0.63140       1.24299      -0.46683
                        -----------------------------------------
Total Dipole Moment    :      0.46218       0.06812      -0.16151
                        -----------------------------------------
Magnitude (a.u.)       :      0.49430
Magnitude (Debye)      :      1.25642

Rotational constants in cm-1:     0.331770     0.139912     0.111965
Rotational constants in MHz :  9946.218888  4194.452046  3356.636486

                             ****ORCA TERMINATED NORMALLY****
TOTAL RUN TIME: 0 days 0 hours 1 minutes 4 seconds 194 msec
