                         Program Version 5.0.3 -  RELEASE  -
|  1> ! PBEh-3c def2/J TightSCF DefGrid3
|  2>
|  3> %maxcore 60000
|  4>
|  5> %pal
|  6> nprocs 4
|  7> end
|  8>
|  9> *xyzfile 0 1 P9X.xyz
| 10>
| 11>                          ****END OF INPUT****

CARTESIAN COORDINATES (ANGSTROEM)
---------------------------------
  C      0.638662    0.313455   -1.121987
  C     -0.514213   -0.679347   -0.765229
  C     -0.514213   -0.679347    0.765229
  C      0.638662    0.313455    1.121987
  C      1.902518   -0.380583   -0.666125
  C      1.902518   -0.380583    0.666125
  C      0.477793    1.347597    0.000000
  C     -1.874835   -0.148599   -1.139491
  C     -1.874835   -0.148599    1.139491
  O     -2.596129    0.140546    0.000000
  O     -2.330453    0.034820    2.219752
  O     -2.330453    0.034820   -2.219752
  H      0.607324    0.665239   -2.150922
  H     -0.374089   -1.650235   -1.239728
  H     -0.374089   -1.650235    1.239728
  H      0.607324    0.665239    2.150922
  H      2.607616   -0.872186   -1.323682
  H      2.607616   -0.872186    1.323682
  H     -0.487270    1.862268    0.000000
  H      1.280547    2.084463    0.000000

 Total Charge           Charge          ....    0
 Multiplicity           Mult            ....    1
 Number of Electrons    NEL             ....   86
 Basis Dimension        Dim             ....  196

ORBITAL ENERGIES
----------------

  NO   OCC          E(Eh)            E(eV)
   0   2.0000     -19.574465      -532.6483
   1   2.0000     -19.510531      -530.9085
   2   2.0000     -19.510509      -530.9079
   3   2.0000     -10.601750      -288.4883
   4   2.0000     -10.601708      -288.4871
   5   2.0000     -10.489138      -285.4240
   6   2.0000     -10.488903      -285.4176
   7   2.0000     -10.483428      -285.2686
   8   2.0000     -10.483373      -285.2671
   9   2.0000     -10.466599      -284.8106
  10   2.0000     -10.465603      -284.7835
  11   2.0000     -10.464038      -284.7409
  12   2.0000      -1.267178       -34.4817
  13   2.0000      -1.195162       -32.5220
  14   2.0000      -1.152604       -31.3639
  15   2.0000      -1.028758       -27.9939
  16   2.0000      -0.901038       -24.5185
  17   2.0000      -0.853188       -23.2164
  18   2.0000      -0.820818       -22.3356
  19   2.0000      -0.769075       -20.9276
  20   2.0000      -0.709610       -19.3095
  21   2.0000      -0.692632       -18.8475
  22   2.0000      -0.635806       -17.3012
  23   2.0000      -0.617137       -16.7931
  24   2.0000      -0.613852       -16.7038
  25   2.0000      -0.596832       -16.2406
  26   2.0000      -0.559449       -15.2234
  27   2.0000      -0.548684       -14.9305
  28   2.0000      -0.533607       -14.5202
  29   2.0000      -0.509153       -13.8548
  30   2.0000      -0.497949       -13.5499
  31   2.0000      -0.485547       -13.2124
  32   2.0000      -0.478034       -13.0080
  33   2.0000      -0.450258       -12.2522
  34   2.0000      -0.440606       -11.9895
  35   2.0000      -0.434921       -11.8348
  36   2.0000      -0.422815       -11.5054
  37   2.0000      -0.409879       -11.1534
  38   2.0000      -0.406235       -11.0542
  39   2.0000      -0.388828       -10.5806
  40   2.0000      -0.367754       -10.0071
  41   2.0000      -0.339616        -9.2414
  42   2.0000      -0.313018        -8.5177
  43   0.0000      -0.001674        -0.0455
  44   0.0000       0.020399         0.5551
  45   0.0000       0.022643         0.6161
  46   0.0000       0.134460         3.6588
  47   0.0000       0.138850         3.7783

MULLIKEN ATOMIC CHARGES
-----------------------
   0 C :   -0.299830
   1 C :   -0.396308
   2 C :   -0.396308
   3 C :   -0.299830
   4 C :   -0.167054
   5 C :   -0.167055
   6 C :   -0.438662
   7 C :    0.572254
   8 C :    0.572254
   9 O :   -0.430982
  10 O :   -0.320773
  11 O :   -0.320773
  12 H :    0.259324
  13 H :    0.301134
  14 H :    0.301135
  15 H :    0.259324
  16 H :    0.231155
  17 H :    0.231155
  18 H :    0.246659
  19 H :    0.263181
Sum of atomic charges:   -0.0000000

LOEWDIN ATOMIC CHARGES
----------------------
   0 C :   -0.122673
   1 C :   -0.168117
   2 C :   -0.168117
   3 C :   -0.122673
   4 C :   -0.131592
   5 C :   -0.131592
   6 C :   -0.211565
   7 C :    0.158728
   8 C :    0.158728
   9 O :   -0.120495
  10 O :   -0.152506
  11 O :   -0.152506
  12 H :    0.142566
  13 H :    0.162424
  14 H :    0.162424
  15 H :    0.142566
  16 H :    0.139899
  17 H :    0.139899
  18 H :    0.130044
  19 H :    0.144557

  Mayer bond orders larger than 0.100000
B(  0-C ,  1-C ) :   0.9304 B(  0-C ,  4-C ) :   0.9850 B(  0-C ,  6-C ) :   0.9440
B(  0-C , 12-H ) :   0.9135 B(  1-C ,  2-C ) :   0.9334 B(  1-C ,  7-C ) :   0.9298
B(  1-C , 13-H ) :   0.8856 B(  2-C ,  3-C ) :   0.9304 B(  2-C ,  8-C ) :   0.9298
B(  2-C , 14-H ) :   0.8856 B(  3-C ,  5-C ) :   0.9850 B(  3-C ,  6-C ) :   0.9440
B(  3-C , 15-H ) :   0.9135 B(  4-C ,  5-C ) :   1.8612 B(  4-C , 16-H ) :   0.9226
B(  5-C , 17-H ) :   0.9226 B(  6-C , 18-H ) :   0.9078 B(  6-C , 19-H ) :   0.9141
B(  7-C ,  9-O ) :   1.0029 B(  7-C , 11-O ) :   2.1569 B(  8-C ,  9-O ) :   1.0029
B(  8-C , 10-O ) :   2.1569

Dispersion correction           -0.013703360
FINAL SINGLE POINT ENERGY      -572.222263261349

DIPOLE MOMENT
-------------
                                X             Y             Z
Electronic contribution:     -8.68940      -0.83084       0.00000
Nuclear contribution   :     10.57490       0.30014       0.00000
                        -----------------------------------------
Total Dipole Moment    :      1.88550      -0.53069       0.00000
                        -----------------------------------------
Magnitude (a.u.)       :      1.95876
Magnitude (Debye)      :      4.97878

Rotational constants in cm-1:     0.053487     0.034918     0.024533
Rotational constants in MHz :  1603.485174  1046.826564   735.467051

                             ****ORCA TERMINATED NORMALLY****
TOTAL RUN TIME: 0 days 0 hours 1 minutes 55 seconds 282 msec
