                         Program Version 5.0.3 -  RELEASE  -
|  1> ! PBEh-3c def2/J TightSCF DefGrid3
|  2>
|  3> %maxcore 60000
|  4>
|  5> %pal
|  6> nprocs 4
|  7> end
|  8>
|  9> *xyzfile 1 2 IP_60.xyz
| 10>
| 11>                          ****END OF INPUT****

CARTESIAN COORDINATES (ANGSTROEM)
---------------------------------
  N      0.000001    0.000000    0.000000
  H      0.480437   -0.904481    0.000000
  H      0.543084    0.868312    0.000000
  H     -1.023522    0.036169    0.000000

 Total Charge           Charge          ....    1
 Multiplicity           Mult            ....    2
 Number of Electrons    NEL             ....    9
 Basis Dimension        Dim             ....   21

ORBITAL ENERGIES
----------------
                 SPIN UP ORBITALS
  NO   OCC          E(Eh)            E(eV)
   0   1.0000     -15.076572      -410.2544
   1   1.0000      -1.367993       -37.2250
   2   1.0000      -0.942610       -25.6497
   3   1.0000      -0.942610       -25.6497
   4   1.0000      -0.782671       -21.2976
   5   0.0000      -0.177700        -4.8355
   6   0.0000      -0.088771        -2.4156
   7   0.0000      -0.088770        -2.4156
   8   0.0000       0.377617        10.2755
   9   0.0000       0.436299        11.8723

                 SPIN DOWN ORBITALS
  NO   OCC          E(Eh)            E(eV)
   0   1.0000     -15.051544      -409.5733
   1   1.0000      -1.292539       -35.1718
   2   1.0000      -0.922588       -25.1049
   3   1.0000      -0.922588       -25.1049
   4   0.0000      -0.428100       -11.6492
   5   0.0000      -0.159946        -4.3524
   6   0.0000      -0.081540        -2.2188
   7   0.0000      -0.081539        -2.2188
   8   0.0000       0.444641        12.0993

MULLIKEN ATOMIC CHARGES AND SPIN POPULATIONS
--------------------------------------------
   0 N :   -0.500381    1.118741
   1 H :    0.500126   -0.039580
   2 H :    0.500128   -0.039580
   3 H :    0.500127   -0.039581
Sum of atomic charges         :    1.0000000

LOEWDIN ATOMIC CHARGES AND SPIN POPULATIONS
-------------------------------------------
   0 N :   -0.005745    1.082521
   1 H :    0.335248   -0.027507
   2 H :    0.335248   -0.027507
   3 H :    0.335249   -0.027507

  Mayer bond orders larger than 0.100000
B(  0-N ,  1-H ) :   0.7303 B(  0-N ,  2-H ) :   0.7303 B(  0-N ,  3-H ) :   0.7303

Dispersion correction           -0.000442962
FINAL SINGLE POINT ENERGY       -56.066260485909

DIPOLE MOMENT
-------------
                                X             Y             Z
Electronic contribution:     -0.00000       0.00000      -0.00000
Nuclear contribution   :     -0.00000      -0.00000       0.00000
                        -----------------------------------------
Total Dipole Moment    :     -0.00000       0.00000      -0.00000
                        -----------------------------------------
Magnitude (a.u.)       :      0.00000
Magnitude (Debye)      :      0.00001

Rotational constants in cm-1:    10.629409    10.629395     5.314701
Rotational constants in MHz : 318661.666853 318661.253055 159330.729977

                             ****ORCA TERMINATED NORMALLY****
TOTAL RUN TIME: 0 days 0 hours 0 minutes 9 seconds 971 msec
