                         Program Version 5.0.3 -  RELEASE  -
|  1> ! PBEh-3c def2/J TightSCF DefGrid3
|  2>
|  3> %maxcore 60000
|  4>
|  5> %pal
|  6> nprocs 4
|  7> end
|  8>
|  9> *xyzfile 0 1 hcno.xyz
| 10>
| 11>                          ****END OF INPUT****

CARTESIAN COORDINATES (ANGSTROEM)
---------------------------------
  C     -1.233246    0.000000    0.000000
  H     -2.293792    0.000000    0.000000
  N     -0.071215    0.000000    0.000000
  O      1.132663    0.000000    0.000000

 Total Charge           Charge          ....    0
 Multiplicity           Mult            ....    1
 Number of Electrons    NEL             ....   22
 Basis Dimension        Dim             ....   47

ORBITAL ENERGIES
----------------

  NO   OCC          E(Eh)            E(eV)
   0   2.0000     -19.533071      -531.5219
   1   2.0000     -14.813438      -403.0942
   2   2.0000     -10.517337      -286.1913
   3   2.0000      -1.275785       -34.7159
   4   2.0000      -1.021227       -27.7890
   5   2.0000      -0.675589       -18.3837
   6   2.0000      -0.597215       -16.2510
   7   2.0000      -0.560524       -15.2526
   8   2.0000      -0.560524       -15.2526
   9   2.0000      -0.322890        -8.7863
  10   2.0000      -0.322890        -8.7863
  11   0.0000       0.046189         1.2569
  12   0.0000       0.046189         1.2569
  13   0.0000       0.116338         3.1657
  14   0.0000       0.234177         6.3723
  15   0.0000       0.364889         9.9291

MULLIKEN ATOMIC CHARGES
-----------------------
   0 C :   -0.166909
   1 H :    0.327486
   2 N :    0.216321
   3 O :   -0.376898
Sum of atomic charges:   -0.0000000

LOEWDIN ATOMIC CHARGES
----------------------
   0 C :   -0.191518
   1 H :    0.188263
   2 N :    0.238117
   3 O :   -0.234862

  Mayer bond orders larger than 0.100000
B(  0-C ,  1-H ) :   0.8667 B(  0-C ,  2-N ) :   2.3583 B(  0-C ,  3-O ) :   0.4343
B(  2-N ,  3-O ) :   1.6496

Dispersion correction           -0.000802737
FINAL SINGLE POINT ENERGY      -168.205246821537

DIPOLE MOMENT
-------------
                                X             Y             Z
Electronic contribution:      0.81722       0.00000       0.00000
Nuclear contribution   :     -2.13561       0.00000       0.00000
                        -----------------------------------------
Total Dipole Moment    :     -1.31838       0.00000       0.00000
                        -----------------------------------------
Magnitude (a.u.)       :      1.31838
Magnitude (Debye)      :      3.35106

Rotational constants in cm-1:     0.000000     0.381674     0.381674
Rotational constants in MHz :     0.000000 11442.309894 11442.309894

                             ****ORCA TERMINATED NORMALLY****
TOTAL RUN TIME: 0 days 0 hours 0 minutes 54 seconds 711 msec
