                         Program Version 5.0.3 -  RELEASE  -
|  1> ! PBEh-3c def2/J TightSCF DefGrid3
|  2>
|  3> %maxcore 60000
|  4>
|  5> %pal
|  6> nprocs 4
|  7> end
|  8>
|  9> *xyzfile 0 1 AM6.xyz
| 10>
| 11>                          ****END OF INPUT****

CARTESIAN COORDINATES (ANGSTROEM)
---------------------------------
  C      0.645551   -0.407563    0.000000
  C     -0.645551    0.407563    0.000000
  C      1.905245    0.455548    0.000000
  C     -1.905245   -0.455548    0.000000
  C      3.188872   -0.370459    0.000000
  C     -3.188872    0.370459    0.000000
  H      0.658791   -1.066678    0.878796
  H      0.658791   -1.066678   -0.878796
  H     -0.658791    1.066678    0.878796
  H     -0.658791    1.066678   -0.878796
  H      1.890410    1.113462   -0.878008
  H      1.890410    1.113462    0.878008
  H     -1.890410   -1.113462   -0.878008
  H     -1.890410   -1.113462    0.878008
  H      4.076897    0.268530    0.000000
  H      3.237787   -1.013830   -0.884049
  H      3.237787   -1.013830    0.884049
  H     -4.076897   -0.268530    0.000000
  H     -3.237787    1.013830   -0.884049
  H     -3.237787    1.013830    0.884049

 Total Charge           Charge          ....    0
 Multiplicity           Mult            ....    1
 Number of Electrons    NEL             ....   50
 Basis Dimension        Dim             ....  118

ORBITAL ENERGIES
----------------

  NO   OCC          E(Eh)            E(eV)
   0   2.0000     -10.428607      -283.7768
   1   2.0000     -10.428581      -283.7761
   2   2.0000     -10.426826      -283.7284
   3   2.0000     -10.426602      -283.7223
   4   2.0000     -10.420751      -283.5631
   5   2.0000     -10.420743      -283.5628
   6   2.0000      -0.896014       -24.3818
   7   2.0000      -0.854303       -23.2468
   8   2.0000      -0.789726       -21.4895
   9   2.0000      -0.713015       -19.4021
  10   2.0000      -0.650805       -17.7093
  11   2.0000      -0.642906       -17.4944
  12   2.0000      -0.538756       -14.6603
  13   2.0000      -0.502414       -13.6714
  14   2.0000      -0.491558       -13.3760
  15   2.0000      -0.475590       -12.9415
  16   2.0000      -0.451902       -12.2969
  17   2.0000      -0.432700       -11.7744
  18   2.0000      -0.428812       -11.6686
  19   2.0000      -0.403358       -10.9759
  20   2.0000      -0.388511       -10.5719
  21   2.0000      -0.373032       -10.1507
  22   2.0000      -0.370831       -10.0908
  23   2.0000      -0.364814        -9.9271
  24   2.0000      -0.354744        -9.6531
  25   0.0000       0.134491         3.6597
  26   0.0000       0.148087         4.0296
  27   0.0000       0.176209         4.7949
  28   0.0000       0.178608         4.8602
  29   0.0000       0.186205         5.0669

MULLIKEN ATOMIC CHARGES
-----------------------
   0 C :   -0.394056
   1 C :   -0.394056
   2 C :   -0.408163
   3 C :   -0.408163
   4 C :   -0.637078
   5 C :   -0.637078
   6 H :    0.199007
   7 H :    0.199007
   8 H :    0.199007
   9 H :    0.199007
  10 H :    0.203763
  11 H :    0.203763
  12 H :    0.203763
  13 H :    0.203763
  14 H :    0.217441
  15 H :    0.208158
  16 H :    0.208158
  17 H :    0.217441
  18 H :    0.208158
  19 H :    0.208158
Sum of atomic charges:   -0.0000000

LOEWDIN ATOMIC CHARGES
----------------------
   0 C :   -0.239736
   1 C :   -0.239736
   2 C :   -0.245385
   3 C :   -0.245385
   4 C :   -0.361774
   5 C :   -0.361774
   6 H :    0.118311
   7 H :    0.118311
   8 H :    0.118311
   9 H :    0.118311
  10 H :    0.119091
  11 H :    0.119091
  12 H :    0.119091
  13 H :    0.119091
  14 H :    0.125772
  15 H :    0.123159
  16 H :    0.123159
  17 H :    0.125772
  18 H :    0.123159
  19 H :    0.123159

  Mayer bond orders larger than 0.100000
B(  0-C ,  1-C ) :   0.9952 B(  0-C ,  2-C ) :   0.9894 B(  0-C ,  6-H ) :   0.9184
B(  0-C ,  7-H ) :   0.9184 B(  1-C ,  3-C ) :   0.9894 B(  1-C ,  8-H ) :   0.9184
B(  1-C ,  9-H ) :   0.9184 B(  2-C ,  4-C ) :   0.9971 B(  2-C , 10-H ) :   0.9206
B(  2-C , 11-H ) :   0.9206 B(  3-C ,  5-C ) :   0.9971 B(  3-C , 12-H ) :   0.9206
B(  3-C , 13-H ) :   0.9206 B(  4-C , 14-H ) :   0.9323 B(  4-C , 15-H ) :   0.9296
B(  4-C , 16-H ) :   0.9296 B(  5-C , 17-H ) :   0.9323 B(  5-C , 18-H ) :   0.9296
B(  5-C , 19-H ) :   0.9296

Dispersion correction           -0.008497428
FINAL SINGLE POINT ENERGY      -236.561459159670

DIPOLE MOMENT
-------------
                                X             Y             Z
Electronic contribution:      0.00000      -0.00000       0.00000
Nuclear contribution   :      0.00000       0.00000       0.00000
                        -----------------------------------------
Total Dipole Moment    :      0.00000      -0.00000       0.00000
                        -----------------------------------------
Magnitude (a.u.)       :      0.00000
Magnitude (Debye)      :      0.00000

Rotational constants in cm-1:     0.486987     0.037993     0.036681
Rotational constants in MHz : 14599.495731  1139.008527  1099.676883

                             ****ORCA TERMINATED NORMALLY****
TOTAL RUN TIME: 0 days 0 hours 1 minutes 17 seconds 632 msec
