                         Program Version 5.0.3 -  RELEASE  -
|  1> ! PBEh-3c def2/J TightSCF DefGrid3
|  2>
|  3> %maxcore 60000
|  4>
|  5> %pal
|  6> nprocs 4
|  7> end
|  8>
|  9> *xyzfile 0 1 61A.xyz
| 10>
| 11>                          ****END OF INPUT****

CARTESIAN COORDINATES (ANGSTROEM)
---------------------------------
  C     -2.524042   -0.105057    0.354109
  H     -2.739415   -0.697909   -0.534792
  H     -2.475021   -0.788429    1.201598
  H     -3.360723    0.574961    0.510175
  C     -1.210396    0.649296    0.192174
  H     -1.037397    1.280449    1.067477
  H     -1.274874    1.325463   -0.663684
  C     -0.022195   -0.284693    0.002760
  H      0.060747   -0.945121    0.870813
  H     -0.209547   -0.935981   -0.856015
  C      1.294304    0.451192   -0.208226
  H      1.462941    1.137789    0.625221
  H      1.217397    1.073761   -1.102519
  C      2.478879   -0.496843   -0.339766
  H      2.340044   -1.173196   -1.182983
  H      3.412803    0.041711   -0.493194
  H      2.586496   -1.107392    0.556850

 Total Charge           Charge          ....    0
 Multiplicity           Mult            ....    1
 Number of Electrons    NEL             ....   42
 Basis Dimension        Dim             ....   99

ORBITAL ENERGIES
----------------

  NO   OCC          E(Eh)            E(eV)
   0   2.0000     -10.426784      -283.7272
   1   2.0000     -10.426739      -283.7260
   2   2.0000     -10.424746      -283.6718
   3   2.0000     -10.418864      -283.5117
   4   2.0000     -10.418775      -283.5093
   5   2.0000      -0.893026       -24.3005
   6   2.0000      -0.836890       -22.7729
   7   2.0000      -0.754514       -20.5314
   8   2.0000      -0.670466       -18.2443
   9   2.0000      -0.644440       -17.5361
  10   2.0000      -0.535679       -14.5766
  11   2.0000      -0.495233       -13.4760
  12   2.0000      -0.488011       -13.2794
  13   2.0000      -0.457452       -12.4479
  14   2.0000      -0.447389       -12.1741
  15   2.0000      -0.427784       -11.6406
  16   2.0000      -0.402301       -10.9472
  17   2.0000      -0.382047       -10.3960
  18   2.0000      -0.373548       -10.1648
  19   2.0000      -0.365991        -9.9591
  20   2.0000      -0.361429        -9.8350
  21   0.0000       0.137599         3.7443
  22   0.0000       0.154977         4.2171
  23   0.0000       0.185472         5.0470
  24   0.0000       0.186727         5.0811
  25   0.0000       0.202805         5.5186

MULLIKEN ATOMIC CHARGES
-----------------------
   0 C :   -0.638416
   1 H :    0.208830
   2 H :    0.208826
   3 H :    0.218203
   4 C :   -0.410437
   5 H :    0.204732
   6 H :    0.204373
   7 C :   -0.391260
   8 H :    0.199615
   9 H :    0.199487
  10 C :   -0.410409
  11 H :    0.204299
  12 H :    0.204897
  13 C :   -0.638722
  14 H :    0.208775
  15 H :    0.218378
  16 H :    0.208828
Sum of atomic charges:    0.0000000

LOEWDIN ATOMIC CHARGES
----------------------
   0 C :   -0.361892
   1 H :    0.123234
   2 H :    0.123419
   3 H :    0.125785
   4 C :   -0.246232
   5 H :    0.119181
   6 H :    0.119239
   7 C :   -0.241602
   8 H :    0.118058
   9 H :    0.118238
  10 C :   -0.246273
  11 H :    0.119034
  12 H :    0.119432
  13 C :   -0.361960
  14 H :    0.123300
  15 H :    0.125755
  16 H :    0.123283

  Mayer bond orders larger than 0.100000
B(  0-C ,  1-H ) :   0.9296 B(  0-C ,  2-H ) :   0.9295 B(  0-C ,  3-H ) :   0.9326
B(  0-C ,  4-C ) :   0.9984 B(  4-C ,  5-H ) :   0.9203 B(  4-C ,  6-H ) :   0.9205
B(  4-C ,  7-C ) :   0.9922 B(  7-C ,  8-H ) :   0.9182 B(  7-C ,  9-H ) :   0.9181
B(  7-C , 10-C ) :   0.9921 B( 10-C , 11-H ) :   0.9206 B( 10-C , 12-H ) :   0.9202
B( 10-C , 13-C ) :   0.9986 B( 13-C , 14-H ) :   0.9296 B( 13-C , 15-H ) :   0.9325
B( 13-C , 16-H ) :   0.9297

Dispersion correction           -0.006815870
FINAL SINGLE POINT ENERGY      -197.333849864549

DIPOLE MOMENT
-------------
                                X             Y             Z
Electronic contribution:      0.04528       0.58767       0.00032
Nuclear contribution   :     -0.04394      -0.56790      -0.00279
                        -----------------------------------------
Total Dipole Moment    :      0.00134       0.01977      -0.00248
                        -----------------------------------------
Magnitude (a.u.)       :      0.01997
Magnitude (Debye)      :      0.05077

Rotational constants in cm-1:     0.568797     0.065464     0.062057
Rotational constants in MHz : 17052.096655  1962.547393  1860.428581

                             ****ORCA TERMINATED NORMALLY****
TOTAL RUN TIME: 0 days 0 hours 1 minutes 11 seconds 824 msec
