                         Program Version 5.0.3 -  RELEASE  -
|  1> ! PBEh-3c def2/J TightSCF DefGrid3
|  2>
|  3> %maxcore 60000
|  4>
|  5> %pal
|  6> nprocs 4
|  7> end
|  8>
|  9> *xyzfile 0 1 H_gtg.xyz
| 10>
| 11>                          ****END OF INPUT****

CARTESIAN COORDINATES (ANGSTROEM)
---------------------------------
  C      0.033781    2.513165    0.683114
  C      0.698981    1.828241   -0.505244
  C      0.698981    0.305138   -0.400831
  C     -0.698981   -0.305138   -0.400831
  C     -0.698981   -1.828241   -0.505244
  C     -0.033781   -2.513165    0.683114
  H      0.500381    2.199752    1.617726
  H     -1.025832    2.271578    0.743462
  H      0.121052    3.596338    0.613606
  H      1.728887    2.179156   -0.590370
  H      0.194077    2.123459   -1.428179
  H      1.233058    0.014418    0.506821
  H      1.261684   -0.113101   -1.240103
  H     -1.261684    0.113101   -1.240103
  H     -1.233058   -0.014418    0.506821
  H     -0.194077   -2.123459   -1.428179
  H     -1.728887   -2.179156   -0.590370
  H     -0.121052   -3.596338    0.613606
  H     -0.500381   -2.199752    1.617726
  H      1.025832   -2.271578    0.743462

 Total Charge           Charge          ....    0
 Multiplicity           Mult            ....    1
 Number of Electrons    NEL             ....   50
 Basis Dimension        Dim             ....  118

ORBITAL ENERGIES
----------------

  NO   OCC          E(Eh)            E(eV)
   0   2.0000     -10.426954      -283.7318
   1   2.0000     -10.426922      -283.7310
   2   2.0000     -10.424666      -283.6696
   3   2.0000     -10.424438      -283.6634
   4   2.0000     -10.418088      -283.4906
   5   2.0000     -10.418088      -283.4906
   6   2.0000      -0.898728       -24.4556
   7   2.0000      -0.853120       -23.2146
   8   2.0000      -0.784098       -21.3364
   9   2.0000      -0.726446       -19.7676
  10   2.0000      -0.663207       -18.0468
  11   2.0000      -0.624701       -16.9990
  12   2.0000      -0.529699       -14.4138
  13   2.0000      -0.510652       -13.8956
  14   2.0000      -0.492643       -13.4055
  15   2.0000      -0.486377       -13.2350
  16   2.0000      -0.449717       -12.2374
  17   2.0000      -0.434043       -11.8109
  18   2.0000      -0.429644       -11.6912
  19   2.0000      -0.401541       -10.9265
  20   2.0000      -0.387578       -10.5465
  21   2.0000      -0.385446       -10.4885
  22   2.0000      -0.362559        -9.8657
  23   2.0000      -0.361438        -9.8352
  24   2.0000      -0.352536        -9.5930
  25   0.0000       0.138036         3.7561
  26   0.0000       0.154637         4.2079
  27   0.0000       0.174318         4.7434
  28   0.0000       0.178313         4.8521
  29   0.0000       0.195287         5.3140

MULLIKEN ATOMIC CHARGES
-----------------------
   0 C :   -0.646199
   1 C :   -0.415260
   2 C :   -0.413072
   3 C :   -0.413072
   4 C :   -0.415260
   5 C :   -0.646199
   6 H :    0.207675
   7 H :    0.214825
   8 H :    0.220013
   9 H :    0.213849
  10 H :    0.204127
  11 H :    0.206020
  12 H :    0.208022
  13 H :    0.208022
  14 H :    0.206020
  15 H :    0.204127
  16 H :    0.213849
  17 H :    0.220013
  18 H :    0.207675
  19 H :    0.214825
Sum of atomic charges:   -0.0000000

LOEWDIN ATOMIC CHARGES
----------------------
   0 C :   -0.364847
   1 C :   -0.244982
   2 C :   -0.243018
   3 C :   -0.243018
   4 C :   -0.244982
   5 C :   -0.364847
   6 H :    0.122879
   7 H :    0.123752
   8 H :    0.126278
   9 H :    0.121603
  10 H :    0.118521
  11 H :    0.119258
  12 H :    0.120557
  13 H :    0.120557
  14 H :    0.119258
  15 H :    0.118521
  16 H :    0.121603
  17 H :    0.126278
  18 H :    0.122879
  19 H :    0.123752

  Mayer bond orders larger than 0.100000
B(  0-C ,  1-C ) :   0.9898 B(  0-C ,  6-H ) :   0.9295 B(  0-C ,  7-H ) :   0.9269
B(  0-C ,  8-H ) :   0.9313 B(  1-C ,  2-C ) :   0.9945 B(  1-C ,  9-H ) :   0.9258
B(  1-C , 10-H ) :   0.9207 B(  2-C ,  3-C ) :   0.9744 B(  2-C , 11-H ) :   0.9168
B(  2-C , 12-H ) :   0.9236 B(  3-C ,  4-C ) :   0.9945 B(  3-C , 13-H ) :   0.9236
B(  3-C , 14-H ) :   0.9168 B(  4-C ,  5-C ) :   0.9898 B(  4-C , 15-H ) :   0.9207
B(  4-C , 16-H ) :   0.9258 B(  5-C , 17-H ) :   0.9313 B(  5-C , 18-H ) :   0.9295
B(  5-C , 19-H ) :   0.9269

Dispersion correction           -0.008987458
FINAL SINGLE POINT ENERGY      -236.560229124241

DIPOLE MOMENT
-------------
                                X             Y             Z
Electronic contribution:      0.00000       0.00000      -1.19317
Nuclear contribution   :     -0.00000      -0.00000       1.16616
                        -----------------------------------------
Total Dipole Moment    :      0.00000       0.00000      -0.02701
                        -----------------------------------------
Magnitude (a.u.)       :      0.02701
Magnitude (Debye)      :      0.06866

Rotational constants in cm-1:     0.249116     0.049918     0.049141
Rotational constants in MHz :  7468.312584  1496.503554  1473.214745

                             ****ORCA TERMINATED NORMALLY****
TOTAL RUN TIME: 0 days 0 hours 1 minutes 24 seconds 28 msec
