                         Program Version 5.0.3 -  RELEASE  -
|  1> ! PBEh-3c def2/J TightSCF DefGrid3
|  2>
|  3> %maxcore 60000
|  4>
|  5> %pal
|  6> nprocs 4
|  7> end
|  8>
|  9> *xyzfile 0 1 B8.xyz
| 10>
| 11>                          ****END OF INPUT****

CARTESIAN COORDINATES (ANGSTROEM)
---------------------------------
  C     -1.824129   -0.641852   -0.185956
  H     -2.336832   -1.494785    0.268355
  O     -2.485491    0.578469    0.152396
  C     -0.399989   -0.560509    0.329901
  H     -0.431823   -0.403058    1.411128
  H      0.095542   -1.515795    0.153729
  C      0.399982    0.560539   -0.329827
  H     -0.095517    1.515835   -0.153617
  H      0.431775    0.403117   -1.411059
  H     -3.375106    0.540032   -0.207182
  H     -1.816911   -0.788522   -1.271355
  C      1.824145    0.641833    0.185975
  H      2.336838    1.494787   -0.268308
  H      1.816979    0.788436    1.271384
  O      2.485476   -0.578477   -0.152479
  H      3.375120   -0.540057    0.207029

 Total Charge           Charge          ....    0
 Multiplicity           Mult            ....    1
 Number of Electrons    NEL             ....   50
 Basis Dimension        Dim             ....  110

ORBITAL ENERGIES
----------------

  NO   OCC          E(Eh)            E(eV)
   0   2.0000     -19.479338      -530.0597
   1   2.0000     -19.479333      -530.0596
   2   2.0000     -10.474903      -285.0366
   3   2.0000     -10.474868      -285.0356
   4   2.0000     -10.421221      -283.5758
   5   2.0000     -10.421002      -283.5699
   6   2.0000      -1.115650       -30.3584
   7   2.0000      -1.114675       -30.3318
   8   2.0000      -0.873883       -23.7796
   9   2.0000      -0.794069       -21.6077
  10   2.0000      -0.693064       -18.8592
  11   2.0000      -0.638719       -17.3804
  12   2.0000      -0.583491       -15.8776
  13   2.0000      -0.567099       -15.4316
  14   2.0000      -0.515340       -14.0231
  15   2.0000      -0.514987       -14.0135
  16   2.0000      -0.460310       -12.5257
  17   2.0000      -0.453559       -12.3420
  18   2.0000      -0.437653       -11.9092
  19   2.0000      -0.391331       -10.6487
  20   2.0000      -0.388646       -10.5756
  21   2.0000      -0.379065       -10.3149
  22   2.0000      -0.360498        -9.8096
  23   2.0000      -0.321525        -8.7491
  24   2.0000      -0.317176        -8.6308
  25   0.0000       0.132533         3.6064
  26   0.0000       0.136441         3.7127
  27   0.0000       0.171841         4.6760
  28   0.0000       0.181873         4.9490
  29   0.0000       0.200806         5.4642

MULLIKEN ATOMIC CHARGES
-----------------------
   0 C :   -0.156178
   1 H :    0.188155
   2 O :   -0.634759
   3 C :   -0.436802
   4 H :    0.213212
   5 H :    0.234362
   6 C :   -0.436798
   7 H :    0.234361
   8 H :    0.213212
   9 H :    0.415707
  10 H :    0.176302
  11 C :   -0.156178
  12 H :    0.188154
  13 H :    0.176301
  14 O :   -0.634758
  15 H :    0.415707
Sum of atomic charges:    0.0000000

LOEWDIN ATOMIC CHARGES
----------------------
   0 C :   -0.090724
   1 H :    0.099407
   2 O :   -0.422568
   3 C :   -0.252521
   4 H :    0.126513
   5 H :    0.136277
   6 C :   -0.252520
   7 H :    0.136276
   8 H :    0.126514
   9 H :    0.307290
  10 H :    0.096326
  11 C :   -0.090724
  12 H :    0.099407
  13 H :    0.096326
  14 O :   -0.422568
  15 H :    0.307290

  Mayer bond orders larger than 0.100000
B(  0-C ,  1-H ) :   0.9116 B(  0-C ,  2-O ) :   1.0023 B(  0-C ,  3-C ) :   0.9907
B(  0-C , 10-H ) :   0.9067 B(  2-O ,  9-H ) :   0.7947 B(  3-C ,  4-H ) :   0.9141
B(  3-C ,  5-H ) :   0.9082 B(  3-C ,  6-C ) :   0.9765 B(  6-C ,  7-H ) :   0.9082
B(  6-C ,  8-H ) :   0.9141 B(  6-C , 11-C ) :   0.9907 B( 11-C , 12-H ) :   0.9116
B( 11-C , 13-H ) :   0.9067 B( 11-C , 14-O ) :   1.0023 B( 14-O , 15-H ) :   0.7947

Dispersion correction           -0.006434964
FINAL SINGLE POINT ENERGY      -308.206572517166

DIPOLE MOMENT
-------------
                                X             Y             Z
Electronic contribution:     -0.00004      -0.00000      -0.00012
Nuclear contribution   :      0.00007      -0.00001       0.00011
                        -----------------------------------------
Total Dipole Moment    :      0.00003      -0.00001      -0.00001
                        -----------------------------------------
Magnitude (a.u.)       :      0.00003
Magnitude (Debye)      :      0.00009

Rotational constants in cm-1:     0.330404     0.050421     0.046571
Rotational constants in MHz :  9905.262089  1511.592131  1396.156542

                             ****ORCA TERMINATED NORMALLY****
TOTAL RUN TIME: 0 days 0 hours 1 minutes 50 seconds 31 msec
