                         Program Version 5.0.3 -  RELEASE  -
|  1> ! PBEh-3c def2/J TightSCF DefGrid3
|  2>
|  3> %maxcore 60000
|  4>
|  5> %pal
|  6> nprocs 4
|  7> end
|  8>
|  9> *xyzfile 0 1 11A.xyz
| 10>
| 11>                          ****END OF INPUT****

CARTESIAN COORDINATES (ANGSTROEM)
---------------------------------
  N     -0.156806    0.581673   -0.696458
  H      0.543779    0.328711   -1.385171
  H     -1.048350    0.294215   -1.077986
  C      0.107387   -0.166989    0.531236
  H     -0.644248    0.081571    1.278403
  H      0.124878   -1.254992    0.417290
  H      1.073359    0.135810    0.932686

 Total Charge           Charge          ....    0
 Multiplicity           Mult            ....    1
 Number of Electrons    NEL             ....   18
 Basis Dimension        Dim             ....   40

ORBITAL ENERGIES
----------------

  NO   OCC          E(Eh)            E(eV)
   0   2.0000     -14.604460      -397.4076
   1   2.0000     -10.445641      -284.2404
   2   2.0000      -0.965695       -26.2779
   3   2.0000      -0.733920       -19.9710
   4   2.0000      -0.546939       -14.8830
   5   2.0000      -0.493025       -13.4159
   6   2.0000      -0.452115       -12.3027
   7   2.0000      -0.416382       -11.3303
   8   2.0000      -0.283768        -7.7217
   9   0.0000       0.137552         3.7430
  10   0.0000       0.201496         5.4830
  11   0.0000       0.212674         5.7872
  12   0.0000       0.228050         6.2055
  13   0.0000       0.233507         6.3541

MULLIKEN ATOMIC CHARGES
-----------------------
   0 N :   -0.734494
   1 H :    0.312800
   2 H :    0.313680
   3 C :   -0.503941
   4 H :    0.216031
   5 H :    0.180098
   6 H :    0.215826
Sum of atomic charges:    0.0000000

LOEWDIN ATOMIC CHARGES
----------------------
   0 N :   -0.485686
   1 H :    0.218287
   2 H :    0.218040
   3 C :   -0.280509
   4 H :    0.119849
   5 H :    0.090320
   6 H :    0.119699

  Mayer bond orders larger than 0.100000
B(  0-N ,  1-H ) :   0.8683 B(  0-N ,  2-H ) :   0.8673 B(  0-N ,  3-C ) :   1.0355
B(  3-C ,  4-H ) :   0.9267 B(  3-C ,  5-H ) :   0.9174 B(  3-C ,  6-H ) :   0.9265

Dispersion correction           -0.001526349
FINAL SINGLE POINT ENERGY       -95.642705254414

DIPOLE MOMENT
-------------
                                X             Y             Z
Electronic contribution:     -0.19172       0.67470      -0.80338
Nuclear contribution   :      0.17505      -1.25136       0.63628
                        -----------------------------------------
Total Dipole Moment    :     -0.01667      -0.57666      -0.16710
                        -----------------------------------------
Magnitude (a.u.)       :      0.60062
Magnitude (Debye)      :      1.52665

Rotational constants in cm-1:     3.457443     0.763757     0.734690
Rotational constants in MHz : 103651.534530 22896.855540 22025.438235

                             ****ORCA TERMINATED NORMALLY****
TOTAL RUN TIME: 0 days 0 hours 0 minutes 53 seconds 925 msec
