                         Program Version 5.0.3 -  RELEASE  -
|  1> ! PBEh-3c def2/J TightSCF DefGrid3
|  2>
|  3> %maxcore 60000
|  4>
|  5> %pal
|  6> nprocs 4
|  7> end
|  8>
|  9> *xyzfile 0 1 N3P3H12_2.xyz
| 10>
| 11>                          ****END OF INPUT****

CARTESIAN COORDINATES (ANGSTROEM)
---------------------------------
  N     -1.201914   -0.759394    0.000000
  P     -1.058354    0.124551   -1.477167
  N      0.585679    0.707584   -1.375456
  P      1.600128    0.480997    0.000000
  N      0.585679    0.707584    1.375456
  P     -1.058354    0.124551    1.477167
  H     -0.684798   -1.627677    0.000000
  H     -0.847234   -1.048831   -2.254571
  H      0.682707    1.636648   -1.760471
  H      1.560986   -0.933828    0.000000
  H      0.682707    1.636648    1.760471
  H     -0.847234   -1.048831    2.254571

 Total Charge           Charge          ....    0
 Multiplicity           Mult            ....    1
 Number of Electrons    NEL             ....   72
 Basis Dimension        Dim             ....  111

ORBITAL ENERGIES
----------------

  NO   OCC          E(Eh)            E(eV)
   0   2.0000     -77.781808     -2116.5506
   1   2.0000     -77.781787     -2116.5500
   2   2.0000     -77.780088     -2116.5038
   3   2.0000     -14.646286      -398.5457
   4   2.0000     -14.635565      -398.2540
   5   2.0000     -14.635535      -398.2532
   6   2.0000      -6.849432      -186.3825
   7   2.0000      -6.849416      -186.3821
   8   2.0000      -6.846848      -186.3122
   9   2.0000      -4.940844      -134.4472
  10   2.0000      -4.940830      -134.4468
  11   2.0000      -4.939940      -134.4226
  12   2.0000      -4.939914      -134.4219
  13   2.0000      -4.938211      -134.3756
  14   2.0000      -4.937841      -134.3655
  15   2.0000      -4.937833      -134.3653
  16   2.0000      -4.937211      -134.3484
  17   2.0000      -4.935849      -134.3113
  18   2.0000      -1.020949       -27.7814
  19   2.0000      -0.957668       -26.0595
  20   2.0000      -0.952124       -25.9086
  21   2.0000      -0.712473       -19.3874
  22   2.0000      -0.705970       -19.2104
  23   2.0000      -0.638530       -17.3753
  24   2.0000      -0.566951       -15.4275
  25   2.0000      -0.528309       -14.3760
  26   2.0000      -0.515081       -14.0161
  27   2.0000      -0.504190       -13.7197
  28   2.0000      -0.457668       -12.4538
  29   2.0000      -0.432610       -11.7719
  30   2.0000      -0.388913       -10.5829
  31   2.0000      -0.356636        -9.7046
  32   2.0000      -0.338619        -9.2143
  33   2.0000      -0.308122        -8.3844
  34   2.0000      -0.284924        -7.7532
  35   2.0000      -0.260547        -7.0898
  36   0.0000       0.021069         0.5733
  37   0.0000       0.044046         1.1986
  38   0.0000       0.060125         1.6361
  39   0.0000       0.081515         2.2181
  40   0.0000       0.107053         2.9130

MULLIKEN ATOMIC CHARGES
-----------------------
   0 N :   -0.892475
   1 P :    0.507186
   2 N :   -0.905019
   3 P :    0.500509
   4 N :   -0.905019
   5 P :    0.507186
   6 H :    0.368946
   7 H :    0.032951
   8 H :    0.363896
   9 H :    0.024994
  10 H :    0.363896
  11 H :    0.032951
Sum of atomic charges:   -0.0000000

LOEWDIN ATOMIC CHARGES
----------------------
   0 N :   -0.591335
   1 P :    0.375097
   2 N :   -0.618977
   3 P :    0.362496
   4 N :   -0.618977
   5 P :    0.375097
   6 H :    0.237749
   7 H :   -0.001675
   8 H :    0.244380
   9 H :   -0.006560
  10 H :    0.244380
  11 H :   -0.001675

  Mayer bond orders larger than 0.100000
B(  0-N ,  1-P ) :   0.9719 B(  0-N ,  5-P ) :   0.9719 B(  0-N ,  6-H ) :   0.8085
B(  1-P ,  2-N ) :   0.9147 B(  1-P ,  7-H ) :   0.9376 B(  2-N ,  3-P ) :   0.9744
B(  2-N ,  8-H ) :   0.8220 B(  3-P ,  4-N ) :   0.9744 B(  3-P ,  9-H ) :   0.9437
B(  4-N ,  5-P ) :   0.9147 B(  4-N , 10-H ) :   0.8220 B(  5-P , 11-H ) :   0.9376

Dispersion correction           -0.008305151
FINAL SINGLE POINT ENERGY     -1190.377984185490

DIPOLE MOMENT
-------------
                                X             Y             Z
Electronic contribution:     -1.03068       2.49455       0.00000
Nuclear contribution   :      1.30860      -2.58830       0.00000
                        -----------------------------------------
Total Dipole Moment    :      0.27792      -0.09375       0.00000
                        -----------------------------------------
Magnitude (a.u.)       :      0.29330
Magnitude (Debye)      :      0.74551

Rotational constants in cm-1:     0.077718     0.074696     0.042085
Rotational constants in MHz :  2329.920444  2239.344371  1261.682281

                             ****ORCA TERMINATED NORMALLY****
TOTAL RUN TIME: 0 days 0 hours 1 minutes 26 seconds 687 msec
