                         Program Version 5.0.3 -  RELEASE  -
|  1> ! PBEh-3c def2/J TightSCF DefGrid3
|  2>
|  3> %maxcore 60000
|  4>
|  5> %pal
|  6> nprocs 4
|  7> end
|  8>
|  9> *xyzfile 0 1 propane.xyz
| 10>
| 11>                          ****END OF INPUT****

CARTESIAN COORDINATES (ANGSTROEM)
---------------------------------
  C     -1.265790   -0.270409    0.000000
  H     -1.298774   -0.914705    0.881481
  H     -1.298774   -0.914705   -0.881481
  H     -2.166499    0.345181    0.000000
  C      0.000000    0.582291    0.000000
  H      0.000000    1.237115   -0.875492
  H      0.000000    1.237115    0.875492
  C      1.265790   -0.270409    0.000000
  H      1.298774   -0.914705   -0.881481
  H      2.166499    0.345181    0.000000
  H      1.298774   -0.914705    0.881481

 Total Charge           Charge          ....    0
 Multiplicity           Mult            ....    1
 Number of Electrons    NEL             ....   26
 Basis Dimension        Dim             ....   61

ORBITAL ENERGIES
----------------

  NO   OCC          E(Eh)            E(eV)
   0   2.0000     -10.429809      -283.8095
   1   2.0000     -10.419908      -283.5401
   2   2.0000     -10.419848      -283.5385
   3   2.0000      -0.868716       -23.6390
   4   2.0000      -0.758996       -20.6533
   5   2.0000      -0.654674       -17.8146
   6   2.0000      -0.515406       -14.0249
   7   2.0000      -0.493321       -13.4240
   8   2.0000      -0.450496       -12.2586
   9   2.0000      -0.431634       -11.7454
  10   2.0000      -0.385236       -10.4828
  11   2.0000      -0.384518       -10.4633
  12   2.0000      -0.374540       -10.1918
  13   0.0000       0.143796         3.9129
  14   0.0000       0.195833         5.3289
  15   0.0000       0.196560         5.3487
  16   0.0000       0.205990         5.6053
  17   0.0000       0.215474         5.8633

MULLIKEN ATOMIC CHARGES
-----------------------
   0 C :   -0.633195
   1 H :    0.208018
   2 H :    0.208018
   3 H :    0.217440
   4 C :   -0.417679
   5 H :    0.208558
   6 H :    0.208558
   7 C :   -0.633195
   8 H :    0.208018
   9 H :    0.217440
  10 H :    0.208018
Sum of atomic charges:    0.0000000

LOEWDIN ATOMIC CHARGES
----------------------
   0 C :   -0.364368
   1 H :    0.122870
   2 H :    0.122870
   3 H :    0.125467
   4 C :   -0.253037
   5 H :    0.119680
   6 H :    0.119680
   7 C :   -0.364368
   8 H :    0.122870
   9 H :    0.125467
  10 H :    0.122870

  Mayer bond orders larger than 0.100000
B(  0-C ,  1-H ) :   0.9296 B(  0-C ,  2-H ) :   0.9296 B(  0-C ,  3-H ) :   0.9325
B(  0-C ,  4-C ) :   0.9941 B(  4-C ,  5-H ) :   0.9224 B(  4-C ,  6-H ) :   0.9224
B(  4-C ,  7-C ) :   0.9941 B(  7-C ,  8-H ) :   0.9296 B(  7-C ,  9-H ) :   0.9325
B(  7-C , 10-H ) :   0.9296

Dispersion correction           -0.003452367
FINAL SINGLE POINT ENERGY      -118.878575765864

DIPOLE MOMENT
-------------
                                X             Y             Z
Electronic contribution:     -0.00000       0.48469       0.00000
Nuclear contribution   :      0.00000      -0.46366       0.00000
                        -----------------------------------------
Total Dipole Moment    :     -0.00000       0.02103       0.00000
                        -----------------------------------------
Magnitude (a.u.)       :      0.02103
Magnitude (Debye)      :      0.05345

Rotational constants in cm-1:     0.979740     0.283653     0.250558
Rotational constants in MHz : 29371.862842  8503.701760  7511.529370

                             ****ORCA TERMINATED NORMALLY****
TOTAL RUN TIME: 0 days 0 hours 0 minutes 41 seconds 709 msec
