                         Program Version 5.0.3 -  RELEASE  -
|  1> ! PBEh-3c def2/J TightSCF DefGrid3
|  2>
|  3> %maxcore 60000
|  4>
|  5> %pal
|  6> nprocs 4
|  7> end
|  8>
|  9> *xyzfile 0 1 412.xyz
| 10>
| 11>                          ****END OF INPUT****

CARTESIAN COORDINATES (ANGSTROEM)
---------------------------------
  O      3.642378    0.007730    0.519000
  C      2.591378   -0.553270    0.320000
  O      1.481378   -0.340270    1.058000
  H      1.731378    0.364730    1.678000
  C      2.390378   -1.563270   -0.794000
  H      3.091378   -2.374270   -0.603000
  H      2.687378   -1.077270   -1.721000
  N      1.065378   -2.098270   -0.918000
  H      0.351378   -1.575270   -1.412000
  C      0.639378   -3.028270   -0.018000
  O      1.383378   -3.611270    0.757000
  C     -0.867622   -3.243270   -0.038000
  H     -1.098622   -4.080270    0.612000
  H     -1.210622   -3.453270   -1.051000
  N     -1.555622   -2.059270    0.434000
  H     -1.684622   -1.885270    1.422000
  C     -1.824622   -1.021270   -0.377000
  O     -1.579622   -1.019270   -1.587000
  C     -2.509622    0.155730    0.316000
  N     -2.188622    0.139730    1.741000
  H     -1.256622    0.518730    1.875000
  H     -2.825622    0.739730    2.250000
  H     -3.582622   -0.039270    0.226000
  C     -2.213622    1.468730   -0.427000
  H     -2.505622    1.340730   -1.469000
  H     -2.849622    2.243730    0.007000
  C     -0.775622    1.894730   -0.346000
  C     -0.305622    2.618730    0.757000
  H     -0.998622    2.911730    1.536000
  C      1.032378    3.008730    0.844000
  H      1.372378    3.577730    1.700000
  C      1.920378    2.688730   -0.180000
  H      2.957378    2.984730   -0.116000
  C      1.459378    1.984730   -1.292000
  H      2.139378    1.751730   -2.101000
  C      0.127378    1.583730   -1.370000
  H     -0.230622    1.037730   -2.232000

 Total Charge           Charge          ....    0
 Multiplicity           Mult            ....    1
 Number of Electrons    NEL             ....  148
 Basis Dimension        Dim             ....  334

ORBITAL ENERGIES
----------------

  NO   OCC          E(Eh)            E(eV)
   0   2.0000     -19.542626      -531.7819
   1   2.0000     -19.482370      -530.1423
   2   2.0000     -19.475684      -529.9603
   3   2.0000     -19.459499      -529.5199
   4   2.0000     -14.672683      -399.2640
   5   2.0000     -14.654276      -398.7631
   6   2.0000     -14.643860      -398.4797
   7   2.0000     -10.580684      -287.9151
   8   2.0000     -10.558805      -287.3197
   9   2.0000     -10.544547      -286.9317
  10   2.0000     -10.498733      -285.6851
  11   2.0000     -10.485389      -285.3219
  12   2.0000     -10.485028      -285.3121
  13   2.0000     -10.468201      -284.8542
  14   2.0000     -10.461577      -284.6740
  15   2.0000     -10.460398      -284.6419
  16   2.0000     -10.457140      -284.5533
  17   2.0000     -10.456264      -284.5294
  18   2.0000     -10.455058      -284.4966
  19   2.0000     -10.454270      -284.4752
  20   2.0000      -1.219094       -33.1732
  21   2.0000      -1.160036       -31.5662
  22   2.0000      -1.142395       -31.0861
  23   2.0000      -1.122757       -30.5518
  24   2.0000      -1.043179       -28.3863
  25   2.0000      -1.023828       -27.8598
  26   2.0000      -1.009759       -27.4769
  27   2.0000      -0.965877       -26.2829
  28   2.0000      -0.883358       -24.0374
  29   2.0000      -0.855405       -23.2768
  30   2.0000      -0.845871       -23.0173
  31   2.0000      -0.823098       -22.3976
  32   2.0000      -0.801351       -21.8059
  33   2.0000      -0.736428       -20.0392
  34   2.0000      -0.695259       -18.9190
  35   2.0000      -0.693270       -18.8648
  36   2.0000      -0.673212       -18.3190
  37   2.0000      -0.656101       -17.8534
  38   2.0000      -0.651149       -17.7187
  39   2.0000      -0.621813       -16.9204
  40   2.0000      -0.601152       -16.3582
  41   2.0000      -0.584439       -15.9034
  42   2.0000      -0.573553       -15.6072
  43   2.0000      -0.561261       -15.2727
  44   2.0000      -0.556287       -15.1373
  45   2.0000      -0.547161       -14.8890
  46   2.0000      -0.533170       -14.5083
  47   2.0000      -0.532886       -14.5006
  48   2.0000      -0.525149       -14.2900
  49   2.0000      -0.517803       -14.0901
  50   2.0000      -0.502614       -13.6768
  51   2.0000      -0.494086       -13.4448
  52   2.0000      -0.492552       -13.4030
  53   2.0000      -0.484116       -13.1735
  54   2.0000      -0.479362       -13.0441
  55   2.0000      -0.464349       -12.6356
  56   2.0000      -0.460512       -12.5312
  57   2.0000      -0.459540       -12.5047
  58   2.0000      -0.447223       -12.1696
  59   2.0000      -0.439062       -11.9475
  60   2.0000      -0.435231       -11.8432
  61   2.0000      -0.430024       -11.7016
  62   2.0000      -0.418298       -11.3825
  63   2.0000      -0.401786       -10.9331
  64   2.0000      -0.398434       -10.8419
  65   2.0000      -0.372416       -10.1340
  66   2.0000      -0.349573        -9.5124
  67   2.0000      -0.341836        -9.3018
  68   2.0000      -0.336568        -9.1585
  69   2.0000      -0.318165        -8.6577
  70   2.0000      -0.304331        -8.2813
  71   2.0000      -0.300065        -8.1652
  72   2.0000      -0.295314        -8.0359
  73   2.0000      -0.290051        -7.8927
  74   0.0000       0.001739         0.0473
  75   0.0000       0.005014         0.1364
  76   0.0000       0.032394         0.8815
  77   0.0000       0.049249         1.3401
  78   0.0000       0.060081         1.6349

MULLIKEN ATOMIC CHARGES
-----------------------
   0 O :   -0.403983
   1 C :    0.550010
   2 O :   -0.583625
   3 H :    0.445686
   4 C :   -0.405565
   5 H :    0.294722
   6 H :    0.264872
   7 N :   -0.639717
   8 H :    0.408156
   9 C :    0.535597
  10 O :   -0.418481
  11 C :   -0.423575
  12 H :    0.270299
  13 H :    0.266506
  14 N :   -0.616689
  15 H :    0.400463
  16 C :    0.582390
  17 O :   -0.480669
  18 C :   -0.223187
  19 N :   -0.771834
  20 H :    0.349077
  21 H :    0.335433
  22 H :    0.266190
  23 C :   -0.513307
  24 H :    0.264779
  25 H :    0.230747
  26 C :    0.144679
  27 C :   -0.311237
  28 H :    0.213053
  29 C :   -0.239946
  30 H :    0.226270
  31 C :   -0.226390
  32 H :    0.239223
  33 C :   -0.226615
  34 H :    0.229025
  35 C :   -0.280778
  36 H :    0.248421
Sum of atomic charges:   -0.0000000

LOEWDIN ATOMIC CHARGES
----------------------
   0 O :   -0.234043
   1 C :    0.132079
   2 O :   -0.290464
   3 H :    0.334698
   4 C :   -0.181253
   5 H :    0.171285
   6 H :    0.152728
   7 N :   -0.244277
   8 H :    0.268684
   9 C :    0.100985
  10 O :   -0.265121
  11 C :   -0.169503
  12 H :    0.149030
  13 H :    0.152711
  14 N :   -0.209334
  15 H :    0.275380
  16 C :    0.112304
  17 O :   -0.308565
  18 C :   -0.104858
  19 N :   -0.457649
  20 H :    0.235586
  21 H :    0.231915
  22 H :    0.147479
  23 C :   -0.231881
  24 H :    0.153764
  25 H :    0.132811
  26 C :   -0.050805
  27 C :   -0.155524
  28 H :    0.129856
  29 C :   -0.150448
  30 H :    0.137674
  31 C :   -0.131204
  32 H :    0.144871
  33 C :   -0.136115
  34 H :    0.138608
  35 C :   -0.129127
  36 H :    0.147723

  Mayer bond orders larger than 0.100000
B(  0-O ,  1-C ) :   2.0297 B(  1-C ,  2-O ) :   1.1483 B(  1-C ,  4-C ) :   0.9007
B(  2-O ,  3-H ) :   0.7503 B(  4-C ,  5-H ) :   0.8809 B(  4-C ,  6-H ) :   0.9053
B(  4-C ,  7-N ) :   0.9739 B(  7-N ,  8-H ) :   0.7377 B(  7-N ,  9-C ) :   1.1444
B(  9-C , 10-O ) :   2.0074 B(  9-C , 11-C ) :   0.8869 B( 11-C , 12-H ) :   0.9096
B( 11-C , 13-H ) :   0.8893 B( 11-C , 14-N ) :   0.9464 B( 14-N , 15-H ) :   0.7657
B( 14-N , 16-C ) :   1.2103 B( 16-C , 17-O ) :   1.8360 B( 16-C , 18-C ) :   0.9074
B( 18-C , 19-N ) :   1.0436 B( 18-C , 22-H ) :   0.8884 B( 18-C , 23-C ) :   0.9440
B( 19-N , 20-H ) :   0.8276 B( 19-N , 21-H ) :   0.8520 B( 23-C , 24-H ) :   0.8981
B( 23-C , 25-H ) :   0.9195 B( 23-C , 26-C ) :   0.9574 B( 26-C , 27-C ) :   1.3874
B( 26-C , 35-C ) :   1.4092 B( 27-C , 28-H ) :   0.9221 B( 27-C , 29-C ) :   1.4144
B( 29-C , 30-H ) :   0.9176 B( 29-C , 31-C ) :   1.4298 B( 31-C , 32-H ) :   0.9122
B( 31-C , 33-C ) :   1.4176 B( 33-C , 34-H ) :   0.9165 B( 33-C , 35-C ) :   1.4189
B( 35-C , 36-H ) :   0.9006

Dispersion correction           -0.029056892
FINAL SINGLE POINT ENERGY      -968.748332677506

DIPOLE MOMENT
-------------
                                X             Y             Z
Electronic contribution:      5.33631      -4.98515      -0.19454
Nuclear contribution   :     -6.90325       6.18731       0.64635
                        -----------------------------------------
Total Dipole Moment    :     -1.56694       1.20215       0.45181
                        -----------------------------------------
Magnitude (a.u.)       :      2.02598
Magnitude (Debye)      :      5.14964

Rotational constants in cm-1:     0.014399     0.012341     0.008194
Rotational constants in MHz :   431.656971   369.987208   245.656315

                             ****ORCA TERMINATED NORMALLY****
TOTAL RUN TIME: 0 days 0 hours 6 minutes 7 seconds 31 msec
