                         Program Version 5.0.3 -  RELEASE  -
|  1> ! PBEh-3c def2/J TightSCF DefGrid3
|  2>
|  3> %maxcore 60000
|  4>
|  5> %pal
|  6> nprocs 4
|  7> end
|  8>
|  9> *xyzfile 0 1 SI6H12_2.xyz
| 10>
| 11>                          ****END OF INPUT****

CARTESIAN COORDINATES (ANGSTROEM)
---------------------------------
  Si     0.671399    0.961719    1.805213
  Si    -0.671399   -0.961719    1.805213
  Si     0.000000   -2.313958    0.000000
  Si     0.671399   -0.961719   -1.805213
  Si    -0.671399    0.961719   -1.805213
  Si     0.000000    2.313958    0.000000
  H      2.085739    0.547826    1.594894
  H      0.597612    1.711155    3.088498
  H     -0.597612   -1.711155    3.088498
  H     -2.085739   -0.547826    1.594894
  H     -1.125814   -3.187415   -0.429174
  H      1.125814   -3.187415    0.429174
  H      2.085739   -0.547826   -1.594894
  H      0.597612   -1.711155   -3.088498
  H     -2.085739    0.547826   -1.594894
  H     -0.597612    1.711155   -3.088498
  H     -1.125814    3.187415    0.429174
  H      1.125814    3.187415   -0.429174

 Total Charge           Charge          ....    0
 Multiplicity           Mult            ....    1
 Number of Electrons    NEL             ....   96
 Basis Dimension        Dim             ....  132

ORBITAL ENERGIES
----------------

  NO   OCC          E(Eh)            E(eV)
   0   2.0000     -66.737177     -1816.0109
   1   2.0000     -66.737124     -1816.0095
   2   2.0000     -66.737109     -1816.0091
   3   2.0000     -66.737067     -1816.0079
   4   2.0000     -66.736667     -1815.9970
   5   2.0000     -66.736665     -1815.9970
   6   2.0000      -5.518744      -150.1727
   7   2.0000      -5.518725      -150.1721
   8   2.0000      -5.518698      -150.1714
   9   2.0000      -5.518661      -150.1704
  10   2.0000      -5.518471      -150.1652
  11   2.0000      -5.518463      -150.1650
  12   2.0000      -3.809532      -103.6626
  13   2.0000      -3.809506      -103.6619
  14   2.0000      -3.809488      -103.6614
  15   2.0000      -3.809456      -103.6606
  16   2.0000      -3.809452      -103.6605
  17   2.0000      -3.809421      -103.6596
  18   2.0000      -3.809314      -103.6567
  19   2.0000      -3.809307      -103.6565
  20   2.0000      -3.809218      -103.6541
  21   2.0000      -3.809193      -103.6534
  22   2.0000      -3.809083      -103.6504
  23   2.0000      -3.809069      -103.6500
  24   2.0000      -3.808870      -103.6446
  25   2.0000      -3.808862      -103.6444
  26   2.0000      -3.808844      -103.6439
  27   2.0000      -3.808843      -103.6439
  28   2.0000      -3.808746      -103.6413
  29   2.0000      -3.808722      -103.6406
  30   2.0000      -0.671695       -18.2778
  31   2.0000      -0.626171       -17.0390
  32   2.0000      -0.626109       -17.0373
  33   2.0000      -0.560487       -15.2516
  34   2.0000      -0.555863       -15.1258
  35   2.0000      -0.520997       -14.1770
  36   2.0000      -0.433496       -11.7960
  37   2.0000      -0.429399       -11.6845
  38   2.0000      -0.416356       -11.3296
  39   2.0000      -0.406739       -11.0679
  40   2.0000      -0.394931       -10.7466
  41   2.0000      -0.390896       -10.6368
  42   2.0000      -0.380371       -10.3504
  43   2.0000      -0.366201        -9.9648
  44   2.0000      -0.349411        -9.5080
  45   2.0000      -0.325251        -8.8505
  46   2.0000      -0.321418        -8.7462
  47   2.0000      -0.315242        -8.5782
  48   0.0000      -0.001998        -0.0544
  49   0.0000       0.002443         0.0665
  50   0.0000       0.019491         0.5304
  51   0.0000       0.021548         0.5863
  52   0.0000       0.028838         0.7847

MULLIKEN ATOMIC CHARGES
-----------------------
   0 Si:   -0.067588
   1 Si:   -0.067588
   2 Si:   -0.003396
   3 Si:   -0.067588
   4 Si:   -0.067588
   5 Si:   -0.003396
   6 H :    0.019462
   7 H :    0.027795
   8 H :    0.027795
   9 H :    0.019462
  10 H :    0.022028
  11 H :    0.022028
  12 H :    0.019462
  13 H :    0.027795
  14 H :    0.019462
  15 H :    0.027795
  16 H :    0.022028
  17 H :    0.022028
Sum of atomic charges:    0.0000000

LOEWDIN ATOMIC CHARGES
----------------------
   0 Si:    0.001268
   1 Si:    0.001268
   2 Si:    0.013249
   3 Si:    0.001268
   4 Si:    0.001268
   5 Si:    0.013249
   6 H :   -0.004394
   7 H :   -0.001073
   8 H :   -0.001073
   9 H :   -0.004394
  10 H :   -0.002424
  11 H :   -0.002424
  12 H :   -0.004394
  13 H :   -0.001073
  14 H :   -0.004394
  15 H :   -0.001073
  16 H :   -0.002424
  17 H :   -0.002424

  Mayer bond orders larger than 0.100000
B(  0-Si,  1-Si) :   0.9603 B(  0-Si,  5-Si) :   0.9699 B(  0-Si,  6-H ) :   0.9585
B(  0-Si,  7-H ) :   0.9642 B(  1-Si,  2-Si) :   0.9699 B(  1-Si,  8-H ) :   0.9642
B(  1-Si,  9-H ) :   0.9585 B(  2-Si,  3-Si) :   0.9699 B(  2-Si, 10-H ) :   0.9629
B(  2-Si, 11-H ) :   0.9629 B(  3-Si,  4-Si) :   0.9603 B(  3-Si, 12-H ) :   0.9585
B(  3-Si, 13-H ) :   0.9642 B(  4-Si,  5-Si) :   0.9699 B(  4-Si, 14-H ) :   0.9585
B(  4-Si, 15-H ) :   0.9642 B(  5-Si, 16-H ) :   0.9629 B(  5-Si, 17-H ) :   0.9629

Dispersion correction           -0.011430472
FINAL SINGLE POINT ENERGY     -1742.027085466253

DIPOLE MOMENT
-------------
                                X             Y             Z
Electronic contribution:      0.00000       0.00000       0.00000
Nuclear contribution   :      0.00000       0.00000      -0.00000
                        -----------------------------------------
Total Dipole Moment    :      0.00000       0.00000       0.00000
                        -----------------------------------------
Magnitude (a.u.)       :      0.00000
Magnitude (Debye)      :      0.00000

Rotational constants in cm-1:     0.034382     0.031605     0.019283
Rotational constants in MHz :  1030.759160   947.491056   578.092137

                             ****ORCA TERMINATED NORMALLY****
TOTAL RUN TIME: 0 days 0 hours 1 minutes 37 seconds 405 msec
