                         Program Version 5.0.3 -  RELEASE  -
|  1> ! PBEh-3c def2/J TightSCF DefGrid3
|  2>
|  3> %maxcore 60000
|  4>
|  5> %pal
|  6> nprocs 4
|  7> end
|  8>
|  9> *xyzfile 0 1 29B.xyz
| 10>
| 11>                          ****END OF INPUT****

CARTESIAN COORDINATES (ANGSTROEM)
---------------------------------
  N     -1.172877   -0.566728    0.000000
  H     -2.079358   -1.012569    0.000000
  C     -1.175825    0.833955    0.000000
  O     -2.228607    1.450291    0.000000
  C      0.155845    1.410171    0.000000
  H      0.257073    2.481674    0.000000
  C      1.234842    0.600376    0.000000
  H      2.245411    0.980203    0.000000
  N      1.118013   -0.761575    0.000000
  H      1.929979   -1.352356    0.000000
  C     -0.094502   -1.425531    0.000000
  O     -0.189994   -2.637909    0.000000

 Total Charge           Charge          ....    0
 Multiplicity           Mult            ....    1
 Number of Electrons    NEL             ....   58
 Basis Dimension        Dim             ....  128

ORBITAL ENERGIES
----------------

  NO   OCC          E(Eh)            E(eV)
   0   2.0000     -19.483713      -530.1788
   1   2.0000     -19.476801      -529.9907
   2   2.0000     -14.718614      -400.5138
   3   2.0000     -14.697678      -399.9442
   4   2.0000     -10.610123      -288.7161
   5   2.0000     -10.574175      -287.7379
   6   2.0000     -10.539046      -286.7820
   7   2.0000     -10.467740      -284.8417
   8   2.0000      -1.197814       -32.5942
   9   2.0000      -1.158192       -31.5160
  10   2.0000      -1.095248       -29.8032
  11   2.0000      -1.035818       -28.1860
  12   2.0000      -0.900567       -24.5057
  13   2.0000      -0.781607       -21.2686
  14   2.0000      -0.751715       -20.4552
  15   2.0000      -0.679430       -18.4882
  16   2.0000      -0.637734       -17.3536
  17   2.0000      -0.594725       -16.1833
  18   2.0000      -0.553917       -15.0729
  19   2.0000      -0.545158       -14.8345
  20   2.0000      -0.522808       -14.2263
  21   2.0000      -0.491248       -13.3675
  22   2.0000      -0.486268       -13.2320
  23   2.0000      -0.469262       -12.7693
  24   2.0000      -0.431499       -11.7417
  25   2.0000      -0.362052        -9.8519
  26   2.0000      -0.341576        -9.2948
  27   2.0000      -0.328989        -8.9522
  28   2.0000      -0.300811        -8.1855
  29   0.0000      -0.022954        -0.6246
  30   0.0000       0.038721         1.0536
  31   0.0000       0.096212         2.6181
  32   0.0000       0.153490         4.1767
  33   0.0000       0.160867         4.3774

MULLIKEN ATOMIC CHARGES
-----------------------
   0 N :   -0.722612
   1 H :    0.399308
   2 C :    0.567074
   3 O :   -0.392469
   4 C :   -0.453039
   5 H :    0.266809
   6 C :    0.084427
   7 H :    0.272911
   8 N :   -0.677551
   9 H :    0.393276
  10 C :    0.677149
  11 O :   -0.415284
Sum of atomic charges:   -0.0000000

LOEWDIN ATOMIC CHARGES
----------------------
   0 N :   -0.203753
   1 H :    0.286554
   2 C :    0.123243
   3 O :   -0.242877
   4 C :   -0.240333
   5 H :    0.163874
   6 C :   -0.013483
   7 H :    0.150053
   8 N :   -0.187702
   9 H :    0.281892
  10 C :    0.145756
  11 O :   -0.263223

  Mayer bond orders larger than 0.100000
B(  0-N ,  1-H ) :   0.7983 B(  0-N ,  2-C ) :   0.9803 B(  0-N , 10-C ) :   1.0652
B(  2-C ,  3-O ) :   2.0387 B(  2-C ,  4-C ) :   1.0571 B(  4-C ,  5-H ) :   0.9063
B(  4-C ,  6-C ) :   1.6433 B(  6-C ,  7-H ) :   0.8991 B(  6-C ,  8-N ) :   1.0778
B(  8-N ,  9-H ) :   0.8081 B(  8-N , 10-C ) :   1.0258 B( 10-C , 11-O ) :   2.0460

Dispersion correction           -0.006240334
FINAL SINGLE POINT ENERGY      -413.938350034590

DIPOLE MOMENT
-------------
                                X             Y             Z
Electronic contribution:     -1.62137      -1.40218      -0.00000
Nuclear contribution   :      3.37789       1.66273       0.00000
                        -----------------------------------------
Total Dipole Moment    :      1.75653       0.26055      -0.00000
                        -----------------------------------------
Magnitude (a.u.)       :      1.77575
Magnitude (Debye)      :      4.51359

Rotational constants in cm-1:     0.130388     0.067423     0.044442
Rotational constants in MHz :  3908.919919  2021.286574  1332.339331

                             ****ORCA TERMINATED NORMALLY****
TOTAL RUN TIME: 0 days 0 hours 1 minutes 38 seconds 525 msec
