                         Program Version 5.0.3 -  RELEASE  -
|  1> ! PBEh-3c def2/J TightSCF DefGrid3
|  2>
|  3> %maxcore 60000
|  4>
|  5> %pal
|  6> nprocs 4
|  7> end
|  8>
|  9> *xyzfile 0 1 E30.xyz
| 10>
| 11>                          ****END OF INPUT****

CARTESIAN COORDINATES (ANGSTROEM)
---------------------------------
  C     -1.880273   -0.328907   -0.001237
  C     -0.562830    0.425810   -0.012105
  N      0.561806   -0.344435   -0.032317
  C      1.891624    0.241771    0.002696
  O     -0.515919    1.645645   -0.012030
  H     -2.470897   -0.012005   -0.861723
  H     -2.434502   -0.051829    0.896752
  H     -1.766510   -1.413890   -0.028540
  H      0.470461   -1.343741    0.033769
  H      1.940373    1.079830   -0.691746
  H      2.620570   -0.512239   -0.292791
  H      2.146098    0.613990    0.999273

 Total Charge           Charge          ....    0
 Multiplicity           Mult            ....    1
 Number of Electrons    NEL             ....   40
 Basis Dimension        Dim             ....   89

ORBITAL ENERGIES
----------------

  NO   OCC          E(Eh)            E(eV)
   0   2.0000     -19.447086      -529.1821
   1   2.0000     -14.660326      -398.9277
   2   2.0000     -10.542209      -286.8681
   3   2.0000     -10.467638      -284.8389
   4   2.0000     -10.440973      -284.1133
   5   2.0000      -1.134881       -30.8817
   6   2.0000      -1.014893       -27.6166
   7   2.0000      -0.836993       -22.7757
   8   2.0000      -0.768083       -20.9006
   9   2.0000      -0.652609       -17.7584
  10   2.0000      -0.567722       -15.4485
  11   2.0000      -0.527065       -14.3422
  12   2.0000      -0.518534       -14.1100
  13   2.0000      -0.478995       -13.0341
  14   2.0000      -0.463682       -12.6174
  15   2.0000      -0.451160       -12.2767
  16   2.0000      -0.444139       -12.0856
  17   2.0000      -0.402037       -10.9400
  18   2.0000      -0.303162        -8.2495
  19   2.0000      -0.297624        -8.0988
  20   0.0000       0.068571         1.8659
  21   0.0000       0.116970         3.1829
  22   0.0000       0.174014         4.7352
  23   0.0000       0.179186         4.8759
  24   0.0000       0.203233         5.5303

MULLIKEN ATOMIC CHARGES
-----------------------
   0 C :   -0.748188
   1 C :    0.520226
   2 N :   -0.628547
   3 C :   -0.483742
   4 O :   -0.425069
   5 H :    0.258610
   6 H :    0.256202
   7 H :    0.205835
   8 H :    0.352746
   9 H :    0.251892
  10 H :    0.212093
  11 H :    0.227942
Sum of atomic charges:   -0.0000000

LOEWDIN ATOMIC CHARGES
----------------------
   0 C :   -0.391926
   1 C :    0.103009
   2 N :   -0.257400
   3 C :   -0.253559
   4 O :   -0.277040
   5 H :    0.156540
   6 H :    0.155426
   7 H :    0.123638
   8 H :    0.250526
   9 H :    0.142399
  10 H :    0.123832
  11 H :    0.124556

  Mayer bond orders larger than 0.100000
B(  0-C ,  1-C ) :   0.9263 B(  0-C ,  5-H ) :   0.9107 B(  0-C ,  6-H ) :   0.9110
B(  0-C ,  7-H ) :   0.9229 B(  1-C ,  2-N ) :   1.1290 B(  1-C ,  4-O ) :   1.9995
B(  2-N ,  3-C ) :   0.9500 B(  2-N ,  8-H ) :   0.8309 B(  3-C ,  9-H ) :   0.9093
B(  3-C , 10-H ) :   0.9276 B(  3-C , 11-H ) :   0.9159

Dispersion correction           -0.004421576
FINAL SINGLE POINT ENERGY      -247.989436578767

DIPOLE MOMENT
-------------
                                X             Y             Z
Electronic contribution:     -0.73129       2.19821      -0.07671
Nuclear contribution   :      1.05552      -3.67171       0.11591
                        -----------------------------------------
Total Dipole Moment    :      0.32423      -1.47349       0.03919
                        -----------------------------------------
Magnitude (a.u.)       :      1.50925
Magnitude (Debye)      :      3.83622

Rotational constants in cm-1:     0.336161     0.128338     0.096217
Rotational constants in MHz : 10077.858131  3847.464546  2884.501200

                             ****ORCA TERMINATED NORMALLY****
TOTAL RUN TIME: 0 days 0 hours 1 minutes 4 seconds 226 msec
