                         Program Version 5.0.3 -  RELEASE  -
|  1> ! PBEh-3c def2/J TightSCF DefGrid3
|  2>
|  3> %maxcore 60000
|  4>
|  5> %pal
|  6> nprocs 4
|  7> end
|  8>
|  9> *xyzfile 0 1 SER_xad.xyz
| 10>
| 11>                          ****END OF INPUT****

CARTESIAN COORDINATES (ANGSTROEM)
---------------------------------
  N      1.063128    0.577590   -0.080257
  C     -0.147046    0.677716    0.714682
  C     -1.265078   -0.167878    0.094051
  O     -2.217828    0.349269   -0.496653
  C     -0.562421    2.138436    0.765758
  O     -0.700304    2.661283   -0.544042
  H      1.183387    1.278884   -0.794477
  H      0.077153    0.300494    1.713481
  H     -1.488608    2.230005    1.335723
  H      0.213450    2.719253    1.261146
  H     -1.432728    2.145311   -0.916795
  N     -1.092839   -1.492507    0.249772
  H     -0.205871   -1.784918    0.646888
  C     -1.981998   -2.457710   -0.360914
  H     -1.551951   -2.877339   -1.269797
  H     -2.190660   -3.264248    0.337062
  H     -2.906635   -1.948997   -0.613813
  C      1.923465   -0.458699    0.034605
  O      1.723943   -1.396675    0.810210
  C      3.156483   -0.387943   -0.827780
  H      4.025810   -0.310330   -0.178499
  H      3.148171    0.453717   -1.515222
  H      3.243891   -1.315819   -1.386914

 Total Charge           Charge          ....    0
 Multiplicity           Mult            ....    1
 Number of Electrons    NEL             ....   86
 Basis Dimension        Dim             ....  189

ORBITAL ENERGIES
----------------

  NO   OCC          E(Eh)            E(eV)
   0   2.0000     -19.486067      -530.2428
   1   2.0000     -19.473288      -529.8951
   2   2.0000     -19.470011      -529.8059
   3   2.0000     -14.678363      -399.4186
   4   2.0000     -14.661174      -398.9508
   5   2.0000     -10.565208      -287.4939
   6   2.0000     -10.552662      -287.1525
   7   2.0000     -10.495405      -285.5945
   8   2.0000     -10.491239      -285.4811
   9   2.0000     -10.466487      -284.8076
  10   2.0000     -10.452850      -284.4365
  11   2.0000      -1.162307       -31.6280
  12   2.0000      -1.150177       -31.2979
  13   2.0000      -1.124282       -30.5933
  14   2.0000      -1.040656       -28.3177
  15   2.0000      -1.023013       -27.8376
  16   2.0000      -0.877440       -23.8764
  17   2.0000      -0.824257       -22.4292
  18   2.0000      -0.796516       -21.6743
  19   2.0000      -0.717999       -19.5378
  20   2.0000      -0.681378       -18.5412
  21   2.0000      -0.654187       -17.8013
  22   2.0000      -0.614813       -16.7299
  23   2.0000      -0.579787       -15.7768
  24   2.0000      -0.565208       -15.3801
  25   2.0000      -0.547587       -14.9006
  26   2.0000      -0.531868       -14.4729
  27   2.0000      -0.516149       -14.0451
  28   2.0000      -0.511420       -13.9164
  29   2.0000      -0.497360       -13.5338
  30   2.0000      -0.485340       -13.2068
  31   2.0000      -0.476365       -12.9625
  32   2.0000      -0.469133       -12.7658
  33   2.0000      -0.458734       -12.4828
  34   2.0000      -0.447894       -12.1878
  35   2.0000      -0.428813       -11.6686
  36   2.0000      -0.427980       -11.6459
  37   2.0000      -0.397902       -10.8275
  38   2.0000      -0.348270        -9.4769
  39   2.0000      -0.334342        -9.0979
  40   2.0000      -0.327135        -8.9018
  41   2.0000      -0.306680        -8.3452
  42   2.0000      -0.300097        -8.1661
  43   0.0000       0.035895         0.9768
  44   0.0000       0.056422         1.5353
  45   0.0000       0.124951         3.4001
  46   0.0000       0.145451         3.9579
  47   0.0000       0.170960         4.6521

MULLIKEN ATOMIC CHARGES
-----------------------
   0 N :   -0.615625
   1 C :   -0.256010
   2 C :    0.577498
   3 O :   -0.471012
   4 C :   -0.177550
   5 O :   -0.649547
   6 H :    0.380995
   7 H :    0.272594
   8 H :    0.218135
   9 H :    0.224369
  10 H :    0.444582
  11 N :   -0.644594
  12 H :    0.409760
  13 C :   -0.496743
  14 H :    0.222683
  15 H :    0.225698
  16 H :    0.259338
  17 C :    0.541158
  18 O :   -0.469978
  19 C :   -0.741339
  20 H :    0.263152
  21 H :    0.222622
  22 H :    0.259813
Sum of atomic charges:   -0.0000000

LOEWDIN ATOMIC CHARGES
----------------------
   0 N :   -0.210805
   1 C :   -0.119148
   2 C :    0.109071
   3 O :   -0.302910
   4 C :   -0.089117
   5 O :   -0.421666
   6 H :    0.267539
   7 H :    0.152375
   8 H :    0.119602
   9 H :    0.124907
  10 H :    0.316131
  11 N :   -0.235020
  12 H :    0.270730
  13 C :   -0.255506
  14 H :    0.122888
  15 H :    0.127114
  16 H :    0.149966
  17 C :    0.113252
  18 O :   -0.307702
  19 C :   -0.382859
  20 H :    0.160867
  21 H :    0.132639
  22 H :    0.157654

  Mayer bond orders larger than 0.100000
B(  0-N ,  1-C ) :   0.9208 B(  0-N ,  6-H ) :   0.7918 B(  0-N , 17-C ) :   1.1804
B(  1-C ,  2-C ) :   0.8783 B(  1-C ,  4-C ) :   0.9503 B(  1-C ,  7-H ) :   0.8791
B(  2-C ,  3-O ) :   1.8760 B(  2-C , 11-N ) :   1.2233 B(  3-O , 11-N ) :   0.1063
B(  4-C ,  5-O ) :   1.0345 B(  4-C ,  8-H ) :   0.9015 B(  4-C ,  9-H ) :   0.9140
B(  5-O , 10-H ) :   0.7268 B( 11-N , 12-H ) :   0.7318 B( 11-N , 13-C ) :   0.9536
B( 13-C , 14-H ) :   0.9186 B( 13-C , 15-H ) :   0.9222 B( 13-C , 16-H ) :   0.9042
B( 17-C , 18-O ) :   1.8708 B( 17-C , 19-C ) :   0.9340 B( 19-C , 20-H ) :   0.9058
B( 19-C , 21-H ) :   0.9198 B( 19-C , 22-H ) :   0.9087

Dispersion correction           -0.012671521
FINAL SINGLE POINT ENERGY      -569.854790405531

DIPOLE MOMENT
-------------
                                X             Y             Z
Electronic contribution:     -1.52605       2.03556       1.35565
Nuclear contribution   :      2.24202      -2.40136      -1.46387
                        -----------------------------------------
Total Dipole Moment    :      0.71597      -0.36580      -0.10822
                        -----------------------------------------
Magnitude (a.u.)       :      0.81126
Magnitude (Debye)      :      2.06206

Rotational constants in cm-1:     0.040060     0.032322     0.020392
Rotational constants in MHz :  1200.982946   968.990833   611.337301

                             ****ORCA TERMINATED NORMALLY****
TOTAL RUN TIME: 0 days 0 hours 2 minutes 20 seconds 828 msec
