                         Program Version 5.0.3 -  RELEASE  -
|  1> ! PBEh-3c def2/J TightSCF DefGrid3
|  2>
|  3> %maxcore 60000
|  4>
|  5> %pal
|  6> nprocs 4
|  7> end
|  8>
|  9> *xyzfile 0 1 P56.xyz
| 10>
| 11>                          ****END OF INPUT****

CARTESIAN COORDINATES (ANGSTROEM)
---------------------------------
  C     -0.359823    0.009355    0.339638
  C      0.567659   -1.177246   -0.042736
  C      2.008201   -0.625073    0.018187
  C      0.531089    1.206005    0.071423
  C      1.801721    0.862417   -0.102194
  C     -1.648754    0.023673   -0.423361
  C     -2.859451   -0.019129    0.116167
  H     -0.598524   -0.025180    1.409028
  H      0.340406   -1.482202   -1.065496
  H      0.408239   -2.043377    0.596789
  H      2.645700   -1.032634   -0.768426
  H      2.496571   -0.866251    0.968302
  H      0.147184    2.216775    0.069209
  H      2.614462    1.556895   -0.266251
  H     -1.546810    0.072182   -1.504405
  H     -2.996941   -0.067852    1.189849
  H     -3.754144   -0.008371   -0.491340

 Total Charge           Charge          ....    0
 Multiplicity           Mult            ....    1
 Number of Electrons    NEL             ....   52
 Basis Dimension        Dim             ....  125

ORBITAL ENERGIES
----------------

  NO   OCC          E(Eh)            E(eV)
   0   2.0000     -10.446953      -284.2760
   1   2.0000     -10.442295      -284.1493
   2   2.0000     -10.438094      -284.0350
   3   2.0000     -10.436492      -283.9914
   4   2.0000     -10.435884      -283.9748
   5   2.0000     -10.434955      -283.9496
   6   2.0000     -10.430413      -283.8260
   7   2.0000      -0.945854       -25.7380
   8   2.0000      -0.865269       -23.5452
   9   2.0000      -0.793651       -21.5963
  10   2.0000      -0.777840       -21.1661
  11   2.0000      -0.660131       -17.9631
  12   2.0000      -0.626449       -17.0466
  13   2.0000      -0.597246       -16.2519
  14   2.0000      -0.563739       -15.3401
  15   2.0000      -0.524224       -14.2649
  16   2.0000      -0.503436       -13.6992
  17   2.0000      -0.470603       -12.8058
  18   2.0000      -0.434123       -11.8131
  19   2.0000      -0.415320       -11.3014
  20   2.0000      -0.405630       -11.0378
  21   2.0000      -0.398176       -10.8349
  22   2.0000      -0.392554       -10.6820
  23   2.0000      -0.387067       -10.5326
  24   2.0000      -0.300975        -8.1899
  25   2.0000      -0.283498        -7.7144
  26   0.0000       0.035588         0.9684
  27   0.0000       0.065596         1.7850
  28   0.0000       0.152066         4.1379
  29   0.0000       0.162035         4.4092
  30   0.0000       0.180644         4.9156

MULLIKEN ATOMIC CHARGES
-----------------------
   0 C :   -0.346020
   1 C :   -0.430450
   2 C :   -0.460505
   3 C :   -0.160815
   4 C :   -0.216546
   5 C :   -0.097986
   6 C :   -0.500376
   7 H :    0.231399
   8 H :    0.225235
   9 H :    0.228739
  10 H :    0.223912
  11 H :    0.225001
  12 H :    0.223016
  13 H :    0.215170
  14 H :    0.216222
  15 H :    0.209208
  16 H :    0.214797
Sum of atomic charges:   -0.0000000

LOEWDIN ATOMIC CHARGES
----------------------
   0 C :   -0.146054
   1 C :   -0.220149
   2 C :   -0.239839
   3 C :   -0.142408
   4 C :   -0.145129
   5 C :   -0.132215
   6 C :   -0.275749
   7 H :    0.131825
   8 H :    0.129494
   9 H :    0.128951
  10 H :    0.128042
  11 H :    0.129667
  12 H :    0.134037
  13 H :    0.130727
  14 H :    0.129511
  15 H :    0.127582
  16 H :    0.131707

  Mayer bond orders larger than 0.100000
B(  0-C ,  1-C ) :   0.9514 B(  0-C ,  3-C ) :   0.9874 B(  0-C ,  5-C ) :   0.9923
B(  0-C ,  7-H ) :   0.9021 B(  1-C ,  2-C ) :   0.9666 B(  1-C ,  8-H ) :   0.9244
B(  1-C ,  9-H ) :   0.9266 B(  2-C ,  4-C ) :   1.0009 B(  2-C , 10-H ) :   0.9203
B(  2-C , 11-H ) :   0.9094 B(  3-C ,  4-C ) :   1.8870 B(  3-C , 12-H ) :   0.9207
B(  4-C , 13-H ) :   0.9245 B(  5-C ,  6-C ) :   1.9268 B(  5-C , 14-H ) :   0.9134
B(  6-C , 15-H ) :   0.9298 B(  6-C , 16-H ) :   0.9294

Dispersion correction           -0.008521813
FINAL SINGLE POINT ENERGY      -272.113534397576

DIPOLE MOMENT
-------------
                                X             Y             Z
Electronic contribution:      0.40407       1.67553      -0.11984
Nuclear contribution   :     -0.25293      -1.74251       0.14236
                        -----------------------------------------
Total Dipole Moment    :      0.15114      -0.06699       0.02253
                        -----------------------------------------
Magnitude (a.u.)       :      0.16685
Magnitude (Debye)      :      0.42410

Rotational constants in cm-1:     0.220775     0.058806     0.050014
Rotational constants in MHz :  6618.655557  1762.954797  1499.394129

                             ****ORCA TERMINATED NORMALLY****
TOTAL RUN TIME: 0 days 0 hours 0 minutes 55 seconds 553 msec
