                         Program Version 5.0.3 -  RELEASE  -
|  1> ! PBEh-3c def2/J TightSCF DefGrid3
|  2>
|  3> %maxcore 60000
|  4>
|  5> %pal
|  6> nprocs 4
|  7> end
|  8>
|  9> *xyzfile 0 1 22a.xyz
| 10>
| 11>                          ****END OF INPUT****

CARTESIAN COORDINATES (ANGSTROEM)
---------------------------------
  N     -2.677362   -0.805313    0.086063
  H     -3.108270   -1.707394    0.239835
  H     -3.022194   -0.452723   -0.797594
  H     -3.016044   -0.176598    0.803273

 Total Charge           Charge          ....    0
 Multiplicity           Mult            ....    1
 Number of Electrons    NEL             ....   10
 Basis Dimension        Dim             ....   21

ORBITAL ENERGIES
----------------

  NO   OCC          E(Eh)            E(eV)
   0   2.0000     -14.595537      -397.1648
   1   2.0000      -0.934143       -25.4193
   2   2.0000      -0.512652       -13.9500
   3   2.0000      -0.510400       -13.8887
   4   2.0000      -0.304750        -8.2927
   5   0.0000       0.142335         3.8731
   6   0.0000       0.226044         6.1510
   7   0.0000       0.226600         6.1661
   8   0.0000       0.762075        20.7371
   9   0.0000       0.765043        20.8179

MULLIKEN ATOMIC CHARGES
-----------------------
   0 N :   -0.945120
   1 H :    0.315546
   2 H :    0.314667
   3 H :    0.314907
Sum of atomic charges:   -0.0000000

LOEWDIN ATOMIC CHARGES
----------------------
   0 N :   -0.649944
   1 H :    0.216851
   2 H :    0.216468
   3 H :    0.216626

  Mayer bond orders larger than 0.100000
B(  0-N ,  1-H ) :   0.8794 B(  0-N ,  2-H ) :   0.8801 B(  0-N ,  3-H ) :   0.8799

Dispersion correction           -0.000444492
FINAL SINGLE POINT ENERGY       -56.428105280772

DIPOLE MOMENT
-------------
                                X             Y             Z
Electronic contribution:      0.12173      -0.01166       0.00291
Nuclear contribution   :     -0.85952       0.06110      -0.00978
                        -----------------------------------------
Total Dipole Moment    :     -0.73779       0.04944      -0.00687
                        -----------------------------------------
Magnitude (a.u.)       :      0.73947
Magnitude (Debye)      :      1.87959

Rotational constants in cm-1:    10.067969     9.962082     6.297936
Rotational constants in MHz : 301830.112790 298655.711435 188807.378840

                             ****ORCA TERMINATED NORMALLY****
TOTAL RUN TIME: 0 days 0 hours 0 minutes 48 seconds 871 msec
