                         Program Version 5.0.3 -  RELEASE  -
|  1> ! PBEh-3c def2/J TightSCF DefGrid3
|  2>
|  3> %maxcore 60000
|  4>
|  5> %pal
|  6> nprocs 4
|  7> end
|  8>
|  9> *xyzfile 0 1 45A.xyz
| 10>
| 11>                          ****END OF INPUT****

CARTESIAN COORDINATES (ANGSTROEM)
---------------------------------
  C      0.000000    0.000000   -0.606015
  H      0.000000    0.000000   -1.667862
  C      0.000000    0.000000    0.606015
  H      0.000000    0.000000    1.667862

 Total Charge           Charge          ....    0
 Multiplicity           Mult            ....    1
 Number of Electrons    NEL             ....   14
 Basis Dimension        Dim             ....   34

ORBITAL ENERGIES
----------------

  NO   OCC          E(Eh)            E(eV)
   0   2.0000     -10.458946      -284.6024
   1   2.0000     -10.456590      -284.5383
   2   2.0000      -0.840070       -22.8595
   3   2.0000      -0.639667       -17.4062
   4   2.0000      -0.560300       -15.2465
   5   2.0000      -0.337835        -9.1930
   6   2.0000      -0.337835        -9.1930
   7   0.0000       0.068205         1.8559
   8   0.0000       0.068205         1.8559
   9   0.0000       0.161035         4.3820
  10   0.0000       0.209134         5.6908
  11   0.0000       0.423993        11.5374

MULLIKEN ATOMIC CHARGES
-----------------------
   0 C :   -0.237858
   1 H :    0.237858
   2 C :   -0.237858
   3 H :    0.237858
Sum of atomic charges:   -0.0000000

LOEWDIN ATOMIC CHARGES
----------------------
   0 C :   -0.163097
   1 H :    0.163097
   2 C :   -0.163097
   3 H :    0.163097

  Mayer bond orders larger than 0.100000
B(  0-C ,  1-H ) :   0.9277 B(  0-C ,  2-C ) :   2.8372 B(  2-C ,  3-H ) :   0.9277

Dispersion correction           -0.000698042
FINAL SINGLE POINT ENERGY       -77.142131527101

DIPOLE MOMENT
-------------
                                X             Y             Z
Electronic contribution:      0.00000      -0.00000      -0.00000
Nuclear contribution   :      0.00000       0.00000       0.00000
                        -----------------------------------------
Total Dipole Moment    :      0.00000      -0.00000      -0.00000
                        -----------------------------------------
Magnitude (a.u.)       :      0.00000
Magnitude (Debye)      :      0.00000

Rotational constants in cm-1:     0.000000     1.168220     1.168220
Rotational constants in MHz :     0.000000 35022.341617 35022.341617

                             ****ORCA TERMINATED NORMALLY****
TOTAL RUN TIME: 0 days 0 hours 0 minutes 42 seconds 367 msec
