                         Program Version 5.0.3 -  RELEASE  -
|  1> ! PBEh-3c def2/J TightSCF DefGrid3
|  2>
|  3> %maxcore 60000
|  4>
|  5> %pal
|  6> nprocs 4
|  7> end
|  8>
|  9> *xyzfile 0 1 i11e.xyz
| 10>
| 11>                          ****END OF INPUT****

CARTESIAN COORDINATES (ANGSTROEM)
---------------------------------
  C     -4.182403    1.284678    0.000000
  C     -5.325771    0.483067    0.000000
  C     -5.207603   -0.920743    0.000000
  C     -3.962402   -1.559278    0.000000
  C     -2.824991   -0.748994    0.000000
  C     -2.929221    0.664959    0.000000
  C     -1.566303    1.213643    0.000000
  C     -0.683740    0.002884    0.000000
  N     -1.485175   -1.118798    0.000000
  O     -1.172422    2.385058    0.000000
  C      0.683740   -0.002884    0.000000
  N      1.485175    1.118798    0.000000
  C      2.824991    0.748994    0.000000
  C      2.929221   -0.664959    0.000000
  C      1.566303   -1.213643    0.000000
  C      3.962402    1.559278    0.000000
  C      5.207603    0.920743    0.000000
  C      5.325771   -0.483067    0.000000
  C      4.182403   -1.284678    0.000000
  O      1.172422   -2.385058    0.000000
  H     -4.248094    2.370662    0.000000
  H     -6.313076    0.938548    0.000000
  H     -6.109772   -1.529547    0.000000
  H     -3.886463   -2.644394    0.000000
  H     -1.102977   -2.056781    0.000000
  H      1.102977    2.056781    0.000000
  H      3.886463    2.644394    0.000000
  H      6.109772    1.529547    0.000000
  H      6.313076   -0.938548    0.000000
  H      4.248094   -2.370662    0.000000

 Total Charge           Charge          ....    0
 Multiplicity           Mult            ....    1
 Number of Electrons    NEL             ....  136
 Basis Dimension        Dim             ....  320

ORBITAL ENERGIES
----------------

  NO   OCC          E(Eh)            E(eV)
   0   2.0000     -19.495752      -530.5064
   1   2.0000     -19.495750      -530.5063
   2   2.0000     -14.690884      -399.7593
   3   2.0000     -14.690858      -399.7586
   4   2.0000     -10.549995      -287.0800
   5   2.0000     -10.549979      -287.0795
   6   2.0000     -10.515801      -286.1495
   7   2.0000     -10.515793      -286.1493
   8   2.0000     -10.513486      -286.0865
   9   2.0000     -10.512764      -286.0669
  10   2.0000     -10.474733      -285.0320
  11   2.0000     -10.474731      -285.0319
  12   2.0000     -10.473496      -284.9983
  13   2.0000     -10.473495      -284.9983
  14   2.0000     -10.467132      -284.8252
  15   2.0000     -10.467127      -284.8250
  16   2.0000     -10.462030      -284.6863
  17   2.0000     -10.462029      -284.6863
  18   2.0000     -10.458540      -284.5913
  19   2.0000     -10.458539      -284.5913
  20   2.0000      -1.153852       -31.3979
  21   2.0000      -1.148377       -31.2489
  22   2.0000      -1.098416       -29.8894
  23   2.0000      -1.090908       -29.6851
  24   2.0000      -0.963836       -26.2273
  25   2.0000      -0.957697       -26.0603
  26   2.0000      -0.884047       -24.0561
  27   2.0000      -0.875595       -23.8262
  28   2.0000      -0.868570       -23.6350
  29   2.0000      -0.844727       -22.9862
  30   2.0000      -0.829898       -22.5827
  31   2.0000      -0.792712       -21.5708
  32   2.0000      -0.745269       -20.2798
  33   2.0000      -0.708849       -19.2888
  34   2.0000      -0.690499       -18.7894
  35   2.0000      -0.676605       -18.4114
  36   2.0000      -0.648499       -17.6466
  37   2.0000      -0.647611       -17.6224
  38   2.0000      -0.616084       -16.7645
  39   2.0000      -0.610574       -16.6146
  40   2.0000      -0.582222       -15.8431
  41   2.0000      -0.574804       -15.6412
  42   2.0000      -0.550992       -14.9932
  43   2.0000      -0.528040       -14.3687
  44   2.0000      -0.524326       -14.2676
  45   2.0000      -0.523616       -14.2483
  46   2.0000      -0.518242       -14.1021
  47   2.0000      -0.512013       -13.9326
  48   2.0000      -0.511211       -13.9108
  49   2.0000      -0.498445       -13.5634
  50   2.0000      -0.497488       -13.5373
  51   2.0000      -0.495178       -13.4745
  52   2.0000      -0.493245       -13.4219
  53   2.0000      -0.442318       -12.0361
  54   2.0000      -0.438039       -11.9197
  55   2.0000      -0.436286       -11.8720
  56   2.0000      -0.431475       -11.7410
  57   2.0000      -0.420265       -11.4360
  58   2.0000      -0.420136       -11.4325
  59   2.0000      -0.418682       -11.3929
  60   2.0000      -0.399536       -10.8719
  61   2.0000      -0.336258        -9.1500
  62   2.0000      -0.319831        -8.7031
  63   2.0000      -0.314887        -8.5685
  64   2.0000      -0.312521        -8.5041
  65   2.0000      -0.309029        -8.4091
  66   2.0000      -0.274979        -7.4826
  67   2.0000      -0.232945        -6.3388
  68   0.0000      -0.093275        -2.5381
  69   0.0000      -0.028260        -0.7690
  70   0.0000       0.008959         0.2438
  71   0.0000       0.025138         0.6840
  72   0.0000       0.037752         1.0273

MULLIKEN ATOMIC CHARGES
-----------------------
   0 C :   -0.258707
   1 C :   -0.241872
   2 C :   -0.213110
   3 C :   -0.299783
   4 C :    0.420833
   5 C :   -0.093674
   6 C :    0.337659
   7 C :    0.201480
   8 N :   -0.800509
   9 O :   -0.383698
  10 C :    0.201485
  11 N :   -0.800510
  12 C :    0.420831
  13 C :   -0.093675
  14 C :    0.337660
  15 C :   -0.299781
  16 C :   -0.213112
  17 C :   -0.241872
  18 C :   -0.258705
  19 O :   -0.383698
  20 H :    0.243534
  21 H :    0.227319
  22 H :    0.232564
  23 H :    0.229731
  24 H :    0.398230
  25 H :    0.398230
  26 H :    0.229732
  27 H :    0.232564
  28 H :    0.227319
  29 H :    0.243534
Sum of atomic charges:    0.0000000

LOEWDIN ATOMIC CHARGES
----------------------
   0 C :   -0.076026
   1 C :   -0.165125
   2 C :   -0.095531
   3 C :   -0.170091
   4 C :    0.067174
   5 C :   -0.121698
   6 C :    0.114494
   7 C :   -0.002661
   8 N :   -0.177889
   9 O :   -0.234820
  10 C :   -0.002661
  11 N :   -0.177889
  12 C :    0.067173
  13 C :   -0.121698
  14 C :    0.114494
  15 C :   -0.170090
  16 C :   -0.095531
  17 C :   -0.165125
  18 C :   -0.076026
  19 O :   -0.234820
  20 H :    0.153086
  21 H :    0.140412
  22 H :    0.142616
  23 H :    0.144631
  24 H :    0.281428
  25 H :    0.281428
  26 H :    0.144631
  27 H :    0.142616
  28 H :    0.140412
  29 H :    0.153086

  Mayer bond orders larger than 0.100000
B(  0-C ,  1-C ) :   1.4458 B(  0-C ,  5-C ) :   1.3450 B(  0-C , 20-H ) :   0.9186
B(  1-C ,  2-C ) :   1.3864 B(  1-C , 21-H ) :   0.9177 B(  2-C ,  3-C ) :   1.4454
B(  2-C , 22-H ) :   0.9161 B(  3-C ,  4-C ) :   1.3223 B(  3-C , 23-H ) :   0.9159
B(  4-C ,  5-C ) :   1.2291 B(  4-C ,  8-N ) :   1.0062 B(  5-C ,  6-C ) :   1.0424
B(  6-C ,  7-C ) :   0.9386 B(  6-C ,  9-O ) :   2.0056 B(  7-C ,  8-N ) :   1.0703
B(  7-C , 10-C ) :   1.3977 B(  8-N , 24-H ) :   0.7808 B( 10-C , 11-N ) :   1.0703
B( 10-C , 14-C ) :   0.9386 B( 11-N , 12-C ) :   1.0062 B( 11-N , 25-H ) :   0.7808
B( 12-C , 13-C ) :   1.2291 B( 12-C , 15-C ) :   1.3223 B( 13-C , 14-C ) :   1.0424
B( 13-C , 18-C ) :   1.3450 B( 14-C , 19-O ) :   2.0056 B( 15-C , 16-C ) :   1.4454
B( 15-C , 26-H ) :   0.9159 B( 16-C , 17-C ) :   1.3864 B( 16-C , 27-H ) :   0.9161
B( 17-C , 18-C ) :   1.4458 B( 17-C , 28-H ) :   0.9177 B( 18-C , 29-H ) :   0.9186

Dispersion correction           -0.022322945
FINAL SINGLE POINT ENERGY      -873.792958413326

DIPOLE MOMENT
-------------
                                X             Y             Z
Electronic contribution:      0.00000      -0.00000      -0.00000
Nuclear contribution   :      0.00000       0.00000       0.00000
                        -----------------------------------------
Total Dipole Moment    :      0.00000      -0.00000      -0.00000
                        -----------------------------------------
Magnitude (a.u.)       :      0.00000
Magnitude (Debye)      :      0.00000

Rotational constants in cm-1:     0.038223     0.005756     0.005002
Rotational constants in MHz :  1145.887535   172.553348   149.970115

                             ****ORCA TERMINATED NORMALLY****
TOTAL RUN TIME: 0 days 0 hours 5 minutes 27 seconds 151 msec
