                         Program Version 5.0.3 -  RELEASE  -
|  1> ! PBEh-3c def2/J TightSCF DefGrid3
|  2>
|  3> %maxcore 60000
|  4>
|  5> %pal
|  6> nprocs 4
|  7> end
|  8>
|  9> *xyzfile 0 1 hf_5_ts.xyz
| 10>
| 11>                          ****END OF INPUT****

CARTESIAN COORDINATES (ANGSTROEM)
---------------------------------
  H      0.000000    1.610008    0.000000
  H      1.531209    0.497520    0.000000
  H      0.946339   -1.302524    0.000000
  H     -1.531209    0.497520    0.000000
  H     -0.946339   -1.302524    0.000000
  F      1.847845   -0.600401    0.000000
  F      1.142031    1.571871    0.000000
  F     -1.142031    1.571871    0.000000
  F      0.000000   -1.942939    0.000000
  F     -1.847845   -0.600401    0.000000

 Total Charge           Charge          ....    0
 Multiplicity           Mult            ....    1
 Number of Electrons    NEL             ....   50
 Basis Dimension        Dim             ....   85

ORBITAL ENERGIES
----------------

  NO   OCC          E(Eh)            E(eV)
   0   2.0000     -25.111485      -683.3182
   1   2.0000     -25.111476      -683.3180
   2   2.0000     -25.111471      -683.3179
   3   2.0000     -25.111283      -683.3127
   4   2.0000     -25.111279      -683.3126
   5   2.0000      -1.372425       -37.3456
   6   2.0000      -1.346566       -36.6419
   7   2.0000      -1.346563       -36.6418
   8   2.0000      -1.299444       -35.3597
   9   2.0000      -1.299442       -35.3596
  10   2.0000      -0.722437       -19.6585
  11   2.0000      -0.722436       -19.6585
  12   2.0000      -0.638694       -17.3797
  13   2.0000      -0.638693       -17.3797
  14   2.0000      -0.613923       -16.7057
  15   2.0000      -0.531666       -14.4674
  16   2.0000      -0.518394       -14.1062
  17   2.0000      -0.518391       -14.1061
  18   2.0000      -0.509405       -13.8616
  19   2.0000      -0.509400       -13.8615
  20   2.0000      -0.497125       -13.5275
  21   2.0000      -0.497122       -13.5274
  22   2.0000      -0.493847       -13.4383
  23   2.0000      -0.493846       -13.4382
  24   2.0000      -0.491640       -13.3782
  25   0.0000       0.127724         3.4756
  26   0.0000       0.236542         6.4366
  27   0.0000       0.236545         6.4367
  28   0.0000       0.358408         9.7528
  29   0.0000       0.358412         9.7529

MULLIKEN ATOMIC CHARGES
-----------------------
   0 H :    0.560912
   1 H :    0.560898
   2 H :    0.560894
   3 H :    0.560898
   4 H :    0.560894
   5 F :   -0.560897
   6 F :   -0.560905
   7 F :   -0.560905
   8 F :   -0.560892
   9 F :   -0.560897
Sum of atomic charges:    0.0000000

LOEWDIN ATOMIC CHARGES
----------------------
   0 H :    0.414803
   1 H :    0.414799
   2 H :    0.414796
   3 H :    0.414799
   4 H :    0.414796
   5 F :   -0.414799
   6 F :   -0.414801
   7 F :   -0.414801
   8 F :   -0.414794
   9 F :   -0.414799

  Mayer bond orders larger than 0.100000
B(  0-H ,  6-F ) :   0.3423 B(  0-H ,  7-F ) :   0.3423 B(  1-H ,  5-F ) :   0.3423
B(  1-H ,  6-F ) :   0.3423 B(  2-H ,  5-F ) :   0.3423 B(  2-H ,  8-F ) :   0.3423
B(  3-H ,  7-F ) :   0.3423 B(  3-H ,  9-F ) :   0.3423 B(  4-H ,  8-F ) :   0.3423
B(  4-H ,  9-F ) :   0.3423

Dispersion correction           -0.002277772
FINAL SINGLE POINT ENERGY      -501.292888405816

DIPOLE MOMENT
-------------
                                X             Y             Z
Electronic contribution:      0.00000      -0.00000       0.00000
Nuclear contribution   :      0.00000      -0.00000       0.00000
                        -----------------------------------------
Total Dipole Moment    :      0.00000      -0.00000       0.00000
                        -----------------------------------------
Magnitude (a.u.)       :      0.00000
Magnitude (Debye)      :      0.00001

Rotational constants in cm-1:     0.090717     0.090717     0.045359
Rotational constants in MHz :  2719.632849  2719.632786  1359.816409

                             ****ORCA TERMINATED NORMALLY****
TOTAL RUN TIME: 0 days 0 hours 0 minutes 57 seconds 201 msec
