                         Program Version 5.0.3 -  RELEASE  -
|  1> ! PBEh-3c def2/J TightSCF DefGrid3
|  2>
|  3> %maxcore 60000
|  4>
|  5> %pal
|  6> nprocs 4
|  7> end
|  8>
|  9> *xyzfile 1 2 nh32+_1.75.xyz
| 10>
| 11>                          ****END OF INPUT****

CARTESIAN COORDINATES (ANGSTROEM)
---------------------------------
  N      0.000000    0.000000   -1.895697
  N      0.000000    0.000000    1.895697
  H      0.842973    0.486691   -2.171370
  H      0.000000   -0.973381   -2.171370
  H     -0.842973    0.486691   -2.171370
  H      0.842973   -0.486691    2.171370
  H      0.000000    0.973381    2.171370
  H     -0.842973   -0.486691    2.171370

 Total Charge           Charge          ....    1
 Multiplicity           Mult            ....    2
 Number of Electrons    NEL             ....   19
 Basis Dimension        Dim             ....   42

ORBITAL ENERGIES
----------------
                 SPIN UP ORBITALS
  NO   OCC          E(Eh)            E(eV)
   0   1.0000     -14.891362      -405.2146
   1   1.0000     -14.891362      -405.2146
   2   1.0000      -1.203931       -32.7606
   3   1.0000      -1.203448       -32.7475
   4   1.0000      -0.780958       -21.2509
   5   1.0000      -0.780958       -21.2509
   6   1.0000      -0.780462       -21.2374
   7   1.0000      -0.780462       -21.2374
   8   1.0000      -0.608433       -16.5563
   9   1.0000      -0.597987       -16.2721
  10   0.0000      -0.065093        -1.7713
  11   0.0000      -0.055960        -1.5228
  12   0.0000       0.018660         0.5078
  13   0.0000       0.018661         0.5078
  14   0.0000       0.019021         0.5176

                 SPIN DOWN ORBITALS
  NO   OCC          E(Eh)            E(eV)
   0   1.0000     -14.878054      -404.8524
   1   1.0000     -14.878045      -404.8522
   2   1.0000      -1.170553       -31.8524
   3   1.0000      -1.169018       -31.8106
   4   1.0000      -0.770596       -20.9690
   5   1.0000      -0.770596       -20.9690
   6   1.0000      -0.770029       -20.9536
   7   1.0000      -0.770029       -20.9536
   8   1.0000      -0.468791       -12.7565
   9   0.0000      -0.388128       -10.5615
  10   0.0000      -0.058554        -1.5933
  11   0.0000      -0.048899        -1.3306
  12   0.0000       0.024483         0.6662
  13   0.0000       0.024484         0.6662

MULLIKEN ATOMIC CHARGES AND SPIN POPULATIONS
--------------------------------------------
   0 N :   -0.759118    0.547713
   1 N :   -0.759118    0.547713
   2 H :    0.419706   -0.015904
   3 H :    0.419707   -0.015904
   4 H :    0.419706   -0.015904
   5 H :    0.419706   -0.015904
   6 H :    0.419707   -0.015904
   7 H :    0.419706   -0.015904
Sum of atomic charges         :    1.0000000

LOEWDIN ATOMIC CHARGES AND SPIN POPULATIONS
-------------------------------------------
   0 N :   -0.343052    0.531191
   1 N :   -0.343052    0.531191
   2 H :    0.281017   -0.010397
   3 H :    0.281017   -0.010397
   4 H :    0.281017   -0.010397
   5 H :    0.281017   -0.010397
   6 H :    0.281017   -0.010397
   7 H :    0.281017   -0.010397

  Mayer bond orders larger than 0.100000
B(  0-N ,  1-N ) :   0.4850 B(  0-N ,  2-H ) :   0.8038 B(  0-N ,  3-H ) :   0.8038
B(  0-N ,  4-H ) :   0.8038 B(  1-N ,  5-H ) :   0.8038 B(  1-N ,  6-H ) :   0.8038
B(  1-N ,  7-H ) :   0.8038

Dispersion correction           -0.001139601
FINAL SINGLE POINT ENERGY      -112.520776222410

DIPOLE MOMENT
-------------
                                X             Y             Z
Electronic contribution:     -0.00000       0.00000       0.00000
Nuclear contribution   :      0.00000       0.00000       0.00000
                        -----------------------------------------
Total Dipole Moment    :     -0.00000       0.00000       0.00000
                        -----------------------------------------
Magnitude (a.u.)       :      0.00000
Magnitude (Debye)      :      0.00000

Rotational constants in cm-1:     2.941840     0.127658     0.127658
Rotational constants in MHz : 88194.149217  3827.080532  3827.080524

                             ****ORCA TERMINATED NORMALLY****
TOTAL RUN TIME: 0 days 0 hours 1 minutes 7 seconds 591 msec
