                         Program Version 5.0.3 -  RELEASE  -
|  1> ! PBEh-3c def2/J TightSCF DefGrid3
|  2>
|  3> %maxcore 60000
|  4>
|  5> %pal
|  6> nprocs 4
|  7> end
|  8>
|  9> *xyzfile 0 3 EA_s.xyz
| 10>
| 11>                          ****END OF INPUT****

CARTESIAN COORDINATES (ANGSTROEM)
---------------------------------
  S      0.000000    0.000000    0.000000

 Total Charge           Charge          ....    0
 Multiplicity           Mult            ....    3
 Number of Electrons    NEL             ....   16
 Basis Dimension        Dim             ....   18

ORBITAL ENERGIES
----------------
                 SPIN UP ORBITALS
  NO   OCC          E(Eh)            E(eV)
   0   1.0000     -89.633573     -2439.0535
   1   1.0000      -8.270529      -225.0525
   2   1.0000      -6.168145      -167.8438
   3   1.0000      -6.168145      -167.8438
   4   1.0000      -6.146921      -167.2662
   5   1.0000      -0.800217       -21.7750
   6   1.0000      -0.380799       -10.3621
   7   1.0000      -0.380799       -10.3621
   8   1.0000      -0.327440        -8.9101
   9   0.0000       0.345883         9.4120
  10   0.0000       0.635869        17.3029
  11   0.0000       0.635869        17.3029
  12   0.0000       0.678318        18.4580
  13   0.0000       0.678318        18.4580

                 SPIN DOWN ORBITALS
  NO   OCC          E(Eh)            E(eV)
   0   1.0000     -89.621079     -2438.7136
   1   1.0000      -8.258021      -224.7122
   2   1.0000      -6.141050      -167.1065
   3   1.0000      -6.141050      -167.1065
   4   1.0000      -6.139755      -167.0712
   5   1.0000      -0.674729       -18.3603
   6   1.0000      -0.295582        -8.0432
   7   0.0000      -0.124793        -3.3958
   8   0.0000      -0.124793        -3.3958
   9   0.0000       0.385839        10.4992
  10   0.0000       0.744601        20.2616
  11   0.0000       0.744601        20.2616

MULLIKEN ATOMIC CHARGES AND SPIN POPULATIONS
--------------------------------------------
   0 S :    0.000000    2.000000
Sum of atomic charges         :    0.0000000

LOEWDIN ATOMIC CHARGES AND SPIN POPULATIONS
-------------------------------------------
   0 S :    0.000000    2.000000

Dispersion correction            0.000000000
FINAL SINGLE POINT ENERGY      -397.654267817599

DIPOLE MOMENT
-------------
                                X             Y             Z
Electronic contribution:      0.00000      -0.00001       0.00000
Nuclear contribution   :      0.00000       0.00000       0.00000
                        -----------------------------------------
Total Dipole Moment    :      0.00000      -0.00001       0.00000
                        -----------------------------------------
Magnitude (a.u.)       :      0.00001
Magnitude (Debye)      :      0.00002

Rotational constants in cm-1:     0.000000     0.000000     0.000000
Rotational constants in MHz :     0.000000     0.000000     0.000000

                             ****ORCA TERMINATED NORMALLY****
TOTAL RUN TIME: 0 days 0 hours 0 minutes 5 seconds 631 msec
