                         Program Version 5.0.3 -  RELEASE  -
|  1> ! PBEh-3c def2/J TightSCF DefGrid3
|  2>
|  3> %maxcore 60000
|  4>
|  5> %pal
|  6> nprocs 4
|  7> end
|  8>
|  9> *xyzfile 0 1 i15p.xyz
| 10>
| 11>                          ****END OF INPUT****

CARTESIAN COORDINATES (ANGSTROEM)
---------------------------------
  C      0.836524    0.131713    1.267512
  C      1.557115   -0.392344    0.000000
  C      0.836524    0.131713   -1.267512
  C     -0.659167   -0.144523   -1.263320
  C     -1.331625    0.377349    0.000000
  C     -0.659167   -0.144523    1.263320
  C      1.575422   -1.924201    0.000000
  O      2.951054   -0.022548    0.000000
  C      1.619630    0.098258   -2.553742
  C      1.284068    1.426069   -1.909041
  C     -1.161788   -1.439857   -1.861371
  C     -1.408323   -0.130802   -2.573983
  C     -2.814571    0.654994    0.000000
  C     -1.831390    1.804440    0.000000
  C     -1.161788   -1.439857    1.861371
  C     -1.408323   -0.130802    2.573983
  C      1.284068    1.426069    1.909041
  C      1.619630    0.098258    2.553742
  H      0.556968   -2.316653    0.000000
  H      2.096535   -2.282928   -0.893911
  H      2.096535   -2.282928    0.893911
  H      2.997539    0.943049    0.000000
  H      0.503591    2.025781    2.368656
  H      2.102318    2.008695    1.488629
  H      2.649560   -0.242894    2.466005
  H      1.128505   -0.183101    3.483962
  H     -0.431079   -2.111115    2.292470
  H     -2.014811   -1.912945    1.379779
  H     -2.420048    0.276060    2.596840
  H     -0.850806    0.079644    3.483506
  H     -3.383345    0.465161    0.904331
  H     -3.383345    0.465161   -0.904331
  H     -1.721620    2.374740   -0.925222
  H     -1.721620    2.374740    0.925222
  H     -2.014811   -1.912945   -1.379779
  H     -0.431079   -2.111115   -2.292470
  H     -0.850806    0.079644   -3.483506
  H     -2.420048    0.276060   -2.596840
  H      1.128505   -0.183101   -3.483962
  H      2.649560   -0.242894   -2.466005
  H      2.102318    2.008695   -1.488629
  H      0.503591    2.025781   -2.368656

 Total Charge           Charge          ....    0
 Multiplicity           Mult            ....    1
 Number of Electrons    NEL             ....  134
 Basis Dimension        Dim             ....  318

ORBITAL ENERGIES
----------------

  NO   OCC          E(Eh)            E(eV)
   0   2.0000     -19.491802      -530.3989
   1   2.0000     -10.502976      -285.8005
   2   2.0000     -10.460847      -284.6541
   3   2.0000     -10.460818      -284.6533
   4   2.0000     -10.460073      -284.6331
   5   2.0000     -10.455544      -284.5098
   6   2.0000     -10.455504      -284.5087
   7   2.0000     -10.441653      -284.1318
   8   2.0000     -10.441648      -284.1317
   9   2.0000     -10.441175      -284.1188
  10   2.0000     -10.440112      -284.0899
  11   2.0000     -10.440108      -284.0898
  12   2.0000     -10.437652      -284.0229
  13   2.0000     -10.437140      -284.0090
  14   2.0000     -10.437132      -284.0088
  15   2.0000     -10.435495      -283.9643
  16   2.0000     -10.435492      -283.9642
  17   2.0000     -10.414419      -283.3908
  18   2.0000      -1.126995       -30.6671
  19   2.0000      -1.000220       -27.2174
  20   2.0000      -0.969677       -26.3863
  21   2.0000      -0.947154       -25.7734
  22   2.0000      -0.922286       -25.0967
  23   2.0000      -0.911068       -24.7914
  24   2.0000      -0.840446       -22.8697
  25   2.0000      -0.766585       -20.8598
  26   2.0000      -0.700610       -19.0646
  27   2.0000      -0.697740       -18.9865
  28   2.0000      -0.681938       -18.5565
  29   2.0000      -0.681228       -18.5371
  30   2.0000      -0.673732       -18.3332
  31   2.0000      -0.671482       -18.2719
  32   2.0000      -0.669939       -18.2300
  33   2.0000      -0.630974       -17.1697
  34   2.0000      -0.613078       -16.6827
  35   2.0000      -0.590033       -16.0556
  36   2.0000      -0.586846       -15.9689
  37   2.0000      -0.563633       -15.3372
  38   2.0000      -0.557004       -15.1569
  39   2.0000      -0.549682       -14.9576
  40   2.0000      -0.544773       -14.8240
  41   2.0000      -0.532149       -14.4805
  42   2.0000      -0.494184       -13.4474
  43   2.0000      -0.488404       -13.2902
  44   2.0000      -0.468514       -12.7489
  45   2.0000      -0.466191       -12.6857
  46   2.0000      -0.455300       -12.3893
  47   2.0000      -0.431574       -11.7437
  48   2.0000      -0.429847       -11.6967
  49   2.0000      -0.422375       -11.4934
  50   2.0000      -0.420094       -11.4313
  51   2.0000      -0.416265       -11.3272
  52   2.0000      -0.413126       -11.2417
  53   2.0000      -0.403514       -10.9802
  54   2.0000      -0.400807       -10.9065
  55   2.0000      -0.393636       -10.7114
  56   2.0000      -0.392350       -10.6764
  57   2.0000      -0.372291       -10.1306
  58   2.0000      -0.368376       -10.0240
  59   2.0000      -0.351088        -9.5536
  60   2.0000      -0.347449        -9.4546
  61   2.0000      -0.338032        -9.1983
  62   2.0000      -0.328795        -8.9470
  63   2.0000      -0.313169        -8.5218
  64   2.0000      -0.307695        -8.3728
  65   2.0000      -0.296554        -8.0696
  66   2.0000      -0.290848        -7.9144
  67   0.0000       0.101467         2.7610
  68   0.0000       0.114314         3.1106
  69   0.0000       0.122160         3.3241
  70   0.0000       0.130724         3.5572
  71   0.0000       0.138078         3.7573

MULLIKEN ATOMIC CHARGES
-----------------------
   0 C :    0.014755
   1 C :    0.201499
   2 C :    0.014757
   3 C :   -0.022030
   4 C :    0.027433
   5 C :   -0.022031
   6 C :   -0.636137
   7 O :   -0.647300
   8 C :   -0.474998
   9 C :   -0.455688
  10 C :   -0.443537
  11 C :   -0.491912
  12 C :   -0.492830
  13 C :   -0.434435
  14 C :   -0.443536
  15 C :   -0.491911
  16 C :   -0.455688
  17 C :   -0.474998
  18 H :    0.240791
  19 H :    0.227179
  20 H :    0.227179
  21 H :    0.414193
  22 H :    0.236591
  23 H :    0.203756
  24 H :    0.253498
  25 H :    0.223286
  26 H :    0.239306
  27 H :    0.233093
  28 H :    0.228663
  29 H :    0.231165
  30 H :    0.229812
  31 H :    0.229811
  32 H :    0.230452
  33 H :    0.230452
  34 H :    0.233093
  35 H :    0.239306
  36 H :    0.231165
  37 H :    0.228664
  38 H :    0.223286
  39 H :    0.253498
  40 H :    0.203756
  41 H :    0.236591
Sum of atomic charges:   -0.0000000

LOEWDIN ATOMIC CHARGES
----------------------
   0 C :   -0.066888
   1 C :    0.065234
   2 C :   -0.066888
   3 C :   -0.051614
   4 C :   -0.046396
   5 C :   -0.051614
   6 C :   -0.338795
   7 O :   -0.379600
   8 C :   -0.250685
   9 C :   -0.242666
  10 C :   -0.239503
  11 C :   -0.248495
  12 C :   -0.250748
  13 C :   -0.234113
  14 C :   -0.239503
  15 C :   -0.248495
  16 C :   -0.242666
  17 C :   -0.250685
  18 H :    0.138637
  19 H :    0.133046
  20 H :    0.133046
  21 H :    0.305660
  22 H :    0.137430
  23 H :    0.120294
  24 H :    0.145675
  25 H :    0.128756
  26 H :    0.137914
  27 H :    0.135836
  28 H :    0.131379
  29 H :    0.132971
  30 H :    0.131654
  31 H :    0.131654
  32 H :    0.134958
  33 H :    0.134958
  34 H :    0.135836
  35 H :    0.137914
  36 H :    0.132971
  37 H :    0.131379
  38 H :    0.128756
  39 H :    0.145675
  40 H :    0.120294
  41 H :    0.137430

  Mayer bond orders larger than 0.100000
B(  0-C ,  1-C ) :   0.9439 B(  0-C ,  5-C ) :   0.9816 B(  0-C , 16-C ) :   0.9181
B(  0-C , 17-C ) :   0.9227 B(  1-C ,  2-C ) :   0.9439 B(  1-C ,  6-C ) :   0.9848
B(  1-C ,  7-O ) :   0.9607 B(  2-C ,  3-C ) :   0.9816 B(  2-C ,  8-C ) :   0.9227
B(  2-C ,  9-C ) :   0.9181 B(  3-C ,  4-C ) :   0.9895 B(  3-C , 10-C ) :   0.9068
B(  3-C , 11-C ) :   0.9304 B(  4-C ,  5-C ) :   0.9895 B(  4-C , 12-C ) :   0.9305
B(  4-C , 13-C ) :   0.9019 B(  5-C , 14-C ) :   0.9068 B(  5-C , 15-C ) :   0.9304
B(  6-C , 18-H ) :   0.9064 B(  6-C , 19-H ) :   0.9213 B(  6-C , 20-H ) :   0.9213
B(  7-O , 21-H ) :   0.7729 B(  8-C ,  9-C ) :   0.9249 B(  8-C , 38-H ) :   0.9169
B(  8-C , 39-H ) :   0.9049 B(  9-C , 40-H ) :   0.9260 B(  9-C , 41-H ) :   0.9195
B( 10-C , 11-C ) :   0.9326 B( 10-C , 34-H ) :   0.9219 B( 10-C , 35-H ) :   0.9190
B( 11-C , 36-H ) :   0.9122 B( 11-C , 37-H ) :   0.9128 B( 12-C , 13-C ) :   0.9308
B( 12-C , 30-H ) :   0.9115 B( 12-C , 31-H ) :   0.9115 B( 13-C , 32-H ) :   0.9233
B( 13-C , 33-H ) :   0.9233 B( 14-C , 15-C ) :   0.9326 B( 14-C , 26-H ) :   0.9190
B( 14-C , 27-H ) :   0.9219 B( 15-C , 28-H ) :   0.9128 B( 15-C , 29-H ) :   0.9122
B( 16-C , 17-C ) :   0.9249 B( 16-C , 22-H ) :   0.9195 B( 16-C , 23-H ) :   0.9260
B( 17-C , 24-H ) :   0.9049 B( 17-C , 25-H ) :   0.9169

Dispersion correction           -0.032806974
FINAL SINGLE POINT ENERGY      -735.757236578237

DIPOLE MOMENT
-------------
                                X             Y             Z
Electronic contribution:      2.79691       1.04563       0.00000
Nuclear contribution   :     -3.24376      -0.73288       0.00000
                        -----------------------------------------
Total Dipole Moment    :     -0.44685       0.31274       0.00000
                        -----------------------------------------
Magnitude (a.u.)       :      0.54542
Magnitude (Debye)      :      1.38635

Rotational constants in cm-1:     0.018485     0.018188     0.012655
Rotational constants in MHz :   554.156132   545.251843   379.377847

                             ****ORCA TERMINATED NORMALLY****
TOTAL RUN TIME: 0 days 0 hours 6 minutes 54 seconds 775 msec
