                         Program Version 5.0.3 -  RELEASE  -
|  1> ! PBEh-3c def2/J TightSCF DefGrid3
|  2>
|  3> %maxcore 60000
|  4>
|  5> %pal
|  6> nprocs 4
|  7> end
|  8>
|  9> *xyzfile 0 1 n-nonane.xyz
| 10>
| 11>                          ****END OF INPUT****

CARTESIAN COORDINATES (ANGSTROEM)
---------------------------------
  C     -3.988822   -0.977558   -2.693408
  H     -3.694815   -2.037244   -2.739360
  H     -3.604803   -0.489265   -3.602026
  H     -5.086834   -0.934942   -2.731205
  C     -3.442171   -0.305799   -1.431092
  H     -3.781482    0.743650   -1.395638
  H     -3.871422   -0.792701   -0.538878
  C     -1.913073   -0.343138   -1.337650
  H     -1.572698   -1.393538   -1.372330
  H     -1.482955    0.142706   -2.231542
  C     -1.354600    0.328595   -0.078734
  H     -1.781545   -0.160326    0.814812
  H     -1.699209    1.377528   -0.042492
  C      0.174923    0.296165    0.010082
  H      0.601724    0.788087   -0.882281
  H      0.513565   -0.753013   -0.030465
  C      0.726364    0.977001    1.269040
  H      0.322164    0.470858    2.163933
  H      0.340743    2.010264    1.307521
  C      2.259361    1.016838    1.360555
  H      2.665236    1.499157    0.453291
  H      2.549152    1.667859    2.203210
  C      2.929812   -0.350003    1.547919
  H      2.680884   -1.009285    0.700730
  H      2.509688   -0.835748    2.445618
  C      4.452068   -0.255086    1.681908
  H      4.737428    0.369586    2.542129
  H      4.908790   -1.245411    1.822329
  H      4.902526    0.194763    0.784024

 Total Charge           Charge          ....    0
 Multiplicity           Mult            ....    1
 Number of Electrons    NEL             ....   74
 Basis Dimension        Dim             ....  175

ORBITAL ENERGIES
----------------

  NO   OCC          E(Eh)            E(eV)
   0   2.0000     -10.431308      -283.8503
   1   2.0000     -10.430754      -283.8353
   2   2.0000     -10.430056      -283.8163
   3   2.0000     -10.429780      -283.8087
   4   2.0000     -10.429645      -283.8051
   5   2.0000     -10.429355      -283.7972
   6   2.0000     -10.429119      -283.7907
   7   2.0000     -10.423432      -283.6360
   8   2.0000     -10.423350      -283.6338
   9   2.0000      -0.900169       -24.4948
  10   2.0000      -0.879015       -23.9192
  11   2.0000      -0.844406       -22.9774
  12   2.0000      -0.800632       -21.7863
  13   2.0000      -0.747648       -20.3445
  14   2.0000      -0.693191       -18.8627
  15   2.0000      -0.660967       -17.9858
  16   2.0000      -0.641681       -17.4610
  17   2.0000      -0.627962       -17.0877
  18   2.0000      -0.536901       -14.6098
  19   2.0000      -0.519409       -14.1338
  20   2.0000      -0.503427       -13.6989
  21   2.0000      -0.489958       -13.3324
  22   2.0000      -0.477176       -12.9846
  23   2.0000      -0.468506       -12.7487
  24   2.0000      -0.456224       -12.4145
  25   2.0000      -0.443296       -12.0627
  26   2.0000      -0.428891       -11.6707
  27   2.0000      -0.412172       -11.2158
  28   2.0000      -0.403744       -10.9864
  29   2.0000      -0.395689       -10.7672
  30   2.0000      -0.386814       -10.5257
  31   2.0000      -0.375413       -10.2155
  32   2.0000      -0.372611       -10.1393
  33   2.0000      -0.364108        -9.9079
  34   2.0000      -0.363198        -9.8831
  35   2.0000      -0.354516        -9.6469
  36   2.0000      -0.346913        -9.4400
  37   0.0000       0.133115         3.6222
  38   0.0000       0.139330         3.7914
  39   0.0000       0.150863         4.1052
  40   0.0000       0.164160         4.4670
  41   0.0000       0.170707         4.6452

MULLIKEN ATOMIC CHARGES
-----------------------
   0 C :   -0.635961
   1 H :    0.207567
   2 H :    0.207558
   3 H :    0.216809
   4 C :   -0.406048
   5 H :    0.202774
   6 H :    0.202866
   7 C :   -0.392526
   8 H :    0.198153
   9 H :    0.198266
  10 C :   -0.395561
  11 H :    0.199208
  12 H :    0.198233
  13 C :   -0.402501
  14 H :    0.198114
  15 H :    0.203697
  16 C :   -0.406977
  17 H :    0.198774
  18 H :    0.207898
  19 C :   -0.401965
  20 H :    0.198172
  21 H :    0.207203
  22 C :   -0.411039
  23 H :    0.207912
  24 H :    0.201875
  25 C :   -0.634055
  26 H :    0.206975
  27 H :    0.216735
  28 H :    0.207843
Sum of atomic charges:   -0.0000000

LOEWDIN ATOMIC CHARGES
----------------------
   0 C :   -0.361727
   1 H :    0.122930
   2 H :    0.122931
   3 H :    0.125885
   4 C :   -0.244827
   5 H :    0.118913
   6 H :    0.118956
   7 C :   -0.238848
   8 H :    0.118010
   9 H :    0.118062
  10 C :   -0.236915
  11 H :    0.118623
  12 H :    0.117967
  13 C :   -0.238862
  14 H :    0.118061
  15 H :    0.118570
  16 C :   -0.237816
  17 H :    0.118307
  18 H :    0.121358
  19 C :   -0.239177
  20 H :    0.117949
  21 H :    0.120875
  22 C :   -0.246932
  23 H :    0.119157
  24 H :    0.118486
  25 C :   -0.361242
  26 H :    0.122453
  27 H :    0.125766
  28 H :    0.123088

  Mayer bond orders larger than 0.100000
B(  0-C ,  1-H ) :   0.9295 B(  0-C ,  2-H ) :   0.9295 B(  0-C ,  3-H ) :   0.9320
B(  0-C ,  4-C ) :   0.9945 B(  4-C ,  5-H ) :   0.9206 B(  4-C ,  6-H ) :   0.9205
B(  4-C ,  7-C ) :   0.9875 B(  7-C ,  8-H ) :   0.9185 B(  7-C ,  9-H ) :   0.9186
B(  7-C , 10-C ) :   0.9916 B( 10-C , 11-H ) :   0.9183 B( 10-C , 12-H ) :   0.9185
B( 10-C , 13-C ) :   0.9908 B( 13-C , 14-H ) :   0.9188 B( 13-C , 15-H ) :   0.9164
B( 13-C , 16-C ) :   0.9821 B( 16-C , 17-H ) :   0.9186 B( 16-C , 18-H ) :   0.9233
B( 16-C , 19-C ) :   0.9932 B( 19-C , 20-H ) :   0.9185 B( 19-C , 21-H ) :   0.9231
B( 19-C , 22-C ) :   0.9794 B( 22-C , 23-H ) :   0.9181 B( 22-C , 24-H ) :   0.9207
B( 22-C , 25-C ) :   0.9939 B( 25-C , 26-H ) :   0.9296 B( 25-C , 27-H ) :   0.9321
B( 25-C , 28-H ) :   0.9293

Dispersion correction           -0.013768945
FINAL SINGLE POINT ENERGY      -354.242422613459

DIPOLE MOMENT
-------------
                                X             Y             Z
Electronic contribution:     -0.40990       0.99331       0.85011
Nuclear contribution   :      0.39782      -0.98606      -0.83728
                        -----------------------------------------
Total Dipole Moment    :     -0.01208       0.00725       0.01283
                        -----------------------------------------
Magnitude (a.u.)       :      0.01906
Magnitude (Debye)      :      0.04844

Rotational constants in cm-1:     0.171732     0.013003     0.012477
Rotational constants in MHz :  5148.381508   389.817920   374.061681

                             ****ORCA TERMINATED NORMALLY****
TOTAL RUN TIME: 0 days 0 hours 2 minutes 8 seconds 776 msec
