                         Program Version 5.0.3 -  RELEASE  -
|  1> ! PBEh-3c def2/J TightSCF DefGrid3
|  2>
|  3> %maxcore 60000
|  4>
|  5> %pal
|  6> nprocs 4
|  7> end
|  8>
|  9> *xyzfile 0 1 methylimidazole.xyz
| 10>
| 11>                          ****END OF INPUT****

CARTESIAN COORDINATES (ANGSTROEM)
---------------------------------
  C      0.438572    0.015582   -0.008701
  C     -0.688877    0.808562    0.061356
  N     -1.761357   -0.064580    0.032528
  H     -2.741303    0.191881    0.066406
  H     -1.881319   -2.213412   -0.092609
  H     -0.823869    1.882481    0.127386
  C      1.874123    0.429865   -0.012411
  H      2.408943    0.001761    0.848412
  H      2.382908    0.072277   -0.919743
  H      1.972523    1.522656    0.030084
  C     -1.250115   -1.330102   -0.053043
  N      0.069771   -1.316971   -0.079665

 Total Charge           Charge          ....    0
 Multiplicity           Mult            ....    1
 Number of Electrons    NEL             ....   44
 Basis Dimension        Dim             ....  102

ORBITAL ENERGIES
----------------

  NO   OCC          E(Eh)            E(eV)
   0   2.0000     -14.694399      -399.8549
   1   2.0000     -14.611172      -397.5902
   2   2.0000     -10.495718      -285.6030
   3   2.0000     -10.466791      -284.8159
   4   2.0000     -10.459117      -284.6070
   5   2.0000     -10.427004      -283.7332
   6   2.0000      -1.112962       -30.2852
   7   2.0000      -0.961346       -26.1596
   8   2.0000      -0.847444       -23.0601
   9   2.0000      -0.772186       -21.0122
  10   2.0000      -0.682181       -18.5631
  11   2.0000      -0.636160       -17.3108
  12   2.0000      -0.610121       -16.6022
  13   2.0000      -0.507802       -13.8180
  14   2.0000      -0.494679       -13.4609
  15   2.0000      -0.489751       -13.3268
  16   2.0000      -0.446957       -12.1623
  17   2.0000      -0.441254       -12.0071
  18   2.0000      -0.425347       -11.5743
  19   2.0000      -0.319548        -8.6954
  20   2.0000      -0.317907        -8.6507
  21   2.0000      -0.258852        -7.0437
  22   0.0000       0.059987         1.6323
  23   0.0000       0.100828         2.7437
  24   0.0000       0.123675         3.3654
  25   0.0000       0.173044         4.7088
  26   0.0000       0.193588         5.2678

MULLIKEN ATOMIC CHARGES
-----------------------
   0 C :    0.158799
   1 C :   -0.106783
   2 N :   -0.580767
   3 H :    0.365111
   4 H :    0.234198
   5 H :    0.238916
   6 C :   -0.707450
   7 H :    0.233422
   8 H :    0.233970
   9 H :    0.211478
  10 C :    0.114728
  11 N :   -0.395623
Sum of atomic charges:    0.0000000

LOEWDIN ATOMIC CHARGES
----------------------
   0 C :   -0.048292
   1 C :   -0.152731
   2 N :   -0.149875
   3 H :    0.263840
   4 H :    0.130362
   5 H :    0.137354
   6 C :   -0.351957
   7 H :    0.140894
   8 H :    0.141244
   9 H :    0.130747
  10 C :   -0.048853
  11 N :   -0.192733

  Mayer bond orders larger than 0.100000
B(  0-C ,  1-C ) :   1.5550 B(  0-C ,  6-C ) :   0.9687 B(  0-C , 11-N ) :   1.3517
B(  1-C ,  2-N ) :   1.1156 B(  1-C ,  5-H ) :   0.9080 B(  2-N ,  3-H ) :   0.8196
B(  2-N , 10-C ) :   1.1815 B(  4-H , 10-C ) :   0.9099 B(  6-C ,  7-H ) :   0.9181
B(  6-C ,  8-H ) :   0.9183 B(  6-C ,  9-H ) :   0.9346 B( 10-C , 11-N ) :   1.6205

Dispersion correction           -0.005192062
FINAL SINGLE POINT ENERGY      -264.954841862925

DIPOLE MOMENT
-------------
                                X             Y             Z
Electronic contribution:     -3.59808      -1.89246      -0.03977
Nuclear contribution   :      2.45511       2.65107       0.10774
                        -----------------------------------------
Total Dipole Moment    :     -1.14296       0.75861       0.06797
                        -----------------------------------------
Magnitude (a.u.)       :      1.37349
Magnitude (Debye)      :      3.49113

Rotational constants in cm-1:     0.297784     0.116308     0.084971
Rotational constants in MHz :  8927.346517  3486.838349  2547.374047

                             ****ORCA TERMINATED NORMALLY****
TOTAL RUN TIME: 0 days 0 hours 1 minutes 26 seconds 654 msec
