                         Program Version 5.0.3 -  RELEASE  -
|  1> ! PBEh-3c def2/J TightSCF DefGrid3
|  2>
|  3> %maxcore 60000
|  4>
|  5> %pal
|  6> nprocs 4
|  7> end
|  8>
|  9> *xyzfile 0 1 cs2.xyz
| 10>
| 11>                          ****END OF INPUT****

CARTESIAN COORDINATES (ANGSTROEM)
---------------------------------
  C      0.000000    0.000000    0.000000
  S      1.557634    0.000000    0.000000
  S     -1.557634    0.000000    0.000000

 Total Charge           Charge          ....    0
 Multiplicity           Mult            ....    1
 Number of Electrons    NEL             ....   38
 Basis Dimension        Dim             ....   51

ORBITAL ENERGIES
----------------

  NO   OCC          E(Eh)            E(eV)
   0   2.0000     -89.623695     -2438.7847
   1   2.0000     -89.623679     -2438.7843
   2   2.0000     -10.586297      -288.0678
   3   2.0000      -8.264992      -224.9019
   4   2.0000      -8.264929      -224.9001
   5   2.0000      -6.154894      -167.4832
   6   2.0000      -6.154875      -167.4827
   7   2.0000      -6.150305      -167.3583
   8   2.0000      -6.150305      -167.3583
   9   2.0000      -6.150301      -167.3582
  10   2.0000      -6.150301      -167.3582
  11   2.0000      -0.958200       -26.0740
  12   2.0000      -0.858584       -23.3633
  13   2.0000      -0.571238       -15.5442
  14   2.0000      -0.488472       -13.2920
  15   2.0000      -0.446905       -12.1609
  16   2.0000      -0.446905       -12.1609
  17   2.0000      -0.318081        -8.6554
  18   2.0000      -0.318081        -8.6554
  19   0.0000      -0.050198        -1.3660
  20   0.0000      -0.050198        -1.3660
  21   0.0000       0.100482         2.7342
  22   0.0000       0.199499         5.4287
  23   0.0000       0.287005         7.8098

MULLIKEN ATOMIC CHARGES
-----------------------
   0 C :   -0.029834
   1 S :    0.014917
   2 S :    0.014917
Sum of atomic charges:    0.0000000

LOEWDIN ATOMIC CHARGES
----------------------
   0 C :   -0.288588
   1 S :    0.144294
   2 S :    0.144294

  Mayer bond orders larger than 0.100000
B(  0-C ,  1-S ) :   1.8878 B(  0-C ,  2-S ) :   1.8878 B(  1-S ,  2-S ) :   0.4333

Dispersion correction           -0.001162953
FINAL SINGLE POINT ENERGY      -833.496856676512

DIPOLE MOMENT
-------------
                                X             Y             Z
Electronic contribution:     -0.00000      -0.00000      -0.00000
Nuclear contribution   :      0.00000       0.00000       0.00000
                        -----------------------------------------
Total Dipole Moment    :     -0.00000      -0.00000      -0.00000
                        -----------------------------------------
Magnitude (a.u.)       :      0.00000
Magnitude (Debye)      :      0.00000

Rotational constants in cm-1:     0.000000     0.108361     0.108361
Rotational constants in MHz :     0.000000  3248.578078  3248.578078

                             ****ORCA TERMINATED NORMALLY****
TOTAL RUN TIME: 0 days 0 hours 0 minutes 56 seconds 32 msec
