                         Program Version 5.0.3 -  RELEASE  -
|  1> ! PBEh-3c def2/J TightSCF DefGrid3
|  2>
|  3> %maxcore 60000
|  4>
|  5> %pal
|  6> nprocs 4
|  7> end
|  8>
|  9> *xyzfile 0 1 G1.xyz
| 10>
| 11>                          ****END OF INPUT****

CARTESIAN COORDINATES (ANGSTROEM)
---------------------------------
  C     -0.616099   -1.461915   -0.260827
  O      0.683598   -1.158223    0.233133
  C      1.195662    0.101321   -0.240147
  C      0.281873    1.234755    0.246418
  C     -1.618133   -0.415095    0.231146
  C     -1.156394    0.971990   -0.201626
  O     -1.964951    2.005563    0.355191
  O      0.770357    2.457453   -0.289673
  C      2.623327    0.207108    0.283981
  O      3.437017   -0.858100   -0.188821
  H     -2.884786    1.843699    0.088236
  H      0.114162    3.145600   -0.088115
  H      3.008252   -1.687009    0.079566
  O     -1.020118   -2.698752    0.249484
  O     -2.914659   -0.613293   -0.325016
  H     -1.194939    1.027125   -1.301446
  H      0.304773    1.265880    1.347237
  H      1.218161    0.095031   -1.341335
  H      3.073636    1.134035   -0.076452
  H     -0.458274   -3.398695   -0.119864
  H     -3.244903   -1.477475   -0.030249
  H     -0.589780   -1.479061   -1.364095
  H     -1.653701   -0.471000    1.328514
  H      2.605917    0.229057    1.384767

 Total Charge           Charge          ....    0
 Multiplicity           Mult            ....    1
 Number of Electrons    NEL             ....   96
 Basis Dimension        Dim             ....  204

ORBITAL ENERGIES
----------------

  NO   OCC          E(Eh)            E(eV)
   0   2.0000     -19.521113      -531.1965
   1   2.0000     -19.518372      -531.1219
   2   2.0000     -19.508191      -530.8449
   3   2.0000     -19.502478      -530.6894
   4   2.0000     -19.495382      -530.4963
   5   2.0000     -19.483518      -530.1735
   6   2.0000     -10.556128      -287.2469
   7   2.0000     -10.502099      -285.7766
   8   2.0000     -10.501838      -285.7695
   9   2.0000     -10.501485      -285.7599
  10   2.0000     -10.500172      -285.7242
  11   2.0000     -10.482064      -285.2315
  12   2.0000      -1.196193       -32.5501
  13   2.0000      -1.152003       -31.3476
  14   2.0000      -1.142114       -31.0785
  15   2.0000      -1.128756       -30.7150
  16   2.0000      -1.119156       -30.4538
  17   2.0000      -1.112270       -30.2664
  18   2.0000      -0.880258       -23.9530
  19   2.0000      -0.861917       -23.4540
  20   2.0000      -0.772333       -21.0162
  21   2.0000      -0.724480       -19.7141
  22   2.0000      -0.695537       -18.9265
  23   2.0000      -0.666210       -18.1285
  24   2.0000      -0.633904       -17.2494
  25   2.0000      -0.600999       -16.3540
  26   2.0000      -0.595401       -16.2017
  27   2.0000      -0.582250       -15.8438
  28   2.0000      -0.560023       -15.2390
  29   2.0000      -0.551199       -14.9989
  30   2.0000      -0.525301       -14.2942
  31   2.0000      -0.513180       -13.9643
  32   2.0000      -0.501527       -13.6472
  33   2.0000      -0.484038       -13.1713
  34   2.0000      -0.475078       -12.9275
  35   2.0000      -0.471166       -12.8211
  36   2.0000      -0.441539       -12.0149
  37   2.0000      -0.428017       -11.6469
  38   2.0000      -0.421840       -11.4789
  39   2.0000      -0.406087       -11.0502
  40   2.0000      -0.400830       -10.9071
  41   2.0000      -0.387169       -10.5354
  42   2.0000      -0.368386       -10.0243
  43   2.0000      -0.359036        -9.7699
  44   2.0000      -0.343487        -9.3468
  45   2.0000      -0.332651        -9.0519
  46   2.0000      -0.324048        -8.8178
  47   2.0000      -0.321341        -8.7441
  48   0.0000       0.095326         2.5939
  49   0.0000       0.103246         2.8095
  50   0.0000       0.136900         3.7252
  51   0.0000       0.144260         3.9255
  52   0.0000       0.150486         4.0949

MULLIKEN ATOMIC CHARGES
-----------------------
   0 C :    0.282784
   1 O :   -0.510152
   2 C :   -0.028953
   3 C :    0.049383
   4 C :   -0.025096
   5 C :   -0.005205
   6 O :   -0.651021
   7 O :   -0.643591
   8 C :   -0.145503
   9 O :   -0.627017
  10 H :    0.434214
  11 H :    0.433670
  12 H :    0.417195
  13 O :   -0.635491
  14 O :   -0.648419
  15 H :    0.204729
  16 H :    0.201720
  17 H :    0.215104
  18 H :    0.239665
  19 H :    0.430573
  20 H :    0.432314
  21 H :    0.171847
  22 H :    0.223174
  23 H :    0.184075
Sum of atomic charges:    0.0000000

LOEWDIN ATOMIC CHARGES
----------------------
   0 C :    0.072847
   1 O :   -0.260024
   2 C :   -0.032506
   3 C :   -0.029113
   4 C :   -0.054094
   5 C :   -0.040233
   6 O :   -0.402575
   7 O :   -0.395757
   8 C :   -0.091206
   9 O :   -0.406619
  10 H :    0.323869
  11 H :    0.323249
  12 H :    0.310405
  13 O :   -0.372559
  14 O :   -0.400683
  15 H :    0.115877
  16 H :    0.114712
  17 H :    0.119144
  18 H :    0.137871
  19 H :    0.323358
  20 H :    0.322798
  21 H :    0.090902
  22 H :    0.123955
  23 H :    0.106382

  Mayer bond orders larger than 0.100000
B(  0-C ,  1-O ) :   0.9545 B(  0-C ,  4-C ) :   0.8966 B(  0-C , 13-O ) :   1.0647
B(  0-C , 21-H ) :   0.8828 B(  1-O ,  2-C ) :   0.9126 B(  2-C ,  3-C ) :   0.9086
B(  2-C ,  8-C ) :   0.9812 B(  2-C , 17-H ) :   0.8779 B(  3-C ,  5-C ) :   0.9525
B(  3-C ,  7-O ) :   1.0003 B(  3-C , 16-H ) :   0.8795 B(  4-C ,  5-C ) :   0.9355
B(  4-C , 14-O ) :   1.0059 B(  4-C , 22-H ) :   0.8754 B(  5-C ,  6-O ) :   1.0077
B(  5-C , 15-H ) :   0.8806 B(  6-O , 10-H ) :   0.7707 B(  7-O , 11-H ) :   0.7695
B(  8-C ,  9-O ) :   1.0311 B(  8-C , 18-H ) :   0.9000 B(  8-C , 23-H ) :   0.9019
B(  9-O , 12-H ) :   0.7808 B( 13-O , 19-H ) :   0.7771 B( 14-O , 20-H ) :   0.7738

Dispersion correction           -0.013419535
FINAL SINGLE POINT ENERGY      -685.715383257799

DIPOLE MOMENT
-------------
                                X             Y             Z
Electronic contribution:     -1.74247      -1.28730       0.10095
Nuclear contribution   :      0.72540       0.57514      -0.16020
                        -----------------------------------------
Total Dipole Moment    :     -1.01707      -0.71216      -0.05925
                        -----------------------------------------
Magnitude (a.u.)       :      1.24303
Magnitude (Debye)      :      3.15952

Rotational constants in cm-1:     0.038846     0.026075     0.016289
Rotational constants in MHz :  1164.582170   781.702439   488.330441

                             ****ORCA TERMINATED NORMALLY****
TOTAL RUN TIME: 0 days 0 hours 2 minutes 12 seconds 328 msec
