                         Program Version 5.0.3 -  RELEASE  -
|  1> ! PBEh-3c def2/J TightSCF DefGrid3
|  2>
|  3> %maxcore 60000
|  4>
|  5> %pal
|  6> nprocs 4
|  7> end
|  8>
|  9> *xyzfile 0 1 13ts_2a.xyz
| 10>
| 11>                          ****END OF INPUT****

CARTESIAN COORDINATES (ANGSTROEM)
---------------------------------
  C      0.858508    0.851499   -0.054066
  C      0.856658   -0.532348   -0.021484
  N     -1.218956   -0.930226   -0.123497
  N     -1.667046    0.255934   -0.012121
  N     -1.210739    1.330914   -0.050630
  H      1.039729    1.420147    0.848392
  H      1.040725    1.371326   -0.986268
  H      1.025091   -1.056979    0.911291
  H      1.042072   -1.103942   -0.920502
  H     -1.766043   -1.606327    0.408885

 Total Charge           Charge          ....    0
 Multiplicity           Mult            ....    1
 Number of Electrons    NEL             ....   38
 Basis Dimension        Dim             ....   85

ORBITAL ENERGIES
----------------

  NO   OCC          E(Eh)            E(eV)
   0   2.0000     -14.766310      -401.8117
   1   2.0000     -14.703921      -400.1140
   2   2.0000     -14.682022      -399.5181
   3   2.0000     -10.465553      -284.7822
   4   2.0000     -10.445298      -284.2310
   5   2.0000      -1.219292       -33.1786
   6   2.0000      -1.014290       -27.6002
   7   2.0000      -0.852471       -23.1969
   8   2.0000      -0.674456       -18.3529
   9   2.0000      -0.666108       -18.1257
  10   2.0000      -0.574504       -15.6330
  11   2.0000      -0.546303       -14.8657
  12   2.0000      -0.514877       -14.0105
  13   2.0000      -0.495425       -13.4812
  14   2.0000      -0.469943       -12.7878
  15   2.0000      -0.417862       -11.3706
  16   2.0000      -0.367886       -10.0107
  17   2.0000      -0.304888        -8.2964
  18   2.0000      -0.286368        -7.7925
  19   0.0000      -0.015417        -0.4195
  20   0.0000       0.045592         1.2406
  21   0.0000       0.080865         2.2004
  22   0.0000       0.150112         4.0848
  23   0.0000       0.172241         4.6869

MULLIKEN ATOMIC CHARGES
-----------------------
   0 C :   -0.499329
   1 C :   -0.400598
   2 N :   -0.456983
   3 N :    0.168923
   4 N :   -0.127809
   5 H :    0.240005
   6 H :    0.243519
   7 H :    0.231192
   8 H :    0.246889
   9 H :    0.354192
Sum of atomic charges:   -0.0000000

LOEWDIN ATOMIC CHARGES
----------------------
   0 C :   -0.298926
   1 C :   -0.220024
   2 N :   -0.296537
   3 N :    0.099339
   4 N :   -0.076230
   5 H :    0.137369
   6 H :    0.139503
   7 H :    0.133272
   8 H :    0.140192
   9 H :    0.242043

  Mayer bond orders larger than 0.100000
B(  0-C ,  1-C ) :   1.5070 B(  0-C ,  4-N ) :   0.4084 B(  0-C ,  5-H ) :   0.9184
B(  0-C ,  6-H ) :   0.9168 B(  1-C ,  2-N ) :   0.3525 B(  1-C ,  7-H ) :   0.9204
B(  1-C ,  8-H ) :   0.9159 B(  2-N ,  3-N ) :   1.3819 B(  2-N ,  4-N ) :   0.3250
B(  2-N ,  9-H ) :   0.8070 B(  3-N ,  4-N ) :   2.1446

Dispersion correction           -0.004317071
FINAL SINGLE POINT ENERGY      -242.792349717789

DIPOLE MOMENT
-------------
                                X             Y             Z
Electronic contribution:     -4.40377       0.97435      -0.08122
Nuclear contribution   :      4.48866      -1.70964       0.45997
                        -----------------------------------------
Total Dipole Moment    :      0.08489      -0.73529       0.37875
                        -----------------------------------------
Magnitude (a.u.)       :      0.83145
Magnitude (Debye)      :      2.11338

Rotational constants in cm-1:     0.278579     0.182251     0.115787
Rotational constants in MHz :  8351.581186  5463.760436  3471.220842

                             ****ORCA TERMINATED NORMALLY****
TOTAL RUN TIME: 0 days 0 hours 1 minutes 44 seconds 869 msec
