                         Program Version 5.0.3 -  RELEASE  -
|  1> ! PBEh-3c def2/J TightSCF DefGrid3
|  2>
|  3> %maxcore 60000
|  4>
|  5> %pal
|  6> nprocs 4
|  7> end
|  8>
|  9> *xyzfile 0 1 12.xyz
| 10>
| 11>                          ****END OF INPUT****

CARTESIAN COORDINATES (ANGSTROEM)
---------------------------------
  P     -0.000104   -1.613590    0.000000
  H     -0.962251   -1.637206    1.037259
  H     -0.962251   -1.637206   -1.037259
  N      0.344180   -3.291520    0.000000
  C      0.739465   -4.392668    0.000000
  P      0.000000    1.613570    0.000000
  H      0.962150    1.637084    1.037259
  H      0.962150    1.637084   -1.037259
  N     -0.344103    3.291540    0.000000
  C     -0.739261    4.392734    0.000000

 Total Charge           Charge          ....    0
 Multiplicity           Mult            ....    1
 Number of Electrons    NEL             ....   60
 Basis Dimension        Dim             ....  104

ORBITAL ENERGIES
----------------

  NO   OCC          E(Eh)            E(eV)
   0   2.0000     -77.813508     -2117.4132
   1   2.0000     -77.813410     -2117.4105
   2   2.0000     -14.683323      -399.5535
   3   2.0000     -14.683316      -399.5534
   4   2.0000     -10.501433      -285.7585
   5   2.0000     -10.501430      -285.7584
   6   2.0000      -6.886014      -187.3780
   7   2.0000      -6.885973      -187.3769
   8   2.0000      -4.977826      -135.4535
   9   2.0000      -4.977815      -135.4532
  10   2.0000      -4.975634      -135.3939
  11   2.0000      -4.975620      -135.3935
  12   2.0000      -4.974136      -135.3531
  13   2.0000      -4.974119      -135.3527
  14   2.0000      -1.057802       -28.7843
  15   2.0000      -1.057720       -28.7820
  16   2.0000      -0.811685       -22.0871
  17   2.0000      -0.805906       -21.9298
  18   2.0000      -0.609379       -16.5821
  19   2.0000      -0.592241       -16.1157
  20   2.0000      -0.512729       -13.9521
  21   2.0000      -0.507458       -13.8086
  22   2.0000      -0.469331       -12.7711
  23   2.0000      -0.463409       -12.6100
  24   2.0000      -0.417553       -11.3622
  25   2.0000      -0.413800       -11.2601
  26   2.0000      -0.373543       -10.1646
  27   2.0000      -0.373425       -10.1614
  28   2.0000      -0.357409        -9.7256
  29   2.0000      -0.330272        -8.9871
  30   0.0000      -0.024209        -0.6588
  31   0.0000       0.005865         0.1596
  32   0.0000       0.011893         0.3236
  33   0.0000       0.042267         1.1501
  34   0.0000       0.060395         1.6434

MULLIKEN ATOMIC CHARGES
-----------------------
   0 P :    0.135538
   1 H :    0.116584
   2 H :    0.116584
   3 N :   -0.365411
   4 C :   -0.003291
   5 P :    0.135535
   6 H :    0.116584
   7 H :    0.116584
   8 N :   -0.365412
   9 C :   -0.003294
Sum of atomic charges:   -0.0000000

LOEWDIN ATOMIC CHARGES
----------------------
   0 P :    0.196651
   1 H :    0.048914
   2 H :    0.048914
   3 N :   -0.218075
   4 C :   -0.076399
   5 P :    0.196644
   6 H :    0.048914
   7 H :    0.048914
   8 N :   -0.218076
   9 C :   -0.076401

  Mayer bond orders larger than 0.100000
B(  0-P ,  1-H ) :   0.9429 B(  0-P ,  2-H ) :   0.9429 B(  0-P ,  3-N ) :   0.8282
B(  3-N ,  4-C ) :   2.4502 B(  5-P ,  6-H ) :   0.9429 B(  5-P ,  7-H ) :   0.9429
B(  5-P ,  8-N ) :   0.8282 B(  8-N ,  9-C ) :   2.4502

Dispersion correction           -0.004647357
FINAL SINGLE POINT ENERGY      -869.477871487051

DIPOLE MOMENT
-------------
                                X             Y             Z
Electronic contribution:     -0.00001       0.00010      -0.00000
Nuclear contribution   :     -0.00010      -0.00021       0.00000
                        -----------------------------------------
Total Dipole Moment    :     -0.00011      -0.00012      -0.00000
                        -----------------------------------------
Magnitude (a.u.)       :      0.00016
Magnitude (Debye)      :      0.00041

Rotational constants in cm-1:     1.293674     0.017653     0.017573
Rotational constants in MHz : 38783.375216   529.216692   526.814356

                             ****ORCA TERMINATED NORMALLY****
TOTAL RUN TIME: 0 days 0 hours 0 minutes 59 seconds 444 msec
