                         Program Version 5.0.3 -  RELEASE  -
|  1> ! PBEh-3c def2/J TightSCF DefGrid3
|  2>
|  3> %maxcore 60000
|  4>
|  5> %pal
|  6> nprocs 4
|  7> end
|  8>
|  9> *xyzfile 0 1 B37.xyz
| 10>
| 11>                          ****END OF INPUT****

CARTESIAN COORDINATES (ANGSTROEM)
---------------------------------
  C      0.367635    1.909187   -0.009031
  H      1.001439    1.950599   -0.894211
  O     -0.444571    3.077321   -0.068494
  C     -0.444571    0.621214   -0.011940
  H     -1.097004    0.607608    0.867288
  H     -1.093642    0.620791   -0.890119
  C      0.444571   -0.621214   -0.011940
  H      1.097004   -0.607608    0.867288
  H      1.093642   -0.620791   -0.890119
  H     -0.988595    3.089929    0.723499
  H      1.024430    1.934367    0.867328
  C     -0.367635   -1.909187   -0.009031
  H     -1.024430   -1.934367    0.867328
  H     -1.001439   -1.950599   -0.894211
  O      0.444571   -3.077321   -0.068494
  H      0.988595   -3.089929    0.723499

 Total Charge           Charge          ....    0
 Multiplicity           Mult            ....    1
 Number of Electrons    NEL             ....   50
 Basis Dimension        Dim             ....  110

ORBITAL ENERGIES
----------------

  NO   OCC          E(Eh)            E(eV)
   0   2.0000     -19.486311      -530.2495
   1   2.0000     -19.486304      -530.2493
   2   2.0000     -10.483210      -285.2626
   3   2.0000     -10.483171      -285.2616
   4   2.0000     -10.440675      -284.1052
   5   2.0000     -10.440460      -284.0994
   6   2.0000      -1.123418       -30.5697
   7   2.0000      -1.122939       -30.5567
   8   2.0000      -0.891026       -24.2461
   9   2.0000      -0.797246       -21.6942
  10   2.0000      -0.709145       -19.2968
  11   2.0000      -0.672136       -18.2897
  12   2.0000      -0.574843       -15.6423
  13   2.0000      -0.574734       -15.6393
  14   2.0000      -0.526373       -14.3233
  15   2.0000      -0.506142       -13.7728
  16   2.0000      -0.494756       -13.4630
  17   2.0000      -0.468133       -12.7386
  18   2.0000      -0.443504       -12.0683
  19   2.0000      -0.413062       -11.2400
  20   2.0000      -0.407708       -11.0943
  21   2.0000      -0.383239       -10.4285
  22   2.0000      -0.372462       -10.1352
  23   2.0000      -0.335904        -9.1404
  24   2.0000      -0.317847        -8.6491
  25   0.0000       0.120340         3.2746
  26   0.0000       0.125747         3.4217
  27   0.0000       0.142339         3.8732
  28   0.0000       0.174137         4.7385
  29   0.0000       0.179045         4.8721

MULLIKEN ATOMIC CHARGES
-----------------------
   0 C :   -0.129377
   1 H :    0.210715
   2 O :   -0.620842
   3 C :   -0.466474
   4 H :    0.194440
   5 H :    0.228779
   6 C :   -0.466474
   7 H :    0.194440
   8 H :    0.228779
   9 H :    0.407996
  10 H :    0.174763
  11 C :   -0.129378
  12 H :    0.174763
  13 H :    0.210715
  14 O :   -0.620842
  15 H :    0.407996
Sum of atomic charges:   -0.0000000

LOEWDIN ATOMIC CHARGES
----------------------
   0 C :   -0.094503
   1 H :    0.120496
   2 O :   -0.409241
   3 C :   -0.265853
   4 H :    0.115760
   5 H :    0.131501
   6 C :   -0.265853
   7 H :    0.115760
   8 H :    0.131501
   9 H :    0.305593
  10 H :    0.096248
  11 C :   -0.094503
  12 H :    0.096248
  13 H :    0.120496
  14 O :   -0.409241
  15 H :    0.305593

  Mayer bond orders larger than 0.100000
B(  0-C ,  1-H ) :   0.9122 B(  0-C ,  2-O ) :   1.0257 B(  0-C ,  3-C ) :   0.9832
B(  0-C , 10-H ) :   0.9101 B(  2-O ,  9-H ) :   0.7954 B(  3-C ,  4-H ) :   0.9188
B(  3-C ,  5-H ) :   0.9087 B(  3-C ,  6-C ) :   0.9571 B(  6-C ,  7-H ) :   0.9188
B(  6-C ,  8-H ) :   0.9087 B(  6-C , 11-C ) :   0.9832 B( 11-C , 12-H ) :   0.9101
B( 11-C , 13-H ) :   0.9122 B( 11-C , 14-O ) :   1.0257 B( 14-O , 15-H ) :   0.7954

Dispersion correction           -0.006389172
FINAL SINGLE POINT ENERGY      -308.206800181025

DIPOLE MOMENT
-------------
                                X             Y             Z
Electronic contribution:      0.00000      -0.00000      -0.43747
Nuclear contribution   :     -0.00000       0.00000       1.40186
                        -----------------------------------------
Total Dipole Moment    :      0.00000      -0.00000       0.96440
                        -----------------------------------------
Magnitude (a.u.)       :      0.96440
Magnitude (Debye)      :      2.45130

Rotational constants in cm-1:     0.565308     0.037785     0.036560
Rotational constants in MHz : 16947.510088  1132.778270  1096.041027

                             ****ORCA TERMINATED NORMALLY****
TOTAL RUN TIME: 0 days 0 hours 1 minutes 30 seconds 542 msec
