                         Program Version 5.0.3 -  RELEASE  -
|  1> ! PBEh-3c def2/J TightSCF DefGrid3
|  2>
|  3> %maxcore 60000
|  4>
|  5> %pal
|  6> nprocs 4
|  7> end
|  8>
|  9> *xyzfile 0 2 ch2ch.xyz
| 10>
| 11>                          ****END OF INPUT****

CARTESIAN COORDINATES (ANGSTROEM)
---------------------------------
  C      0.689795   -0.084631    0.000000
  H      1.536515    0.583516    0.000000
  C     -0.619454    0.022939    0.000000
  H     -1.267928   -0.846088    0.000000
  H     -1.106834    0.997749    0.000000

 Total Charge           Charge          ....    0
 Multiplicity           Mult            ....    2
 Number of Electrons    NEL             ....   15
 Basis Dimension        Dim             ....   36

ORBITAL ENERGIES
----------------
                 SPIN UP ORBITALS
  NO   OCC          E(Eh)            E(eV)
   0   1.0000     -10.473935      -285.0103
   1   1.0000     -10.447860      -284.3007
   2   1.0000      -0.858801       -23.3692
   3   1.0000      -0.650724       -17.7071
   4   1.0000      -0.525265       -14.2932
   5   1.0000      -0.491547       -13.3757
   6   1.0000      -0.331147        -9.0110
   7   1.0000      -0.294617        -8.0169
   8   0.0000       0.036155         0.9838
   9   0.0000       0.179572         4.8864
  10   0.0000       0.183177         4.9845
  11   0.0000       0.258503         7.0342
  12   0.0000       0.333008         9.0616

                 SPIN DOWN ORBITALS
  NO   OCC          E(Eh)            E(eV)
   0   1.0000     -10.455079      -284.4972
   1   1.0000     -10.450741      -284.3791
   2   1.0000      -0.836824       -22.7711
   3   1.0000      -0.622826       -16.9480
   4   1.0000      -0.506716       -13.7884
   5   1.0000      -0.473198       -12.8764
   6   1.0000      -0.320665        -8.7257
   7   0.0000      -0.031143        -0.8474
   8   0.0000       0.051803         1.4096
   9   0.0000       0.186577         5.0770
  10   0.0000       0.196100         5.3362
  11   0.0000       0.268845         7.3156

MULLIKEN ATOMIC CHARGES AND SPIN POPULATIONS
--------------------------------------------
   0 C :   -0.194251    1.137030
   1 H :    0.230265   -0.003086
   2 C :   -0.502939   -0.271573
   3 H :    0.237054    0.049446
   4 H :    0.229871    0.088182
Sum of atomic charges         :   -0.0000000

LOEWDIN ATOMIC CHARGES AND SPIN POPULATIONS
-------------------------------------------
   0 C :   -0.129396    1.038138
   1 H :    0.140536    0.001378
   2 C :   -0.298844   -0.145464
   3 H :    0.145220    0.035764
   4 H :    0.142484    0.070184

  Mayer bond orders larger than 0.100000
B(  0-C ,  1-H ) :   0.9126 B(  0-C ,  2-C ) :   1.9934 B(  2-C ,  3-H ) :   0.9076
B(  2-C ,  4-H ) :   0.8983

Dispersion correction           -0.000989071
FINAL SINGLE POINT ENERGY       -77.719983088527

DIPOLE MOMENT
-------------
                                X             Y             Z
Electronic contribution:      0.69597      -0.42573      -0.00000
Nuclear contribution   :     -0.78641       0.68972       0.00000
                        -----------------------------------------
Total Dipole Moment    :     -0.09045       0.26399      -0.00000
                        -----------------------------------------
Magnitude (a.u.)       :      0.27905
Magnitude (Debye)      :      0.70929

Rotational constants in cm-1:     7.802220     1.083459     0.951350
Rotational constants in MHz : 233904.662161 32481.294562 28520.746080

                             ****ORCA TERMINATED NORMALLY****
TOTAL RUN TIME: 0 days 0 hours 0 minutes 55 seconds 600 msec
