                         Program Version 5.0.3 -  RELEASE  -
|  1> ! PBEh-3c def2/J TightSCF DefGrid3
|  2>
|  3> %maxcore 60000
|  4>
|  5> %pal
|  6> nprocs 4
|  7> end
|  8>
|  9> *xyzfile 0 1 25_benBr-mSHAB.xyz
| 10>
| 11>                          ****END OF INPUT****

CARTESIAN COORDINATES (ANGSTROEM)
---------------------------------
  C     -0.189833   -0.645396    0.069808
  C      1.121636   -0.354066    0.439097
  C      1.486521    0.962573    0.712107
  C      0.549329    1.989209    0.617869
  C     -0.757627    1.681863    0.246857
  C     -1.138191    0.370552   -0.028582
  Br    -2.038463    3.070460    0.115165
  H      1.852935   -1.146435    0.514119
  H      0.825049    3.012177    0.829385
  H      2.502260    1.196434    1.000317
  H     -2.157140    0.151608   -0.313181
  H     -0.480820   -1.664984   -0.142918
  S     -4.157444    5.729584   -0.878761
  H     -4.823791    4.796089   -1.563433
  C     -2.828339    5.970593   -2.091190
  H     -2.167577    6.722357   -1.668622
  H     -2.264955    5.054836   -2.240198
  H     -3.218525    6.337448   -3.035087

 Total Charge           Charge          ....    0
 Multiplicity           Mult            ....    1
 Number of Electrons    NEL             ....  102
 Basis Dimension        Dim             ....  173

ORBITAL ENERGIES
----------------

  NO   OCC          E(Eh)            E(eV)
   0   2.0000    -484.524798    -13184.5901
   1   2.0000     -89.576998     -2437.5140
   2   2.0000     -63.187436     -1719.4176
   3   2.0000     -56.891542     -1548.0976
   4   2.0000     -56.889594     -1548.0446
   5   2.0000     -56.889493     -1548.0418
   6   2.0000     -10.507722      -285.9296
   7   2.0000     -10.463210      -284.7184
   8   2.0000     -10.463138      -284.7165
   9   2.0000     -10.461883      -284.6823
  10   2.0000     -10.461807      -284.6803
  11   2.0000     -10.461667      -284.6764
  12   2.0000     -10.458829      -284.5992
  13   2.0000      -9.016449      -245.3501
  14   2.0000      -8.217764      -223.6167
  15   2.0000      -6.790835      -184.7880
  16   2.0000      -6.778420      -184.4502
  17   2.0000      -6.778240      -184.4453
  18   2.0000      -6.108863      -166.2306
  19   2.0000      -6.105725      -166.1452
  20   2.0000      -6.099929      -165.9875
  21   2.0000      -2.804558       -76.3159
  22   2.0000      -2.800713       -76.2113
  23   2.0000      -2.800524       -76.2061
  24   2.0000      -2.789889       -75.9167
  25   2.0000      -2.789886       -75.9167
  26   2.0000      -0.976065       -26.5601
  27   2.0000      -0.895184       -24.3592
  28   2.0000      -0.866692       -23.5839
  29   2.0000      -0.851390       -23.1675
  30   2.0000      -0.810065       -22.0430
  31   2.0000      -0.719179       -19.5699
  32   2.0000      -0.697950       -18.9922
  33   2.0000      -0.676100       -18.3976
  34   2.0000      -0.593568       -16.1518
  35   2.0000      -0.531387       -14.4598
  36   2.0000      -0.528721       -14.3872
  37   2.0000      -0.506946       -13.7947
  38   2.0000      -0.496458       -13.5093
  39   2.0000      -0.490415       -13.3449
  40   2.0000      -0.475621       -12.9423
  41   2.0000      -0.445947       -12.1348
  42   2.0000      -0.442372       -12.0376
  43   2.0000      -0.416273       -11.3274
  44   2.0000      -0.407089       -11.0774
  45   2.0000      -0.378651       -10.3036
  46   2.0000      -0.362987        -9.8774
  47   2.0000      -0.335053        -9.1172
  48   2.0000      -0.306278        -8.3342
  49   2.0000      -0.283356        -7.7105
  50   2.0000      -0.280057        -7.6208
  51   0.0000       0.005039         0.1371
  52   0.0000       0.005676         0.1544
  53   0.0000       0.045148         1.2285
  54   0.0000       0.076469         2.0808
  55   0.0000       0.118553         3.2260

MULLIKEN ATOMIC CHARGES
-----------------------
   0 C :   -0.217425
   1 C :   -0.221716
   2 C :   -0.217420
   3 C :   -0.207257
   4 C :   -0.084663
   5 C :   -0.207475
   6 Br:   -0.029687
   7 H :    0.226468
   8 H :    0.244824
   9 H :    0.228877
  10 H :    0.244007
  11 H :    0.228764
  12 S :   -0.182625
  13 H :    0.180416
  14 C :   -0.752355
  15 H :    0.257862
  16 H :    0.259200
  17 H :    0.250207
Sum of atomic charges:   -0.0000000

LOEWDIN ATOMIC CHARGES
----------------------
   0 C :   -0.126850
   1 C :   -0.136357
   2 C :   -0.126765
   3 C :   -0.142220
   4 C :   -0.127187
   5 C :   -0.142433
   6 Br:    0.073753
   7 H :    0.139476
   8 H :    0.147770
   9 H :    0.140771
  10 H :    0.147440
  11 H :    0.140711
  12 S :   -0.024444
  13 H :    0.098394
  14 C :   -0.471898
  15 H :    0.143357
  16 H :    0.134732
  17 H :    0.131749

  Mayer bond orders larger than 0.100000
B(  0-C ,  1-C ) :   1.4213 B(  0-C ,  5-C ) :   1.4280 B(  0-C , 11-H ) :   0.9164
B(  1-C ,  2-C ) :   1.4212 B(  1-C ,  7-H ) :   0.9182 B(  2-C ,  3-C ) :   1.4280
B(  2-C ,  9-H ) :   0.9163 B(  3-C ,  4-C ) :   1.3718 B(  3-C ,  8-H ) :   0.9102
B(  4-C ,  5-C ) :   1.3717 B(  4-C ,  6-Br) :   1.0223 B(  5-C , 10-H ) :   0.9106
B( 12-S , 13-H ) :   0.9227 B( 12-S , 14-C ) :   1.0242 B( 14-C , 15-H ) :   0.9060
B( 14-C , 16-H ) :   0.8898 B( 14-C , 17-H ) :   0.8996

Dispersion correction           -0.009678032
FINAL SINGLE POINT ENERGY     -3242.300722143497

DIPOLE MOMENT
-------------
                                X             Y             Z
Electronic contribution:     -7.72605       2.73336       6.80592
Nuclear contribution   :      8.34024      -3.29419      -7.36479
                        -----------------------------------------
Total Dipole Moment    :      0.61420      -0.56082      -0.55888
                        -----------------------------------------
Magnitude (a.u.)       :      1.00205
Magnitude (Debye)      :      2.54701

Rotational constants in cm-1:     0.111588     0.011443     0.010993
Rotational constants in MHz :  3345.333289   343.059280   329.569257

                             ****ORCA TERMINATED NORMALLY****
TOTAL RUN TIME: 0 days 0 hours 2 minutes 17 seconds 647 msec
