                         Program Version 5.0.3 -  RELEASE  -
|  1> ! PBEh-3c def2/J TightSCF DefGrid3
|  2>
|  3> %maxcore 60000
|  4>
|  5> %pal
|  6> nprocs 4
|  7> end
|  8>
|  9> *xyzfile 0 1 hf.xyz
| 10>
| 11>                          ****END OF INPUT****

CARTESIAN COORDINATES (ANGSTROEM)
---------------------------------
  F      0.000000    0.000000    0.457691
  H      0.000000    0.000000   -0.457691

 Total Charge           Charge          ....    0
 Multiplicity           Mult            ....    1
 Number of Electrons    NEL             ....   10
 Basis Dimension        Dim             ....   17

ORBITAL ENERGIES
----------------

  NO   OCC          E(Eh)            E(eV)
   0   2.0000     -25.064171      -682.0308
   1   2.0000      -1.302352       -35.4388
   2   2.0000      -0.599595       -16.3158
   3   2.0000      -0.463916       -12.6238
   4   2.0000      -0.463916       -12.6238
   5   0.0000       0.130345         3.5469
   6   0.0000       0.840657        22.8754
   7   0.0000       1.159715        31.5574
   8   0.0000       1.159715        31.5574
   9   0.0000       1.255338        34.1595

MULLIKEN ATOMIC CHARGES
-----------------------
   0 F :   -0.509980
   1 H :    0.509980
Sum of atomic charges:   -0.0000000

LOEWDIN ATOMIC CHARGES
----------------------
   0 F :   -0.382650
   1 H :    0.382650

  Mayer bond orders larger than 0.100000
B(  0-F ,  1-H ) :   0.7316

Dispersion correction           -0.000066326
FINAL SINGLE POINT ENERGY      -100.241650214446

DIPOLE MOMENT
-------------
                                X             Y             Z
Electronic contribution:     -0.00000      -0.00000       0.13786
Nuclear contribution   :      0.00000       0.00000      -0.85825
                        -----------------------------------------
Total Dipole Moment    :     -0.00000      -0.00000      -0.72039
                        -----------------------------------------
Magnitude (a.u.)       :      0.72039
Magnitude (Debye)      :      1.83108

Rotational constants in cm-1:     0.000000    21.017625    21.017625
Rotational constants in MHz :     0.000000 630092.538739 630092.538739

                             ****ORCA TERMINATED NORMALLY****
TOTAL RUN TIME: 0 days 0 hours 0 minutes 7 seconds 323 msec
