                         Program Version 5.0.3 -  RELEASE  -
|  1> ! PBEh-3c def2/J TightSCF DefGrid3
|  2>
|  3> %maxcore 60000
|  4>
|  5> %pal
|  6> nprocs 4
|  7> end
|  8>
|  9> *xyzfile 0 2 sbme2.xyz
| 10>
| 11>                          ****END OF INPUT****

CARTESIAN COORDINATES (ANGSTROEM)
---------------------------------
  Sb     0.000000    0.000000   -1.487987
  C     -0.000000    1.572499   -0.005865
  C     -0.000000   -1.572499   -0.005865
  H     -0.000000    2.546393   -0.494560
  H      0.888047    1.485013    0.622209
  H     -0.888047    1.485013    0.622209
  H     -0.000000   -2.546393   -0.494560
  H      0.888047   -1.485013    0.622209
  H     -0.888047   -1.485013    0.622209

 Total Charge           Charge          ....    0
 Multiplicity           Mult            ....    2
 Number of Electrons    NEL             ....   41
 Basis Dimension        Dim             ....   68

ORBITAL ENERGIES
----------------
                 SPIN UP ORBITALS
  NO   OCC          E(Eh)            E(eV)
   0   1.0000     -10.433152      -283.9005
   1   1.0000     -10.433124      -283.8997
   2   1.0000      -5.922916      -161.1707
   3   1.0000      -4.110555      -111.8539
   4   1.0000      -4.107489      -111.7705
   5   1.0000      -4.103815      -111.6705
   6   1.0000      -1.380562       -37.5670
   7   1.0000      -1.379494       -37.5379
   8   1.0000      -1.377154       -37.4743
   9   1.0000      -1.376218       -37.4488
  10   1.0000      -1.373824       -37.3837
  11   1.0000      -0.789353       -21.4794
  12   1.0000      -0.758448       -20.6384
  13   1.0000      -0.569582       -15.4991
  14   1.0000      -0.469559       -12.7773
  15   1.0000      -0.468154       -12.7391
  16   1.0000      -0.452511       -12.3134
  17   1.0000      -0.452193       -12.3048
  18   1.0000      -0.340525        -9.2661
  19   1.0000      -0.293690        -7.9917
  20   1.0000      -0.229471        -6.2442
  21   0.0000       0.030331         0.8253
  22   0.0000       0.071767         1.9529
  23   0.0000       0.144494         3.9319
  24   0.0000       0.175608         4.7785
  25   0.0000       0.193512         5.2657

                 SPIN DOWN ORBITALS
  NO   OCC          E(Eh)            E(eV)
   0   1.0000     -10.433670      -283.9146
   1   1.0000     -10.433642      -283.9138
   2   1.0000      -5.919582      -161.0800
   3   1.0000      -4.106484      -111.7431
   4   1.0000      -4.102986      -111.6479
   5   1.0000      -4.102557      -111.6362
   6   1.0000      -1.376282       -37.4505
   7   1.0000      -1.375331       -37.4247
   8   1.0000      -1.373909       -37.3860
   9   1.0000      -1.371056       -37.3083
  10   1.0000      -1.370776       -37.3007
  11   1.0000      -0.785234       -21.3673
  12   1.0000      -0.758021       -20.6268
  13   1.0000      -0.539293       -14.6749
  14   1.0000      -0.467548       -12.7226
  15   1.0000      -0.463127       -12.6023
  16   1.0000      -0.451286       -12.2801
  17   1.0000      -0.448896       -12.2151
  18   1.0000      -0.337758        -9.1908
  19   1.0000      -0.282407        -7.6847
  20   0.0000      -0.066290        -1.8039
  21   0.0000       0.038571         1.0496
  22   0.0000       0.088669         2.4128
  23   0.0000       0.148178         4.0321
  24   0.0000       0.177056         4.8179

MULLIKEN ATOMIC CHARGES AND SPIN POPULATIONS
--------------------------------------------
   0 Sb:    0.389484    1.040390
   1 C :   -0.915953   -0.045612
   2 C :   -0.915953   -0.045612
   3 H :    0.239970    0.000711
   4 H :    0.240620    0.012353
   5 H :    0.240620    0.012353
   6 H :    0.239970    0.000711
   7 H :    0.240620    0.012353
   8 H :    0.240620    0.012353
Sum of atomic charges         :   -0.0000000

LOEWDIN ATOMIC CHARGES AND SPIN POPULATIONS
-------------------------------------------
   0 Sb:    0.298379    0.984794
   1 C :   -0.570769   -0.018448
   2 C :   -0.570769   -0.018448
   3 H :    0.140455    0.000546
   4 H :    0.140562    0.012753
   5 H :    0.140562    0.012753
   6 H :    0.140455    0.000546
   7 H :    0.140562    0.012753
   8 H :    0.140562    0.012753

  Mayer bond orders larger than 0.100000
B(  0-Sb,  1-C ) :   0.9582 B(  0-Sb,  2-C ) :   0.9582 B(  1-C ,  3-H ) :   0.9152
B(  1-C ,  4-H ) :   0.9088 B(  1-C ,  5-H ) :   0.9088 B(  2-C ,  6-H ) :   0.9152
B(  2-C ,  7-H ) :   0.9088 B(  2-C ,  8-H ) :   0.9088

Dispersion correction           -0.003165374
FINAL SINGLE POINT ENERGY      -319.900351173731

DIPOLE MOMENT
-------------
                                X             Y             Z
Electronic contribution:     -0.00000       0.00000     -29.44292
Nuclear contribution   :      0.00000       0.00000      29.78124
                        -----------------------------------------
Total Dipole Moment    :     -0.00000       0.00000       0.33832
                        -----------------------------------------
Magnitude (a.u.)       :      0.33832
Magnitude (Debye)      :      0.85994

Rotational constants in cm-1:     0.272402     0.199395     0.120352
Rotational constants in MHz :  8166.395197  5977.721012  3608.059754

                             ****ORCA TERMINATED NORMALLY****
TOTAL RUN TIME: 0 days 0 hours 2 minutes 12 seconds 27 msec
