                         Program Version 5.0.3 -  RELEASE  -
|  1> ! PBEh-3c def2/J TightSCF DefGrid3
|  2>
|  3> %maxcore 60000
|  4>
|  5> %pal
|  6> nprocs 4
|  7> end
|  8>
|  9> *xyzfile 0 1 19.xyz
| 10>
| 11>                          ****END OF INPUT****

CARTESIAN COORDINATES (ANGSTROEM)
---------------------------------
  N      0.570506    2.328120   -0.695980
  C      1.494477    1.463512   -1.241092
  C      0.962496    0.196662   -1.325447
  C     -0.368570    0.282552   -0.791009
  C     -1.388202   -0.660631   -0.592927
  C     -2.588627   -0.246202   -0.028121
  C     -2.788518    1.102666    0.343491
  C     -1.788119    2.050677    0.155469
  C     -0.582038    1.631660   -0.406919
  H      0.727054    3.303354   -0.518734
  H      2.476686    1.814200   -1.513924
  H     -1.271619   -1.700243   -0.870066
  H     -3.723406    1.418115    0.779910
  H     -1.952759    3.080458    0.445178
  O     -3.536534   -1.224853    0.133879
  C     -4.773209   -0.834663    0.706109
  H     -5.281670   -0.089219    0.090794
  H     -4.640659   -0.441171    1.716305
  H     -5.377644   -1.735749    0.749338
  C      1.673898   -1.051955   -1.735903
  C      2.325186   -1.758016   -0.530870
  N      3.379040   -0.966313    0.076166
  C      3.238451   -0.036334    1.077669
  C      2.016090   -0.156757    1.962637
  H      2.451762   -0.824233   -2.468923
  H      0.978138   -1.744918   -2.216186
  H      2.749795   -2.712254   -0.849118
  H      1.570266   -1.975184    0.222267
  H      4.191284   -0.785023   -0.495418
  O      4.099042    0.812512    1.269286
  H      1.916363   -1.166890    2.359955
  H      1.107928    0.081404    1.409510
  H      2.133109    0.544711    2.782668

 Total Charge           Charge          ....    0
 Multiplicity           Mult            ....    1
 Number of Electrons    NEL             ....  124
 Basis Dimension        Dim             ....  287

ORBITAL ENERGIES
----------------

  NO   OCC          E(Eh)            E(eV)
   0   2.0000     -19.520759      -531.1869
   1   2.0000     -19.442328      -529.0526
   2   2.0000     -14.685467      -399.6119
   3   2.0000     -14.647656      -398.5830
   4   2.0000     -10.536966      -286.7254
   5   2.0000     -10.503117      -285.8043
   6   2.0000     -10.488736      -285.4130
   7   2.0000     -10.480810      -285.1973
   8   2.0000     -10.479727      -285.1679
   9   2.0000     -10.479483      -285.1612
  10   2.0000     -10.455572      -284.5106
  11   2.0000     -10.449561      -284.3470
  12   2.0000     -10.448836      -284.3273
  13   2.0000     -10.447277      -284.2849
  14   2.0000     -10.442152      -284.1454
  15   2.0000     -10.440710      -284.1062
  16   2.0000     -10.424697      -283.6704
  17   2.0000      -1.168578       -31.7986
  18   2.0000      -1.127801       -30.6890
  19   2.0000      -1.088393       -29.6167
  20   2.0000      -1.013015       -27.5656
  21   2.0000      -0.940381       -25.5891
  22   2.0000      -0.899211       -24.4688
  23   2.0000      -0.845937       -23.0191
  24   2.0000      -0.835787       -22.7429
  25   2.0000      -0.814266       -22.1573
  26   2.0000      -0.803698       -21.8697
  27   2.0000      -0.774062       -21.0633
  28   2.0000      -0.729378       -19.8474
  29   2.0000      -0.703949       -19.1554
  30   2.0000      -0.666477       -18.1358
  31   2.0000      -0.639474       -17.4010
  32   2.0000      -0.633851       -17.2480
  33   2.0000      -0.614037       -16.7088
  34   2.0000      -0.579883       -15.7794
  35   2.0000      -0.559840       -15.2340
  36   2.0000      -0.546993       -14.8844
  37   2.0000      -0.537445       -14.6246
  38   2.0000      -0.530831       -14.4447
  39   2.0000      -0.527824       -14.3628
  40   2.0000      -0.518399       -14.1064
  41   2.0000      -0.505054       -13.7432
  42   2.0000      -0.494328       -13.4514
  43   2.0000      -0.481457       -13.1011
  44   2.0000      -0.477049       -12.9812
  45   2.0000      -0.467517       -12.7218
  46   2.0000      -0.456946       -12.4341
  47   2.0000      -0.452905       -12.3242
  48   2.0000      -0.445791       -12.1306
  49   2.0000      -0.441288       -12.0081
  50   2.0000      -0.429280       -11.6813
  51   2.0000      -0.421100       -11.4587
  52   2.0000      -0.417411       -11.3583
  53   2.0000      -0.401087       -10.9141
  54   2.0000      -0.399937       -10.8828
  55   2.0000      -0.378963       -10.3121
  56   2.0000      -0.354011        -9.6331
  57   2.0000      -0.323639        -8.8067
  58   2.0000      -0.297158        -8.0861
  59   2.0000      -0.287807        -7.8316
  60   2.0000      -0.250933        -6.8282
  61   2.0000      -0.236025        -6.4226
  62   0.0000       0.001678         0.0457
  63   0.0000       0.055482         1.5097
  64   0.0000       0.072842         1.9821
  65   0.0000       0.086735         2.3602
  66   0.0000       0.126543         3.4434

MULLIKEN ATOMIC CHARGES
-----------------------
   0 N :   -0.695717
   1 C :   -0.038881
   2 C :   -0.001665
   3 C :    0.076045
   4 C :   -0.443208
   5 C :    0.401953
   6 C :   -0.365056
   7 C :   -0.259891
   8 C :    0.352849
   9 H :    0.361557
  10 H :    0.253438
  11 H :    0.215604
  12 H :    0.232011
  13 H :    0.217002
  14 O :   -0.469279
  15 C :   -0.404464
  16 H :    0.204730
  17 H :    0.204105
  18 H :    0.239820
  19 C :   -0.528986
  20 C :   -0.290365
  21 N :   -0.597514
  22 C :    0.494302
  23 C :   -0.782353
  24 H :    0.227450
  25 H :    0.230660
  26 H :    0.233976
  27 H :    0.242807
  28 H :    0.349104
  29 O :   -0.428138
  30 H :    0.232219
  31 H :    0.273734
  32 H :    0.262150
Sum of atomic charges:   -0.0000000

LOEWDIN ATOMIC CHARGES
----------------------
   0 N :   -0.155779
   1 C :   -0.067882
   2 C :   -0.118443
   3 C :   -0.054836
   4 C :   -0.164182
   5 C :    0.060032
   6 C :   -0.192691
   7 C :   -0.147632
   8 C :    0.002640
   9 H :    0.264227
  10 H :    0.142007
  11 H :    0.144002
  12 H :    0.140678
  13 H :    0.137840
  14 O :   -0.194299
  15 C :   -0.180566
  16 H :    0.112488
  17 H :    0.112175
  18 H :    0.130289
  19 C :   -0.236043
  20 C :   -0.145393
  21 N :   -0.247797
  22 C :    0.108661
  23 C :   -0.398952
  24 H :    0.132493
  25 H :    0.136495
  26 H :    0.123899
  27 H :    0.135236
  28 H :    0.252331
  29 O :   -0.283139
  30 H :    0.141256
  31 H :    0.158375
  32 H :    0.152509

  Mayer bond orders larger than 0.100000
B(  0-N ,  1-C ) :   1.1398 B(  0-N ,  8-C ) :   1.0047 B(  0-N ,  9-H ) :   0.8327
B(  1-C ,  2-C ) :   1.5552 B(  1-C , 10-H ) :   0.9053 B(  2-C ,  3-C ) :   1.2419
B(  2-C , 19-C ) :   0.9546 B(  3-C ,  4-C ) :   1.2876 B(  3-C ,  8-C ) :   1.2319
B(  4-C ,  5-C ) :   1.4421 B(  4-C ,  7-C ) :   0.1021 B(  4-C , 11-H ) :   0.9270
B(  5-C ,  6-C ) :   1.2824 B(  5-C , 14-O ) :   1.0133 B(  6-C ,  7-C ) :   1.4720
B(  6-C , 12-H ) :   0.9051 B(  7-C ,  8-C ) :   1.3195 B(  7-C , 13-H ) :   0.9199
B( 14-O , 15-C ) :   0.9569 B( 15-C , 16-H ) :   0.9075 B( 15-C , 17-H ) :   0.9076
B( 15-C , 18-H ) :   0.9236 B( 19-C , 20-C ) :   0.9467 B( 19-C , 24-H ) :   0.9269
B( 19-C , 25-H ) :   0.9127 B( 20-C , 21-N ) :   0.9718 B( 20-C , 26-H ) :   0.9133
B( 20-C , 27-H ) :   0.9029 B( 21-N , 22-C ) :   1.1364 B( 21-N , 28-H ) :   0.8268
B( 22-C , 23-C ) :   0.9329 B( 22-C , 29-O ) :   2.0245 B( 23-C , 30-H ) :   0.9116
B( 23-C , 31-H ) :   0.8868 B( 23-C , 32-H ) :   0.9193

Dispersion correction           -0.022915305
FINAL SINGLE POINT ENERGY      -763.326550355271

DIPOLE MOMENT
-------------
                                X             Y             Z
Electronic contribution:      2.80741       5.04810      -2.83761
Nuclear contribution   :     -3.83820      -4.91039       2.41564
                        -----------------------------------------
Total Dipole Moment    :     -1.03080       0.13771      -0.42197
                        -----------------------------------------
Magnitude (a.u.)       :      1.12230
Magnitude (Debye)      :      2.85267

Rotational constants in cm-1:     0.028796     0.009197     0.008589
Rotational constants in MHz :   863.269187   275.729252   257.491280

                             ****ORCA TERMINATED NORMALLY****
TOTAL RUN TIME: 0 days 0 hours 4 minutes 26 seconds 863 msec
