                         Program Version 5.0.3 -  RELEASE  -
|  1> ! PBEh-3c def2/J TightSCF DefGrid3
|  2>
|  3> %maxcore 60000
|  4>
|  5> %pal
|  6> nprocs 4
|  7> end
|  8>
|  9> *xyzfile 0 1 13.xyz
| 10>
| 11>                          ****END OF INPUT****

CARTESIAN COORDINATES (ANGSTROEM)
---------------------------------
  N      2.011359   -1.213208    0.194924
  N      1.376889    0.839746    1.027627
  N     -2.011359    1.213208    0.194924
  N     -1.376889   -0.839746    1.027627
  H      1.727288    0.990847   -2.319015
  H      1.051804    1.386223    1.816363
  H      2.129464   -2.201505    0.349804
  H      2.297521   -1.391060   -1.852655
  H     -2.297521    1.391060   -1.852655
  H     -1.727288   -0.990847   -2.319015
  H     -1.051804   -1.386223    1.816363
  H     -2.129464    2.201505    0.349804
  C      2.025708   -0.697180   -1.071412
  C     -2.025708    0.697180   -1.071412
  C      1.308961    1.457534   -0.227598
  C     -1.714523   -0.591965   -1.319498
  C      1.645991   -0.485211    1.311718
  C     -1.308961   -1.457534   -0.227598
  C      1.714523    0.591965   -1.319498
  C     -1.645991    0.485211    1.311718
  O      1.561109   -0.971806    2.422798
  O     -0.920593   -2.611087   -0.333055
  O     -1.561109    0.971806    2.422798
  O      0.920593    2.611087   -0.333055

 Total Charge           Charge          ....    0
 Multiplicity           Mult            ....    1
 Number of Electrons    NEL             ....  116
 Basis Dimension        Dim             ....  256

ORBITAL ENERGIES
----------------

  NO   OCC          E(Eh)            E(eV)
   0   2.0000     -19.484972      -530.2130
   1   2.0000     -19.484965      -530.2128
   2   2.0000     -19.481575      -530.1206
   3   2.0000     -19.481568      -530.1204
   4   2.0000     -14.716712      -400.4621
   5   2.0000     -14.716698      -400.4617
   6   2.0000     -14.699262      -399.9873
   7   2.0000     -14.699248      -399.9869
   8   2.0000     -10.610878      -288.7367
   9   2.0000     -10.610860      -288.7362
  10   2.0000     -10.578361      -287.8518
  11   2.0000     -10.578357      -287.8517
  12   2.0000     -10.538428      -286.7652
  13   2.0000     -10.538428      -286.7652
  14   2.0000     -10.468489      -284.8621
  15   2.0000     -10.468450      -284.8610
  16   2.0000      -1.200806       -32.6756
  17   2.0000      -1.196581       -32.5606
  18   2.0000      -1.162253       -31.6265
  19   2.0000      -1.161352       -31.6020
  20   2.0000      -1.094476       -29.7822
  21   2.0000      -1.094284       -29.7770
  22   2.0000      -1.037291       -28.2261
  23   2.0000      -1.035478       -28.1768
  24   2.0000      -0.901584       -24.5334
  25   2.0000      -0.899254       -24.4700
  26   2.0000      -0.780866       -21.2485
  27   2.0000      -0.780256       -21.2318
  28   2.0000      -0.751639       -20.4531
  29   2.0000      -0.751127       -20.4392
  30   2.0000      -0.678001       -18.4493
  31   2.0000      -0.677270       -18.4295
  32   2.0000      -0.638025       -17.3615
  33   2.0000      -0.637430       -17.3454
  34   2.0000      -0.593348       -16.1458
  35   2.0000      -0.593265       -16.1436
  36   2.0000      -0.572378       -15.5752
  37   2.0000      -0.546837       -14.8802
  38   2.0000      -0.546429       -14.8691
  39   2.0000      -0.537387       -14.6230
  40   2.0000      -0.523802       -14.2534
  41   2.0000      -0.523542       -14.2463
  42   2.0000      -0.493948       -13.4410
  43   2.0000      -0.493783       -13.4365
  44   2.0000      -0.488770       -13.3001
  45   2.0000      -0.487928       -13.2772
  46   2.0000      -0.481922       -13.1138
  47   2.0000      -0.465954       -12.6792
  48   2.0000      -0.436347       -11.8736
  49   2.0000      -0.422564       -11.4986
  50   2.0000      -0.364046        -9.9062
  51   2.0000      -0.362748        -9.8709
  52   2.0000      -0.345138        -9.3917
  53   2.0000      -0.344434        -9.3725
  54   2.0000      -0.333769        -9.0823
  55   2.0000      -0.332473        -9.0470
  56   2.0000      -0.310275        -8.4430
  57   2.0000      -0.292720        -7.9653
  58   0.0000      -0.029423        -0.8006
  59   0.0000      -0.020499        -0.5578
  60   0.0000       0.031693         0.8624
  61   0.0000       0.037958         1.0329
  62   0.0000       0.099910         2.7187

MULLIKEN ATOMIC CHARGES
-----------------------
   0 N :   -0.667304
   1 N :   -0.723407
   2 N :   -0.667304
   3 N :   -0.723407
   4 H :    0.260897
   5 H :    0.410501
   6 H :    0.401712
   7 H :    0.277593
   8 H :    0.277593
   9 H :    0.260897
  10 H :    0.410501
  11 H :    0.401712
  12 C :    0.087047
  13 C :    0.087047
  14 C :    0.554458
  15 C :   -0.444377
  16 C :    0.666954
  17 C :    0.554458
  18 C :   -0.444377
  19 C :    0.666954
  20 O :   -0.414423
  21 O :   -0.409652
  22 O :   -0.414423
  23 O :   -0.409652
Sum of atomic charges:   -0.0000000

LOEWDIN ATOMIC CHARGES
----------------------
   0 N :   -0.177375
   1 N :   -0.200107
   2 N :   -0.177375
   3 N :   -0.200107
   4 H :    0.161387
   5 H :    0.291423
   6 H :    0.287850
   7 H :    0.153047
   8 H :    0.153047
   9 H :    0.161387
  10 H :    0.291423
  11 H :    0.287850
  12 C :   -0.005611
  13 C :   -0.005611
  14 C :    0.116731
  15 C :   -0.243844
  16 C :    0.138052
  17 C :    0.116731
  18 C :   -0.243844
  19 C :    0.138052
  20 O :   -0.263351
  21 O :   -0.258202
  22 O :   -0.263351
  23 O :   -0.258202

  Mayer bond orders larger than 0.100000
B(  0-N ,  6-H ) :   0.8014 B(  0-N , 12-C ) :   1.0854 B(  0-N , 16-C ) :   1.0347
B(  1-N ,  5-H ) :   0.7825 B(  1-N , 14-C ) :   0.9896 B(  1-N , 16-C ) :   1.0577
B(  2-N , 11-H ) :   0.8014 B(  2-N , 13-C ) :   1.0854 B(  2-N , 19-C ) :   1.0347
B(  3-N , 10-H ) :   0.7825 B(  3-N , 17-C ) :   0.9896 B(  3-N , 19-C ) :   1.0577
B(  4-H , 18-C ) :   0.9089 B(  7-H , 12-C ) :   0.8975 B(  8-H , 13-C ) :   0.8975
B(  9-H , 15-C ) :   0.9089 B( 12-C , 18-C ) :   1.6346 B( 13-C , 15-C ) :   1.6346
B( 14-C , 18-C ) :   1.0673 B( 14-C , 23-O ) :   2.0157 B( 15-C , 17-C ) :   1.0673
B( 16-C , 20-O ) :   2.0341 B( 17-C , 21-O ) :   2.0157 B( 19-C , 22-O ) :   2.0341

Dispersion correction           -0.018284127
FINAL SINGLE POINT ENERGY      -827.889585885479

DIPOLE MOMENT
-------------
                                X             Y             Z
Electronic contribution:     -0.00000      -0.00000       3.97268
Nuclear contribution   :     -0.00000       0.00000      -5.91055
                        -----------------------------------------
Total Dipole Moment    :     -0.00000      -0.00000      -1.93788
                        -----------------------------------------
Magnitude (a.u.)       :      1.93788
Magnitude (Debye)      :      4.92569

Rotational constants in cm-1:     0.022625     0.018435     0.017190
Rotational constants in MHz :   678.285002   552.680609   515.341476

                             ****ORCA TERMINATED NORMALLY****
TOTAL RUN TIME: 0 days 0 hours 3 minutes 18 seconds 526 msec
