                         Program Version 5.0.3 -  RELEASE  -
|  1> ! PBEh-3c def2/J TightSCF DefGrid3
|  2>
|  3> %maxcore 60000
|  4>
|  5> %pal
|  6> nprocs 4
|  7> end
|  8>
|  9> *xyzfile 0 1 4CL_A.xyz
| 10>
| 11>                          ****END OF INPUT****

CARTESIAN COORDINATES (ANGSTROEM)
---------------------------------
  C     -0.094697    0.953732    0.000000
  C      0.068778   -1.199527    0.674554
  C      0.068778   -1.199527   -0.674554
  N     -0.016867    0.121057   -1.055560
  N     -0.016867    0.121057    1.055560
  H      0.121983   -2.018012    1.374674
  H      0.121983   -2.018012   -1.374674
  C     -0.029399    0.562574   -2.429124
  C     -0.029399    0.562574    2.429124
  H      0.866289    0.229942   -2.955820
  H     -0.904707    0.178992   -2.954872
  H     -0.058729    1.648108   -2.439016
  H     -0.904707    0.178992    2.954872
  H      0.866289    0.229942    2.955820
  H     -0.058729    1.648108    2.439016

 Total Charge           Charge          ....    0
 Multiplicity           Mult            ....    1
 Number of Electrons    NEL             ....   52
 Basis Dimension        Dim             ....  121

ORBITAL ENERGIES
----------------

  NO   OCC          E(Eh)            E(eV)
   0   2.0000     -14.677142      -399.3853
   1   2.0000     -14.677079      -399.3836
   2   2.0000     -10.465693      -284.7860
   3   2.0000     -10.465681      -284.7857
   4   2.0000     -10.464063      -284.7416
   5   2.0000     -10.463233      -284.7190
   6   2.0000     -10.433137      -283.9001
   7   2.0000      -1.130285       -30.7566
   8   2.0000      -1.011684       -27.5293
   9   2.0000      -0.860689       -23.4205
  10   2.0000      -0.808923       -22.0119
  11   2.0000      -0.764204       -20.7950
  12   2.0000      -0.668022       -18.1778
  13   2.0000      -0.636276       -17.3139
  14   2.0000      -0.587568       -15.9885
  15   2.0000      -0.534021       -14.5314
  16   2.0000      -0.514092       -13.9892
  17   2.0000      -0.500472       -13.6185
  18   2.0000      -0.491416       -13.3721
  19   2.0000      -0.489837       -13.3291
  20   2.0000      -0.443713       -12.0740
  21   2.0000      -0.434524       -11.8240
  22   2.0000      -0.430168       -11.7055
  23   2.0000      -0.315552        -8.5866
  24   2.0000      -0.263236        -7.1630
  25   2.0000      -0.245069        -6.6687
  26   0.0000       0.067123         1.8265
  27   0.0000       0.096269         2.6196
  28   0.0000       0.157412         4.2834
  29   0.0000       0.160191         4.3590
  30   0.0000       0.176418         4.8006

MULLIKEN ATOMIC CHARGES
-----------------------
   0 C :    0.069809
   1 C :   -0.088801
   2 C :   -0.088801
   3 N :   -0.397650
   4 N :   -0.397650
   5 H :    0.240460
   6 H :    0.240460
   7 C :   -0.491993
   8 C :   -0.491993
   9 H :    0.220480
  10 H :    0.221110
  11 H :    0.261490
  12 H :    0.221110
  13 H :    0.220480
  14 H :    0.261491
Sum of atomic charges:    0.0000000

LOEWDIN ATOMIC CHARGES
----------------------
   0 C :   -0.224746
   1 C :   -0.133179
   2 C :   -0.133179
   3 N :   -0.048613
   4 N :   -0.048613
   5 H :    0.139128
   6 H :    0.139128
   7 C :   -0.243531
   8 C :   -0.243531
   9 H :    0.123886
  10 H :    0.123676
  11 H :    0.151004
  12 H :    0.123676
  13 H :    0.123886
  14 H :    0.151004

  Mayer bond orders larger than 0.100000
B(  0-C ,  3-N ) :   1.2614 B(  0-C ,  4-N ) :   1.2614 B(  1-C ,  2-C ) :   1.6965
B(  1-C ,  4-N ) :   1.0902 B(  1-C ,  5-H ) :   0.9048 B(  2-C ,  3-N ) :   1.0902
B(  2-C ,  6-H ) :   0.9048 B(  3-N ,  7-C ) :   0.9465 B(  4-N ,  8-C ) :   0.9465
B(  7-C ,  9-H ) :   0.9173 B(  7-C , 10-H ) :   0.9166 B(  7-C , 11-H ) :   0.9121
B(  8-C , 12-H ) :   0.9166 B(  8-C , 13-H ) :   0.9173 B(  8-C , 14-H ) :   0.9121

Dispersion correction           -0.007027893
FINAL SINGLE POINT ENERGY      -304.125273362364

DIPOLE MOMENT
-------------
                                X             Y             Z
Electronic contribution:     -0.00346      -1.02528       0.00000
Nuclear contribution   :      0.09441       0.10394       0.00000
                        -----------------------------------------
Total Dipole Moment    :      0.09096      -0.92134       0.00000
                        -----------------------------------------
Magnitude (a.u.)       :      0.92582
Magnitude (Debye)      :      2.35325

Rotational constants in cm-1:     0.238087     0.070805     0.055722
Rotational constants in MHz :  7137.657611  2122.671394  1670.493474

                             ****ORCA TERMINATED NORMALLY****
TOTAL RUN TIME: 0 days 0 hours 1 minutes 5 seconds 452 msec
