                         Program Version 5.0.3 -  RELEASE  -
|  1> ! PBEh-3c def2/J TightSCF DefGrid3
|  2>
|  3> %maxcore 60000
|  4>
|  5> %pal
|  6> nprocs 4
|  7> end
|  8>
|  9> *xyzfile 0 1 alcl3.xyz
| 10>
| 11>                          ****END OF INPUT****

CARTESIAN COORDINATES (ANGSTROEM)
---------------------------------
  Al     0.000000    0.000000    0.000000
  Cl     1.038103    1.798047    0.000000
  Cl     1.038103   -1.798047    0.000000
  Cl    -2.076206    0.000000    0.000000

 Total Charge           Charge          ....    0
 Multiplicity           Mult            ....    1
 Number of Electrons    NEL             ....   64
 Basis Dimension        Dim             ....   72

ORBITAL ENERGIES
----------------

  NO   OCC          E(Eh)            E(eV)
   0   2.0000    -102.312735     -2784.0711
   1   2.0000    -102.312728     -2784.0709
   2   2.0000    -102.312718     -2784.0706
   3   2.0000     -56.714145     -1543.2703
   4   2.0000      -9.780476      -266.1403
   5   2.0000      -9.780473      -266.1402
   6   2.0000      -9.780465      -266.1400
   7   2.0000      -7.465453      -203.1453
   8   2.0000      -7.465452      -203.1453
   9   2.0000      -7.465436      -203.1449
  10   2.0000      -7.461499      -203.0377
  11   2.0000      -7.461484      -203.0373
  12   2.0000      -7.461483      -203.0373
  13   2.0000      -7.460939      -203.0225
  14   2.0000      -7.460935      -203.0224
  15   2.0000      -7.460923      -203.0220
  16   2.0000      -4.446280      -120.9894
  17   2.0000      -2.939293       -79.9822
  18   2.0000      -2.933643       -79.8285
  19   2.0000      -2.933643       -79.8285
  20   2.0000      -0.931880       -25.3577
  21   2.0000      -0.914453       -24.8835
  22   2.0000      -0.914450       -24.8834
  23   2.0000      -0.522136       -14.2080
  24   2.0000      -0.457468       -12.4483
  25   2.0000      -0.457468       -12.4483
  26   2.0000      -0.422639       -11.5006
  27   2.0000      -0.405001       -11.0206
  28   2.0000      -0.405001       -11.0206
  29   2.0000      -0.397823       -10.8253
  30   2.0000      -0.397822       -10.8253
  31   2.0000      -0.380405       -10.3514
  32   0.0000      -0.025639        -0.6977
  33   0.0000      -0.022816        -0.6209
  34   0.0000       0.099034         2.6949
  35   0.0000       0.099036         2.6949
  36   0.0000       0.110115         2.9964

MULLIKEN ATOMIC CHARGES
-----------------------
   0 Al:    0.811090
   1 Cl:   -0.270370
   2 Cl:   -0.270370
   3 Cl:   -0.270349
Sum of atomic charges:   -0.0000000

LOEWDIN ATOMIC CHARGES
----------------------
   0 Al:    0.090426
   1 Cl:   -0.030144
   2 Cl:   -0.030144
   3 Cl:   -0.030139

  Mayer bond orders larger than 0.100000
B(  0-Al,  1-Cl) :   1.1298 B(  0-Al,  2-Cl) :   1.1298 B(  0-Al,  3-Cl) :   1.1298

Dispersion correction           -0.001904950
FINAL SINGLE POINT ENERGY     -1621.439112457451

DIPOLE MOMENT
-------------
                                X             Y             Z
Electronic contribution:     -0.00000       0.00000       0.00000
Nuclear contribution   :      0.00000       0.00000       0.00000
                        -----------------------------------------
Total Dipole Moment    :     -0.00000       0.00000       0.00000
                        -----------------------------------------
Magnitude (a.u.)       :      0.00000
Magnitude (Debye)      :      0.00001

Rotational constants in cm-1:     0.073538     0.073538     0.036769
Rotational constants in MHz :  2204.613884  2204.613825  1102.306927

                             ****ORCA TERMINATED NORMALLY****
TOTAL RUN TIME: 0 days 0 hours 0 minutes 49 seconds 900 msec
