                         Program Version 5.0.3 -  RELEASE  -
|  1> ! PBEh-3c def2/J TightSCF DefGrid3
|  2>
|  3> %maxcore 60000
|  4>
|  5> %pal
|  6> nprocs 4
|  7> end
|  8>
|  9> *xyzfile 0 1 14.xyz
| 10>
| 11>                          ****END OF INPUT****

CARTESIAN COORDINATES (ANGSTROEM)
---------------------------------
  C     -1.024975   -0.076284    1.948693
  H     -0.021657    0.336083    1.871789
  H     -0.968881   -1.100055    2.312890
  H     -1.598309    0.497853    2.671989
  C     -1.766904   -0.069591    0.630631
  O     -2.947236   -0.396549    0.547903
  N     -1.038355    0.317396   -0.441105
  H     -0.052290    0.532744   -0.338770
  C     -1.644200    0.330954   -1.753012
  H     -2.561329    0.915928   -1.741404
  H     -0.945206    0.774298   -2.457060
  H     -1.899384   -0.674492   -2.087129
  N      1.991887    0.641611   -0.259175
  H      2.395553    1.181530    0.496025
  H      2.409890    1.008992   -1.104821
  C      2.364189   -0.769572   -0.105422
  H      1.937902   -1.340605   -0.926798
  H      3.439588   -0.956261   -0.079639
  H      1.929717   -1.153979    0.814414

 Total Charge           Charge          ....    0
 Multiplicity           Mult            ....    1
 Number of Electrons    NEL             ....   58
 Basis Dimension        Dim             ....  129

ORBITAL ENERGIES
----------------

  NO   OCC          E(Eh)            E(eV)
   0   2.0000     -19.426812      -528.6304
   1   2.0000     -14.644464      -398.4961
   2   2.0000     -14.630513      -398.1165
   3   2.0000     -10.520335      -286.2729
   4   2.0000     -10.470522      -284.9174
   5   2.0000     -10.448370      -284.3146
   6   2.0000     -10.424845      -283.6745
   7   2.0000      -1.112602       -30.2754
   8   2.0000      -1.001454       -27.2510
   9   2.0000      -0.991214       -26.9723
  10   2.0000      -0.822519       -22.3819
  11   2.0000      -0.762535       -20.7496
  12   2.0000      -0.749944       -20.4070
  13   2.0000      -0.629486       -17.1292
  14   2.0000      -0.578913       -15.7530
  15   2.0000      -0.550572       -14.9818
  16   2.0000      -0.524666       -14.2769
  17   2.0000      -0.509090       -13.8530
  18   2.0000      -0.502606       -13.6766
  19   2.0000      -0.480707       -13.0807
  20   2.0000      -0.463938       -12.6244
  21   2.0000      -0.447383       -12.1739
  22   2.0000      -0.442799       -12.0492
  23   2.0000      -0.432528       -11.7697
  24   2.0000      -0.426514       -11.6060
  25   2.0000      -0.382609       -10.4113
  26   2.0000      -0.325059        -8.8453
  27   2.0000      -0.282220        -7.6796
  28   2.0000      -0.276385        -7.5208
  29   0.0000       0.087155         2.3716
  30   0.0000       0.097379         2.6498
  31   0.0000       0.164805         4.4846
  32   0.0000       0.177471         4.8292
  33   0.0000       0.185777         5.0552

MULLIKEN ATOMIC CHARGES
-----------------------
   0 C :   -0.751459
   1 H :    0.206064
   2 H :    0.243736
   3 H :    0.252716
   4 C :    0.508289
   5 O :   -0.444896
   6 N :   -0.657116
   7 H :    0.419458
   8 C :   -0.484247
   9 H :    0.237541
  10 H :    0.200551
  11 H :    0.223345
  12 N :   -0.772671
  13 H :    0.333586
  14 H :    0.333520
  15 C :   -0.515073
  16 H :    0.231604
  17 H :    0.204925
  18 H :    0.230126
Sum of atomic charges:    0.0000000

LOEWDIN ATOMIC CHARGES
----------------------
   0 C :   -0.392022
   1 H :    0.123436
   2 H :    0.149144
   3 H :    0.151865
   4 C :    0.096104
   5 O :   -0.297159
   6 N :   -0.264713
   7 H :    0.257945
   8 C :   -0.254298
   9 H :    0.132589
  10 H :    0.118114
  11 H :    0.122719
  12 N :   -0.475966
  13 H :    0.227880
  14 H :    0.228250
  15 C :   -0.282682
  16 H :    0.127852
  17 H :    0.104789
  18 H :    0.126152

  Mayer bond orders larger than 0.100000
B(  0-C ,  1-H ) :   0.9199 B(  0-C ,  2-H ) :   0.9153 B(  0-C ,  3-H ) :   0.9144
B(  0-C ,  4-C ) :   0.9298 B(  4-C ,  5-O ) :   1.9764 B(  4-C ,  6-N ) :   1.1768
B(  6-N ,  7-H ) :   0.7220 B(  6-N ,  8-C ) :   0.9705 B(  8-C ,  9-H ) :   0.9143
B(  8-C , 10-H ) :   0.9313 B(  8-C , 11-H ) :   0.9172 B( 12-N , 13-H ) :   0.8566
B( 12-N , 14-H ) :   0.8571 B( 12-N , 15-C ) :   0.9973 B( 15-C , 16-H ) :   0.9216
B( 15-C , 17-H ) :   0.9178 B( 15-C , 18-H ) :   0.9201

Dispersion correction           -0.007924051
FINAL SINGLE POINT ENERGY      -343.646793328687

DIPOLE MOMENT
-------------
                                X             Y             Z
Electronic contribution:     -7.19341       0.43034       0.97327
Nuclear contribution   :      9.68954       0.01031      -1.29211
                        -----------------------------------------
Total Dipole Moment    :      2.49612       0.44064      -0.31885
                        -----------------------------------------
Magnitude (a.u.)       :      2.55469
Magnitude (Debye)      :      6.49351

Rotational constants in cm-1:     0.109517     0.041693     0.033163
Rotational constants in MHz :  3283.244014  1249.912836   994.215670

                             ****ORCA TERMINATED NORMALLY****
TOTAL RUN TIME: 0 days 0 hours 1 minutes 49 seconds 458 msec
