                         Program Version 5.0.3 -  RELEASE  -
|  1> ! PBEh-3c def2/J TightSCF DefGrid3
|  2>
|  3> %maxcore 60000
|  4>
|  5> %pal
|  6> nprocs 4
|  7> end
|  8>
|  9> *xyzfile 0 1 GLU_xav.xyz
| 10>
| 11>                          ****END OF INPUT****

CARTESIAN COORDINATES (ANGSTROEM)
---------------------------------
  N      1.296898   -1.067247    0.667877
  H      1.427657   -1.368494    1.618790
  C      0.102551   -0.300452    0.342651
  H     -0.150261   -0.546752   -0.688061
  C     -1.026404   -0.699836    1.275654
  C      0.411476    1.199039    0.449918
  H     -0.762038   -0.398277    2.289413
  H     -1.130146   -1.784126    1.241981
  C     -2.348197   -0.047002    0.908232
  O      0.046772    1.878790    1.406205
  H     -3.099902   -0.243466    1.674324
  H     -2.250590    1.036282    0.855425
  C     -2.907441   -0.556940   -0.390076
  O     -4.010430    0.135851   -0.756786
  O     -2.466457   -1.474493   -1.045157
  C      2.268039   -1.314623   -0.244770
  C      3.410745   -2.175690    0.228864
  O      2.217056   -0.879275   -1.394905
  H      3.427384   -3.081937   -0.372257
  H      3.340183   -2.445222    1.279535
  H      4.342828   -1.645150    0.051982
  N      1.124311    1.668941   -0.596681
  C      1.629129    3.024471   -0.616762
  H      1.493956    0.974140   -1.235693
  H      1.610210    3.410100   -1.632584
  H      0.988603    3.632205    0.014587
  H      2.648422    3.083830   -0.234326
  H     -4.304538   -0.269877   -1.586208

 Total Charge           Charge          ....    0
 Multiplicity           Mult            ....    1
 Number of Electrons    NEL             ....  108
 Basis Dimension        Dim             ....  238

ORBITAL ENERGIES
----------------

  NO   OCC          E(Eh)            E(eV)
   0   2.0000     -19.544571      -531.8348
   1   2.0000     -19.490846      -530.3729
   2   2.0000     -19.470034      -529.8066
   3   2.0000     -19.455086      -529.3998
   4   2.0000     -14.678062      -399.4104
   5   2.0000     -14.649660      -398.6375
   6   2.0000     -10.585788      -288.0539
   7   2.0000     -10.562382      -287.4170
   8   2.0000     -10.539181      -286.7857
   9   2.0000     -10.488948      -285.4188
  10   2.0000     -10.458826      -284.5991
  11   2.0000     -10.455120      -284.4983
  12   2.0000     -10.451817      -284.4084
  13   2.0000     -10.450034      -284.3599
  14   2.0000      -1.223452       -33.2918
  15   2.0000      -1.156545       -31.4712
  16   2.0000      -1.136284       -30.9198
  17   2.0000      -1.127586       -30.6832
  18   2.0000      -1.039524       -28.2869
  19   2.0000      -1.012625       -27.5549
  20   2.0000      -0.907824       -24.7031
  21   2.0000      -0.854467       -23.2512
  22   2.0000      -0.813144       -22.1268
  23   2.0000      -0.785246       -21.3676
  24   2.0000      -0.723019       -19.6743
  25   2.0000      -0.679918       -18.5015
  26   2.0000      -0.650813       -17.7095
  27   2.0000      -0.641996       -17.4696
  28   2.0000      -0.606531       -16.5045
  29   2.0000      -0.581537       -15.8244
  30   2.0000      -0.565211       -15.3802
  31   2.0000      -0.557164       -15.1612
  32   2.0000      -0.552933       -15.0461
  33   2.0000      -0.533016       -14.5041
  34   2.0000      -0.521600       -14.1935
  35   2.0000      -0.513479       -13.9725
  36   2.0000      -0.501676       -13.6513
  37   2.0000      -0.487739       -13.2720
  38   2.0000      -0.477749       -13.0002
  39   2.0000      -0.472481       -12.8569
  40   2.0000      -0.463810       -12.6209
  41   2.0000      -0.461894       -12.5688
  42   2.0000      -0.441370       -12.0103
  43   2.0000      -0.437907       -11.9160
  44   2.0000      -0.424921       -11.5627
  45   2.0000      -0.418945       -11.4001
  46   2.0000      -0.412939       -11.2367
  47   2.0000      -0.405494       -11.0341
  48   2.0000      -0.379255       -10.3200
  49   2.0000      -0.341121        -9.2824
  50   2.0000      -0.336801        -9.1648
  51   2.0000      -0.322806        -8.7840
  52   2.0000      -0.297568        -8.0972
  53   2.0000      -0.290530        -7.9057
  54   0.0000       0.038385         1.0445
  55   0.0000       0.044185         1.2023
  56   0.0000       0.065374         1.7789
  57   0.0000       0.113794         3.0965
  58   0.0000       0.131564         3.5800

MULLIKEN ATOMIC CHARGES
-----------------------
   0 N :   -0.624493
   1 H :    0.363630
   2 C :   -0.209452
   3 H :    0.295127
   4 C :   -0.452001
   5 C :    0.557140
   6 H :    0.245831
   7 H :    0.248844
   8 C :   -0.585957
   9 O :   -0.445775
  10 H :    0.274061
  11 H :    0.298530
  12 C :    0.535326
  13 O :   -0.585629
  14 O :   -0.397446
  15 C :    0.544996
  16 C :   -0.744046
  17 O :   -0.460583
  18 H :    0.265749
  19 H :    0.215401
  20 H :    0.260503
  21 N :   -0.646535
  22 C :   -0.493788
  23 H :    0.405718
  24 H :    0.221862
  25 H :    0.254755
  26 H :    0.218057
  27 H :    0.440176
Sum of atomic charges:    0.0000000

LOEWDIN ATOMIC CHARGES
----------------------
   0 N :   -0.210743
   1 H :    0.259776
   2 C :   -0.096187
   3 H :    0.158240
   4 C :   -0.234375
   5 C :    0.098642
   6 H :    0.141947
   7 H :    0.140957
   8 C :   -0.275738
   9 O :   -0.291081
  10 H :    0.161532
  11 H :    0.170054
  12 C :    0.137931
  13 O :   -0.299129
  14 O :   -0.236757
  15 C :    0.115744
  16 C :   -0.383745
  17 O :   -0.299009
  18 H :    0.161747
  19 H :    0.128960
  20 H :    0.157975
  21 N :   -0.244365
  22 C :   -0.255867
  23 H :    0.268325
  24 H :    0.125414
  25 H :    0.147274
  26 H :    0.119749
  27 H :    0.332727

  Mayer bond orders larger than 0.100000
B(  0-N ,  1-H ) :   0.8208 B(  0-N ,  2-C ) :   0.9127 B(  0-N , 15-C ) :   1.1698
B(  2-C ,  3-H ) :   0.8601 B(  2-C ,  4-C ) :   0.9859 B(  2-C ,  5-C ) :   0.8665
B(  4-C ,  6-H ) :   0.9007 B(  4-C ,  7-H ) :   0.9050 B(  4-C ,  8-C ) :   0.9710
B(  5-C ,  9-O ) :   1.9419 B(  5-C , 21-N ) :   1.1874 B(  8-C , 10-H ) :   0.8974
B(  8-C , 11-H ) :   0.8707 B(  8-C , 12-C ) :   0.9237 B(  9-O , 21-N ) :   0.1031
B( 12-C , 13-O ) :   1.1496 B( 12-C , 14-O ) :   2.0301 B( 13-O , 27-H ) :   0.7604
B( 15-C , 16-C ) :   0.9328 B( 15-C , 17-O ) :   1.8872 B( 16-C , 18-H ) :   0.9054
B( 16-C , 19-H ) :   0.9217 B( 16-C , 20-H ) :   0.9081 B( 21-N , 22-C ) :   0.9605
B( 21-N , 23-H ) :   0.7390 B( 22-C , 24-H ) :   0.9241 B( 22-C , 25-H ) :   0.9061
B( 22-C , 26-H ) :   0.9194

Dispersion correction           -0.016485490
FINAL SINGLE POINT ENERGY      -722.203877258117

DIPOLE MOMENT
-------------
                                X             Y             Z
Electronic contribution:     -7.24016      -1.33183      -2.61194
Nuclear contribution   :      7.54420       0.79360       3.10583
                        -----------------------------------------
Total Dipole Moment    :      0.30405      -0.53823       0.49389
                        -----------------------------------------
Magnitude (a.u.)       :      0.79124
Magnitude (Debye)      :      2.01117

Rotational constants in cm-1:     0.028176     0.014718     0.011880
Rotational constants in MHz :   844.709539   441.232664   356.165826

                             ****ORCA TERMINATED NORMALLY****
TOTAL RUN TIME: 0 days 0 hours 3 minutes 13 seconds 668 msec
