                         Program Version 5.0.3 -  RELEASE  -
|  1> ! PBEh-3c def2/J TightSCF DefGrid3
|  2>
|  3> %maxcore 60000
|  4>
|  5> %pal
|  6> nprocs 4
|  7> end
|  8>
|  9> *xyzfile 0 1 Cyclonona-147-triene.xyz
| 10>
| 11>                          ****END OF INPUT****

CARTESIAN COORDINATES (ANGSTROEM)
---------------------------------
  H      2.522256   -0.995521    1.181673
  C      1.833156   -0.324079    0.669299
  C     -1.806194    0.474794    0.000000
  C      0.903097    0.474794    1.564210
  H     -0.237769   -0.995521    2.775175
  H      0.621787    1.413659    1.076966
  H      1.434145    0.750748    2.484012
  C     -0.336948   -0.324079    1.922208
  C     -1.496208   -0.324079    1.252909
  H     -0.237769   -0.995521   -2.775175
  C     -0.336948   -0.324079   -1.922208
  H     -2.868290    0.750748    0.000000
  C      0.903097    0.474794   -1.564210
  H      2.522256   -0.995521   -1.181673
  H      0.621787    1.413659   -1.076966
  H      1.434145    0.750748   -2.484012
  C      1.833156   -0.324079   -0.669299
  H     -2.284486   -0.995521    1.593501
  H     -1.243574    1.413659    0.000000
  C     -1.496208   -0.324079   -1.252909
  H     -2.284486   -0.995521   -1.593501

 Total Charge           Charge          ....    0
 Multiplicity           Mult            ....    1
 Number of Electrons    NEL             ....   66
 Basis Dimension        Dim             ....  159

ORBITAL ENERGIES
----------------

  NO   OCC          E(Eh)            E(eV)
   0   2.0000     -10.444117      -284.1989
   1   2.0000     -10.444115      -284.1988
   2   2.0000     -10.444043      -284.1969
   3   2.0000     -10.442465      -284.1539
   4   2.0000     -10.442464      -284.1539
   5   2.0000     -10.442351      -284.1508
   6   2.0000     -10.441601      -284.1304
   7   2.0000     -10.441495      -284.1275
   8   2.0000     -10.441495      -284.1275
   9   2.0000      -0.921233       -25.0680
  10   2.0000      -0.874999       -23.8099
  11   2.0000      -0.874998       -23.8099
  12   2.0000      -0.779980       -21.2243
  13   2.0000      -0.779979       -21.2243
  14   2.0000      -0.712266       -19.3817
  15   2.0000      -0.622946       -16.9512
  16   2.0000      -0.586448       -15.9581
  17   2.0000      -0.586448       -15.9581
  18   2.0000      -0.569029       -15.4841
  19   2.0000      -0.514906       -14.0113
  20   2.0000      -0.514905       -14.0113
  21   2.0000      -0.497103       -13.5269
  22   2.0000      -0.463425       -12.6104
  23   2.0000      -0.463424       -12.6104
  24   2.0000      -0.433694       -11.8014
  25   2.0000      -0.433693       -11.8014
  26   2.0000      -0.406935       -11.0733
  27   2.0000      -0.391420       -10.6511
  28   2.0000      -0.391419       -10.6511
  29   2.0000      -0.379315       -10.3217
  30   2.0000      -0.309351        -8.4179
  31   2.0000      -0.274619        -7.4728
  32   2.0000      -0.274618        -7.4727
  33   0.0000       0.032779         0.8920
  34   0.0000       0.032779         0.8920
  35   0.0000       0.094128         2.5613
  36   0.0000       0.127806         3.4778
  37   0.0000       0.134282         3.6540

MULLIKEN ATOMIC CHARGES
-----------------------
   0 H :    0.211510
   1 C :   -0.162780
   2 C :   -0.562723
   3 C :   -0.562775
   4 H :    0.211504
   5 H :    0.230158
   6 H :    0.235159
   7 C :   -0.162762
   8 C :   -0.162800
   9 H :    0.211504
  10 C :   -0.162763
  11 H :    0.235141
  12 C :   -0.562775
  13 H :    0.211510
  14 H :    0.230158
  15 H :    0.235159
  16 C :   -0.162780
  17 H :    0.211503
  18 H :    0.230149
  19 C :   -0.162800
  20 H :    0.211503
Sum of atomic charges:   -0.0000000

LOEWDIN ATOMIC CHARGES
----------------------
   0 H :    0.131201
   1 C :   -0.143898
   2 C :   -0.242163
   3 C :   -0.242175
   4 H :    0.131200
   5 H :    0.131862
   6 H :    0.135705
   7 C :   -0.143898
   8 C :   -0.143894
   9 H :    0.131200
  10 C :   -0.143898
  11 H :    0.135701
  12 C :   -0.242175
  13 H :    0.131201
  14 H :    0.131862
  15 H :    0.135705
  16 C :   -0.143898
  17 H :    0.131198
  18 H :    0.131859
  19 C :   -0.143894
  20 H :    0.131198

  Mayer bond orders larger than 0.100000
B(  0-H ,  1-C ) :   0.9209 B(  1-C ,  3-C ) :   0.9669 B(  1-C , 16-C ) :   1.9119
B(  2-C ,  8-C ) :   0.9669 B(  2-C , 11-H ) :   0.9187 B(  2-C , 18-H ) :   0.9147
B(  2-C , 19-C ) :   0.9669 B(  3-C ,  5-H ) :   0.9147 B(  3-C ,  6-H ) :   0.9187
B(  3-C ,  7-C ) :   0.9669 B(  4-H ,  7-C ) :   0.9209 B(  7-C ,  8-C ) :   1.9119
B(  8-C , 17-H ) :   0.9209 B(  9-H , 10-C ) :   0.9209 B( 10-C , 12-C ) :   0.9669
B( 10-C , 19-C ) :   1.9119 B( 12-C , 14-H ) :   0.9147 B( 12-C , 15-H ) :   0.9187
B( 12-C , 16-C ) :   0.9669 B( 13-H , 16-C ) :   0.9209 B( 19-C , 20-H ) :   0.9209

Dispersion correction           -0.012706863
FINAL SINGLE POINT ENERGY      -349.334407904022

DIPOLE MOMENT
-------------
                                X             Y             Z
Electronic contribution:      0.00001      -1.06280      -0.00000
Nuclear contribution   :      0.00000       1.02395       0.00000
                        -----------------------------------------
Total Dipole Moment    :      0.00001      -0.03885      -0.00000
                        -----------------------------------------
Magnitude (a.u.)       :      0.03885
Magnitude (Debye)      :      0.09875

Rotational constants in cm-1:     0.063999     0.063999     0.035983
Rotational constants in MHz :  1918.648807  1918.648191  1078.750675

                             ****ORCA TERMINATED NORMALLY****
TOTAL RUN TIME: 0 days 0 hours 1 minutes 55 seconds 888 msec
