                         Program Version 5.0.3 -  RELEASE  -
|  1> ! PBEh-3c def2/J TightSCF DefGrid3
|  2>
|  3> %maxcore 60000
|  4>
|  5> %pal
|  6> nprocs 4
|  7> end
|  8>
|  9> *xyzfile 0 1 26_benI-mSHA.xyz
| 10>
| 11>                          ****END OF INPUT****

CARTESIAN COORDINATES (ANGSTROEM)
---------------------------------
  C     -0.755422   -0.796459   -1.023590
  C      0.634275   -0.880017   -1.075233
  C      1.406955    0.199695   -0.653144
  C      0.798864    1.361204   -0.180598
  C     -0.593167    1.434312   -0.133598
  C     -1.376239    0.359205   -0.553258
  I     -1.514344    3.173268    0.573601
  H      1.110907   -1.778802   -1.440620
  H      1.399172    2.197767    0.147413
  H      2.486418    0.142466   -0.689381
  H     -2.454252    0.422581   -0.512808
  H     -1.362354   -1.630564   -1.348743

 Total Charge           Charge          ....    0
 Multiplicity           Mult            ....    1
 Number of Electrons    NEL             ....   66
 Basis Dimension        Dim             ....  126

ORBITAL ENERGIES
----------------

  NO   OCC          E(Eh)            E(eV)
   0   2.0000     -10.506737      -285.9028
   1   2.0000     -10.466836      -284.8171
   2   2.0000     -10.466804      -284.8162
   3   2.0000     -10.463918      -284.7377
   4   2.0000     -10.463838      -284.7355
   5   2.0000     -10.461646      -284.6759
   6   2.0000      -7.095513      -193.0787
   7   2.0000      -5.079046      -138.2079
   8   2.0000      -5.062383      -137.7544
   9   2.0000      -5.062283      -137.7517
  10   2.0000      -2.033091       -55.3232
  11   2.0000      -2.027599       -55.1738
  12   2.0000      -2.027565       -55.1729
  13   2.0000      -2.013197       -54.7819
  14   2.0000      -2.013187       -54.7816
  15   2.0000      -0.972756       -26.4700
  16   2.0000      -0.864638       -23.5280
  17   2.0000      -0.853168       -23.2159
  18   2.0000      -0.767250       -20.8779
  19   2.0000      -0.698896       -19.0179
  20   2.0000      -0.674254       -18.3474
  21   2.0000      -0.593528       -16.1507
  22   2.0000      -0.531540       -14.4640
  23   2.0000      -0.528103       -14.3704
  24   2.0000      -0.498111       -13.5543
  25   2.0000      -0.469733       -12.7821
  26   2.0000      -0.443864       -12.0782
  27   2.0000      -0.417045       -11.3484
  28   2.0000      -0.391399       -10.6505
  29   2.0000      -0.343779        -9.3547
  30   2.0000      -0.309100        -8.4110
  31   2.0000      -0.308158        -8.3854
  32   2.0000      -0.278143        -7.5686
  33   0.0000      -0.001151        -0.0313
  34   0.0000       0.000425         0.0116
  35   0.0000       0.003578         0.0974
  36   0.0000       0.149214         4.0603
  37   0.0000       0.175804         4.7839

MULLIKEN ATOMIC CHARGES
-----------------------
   0 C :   -0.212071
   1 C :   -0.223418
   2 C :   -0.212096
   3 C :   -0.203228
   4 C :   -0.194526
   5 C :   -0.203331
   6 I :    0.067576
   7 H :    0.228540
   8 H :    0.245907
   9 H :    0.230371
  10 H :    0.245900
  11 H :    0.230377
Sum of atomic charges:   -0.0000000

LOEWDIN ATOMIC CHARGES
----------------------
   0 C :   -0.126951
   1 C :   -0.132114
   2 C :   -0.126956
   3 C :   -0.139021
   4 C :   -0.173853
   5 C :   -0.139007
   6 I :    0.120277
   7 H :    0.140188
   8 H :    0.147153
   9 H :    0.141561
  10 H :    0.147158
  11 H :    0.141564

  Mayer bond orders larger than 0.100000
B(  0-C ,  1-C ) :   1.4213 B(  0-C ,  5-C ) :   1.4316 B(  0-C , 11-H ) :   0.9156
B(  1-C ,  2-C ) :   1.4212 B(  1-C ,  7-H ) :   0.9170 B(  2-C ,  3-C ) :   1.4317
B(  2-C ,  9-H ) :   0.9156 B(  3-C ,  4-C ) :   1.3710 B(  3-C ,  8-H ) :   0.9099
B(  4-C ,  5-C ) :   1.3711 B(  4-C ,  6-I ) :   1.0418 B(  5-C , 10-H ) :   0.9099

Dispersion correction           -0.007091334
FINAL SINGLE POINT ENERGY      -528.867630128037

DIPOLE MOMENT
-------------
                                X             Y             Z
Electronic contribution:    -47.61624      89.84507      36.53651
Nuclear contribution   :     47.90667     -90.39313     -36.75840
                        -----------------------------------------
Total Dipole Moment    :      0.29043      -0.54806      -0.22188
                        -----------------------------------------
Magnitude (a.u.)       :      0.65875
Magnitude (Debye)      :      1.67442

Rotational constants in cm-1:     0.190049     0.025022     0.022111
Rotational constants in MHz :  5697.524089   750.136400   662.863729

                             ****ORCA TERMINATED NORMALLY****
TOTAL RUN TIME: 0 days 0 hours 1 minutes 51 seconds 185 msec
