                         Program Version 5.0.3 -  RELEASE  -
|  1> ! PBEh-3c def2/J TightSCF DefGrid3
|  2>
|  3> %maxcore 60000
|  4>
|  5> %pal
|  6> nprocs 4
|  7> end
|  8>
|  9> *xyzfile 0 1 FCl.xyz
| 10>
| 11>                          ****END OF INPUT****

CARTESIAN COORDINATES (ANGSTROEM)
---------------------------------
  Cl     0.000000    0.000000    0.562902
  F      0.000000    0.000000   -1.063260

 Total Charge           Charge          ....    0
 Multiplicity           Mult            ....    1
 Number of Electrons    NEL             ....   26
 Basis Dimension        Dim             ....   33

ORBITAL ENERGIES
----------------

  NO   OCC          E(Eh)            E(eV)
   0   2.0000    -102.385271     -2786.0449
   1   2.0000     -25.146654      -684.2753
   2   2.0000      -9.845955      -267.9221
   3   2.0000      -7.538648      -205.1370
   4   2.0000      -7.522752      -204.7045
   5   2.0000      -7.522752      -204.7045
   6   2.0000      -1.358723       -36.9727
   7   2.0000      -0.915522       -24.9126
   8   2.0000      -0.588553       -16.0153
   9   2.0000      -0.555724       -15.1220
  10   2.0000      -0.555724       -15.1220
  11   2.0000      -0.380945       -10.3660
  12   2.0000      -0.380945       -10.3660
  13   0.0000      -0.062985        -1.7139
  14   0.0000       0.432767        11.7762
  15   0.0000       0.685858        18.6631
  16   0.0000       0.685858        18.6631
  17   0.0000       0.720344        19.6015

MULLIKEN ATOMIC CHARGES
-----------------------
   0 Cl:    0.353597
   1 F :   -0.353597
Sum of atomic charges:    0.0000000

LOEWDIN ATOMIC CHARGES
----------------------
   0 Cl:    0.353307
   1 F :   -0.353307

  Mayer bond orders larger than 0.100000
B(  0-Cl,  1-F ) :   0.9144

Dispersion correction           -0.000198794
FINAL SINGLE POINT ENERGY      -559.266480071393

DIPOLE MOMENT
-------------
                                X             Y             Z
Electronic contribution:      0.00000       0.00000       0.17313
Nuclear contribution   :      0.00000       0.00000       0.21948
                        -----------------------------------------
Total Dipole Moment    :      0.00000       0.00000       0.39261
                        -----------------------------------------
Magnitude (a.u.)       :      0.39261
Magnitude (Debye)      :      0.99794

Rotational constants in cm-1:     0.000000     0.515364     0.515364
Rotational constants in MHz :     0.000000 15450.232770 15450.232770

                             ****ORCA TERMINATED NORMALLY****
TOTAL RUN TIME: 0 days 0 hours 0 minutes 58 seconds 690 msec
