                         Program Version 5.0.3 -  RELEASE  -
|  1> ! PBEh-3c def2/J TightSCF DefGrid3
|  2>
|  3> %maxcore 60000
|  4>
|  5> %pal
|  6> nprocs 4
|  7> end
|  8>
|  9> *xyzfile 0 2 ch3.xyz
| 10>
| 11>                          ****END OF INPUT****

CARTESIAN COORDINATES (ANGSTROEM)
---------------------------------
  C      0.000000    0.000000    0.000000
  H      0.000136   -1.077700    0.000000
  H     -0.933384    0.538732    0.000000
  H      0.933248    0.538967   -0.000000

 Total Charge           Charge          ....    0
 Multiplicity           Mult            ....    2
 Number of Electrons    NEL             ....    9
 Basis Dimension        Dim             ....   21

ORBITAL ENERGIES
----------------
                 SPIN UP ORBITALS
  NO   OCC          E(Eh)            E(eV)
   0   1.0000     -10.445357      -284.2326
   1   1.0000      -0.770259       -20.9598
   2   1.0000      -0.477248       -12.9866
   3   1.0000      -0.477248       -12.9866
   4   1.0000      -0.283600        -7.7171
   5   0.0000       0.166230         4.5233
   6   0.0000       0.229617         6.2482
   7   0.0000       0.229618         6.2482
   8   0.0000       0.497720        13.5437
   9   0.0000       0.497733        13.5440

                 SPIN DOWN ORBITALS
  NO   OCC          E(Eh)            E(eV)
   0   1.0000     -10.429263      -283.7947
   1   1.0000      -0.717128       -19.5140
   2   1.0000      -0.465305       -12.6616
   3   1.0000      -0.465305       -12.6616
   4   0.0000      -0.014155        -0.3852
   5   0.0000       0.186681         5.0798
   6   0.0000       0.236112         6.4249
   7   0.0000       0.236112         6.4249
   8   0.0000       0.509955        13.8766

MULLIKEN ATOMIC CHARGES AND SPIN POPULATIONS
--------------------------------------------
   0 C :   -0.661865    1.180356
   1 H :    0.220624   -0.060118
   2 H :    0.220620   -0.060119
   3 H :    0.220620   -0.060119
Sum of atomic charges         :    0.0000000

LOEWDIN ATOMIC CHARGES AND SPIN POPULATIONS
-------------------------------------------
   0 C :   -0.392346    1.091513
   1 H :    0.130783   -0.030504
   2 H :    0.130782   -0.030505
   3 H :    0.130782   -0.030505

  Mayer bond orders larger than 0.100000
B(  0-C ,  1-H ) :   0.9266 B(  0-C ,  2-H ) :   0.9266 B(  0-C ,  3-H ) :   0.9266

Dispersion correction           -0.000481941
FINAL SINGLE POINT ENERGY       -39.748129208531

DIPOLE MOMENT
-------------
                                X             Y             Z
Electronic contribution:     -0.00000      -0.00000      -0.00000
Nuclear contribution   :      0.00000      -0.00000       0.00000
                        -----------------------------------------
Total Dipole Moment    :     -0.00000      -0.00000      -0.00000
                        -----------------------------------------
Magnitude (a.u.)       :      0.00000
Magnitude (Debye)      :      0.00001

Rotational constants in cm-1:     9.599518     9.599509     4.799757
Rotational constants in MHz : 287786.303544 287786.051133 143893.088669

                             ****ORCA TERMINATED NORMALLY****
TOTAL RUN TIME: 0 days 0 hours 0 minutes 56 seconds 613 msec
