                         Program Version 5.0.3 -  RELEASE  -
|  1> ! PBEh-3c def2/J TightSCF DefGrid3
|  2>
|  3> %maxcore 60000
|  4>
|  5> %pal
|  6> nprocs 4
|  7> end
|  8>
|  9> *xyzfile 0 1 c1.xyz
| 10>
| 11>                          ****END OF INPUT****

CARTESIAN COORDINATES (ANGSTROEM)
---------------------------------
  C      0.885293    0.885293   -0.885293
  C     -0.885293   -0.885293   -0.885293
  C     -0.885293    0.885293    0.885293
  C      0.885293   -0.885293    0.885293
  C      1.766499    0.000000    0.000000
  C      0.000000   -1.766499    0.000000
  C      0.000000    0.000000    1.766499
  C      0.000000    0.000000   -1.766499
  C     -1.766499    0.000000    0.000000
  C      0.000000    1.766499    0.000000
  H      2.414458    0.622948    0.622948
  H      0.622948   -2.414458   -0.622948
  H     -0.622948   -0.622948    2.414458
  H     -0.622948    0.622948   -2.414458
  H     -2.414458    0.622948   -0.622948
  H     -0.622948    2.414458   -0.622948
  H     -0.622948   -2.414458    0.622948
  H      0.622948    0.622948    2.414458
  H      2.414458   -0.622948   -0.622948
  H     -2.414458   -0.622948    0.622948
  H      0.622948    2.414458    0.622948
  H      0.622948   -0.622948   -2.414458
  H      1.516029    1.516029   -1.516029
  H     -1.516029   -1.516029   -1.516029
  H     -1.516029    1.516029    1.516029
  H      1.516029   -1.516029    1.516029

 Total Charge           Charge          ....    0
 Multiplicity           Mult            ....    1
 Number of Electrons    NEL             ....   76
 Basis Dimension        Dim             ....  182

ORBITAL ENERGIES
----------------

  NO   OCC          E(Eh)            E(eV)
   0   2.0000     -10.430700      -283.8338
   1   2.0000     -10.430700      -283.8338
   2   2.0000     -10.430700      -283.8338
   3   2.0000     -10.430587      -283.8307
   4   2.0000     -10.421914      -283.5947
   5   2.0000     -10.421914      -283.5947
   6   2.0000     -10.421843      -283.5928
   7   2.0000     -10.421843      -283.5928
   8   2.0000     -10.421843      -283.5928
   9   2.0000     -10.421740      -283.5900
  10   2.0000      -0.965586       -26.2749
  11   2.0000      -0.853215       -23.2172
  12   2.0000      -0.853215       -23.2172
  13   2.0000      -0.853215       -23.2172
  14   2.0000      -0.740577       -20.1521
  15   2.0000      -0.740577       -20.1521
  16   2.0000      -0.649493       -17.6736
  17   2.0000      -0.649493       -17.6736
  18   2.0000      -0.649493       -17.6736
  19   2.0000      -0.584136       -15.8951
  20   2.0000      -0.512865       -13.9558
  21   2.0000      -0.505015       -13.7421
  22   2.0000      -0.505014       -13.7421
  23   2.0000      -0.505014       -13.7421
  24   2.0000      -0.457129       -12.4391
  25   2.0000      -0.457129       -12.4391
  26   2.0000      -0.457129       -12.4391
  27   2.0000      -0.439555       -11.9609
  28   2.0000      -0.439555       -11.9609
  29   2.0000      -0.439555       -11.9609
  30   2.0000      -0.371478       -10.1084
  31   2.0000      -0.371478       -10.1084
  32   2.0000      -0.368300       -10.0219
  33   2.0000      -0.368300       -10.0219
  34   2.0000      -0.368300       -10.0219
  35   2.0000      -0.318627        -8.6703
  36   2.0000      -0.318627        -8.6703
  37   2.0000      -0.318627        -8.6703
  38   0.0000       0.115989         3.1562
  39   0.0000       0.173744         4.7278
  40   0.0000       0.173744         4.7278
  41   0.0000       0.173744         4.7278
  42   0.0000       0.178150         4.8477

MULLIKEN ATOMIC CHARGES
-----------------------
   0 C :   -0.240200
   1 C :   -0.240200
   2 C :   -0.240200
   3 C :   -0.240200
   4 C :   -0.407690
   5 C :   -0.407690
   6 C :   -0.407691
   7 C :   -0.407691
   8 C :   -0.407690
   9 C :   -0.407691
  10 H :    0.212275
  11 H :    0.212275
  12 H :    0.212275
  13 H :    0.212275
  14 H :    0.212275
  15 H :    0.212275
  16 H :    0.212275
  17 H :    0.212275
  18 H :    0.212275
  19 H :    0.212275
  20 H :    0.212275
  21 H :    0.212275
  22 H :    0.214911
  23 H :    0.214911
  24 H :    0.214911
  25 H :    0.214911
Sum of atomic charges:   -0.0000000

LOEWDIN ATOMIC CHARGES
----------------------
   0 C :   -0.147050
   1 C :   -0.147050
   2 C :   -0.147049
   3 C :   -0.147049
   4 C :   -0.223685
   5 C :   -0.223685
   6 C :   -0.223685
   7 C :   -0.223685
   8 C :   -0.223685
   9 C :   -0.223685
  10 H :    0.120585
  11 H :    0.120585
  12 H :    0.120585
  13 H :    0.120585
  14 H :    0.120585
  15 H :    0.120585
  16 H :    0.120585
  17 H :    0.120585
  18 H :    0.120585
  19 H :    0.120585
  20 H :    0.120585
  21 H :    0.120585
  22 H :    0.120822
  23 H :    0.120822
  24 H :    0.120822
  25 H :    0.120822

  Mayer bond orders larger than 0.100000
B(  0-C ,  4-C ) :   0.9731 B(  0-C ,  7-C ) :   0.9731 B(  0-C ,  9-C ) :   0.9731
B(  0-C , 22-H ) :   0.9206 B(  1-C ,  5-C ) :   0.9731 B(  1-C ,  7-C ) :   0.9731
B(  1-C ,  8-C ) :   0.9731 B(  1-C , 23-H ) :   0.9206 B(  2-C ,  6-C ) :   0.9731
B(  2-C ,  8-C ) :   0.9731 B(  2-C ,  9-C ) :   0.9731 B(  2-C , 24-H ) :   0.9206
B(  3-C ,  4-C ) :   0.9731 B(  3-C ,  5-C ) :   0.9731 B(  3-C ,  6-C ) :   0.9731
B(  3-C , 25-H ) :   0.9206 B(  4-C , 10-H ) :   0.9244 B(  4-C , 18-H ) :   0.9244
B(  5-C , 11-H ) :   0.9244 B(  5-C , 16-H ) :   0.9244 B(  6-C , 12-H ) :   0.9244
B(  6-C , 17-H ) :   0.9244 B(  7-C , 13-H ) :   0.9244 B(  7-C , 21-H ) :   0.9244
B(  8-C , 14-H ) :   0.9244 B(  8-C , 19-H ) :   0.9244 B(  9-C , 15-H ) :   0.9244
B(  9-C , 20-H ) :   0.9244

Dispersion correction           -0.017688623
FINAL SINGLE POINT ENERGY      -389.888350412685

DIPOLE MOMENT
-------------
                                X             Y             Z
Electronic contribution:     -0.00000       0.00000       0.00000
Nuclear contribution   :      0.00000       0.00000       0.00000
                        -----------------------------------------
Total Dipole Moment    :     -0.00000       0.00000       0.00000
                        -----------------------------------------
Magnitude (a.u.)       :      0.00000
Magnitude (Debye)      :      0.00000

Rotational constants in cm-1:     0.056753     0.056753     0.056753
Rotational constants in MHz :  1701.424642  1701.424642  1701.424642

                             ****ORCA TERMINATED NORMALLY****
TOTAL RUN TIME: 0 days 0 hours 2 minutes 25 seconds 597 msec
