                         Program Version 5.0.3 -  RELEASE  -
|  1> ! PBEh-3c def2/J TightSCF DefGrid3
|  2>
|  3> %maxcore 60000
|  4>
|  5> %pal
|  6> nprocs 4
|  7> end
|  8>
|  9> *xyzfile 0 1 PH2Ph.xyz
| 10>
| 11>                          ****END OF INPUT****

CARTESIAN COORDINATES (ANGSTROEM)
---------------------------------
  P      0.079150    0.265864    0.182132
  H      0.040318   -0.929372    0.946996
  C      1.764675    0.066665   -0.518662
  H     -0.631656   -0.306284   -0.901657
  C      1.982628   -0.075593   -1.890051
  C      3.274397   -0.118154   -2.401523
  C      4.367653   -0.028671   -1.548589
  C      4.161149    0.109266   -0.180198
  C      2.871060    0.167593    0.329073
  H      1.140305   -0.161077   -2.563980
  H      3.425366   -0.230772   -3.467127
  H      5.372909   -0.064232   -1.946381
  H      5.005940    0.184237    0.491472
  H      2.723055    0.297501    1.394298

 Total Charge           Charge          ....    0
 Multiplicity           Mult            ....    1
 Number of Electrons    NEL             ....   58
 Basis Dimension        Dim             ....  122

ORBITAL ENERGIES
----------------

  NO   OCC          E(Eh)            E(eV)
   0   2.0000     -77.735496     -2115.2904
   1   2.0000     -10.466511      -284.8082
   2   2.0000     -10.454942      -284.4934
   3   2.0000     -10.454748      -284.4882
   4   2.0000     -10.453270      -284.4479
   5   2.0000     -10.453082      -284.4428
   6   2.0000     -10.451780      -284.4074
   7   2.0000      -6.812745      -185.3842
   8   2.0000      -4.903274      -133.4249
   9   2.0000      -4.903153      -133.4216
  10   2.0000      -4.901077      -133.3651
  11   2.0000      -0.961406       -26.1612
  12   2.0000      -0.851132       -23.1605
  13   2.0000      -0.842755       -22.9325
  14   2.0000      -0.727758       -19.8033
  15   2.0000      -0.688165       -18.7259
  16   2.0000      -0.656677       -17.8691
  17   2.0000      -0.582646       -15.8546
  18   2.0000      -0.523777       -14.2527
  19   2.0000      -0.519670       -14.1409
  20   2.0000      -0.487546       -13.2668
  21   2.0000      -0.464819       -12.6484
  22   2.0000      -0.439671       -11.9641
  23   2.0000      -0.424580       -11.5534
  24   2.0000      -0.402978       -10.9656
  25   2.0000      -0.391733       -10.6596
  26   2.0000      -0.331129        -9.0105
  27   2.0000      -0.299193        -8.1414
  28   2.0000      -0.273598        -7.4450
  29   0.0000       0.005915         0.1610
  30   0.0000       0.012435         0.3384
  31   0.0000       0.063648         1.7320
  32   0.0000       0.082024         2.2320
  33   0.0000       0.149575         4.0701

MULLIKEN ATOMIC CHARGES
-----------------------
   0 P :    0.013653
   1 H :    0.095241
   2 C :   -0.155336
   3 H :    0.074013
   4 C :   -0.244916
   5 C :   -0.198248
   6 C :   -0.237898
   7 C :   -0.198802
   8 C :   -0.255589
   9 H :    0.217584
  10 H :    0.221887
  11 H :    0.222886
  12 H :    0.222245
  13 H :    0.223282
Sum of atomic charges:   -0.0000000

LOEWDIN ATOMIC CHARGES
----------------------
   0 P :    0.126468
   1 H :    0.032882
   2 C :   -0.193000
   3 H :    0.026894
   4 C :   -0.141836
   5 C :   -0.130506
   6 C :   -0.135889
   7 C :   -0.129684
   8 C :   -0.138911
   9 H :    0.134761
  10 H :    0.137548
  11 H :    0.137241
  12 H :    0.137696
  13 H :    0.136337

  Mayer bond orders larger than 0.100000
B(  0-P ,  1-H ) :   0.9483 B(  0-P ,  2-C ) :   0.9565 B(  0-P ,  3-H ) :   0.9555
B(  2-C ,  4-C ) :   1.3965 B(  2-C ,  8-C ) :   1.3763 B(  4-C ,  5-C ) :   1.4381
B(  4-C ,  9-H ) :   0.9191 B(  5-C ,  6-C ) :   1.4266 B(  5-C , 10-H ) :   0.9180
B(  6-C ,  7-C ) :   1.4166 B(  6-C , 11-H ) :   0.9181 B(  7-C ,  8-C ) :   1.4522
B(  7-C , 12-H ) :   0.9182 B(  8-C , 13-H ) :   0.9189

Dispersion correction           -0.008007131
FINAL SINGLE POINT ENERGY      -573.268172961554

DIPOLE MOMENT
-------------
                                X             Y             Z
Electronic contribution:     -3.26594       1.48811       1.76688
Nuclear contribution   :      3.53381      -1.80923      -1.96810
                        -----------------------------------------
Total Dipole Moment    :      0.26787      -0.32112      -0.20122
                        -----------------------------------------
Magnitude (a.u.)       :      0.46407
Magnitude (Debye)      :      1.17956

Rotational constants in cm-1:     0.183826     0.050519     0.039964
Rotational constants in MHz :  5510.962883  1514.519294  1198.089413

                             ****ORCA TERMINATED NORMALLY****
TOTAL RUN TIME: 0 days 0 hours 1 minutes 6 seconds 401 msec
