                         Program Version 5.0.3 -  RELEASE  -
|  1> ! PBEh-3c def2/J TightSCF DefGrid3
|  2>
|  3> %maxcore 60000
|  4>
|  5> %pal
|  6> nprocs 4
|  7> end
|  8>
|  9> *xyzfile 0 1 22_benCl-Nm3A.xyz
| 10>
| 11>                          ****END OF INPUT****

CARTESIAN COORDINATES (ANGSTROEM)
---------------------------------
  C     -0.235164    0.002086    0.132755
  C     -0.238178    0.001189    1.525604
  C      0.955846   -0.002138    2.242723
  C      2.165457   -0.004625    1.552252
  C      2.182877   -0.003792    0.158977
  C      0.981045   -0.000426   -0.546039
  Cl    -1.748955    0.004260    2.378484
  H      0.930823   -0.002763    3.322934
  H      3.093653   -0.007217    2.107162
  H      3.124113   -0.005746   -0.372313
  H      0.985592    0.000253   -1.627467
  H     -1.172880    0.004700   -0.404018

 Total Charge           Charge          ....    0
 Multiplicity           Mult            ....    1
 Number of Electrons    NEL             ....   58
 Basis Dimension        Dim             ....  118

ORBITAL ENERGIES
----------------

  NO   OCC          E(Eh)            E(eV)
   0   2.0000    -102.303820     -2783.8285
   1   2.0000     -10.515216      -286.1336
   2   2.0000     -10.463800      -284.7345
   3   2.0000     -10.463748      -284.7331
   4   2.0000     -10.463054      -284.7142
   5   2.0000     -10.462982      -284.7122
   6   2.0000     -10.459375      -284.6141
   7   2.0000      -9.771384      -265.8929
   8   2.0000      -7.459031      -202.9705
   9   2.0000      -7.450794      -202.7464
  10   2.0000      -7.450615      -202.7415
  11   2.0000      -0.994165       -27.0526
  12   2.0000      -0.933566       -25.4036
  13   2.0000      -0.852906       -23.2087
  14   2.0000      -0.823998       -22.4221
  15   2.0000      -0.700899       -19.0724
  16   2.0000      -0.679457       -18.4890
  17   2.0000      -0.596933       -16.2434
  18   2.0000      -0.536252       -14.5922
  19   2.0000      -0.534968       -14.5572
  20   2.0000      -0.497534       -13.5386
  21   2.0000      -0.493497       -13.4287
  22   2.0000      -0.456496       -12.4219
  23   2.0000      -0.420896       -11.4532
  24   2.0000      -0.419799       -11.4233
  25   2.0000      -0.387665       -10.5489
  26   2.0000      -0.364468        -9.9177
  27   2.0000      -0.307584        -8.3698
  28   2.0000      -0.288460        -7.8494
  29   0.0000       0.004652         0.1266
  30   0.0000       0.005797         0.1578
  31   0.0000       0.082423         2.2429
  32   0.0000       0.161117         4.3842
  33   0.0000       0.180911         4.9228

MULLIKEN ATOMIC CHARGES
-----------------------
   0 C :   -0.190342
   1 C :   -0.015071
   2 C :   -0.190360
   3 C :   -0.225580
   4 C :   -0.216781
   5 C :   -0.225605
   6 Cl:   -0.112496
   7 H :    0.245214
   8 H :    0.229623
   9 H :    0.226581
  10 H :    0.229636
  11 H :    0.245183
Sum of atomic charges:    0.0000000

LOEWDIN ATOMIC CHARGES
----------------------
   0 C :   -0.146928
   1 C :   -0.122195
   2 C :   -0.146938
   3 C :   -0.125995
   4 C :   -0.137892
   5 C :   -0.126005
   6 Cl:    0.087767
   7 H :    0.148054
   8 H :    0.141187
   9 H :    0.139707
  10 H :    0.141186
  11 H :    0.148052

  Mayer bond orders larger than 0.100000
B(  0-C ,  1-C ) :   1.3633 B(  0-C ,  5-C ) :   1.4221 B(  0-C , 11-H ) :   0.9082
B(  1-C ,  2-C ) :   1.3633 B(  1-C ,  6-Cl) :   1.0248 B(  2-C ,  3-C ) :   1.4221
B(  2-C ,  7-H ) :   0.9082 B(  3-C ,  4-C ) :   1.4219 B(  3-C ,  8-H ) :   0.9162
B(  4-C ,  5-C ) :   1.4219 B(  4-C ,  9-H ) :   0.9181 B(  5-C , 10-H ) :   0.9162

Dispersion correction           -0.006805735
FINAL SINGLE POINT ENERGY      -690.831064332672

DIPOLE MOMENT
-------------
                                X             Y             Z
Electronic contribution:     -7.84715       0.01603       4.42972
Nuclear contribution   :      8.43755      -0.01724      -4.76300
                        -----------------------------------------
Total Dipole Moment    :      0.59040      -0.00121      -0.33327
                        -----------------------------------------
Magnitude (a.u.)       :      0.67797
Magnitude (Debye)      :      1.72327

Rotational constants in cm-1:     0.190220     0.052128     0.040916
Rotational constants in MHz :  5702.666526  1562.772678  1226.625286

                             ****ORCA TERMINATED NORMALLY****
TOTAL RUN TIME: 0 days 0 hours 1 minutes 36 seconds 555 msec
