                         Program Version 5.0.3 -  RELEASE  -
|  1> ! PBEh-3c def2/J TightSCF DefGrid3
|  2>
|  3> %maxcore 60000
|  4>
|  5> %pal
|  6> nprocs 4
|  7> end
|  8>
|  9> *xyzfile 0 1 MeI_NH3.xyz
| 10>
| 11>                          ****END OF INPUT****

CARTESIAN COORDINATES (ANGSTROEM)
---------------------------------
  C      0.000000    0.000000    2.313014
  I      0.000000    0.000000    0.180166
  H      0.000000    1.028303    2.657744
  H      0.890536   -0.514151    2.657744
  H     -0.890536   -0.514151    2.657744
  H      0.000000   -0.942243   -3.396054
  H      0.816006    0.471121   -3.396054
  H     -0.816006    0.471121   -3.396054
  N      0.000000    0.000000   -3.030275

 Total Charge           Charge          ....    0
 Multiplicity           Mult            ....    1
 Number of Electrons    NEL             ....   44
 Basis Dimension        Dim             ....   68

ORBITAL ENERGIES
----------------

  NO   OCC          E(Eh)            E(eV)
   0   2.0000     -14.613785      -397.6613
   1   2.0000     -10.461175      -284.6630
   2   2.0000      -7.064225      -192.2273
   3   2.0000      -5.047575      -137.3515
   4   2.0000      -5.031018      -136.9010
   5   2.0000      -5.031018      -136.9010
   6   2.0000      -2.001277       -54.4575
   7   2.0000      -1.996140       -54.3177
   8   2.0000      -1.996140       -54.3177
   9   2.0000      -1.981836       -53.9285
  10   2.0000      -1.981834       -53.9284
  11   2.0000      -0.949718       -25.8431
  12   2.0000      -0.817105       -22.2346
  13   2.0000      -0.691044       -18.8043
  14   2.0000      -0.527333       -14.3495
  15   2.0000      -0.527332       -14.3494
  16   2.0000      -0.477943       -13.0055
  17   2.0000      -0.477943       -13.0055
  18   2.0000      -0.388772       -10.5790
  19   2.0000      -0.315256        -8.5786
  20   2.0000      -0.276371        -7.5204
  21   2.0000      -0.276371        -7.5204
  22   0.0000       0.034939         0.9507
  23   0.0000       0.137462         3.7405
  24   0.0000       0.174812         4.7569
  25   0.0000       0.200104         5.4451
  26   0.0000       0.200105         5.4451

MULLIKEN ATOMIC CHARGES
-----------------------
   0 C :   -0.833170
   1 I :    0.011695
   2 H :    0.258213
   3 H :    0.258212
   4 H :    0.258212
   5 H :    0.330039
   6 H :    0.330044
   7 H :    0.330044
   8 N :   -0.943288
Sum of atomic charges:    0.0000000

LOEWDIN ATOMIC CHARGES
----------------------
   0 C :   -0.511988
   1 I :    0.041480
   2 H :    0.140961
   3 H :    0.140961
   4 H :    0.140961
   5 H :    0.224722
   6 H :    0.224724
   7 H :    0.224724
   8 N :   -0.626545

  Mayer bond orders larger than 0.100000
B(  0-C ,  1-I ) :   0.9949 B(  0-C ,  2-H ) :   0.9018 B(  0-C ,  3-H ) :   0.9018
B(  0-C ,  4-H ) :   0.9018 B(  5-H ,  8-N ) :   0.8699 B(  6-H ,  8-N ) :   0.8699
B(  7-H ,  8-N ) :   0.8699

Dispersion correction           -0.002461353
FINAL SINGLE POINT ENERGY      -393.998690907683

DIPOLE MOMENT
-------------
                                X             Y             Z
Electronic contribution:      0.00000       0.00000      12.05091
Nuclear contribution   :      0.00000      -0.00000     -12.65400
                        -----------------------------------------
Total Dipole Moment    :      0.00000       0.00000      -0.60309
                        -----------------------------------------
Magnitude (a.u.)       :      0.60309
Magnitude (Debye)      :      1.53293

Rotational constants in cm-1:     2.865793     0.065862     0.065862
Rotational constants in MHz : 85914.319167  1974.505237  1974.505226

                             ****ORCA TERMINATED NORMALLY****
TOTAL RUN TIME: 0 days 0 hours 1 minutes 46 seconds 767 msec
