                         Program Version 5.0.3 -  RELEASE  -
|  1> ! PBEh-3c def2/J TightSCF DefGrid3
|  2>
|  3> %maxcore 60000
|  4>
|  5> %pal
|  6> nprocs 4
|  7> end
|  8>
|  9> *xyzfile 0 1 ISO_P35.xyz
| 10>
| 11>                          ****END OF INPUT****

CARTESIAN COORDINATES (ANGSTROEM)
---------------------------------
  C      0.150794   -0.121562    0.000000
  C      0.650377   -0.885006    1.186565
  C      0.144591   -2.088508    1.507737
  C     -0.746665   -2.848774    0.679677
  C     -0.746665   -2.848774   -0.679677
  C      0.144591   -2.088508   -1.507737
  C      0.650377   -0.885006   -1.186565
  C      0.583714    1.346721    0.000000
  C      0.083026    2.137699    1.170155
  C     -0.580553    3.216658    0.730288
  C     -0.580553    3.216658   -0.730288
  C      0.083026    2.137699   -1.170155
  H     -0.946191   -0.165180    0.000000
  H      1.428253   -0.442277    1.803223
  H      0.449919   -2.547378    2.444340
  H     -1.365171   -3.591026    1.176393
  H     -1.365171   -3.591026   -1.176393
  H      0.449919   -2.547378   -2.444340
  H      1.428253   -0.442277   -1.803223
  H      1.686438    1.373690    0.000000
  H      0.246503    1.857872    2.201859
  H     -1.047658    3.973903    1.346850
  H     -1.047658    3.973903   -1.346850
  H      0.246503    1.857872   -2.201859

 Total Charge           Charge          ....    0
 Multiplicity           Mult            ....    1
 Number of Electrons    NEL             ....   84
 Basis Dimension        Dim             ....  204

ORBITAL ENERGIES
----------------

  NO   OCC          E(Eh)            E(eV)
   0   2.0000     -10.455373      -284.5052
   1   2.0000     -10.452500      -284.4270
   2   2.0000     -10.452286      -284.4212
   3   2.0000     -10.452168      -284.4180
   4   2.0000     -10.449262      -284.3389
   5   2.0000     -10.448490      -284.3179
   6   2.0000     -10.442196      -284.1466
   7   2.0000     -10.442143      -284.1452
   8   2.0000     -10.440718      -284.1064
   9   2.0000     -10.440417      -284.0982
  10   2.0000     -10.438133      -284.0360
  11   2.0000     -10.438127      -284.0359
  12   2.0000      -0.971134       -26.4259
  13   2.0000      -0.940733       -25.5986
  14   2.0000      -0.870270       -23.6812
  15   2.0000      -0.859584       -23.3905
  16   2.0000      -0.793107       -21.5815
  17   2.0000      -0.792504       -21.5651
  18   2.0000      -0.720925       -19.6174
  19   2.0000      -0.710174       -19.3248
  20   2.0000      -0.619588       -16.8599
  21   2.0000      -0.614277       -16.7153
  22   2.0000      -0.607133       -16.5209
  23   2.0000      -0.584930       -15.9168
  24   2.0000      -0.562423       -15.3043
  25   2.0000      -0.561720       -15.2852
  26   2.0000      -0.515838       -14.0367
  27   2.0000      -0.511754       -13.9255
  28   2.0000      -0.491965       -13.3871
  29   2.0000      -0.455768       -12.4021
  30   2.0000      -0.446849       -12.1594
  31   2.0000      -0.439959       -11.9719
  32   2.0000      -0.427873       -11.6430
  33   2.0000      -0.422582       -11.4990
  34   2.0000      -0.405526       -11.0349
  35   2.0000      -0.400789       -10.9060
  36   2.0000      -0.388781       -10.5793
  37   2.0000      -0.359667        -9.7870
  38   2.0000      -0.345614        -9.4046
  39   2.0000      -0.293750        -7.9933
  40   2.0000      -0.262392        -7.1400
  41   2.0000      -0.259619        -7.0646
  42   0.0000      -0.009948        -0.2707
  43   0.0000       0.005264         0.1433
  44   0.0000       0.042696         1.1618
  45   0.0000       0.105113         2.8603
  46   0.0000       0.134769         3.6672

MULLIKEN ATOMIC CHARGES
-----------------------
   0 C :   -0.313717
   1 C :   -0.180472
   2 C :   -0.197374
   3 C :   -0.240585
   4 C :   -0.240586
   5 C :   -0.197375
   6 C :   -0.180472
   7 C :   -0.358738
   8 C :   -0.192866
   9 C :   -0.214866
  10 C :   -0.214867
  11 C :   -0.192865
  12 H :    0.276444
  13 H :    0.215763
  14 H :    0.221089
  15 H :    0.221423
  16 H :    0.221423
  17 H :    0.221089
  18 H :    0.215763
  19 H :    0.249190
  20 H :    0.225380
  21 H :    0.215919
  22 H :    0.215920
  23 H :    0.225380
Sum of atomic charges:    0.0000000

LOEWDIN ATOMIC CHARGES
----------------------
   0 C :   -0.136560
   1 C :   -0.114676
   2 C :   -0.154300
   3 C :   -0.143582
   4 C :   -0.143582
   5 C :   -0.154300
   6 C :   -0.114676
   7 C :   -0.135583
   8 C :   -0.140919
   9 C :   -0.141971
  10 C :   -0.141971
  11 C :   -0.140919
  12 H :    0.152449
  13 H :    0.134303
  14 H :    0.139184
  15 H :    0.136255
  16 H :    0.136255
  17 H :    0.139184
  18 H :    0.134303
  19 H :    0.154711
  20 H :    0.135525
  21 H :    0.132673
  22 H :    0.132673
  23 H :    0.135525

  Mayer bond orders larger than 0.100000
B(  0-C ,  1-C ) :   0.9633 B(  0-C ,  6-C ) :   0.9633 B(  0-C ,  7-C ) :   0.9471
B(  0-C , 12-H ) :   0.8843 B(  1-C ,  2-C ) :   1.7497 B(  1-C , 13-H ) :   0.9187
B(  2-C ,  3-C ) :   1.1772 B(  2-C , 14-H ) :   0.9138 B(  3-C ,  4-C ) :   1.6774
B(  3-C , 15-H ) :   0.9159 B(  4-C ,  5-C ) :   1.1772 B(  4-C , 16-H ) :   0.9159
B(  5-C ,  6-C ) :   1.7497 B(  5-C , 17-H ) :   0.9138 B(  6-C , 18-H ) :   0.9187
B(  7-C ,  8-C ) :   1.0288 B(  7-C , 11-C ) :   1.0288 B(  7-C , 19-H ) :   0.8707
B(  8-C ,  9-C ) :   1.7939 B(  8-C , 20-H ) :   0.9179 B(  9-C , 10-C ) :   1.1254
B(  9-C , 21-H ) :   0.9211 B( 10-C , 11-C ) :   1.7939 B( 10-C , 22-H ) :   0.9211
B( 11-C , 23-H ) :   0.9179

Dispersion correction           -0.015943707
FINAL SINGLE POINT ENERGY      -463.376238018921

DIPOLE MOMENT
-------------
                                X             Y             Z
Electronic contribution:     -0.14999       0.41482      -0.00000
Nuclear contribution   :      0.28379      -0.50080      -0.00000
                        -----------------------------------------
Total Dipole Moment    :      0.13381      -0.08598      -0.00000
                        -----------------------------------------
Magnitude (a.u.)       :      0.15905
Magnitude (Debye)      :      0.40427

Rotational constants in cm-1:     0.072946     0.020310     0.017578
Rotational constants in MHz :  2186.869622   608.880861   526.974082

                             ****ORCA TERMINATED NORMALLY****
TOTAL RUN TIME: 0 days 0 hours 2 minutes 16 seconds 307 msec
