                         Program Version 5.0.3 -  RELEASE  -
|  1> ! PBEh-3c def2/J TightSCF DefGrid3
|  2>
|  3> %maxcore 60000
|  4>
|  5> %pal
|  6> nprocs 4
|  7> end
|  8>
|  9> *xyzfile 0 1 GLN_xap.xyz
| 10>
| 11>                          ****END OF INPUT****

CARTESIAN COORDINATES (ANGSTROEM)
---------------------------------
  N     -1.280297   -0.990401   -0.605461
  C     -0.058147   -0.300945   -0.228192
  C     -0.297970    1.165319    0.117770
  O      0.497914    1.786579    0.823698
  C      0.941874   -0.420714   -1.381678
  C      2.307713    0.198281   -1.087752
  C      2.966536   -0.520513    0.076059
  O      3.512412   -1.606974   -0.070287
  H     -1.242433   -1.580837   -1.421190
  H      0.351708   -0.752266    0.676422
  H      1.086373   -1.482676   -1.593806
  H      0.508155    0.045834   -2.269231
  H      2.949080    0.054839   -1.954698
  H      2.211735    1.263560   -0.891195
  C     -2.199764   -1.307241    0.366838
  O     -2.142030   -0.811193    1.480841
  N     -1.370237    1.733138   -0.466250
  H     -2.025982    1.104662   -0.899022
  C     -1.759027    3.095365   -0.168878
  H     -2.253532    3.531484   -1.032323
  H     -2.425794    3.141294    0.691706
  H     -0.861305    3.660699    0.059354
  C     -3.269818   -2.286639   -0.046825
  H     -3.021025   -3.264407    0.362816
  H     -3.368778   -2.372983   -1.126322
  H     -4.215855   -1.975058    0.385317
  N      2.881717    0.132421    1.263816
  H      3.178883   -0.373384    2.081040
  H      2.191813    0.867323    1.360574

 Total Charge           Charge          ....    0
 Multiplicity           Mult            ....    1
 Number of Electrons    NEL             ....  108
 Basis Dimension        Dim             ....  240

ORBITAL ENERGIES
----------------

  NO   OCC          E(Eh)            E(eV)
   0   2.0000     -19.477088      -529.9985
   1   2.0000     -19.471866      -529.8564
   2   2.0000     -19.441257      -529.0235
   3   2.0000     -14.684131      -399.5755
   4   2.0000     -14.671318      -399.2269
   5   2.0000     -14.631216      -398.1356
   6   2.0000     -10.567258      -287.5497
   7   2.0000     -10.557157      -287.2748
   8   2.0000     -10.533655      -286.6353
   9   2.0000     -10.501215      -285.7526
  10   2.0000     -10.472786      -284.9790
  11   2.0000     -10.465535      -284.7817
  12   2.0000     -10.458858      -284.6000
  13   2.0000     -10.442619      -284.1581
  14   2.0000      -1.165546       -31.7161
  15   2.0000      -1.152751       -31.3679
  16   2.0000      -1.124253       -30.5925
  17   2.0000      -1.051498       -28.6127
  18   2.0000      -1.027534       -27.9606
  19   2.0000      -0.984472       -26.7888
  20   2.0000      -0.907098       -24.6834
  21   2.0000      -0.853309       -23.2197
  22   2.0000      -0.818295       -22.2669
  23   2.0000      -0.782996       -21.3064
  24   2.0000      -0.720761       -19.6129
  25   2.0000      -0.675833       -18.3903
  26   2.0000      -0.663933       -18.0665
  27   2.0000      -0.631870       -17.1941
  28   2.0000      -0.607625       -16.5343
  29   2.0000      -0.593348       -16.1458
  30   2.0000      -0.578191       -15.7334
  31   2.0000      -0.561319       -15.2743
  32   2.0000      -0.550654       -14.9841
  33   2.0000      -0.525538       -14.3006
  34   2.0000      -0.521683       -14.1957
  35   2.0000      -0.516891       -14.0653
  36   2.0000      -0.496772       -13.5179
  37   2.0000      -0.494744       -13.4627
  38   2.0000      -0.482269       -13.1232
  39   2.0000      -0.476032       -12.9535
  40   2.0000      -0.463597       -12.6151
  41   2.0000      -0.459393       -12.5007
  42   2.0000      -0.452875       -12.3233
  43   2.0000      -0.436893       -11.8885
  44   2.0000      -0.432354       -11.7649
  45   2.0000      -0.419516       -11.4156
  46   2.0000      -0.411338       -11.1931
  47   2.0000      -0.399022       -10.8579
  48   2.0000      -0.345872        -9.4116
  49   2.0000      -0.329635        -8.9698
  50   2.0000      -0.318155        -8.6574
  51   2.0000      -0.312188        -8.4951
  52   2.0000      -0.299924        -8.1613
  53   2.0000      -0.290672        -7.9096
  54   0.0000       0.038202         1.0395
  55   0.0000       0.047759         1.2996
  56   0.0000       0.071357         1.9417
  57   0.0000       0.103134         2.8064
  58   0.0000       0.134182         3.6513

MULLIKEN ATOMIC CHARGES
-----------------------
   0 N :   -0.670194
   1 C :   -0.164062
   2 C :    0.586991
   3 O :   -0.467896
   4 C :   -0.477219
   5 C :   -0.551640
   6 C :    0.476567
   7 O :   -0.424777
   8 H :    0.363938
   9 H :    0.289178
  10 H :    0.252708
  11 H :    0.232597
  12 H :    0.263489
  13 H :    0.257633
  14 C :    0.504292
  15 O :   -0.398622
  16 N :   -0.617519
  17 H :    0.372224
  18 C :   -0.495667
  19 H :    0.219074
  20 H :    0.235211
  21 H :    0.259455
  22 C :   -0.758966
  23 H :    0.264202
  24 H :    0.218529
  25 H :    0.268817
  26 N :   -0.807757
  27 H :    0.359697
  28 H :    0.409718
Sum of atomic charges:   -0.0000000

LOEWDIN ATOMIC CHARGES
----------------------
   0 N :   -0.254410
   1 C :   -0.092225
   2 C :    0.121373
   3 O :   -0.294619
   4 C :   -0.226692
   5 C :   -0.268497
   6 C :    0.096363
   7 O :   -0.288224
   8 H :    0.256788
   9 H :    0.153625
  10 H :    0.140307
  11 H :    0.130322
  12 H :    0.152001
  13 H :    0.143074
  14 C :    0.105086
  15 O :   -0.251455
  16 N :   -0.228892
  17 H :    0.258735
  18 C :   -0.254063
  19 H :    0.125120
  20 H :    0.128302
  21 H :    0.149618
  22 C :   -0.391714
  23 H :    0.161498
  24 H :    0.131496
  25 H :    0.160458
  26 N :   -0.378793
  27 H :    0.252525
  28 H :    0.262893

  Mayer bond orders larger than 0.100000
B(  0-N ,  1-C ) :   0.9026 B(  0-N ,  8-H ) :   0.8195 B(  0-N , 14-C ) :   1.0945
B(  1-C ,  2-C ) :   0.9086 B(  1-C ,  4-C ) :   0.9635 B(  1-C ,  9-H ) :   0.8711
B(  2-C ,  3-O ) :   1.8560 B(  2-C , 16-N ) :   1.1781 B(  4-C ,  5-C ) :   0.9872
B(  4-C , 10-H ) :   0.8983 B(  4-C , 11-H ) :   0.9074 B(  5-C ,  6-C ) :   0.9061
B(  5-C , 12-H ) :   0.9064 B(  5-C , 13-H ) :   0.8912 B(  6-C ,  7-O ) :   2.0261
B(  6-C , 26-N ) :   1.1826 B( 14-C , 15-O ) :   2.0230 B( 14-C , 22-C ) :   0.9300
B( 16-N , 17-H ) :   0.8013 B( 16-N , 18-C ) :   0.9519 B( 18-C , 19-H ) :   0.9247
B( 18-C , 20-H ) :   0.9141 B( 18-C , 21-H ) :   0.9053 B( 22-C , 23-H ) :   0.9032
B( 22-C , 24-H ) :   0.9200 B( 22-C , 25-H ) :   0.9095 B( 26-N , 27-H ) :   0.8335
B( 26-N , 28-H ) :   0.7373

Dispersion correction           -0.017913068
FINAL SINGLE POINT ENERGY      -702.371177769888

DIPOLE MOMENT
-------------
                                X             Y             Z
Electronic contribution:      5.10412      -1.64051       4.01452
Nuclear contribution   :     -7.16037       1.78267      -5.51261
                        -----------------------------------------
Total Dipole Moment    :     -2.05624       0.14216      -1.49809
                        -----------------------------------------
Magnitude (a.u.)       :      2.54806
Magnitude (Debye)      :      6.47666

Rotational constants in cm-1:     0.028732     0.015709     0.012234
Rotational constants in MHz :   861.356475   470.930466   366.760824

                             ****ORCA TERMINATED NORMALLY****
TOTAL RUN TIME: 0 days 0 hours 3 minutes 54 seconds 596 msec
