                         Program Version 5.0.3 -  RELEASE  -
|  1> ! PBEh-3c def2/J TightSCF DefGrid3
|  2>
|  3> %maxcore 60000
|  4>
|  5> %pal
|  6> nprocs 4
|  7> end
|  8>
|  9> *xyzfile 0 1 heptatriyne.xyz
| 10>
| 11>                          ****END OF INPUT****

CARTESIAN COORDINATES (ANGSTROEM)
---------------------------------
  C     -3.943874   -1.185658   -2.040807
  H     -4.861993   -1.464475   -2.513471
  C     -2.894816   -0.867517   -1.500822
  C     -1.735386   -0.516888   -0.903813
  C     -0.677355   -0.197660   -0.357915
  C      0.479965    0.148923    0.242178
  C      1.530041    0.461516    0.789840
  C      2.771158    0.829887    1.438060
  H      3.381855    1.475173    0.787591
  H      2.581635    1.378085    2.374081
  H      3.368771   -0.061386    1.685079

 Total Charge           Charge          ....    0
 Multiplicity           Mult            ....    1
 Number of Electrons    NEL             ....   46
 Basis Dimension        Dim             ....  113

ORBITAL ENERGIES
----------------

  NO   OCC          E(Eh)            E(eV)
   0   2.0000     -10.491494      -285.4881
   1   2.0000     -10.486937      -285.3641
   2   2.0000     -10.486790      -285.3601
   3   2.0000     -10.483278      -285.2645
   4   2.0000     -10.478823      -285.1433
   5   2.0000     -10.475836      -285.0620
   6   2.0000     -10.475597      -285.0555
   7   2.0000      -0.916526       -24.9399
   8   2.0000      -0.892326       -24.2814
   9   2.0000      -0.853472       -23.2242
  10   2.0000      -0.805104       -21.9080
  11   2.0000      -0.724286       -19.7088
  12   2.0000      -0.654320       -17.8050
  13   2.0000      -0.589271       -16.0349
  14   2.0000      -0.542555       -14.7637
  15   2.0000      -0.506374       -13.7791
  16   2.0000      -0.506351       -13.7785
  17   2.0000      -0.427172       -11.6240
  18   2.0000      -0.427170       -11.6239
  19   2.0000      -0.364571        -9.9205
  20   2.0000      -0.364568        -9.9204
  21   2.0000      -0.277856        -7.5608
  22   2.0000      -0.277852        -7.5607
  23   0.0000      -0.037260        -1.0139
  24   0.0000      -0.037258        -1.0138
  25   0.0000       0.097938         2.6650
  26   0.0000       0.097944         2.6652
  27   0.0000       0.135358         3.6833

MULLIKEN ATOMIC CHARGES
-----------------------
   0 C :   -0.499231
   1 H :    0.235335
   2 C :    0.134175
   3 C :    0.054080
   4 C :    0.036009
   5 C :    0.057142
   6 C :    0.022789
   7 C :   -0.819379
   8 H :    0.259688
   9 H :    0.259685
  10 H :    0.259706
Sum of atomic charges:   -0.0000000

LOEWDIN ATOMIC CHARGES
----------------------
   0 C :   -0.136194
   1 H :    0.173747
   2 C :   -0.040375
   3 C :   -0.032409
   4 C :   -0.010687
   5 C :   -0.079447
   6 C :   -0.000228
   7 C :   -0.356835
   8 H :    0.160795
   9 H :    0.160812
  10 H :    0.160820

  Mayer bond orders larger than 0.100000
B(  0-C ,  1-H ) :   0.9626 B(  0-C ,  2-C ) :   2.4288 B(  0-C ,  3-C ) :  -0.1628
B(  0-C ,  4-C ) :   0.2219 B(  0-C ,  6-C ) :   0.1021 B(  2-C ,  3-C ) :   1.0150
B(  2-C ,  4-C ) :  -0.1615 B(  3-C ,  4-C ) :   2.0917 B(  3-C ,  5-C ) :  -0.1601
B(  3-C ,  6-C ) :   0.2159 B(  4-C ,  5-C ) :   1.0394 B(  4-C ,  6-C ) :  -0.1489
B(  5-C ,  6-C ) :   2.2444 B(  5-C ,  7-C ) :  -0.1080 B(  6-C ,  7-C ) :   1.0216
B(  7-C ,  8-H ) :   0.9030 B(  7-C ,  9-H ) :   0.9030 B(  7-C , 10-H ) :   0.9030

Dispersion correction           -0.004154869
FINAL SINGLE POINT ENERGY      -268.339434434676

DIPOLE MOMENT
-------------
                                X             Y             Z
Electronic contribution:     -5.73858      -1.70621      -2.99285
Nuclear contribution   :      6.28883       1.86740       3.28249
                        -----------------------------------------
Total Dipole Moment    :      0.55024       0.16118       0.28963
                        -----------------------------------------
Magnitude (a.u.)       :      0.64237
Magnitude (Debye)      :      1.63276

Rotational constants in cm-1:     5.278089     0.025903     0.025903
Rotational constants in MHz : 158233.138453   776.541613   776.539053

                             ****ORCA TERMINATED NORMALLY****
TOTAL RUN TIME: 0 days 0 hours 1 minutes 21 seconds 844 msec
