                         Program Version 5.0.3 -  RELEASE  -
|  1> ! PBEh-3c def2/J TightSCF DefGrid3
|  2>
|  3> %maxcore 60000
|  4>
|  5> %pal
|  6> nprocs 4
|  7> end
|  8>
|  9> *xyzfile 0 1 7p2.xyz
| 10>
| 11>                          ****END OF INPUT****

CARTESIAN COORDINATES (ANGSTROEM)
---------------------------------
  O      0.000000    0.000000   -0.389149
  H     -0.761549    0.000000    0.194574
  H      0.761549    0.000000    0.194574

 Total Charge           Charge          ....    0
 Multiplicity           Mult            ....    1
 Number of Electrons    NEL             ....   10
 Basis Dimension        Dim             ....   19

ORBITAL ENERGIES
----------------

  NO   OCC          E(Eh)            E(eV)
   0   2.0000     -19.473798      -529.9090
   1   2.0000      -1.102377       -29.9972
   2   2.0000      -0.583271       -15.8716
   3   2.0000      -0.433328       -11.7915
   4   2.0000      -0.356371        -9.6973
   5   0.0000       0.131810         3.5867
   6   0.0000       0.209934         5.7126
   7   0.0000       0.876439        23.8491
   8   0.0000       0.978823        26.6351
   9   0.0000       0.991753        26.9870

MULLIKEN ATOMIC CHARGES
-----------------------
   0 O :   -0.817857
   1 H :    0.408928
   2 H :    0.408928
Sum of atomic charges:    0.0000000

LOEWDIN ATOMIC CHARGES
----------------------
   0 O :   -0.597565
   1 H :    0.298783
   2 H :    0.298783

  Mayer bond orders larger than 0.100000
B(  0-O ,  1-H ) :   0.8150 B(  0-O ,  2-H ) :   0.8150

Dispersion correction           -0.000209561
FINAL SINGLE POINT ENERGY       -76.258044012726

DIPOLE MOMENT
-------------
                                X             Y             Z
Electronic contribution:     -0.00000      -0.00000      -0.12654
Nuclear contribution   :      0.00000       0.00000       0.97174
                        -----------------------------------------
Total Dipole Moment    :     -0.00000      -0.00000       0.84520
                        -----------------------------------------
Magnitude (a.u.)       :      0.84520
Magnitude (Debye)      :      2.14833

Rotational constants in cm-1:    27.633373    14.418195     9.474637
Rotational constants in MHz : 828427.667719 432246.614004 284042.483860

                             ****ORCA TERMINATED NORMALLY****
TOTAL RUN TIME: 0 days 0 hours 1 minutes 31 seconds 363 msec
