                         Program Version 5.0.3 -  RELEASE  -
|  1> ! PBEh-3c def2/J TightSCF DefGrid3
|  2>
|  3> %maxcore 60000
|  4>
|  5> %pal
|  6> nprocs 4
|  7> end
|  8>
|  9> *xyzfile 0 1 FI_pyr.xyz
| 10>
| 11>                          ****END OF INPUT****

CARTESIAN COORDINATES (ANGSTROEM)
---------------------------------
  F      0.000000    0.000000    3.351562
  I      0.000000    0.000000    1.370737
  C      0.000000    1.148358   -1.730694
  C      0.000000    1.193458   -3.112480
  C      0.000000    0.000000   -3.815346
  C      0.000000   -1.193458   -3.112480
  C      0.000000   -1.148358   -1.730694
  N      0.000000    0.000000   -1.057254
  H      0.000000    2.051283   -1.131944
  H      0.000000    2.147447   -3.620355
  H      0.000000    0.000000   -4.897575
  H      0.000000   -2.147447   -3.620355
  H      0.000000   -2.051283   -1.131944

 Total Charge           Charge          ....    0
 Multiplicity           Mult            ....    1
 Number of Electrons    NEL             ....   76
 Basis Dimension        Dim             ....  141

ORBITAL ENERGIES
----------------

  NO   OCC          E(Eh)            E(eV)
   0   2.0000     -24.998007      -680.2303
   1   2.0000     -14.710847      -400.3025
   2   2.0000     -10.526227      -286.4332
   3   2.0000     -10.526203      -286.4326
   4   2.0000     -10.506612      -285.8994
   5   2.0000     -10.494996      -285.5833
   6   2.0000     -10.494986      -285.5831
   7   2.0000      -7.096676      -193.1104
   8   2.0000      -5.086652      -138.4148
   9   2.0000      -5.059882      -137.6864
  10   2.0000      -5.059590      -137.6784
  11   2.0000      -2.039210       -55.4897
  12   2.0000      -2.030946       -55.2648
  13   2.0000      -2.030659       -55.2571
  14   2.0000      -2.008323       -54.6492
  15   2.0000      -2.008319       -54.6491
  16   2.0000      -1.190641       -32.3990
  17   2.0000      -1.107300       -30.1312
  18   2.0000      -0.945791       -25.7363
  19   2.0000      -0.901350       -24.5270
  20   2.0000      -0.757992       -20.6260
  21   2.0000      -0.757972       -20.6255
  22   2.0000      -0.735464       -20.0130
  23   2.0000      -0.642498       -17.4833
  24   2.0000      -0.595134       -16.1944
  25   2.0000      -0.572756       -15.5855
  26   2.0000      -0.534429       -14.5426
  27   2.0000      -0.521690       -14.1959
  28   2.0000      -0.508726       -13.8432
  29   2.0000      -0.463307       -12.6072
  30   2.0000      -0.453840       -12.3496
  31   2.0000      -0.412999       -11.2383
  32   2.0000      -0.412966       -11.2374
  33   2.0000      -0.381519       -10.3817
  34   2.0000      -0.357966        -9.7408
  35   2.0000      -0.346685        -9.4338
  36   2.0000      -0.282248        -7.6804
  37   2.0000      -0.277478        -7.5506
  38   0.0000      -0.047970        -1.3053
  39   0.0000      -0.027610        -0.7513
  40   0.0000      -0.001496        -0.0407
  41   0.0000       0.119957         3.2642
  42   0.0000       0.143868         3.9148

MULLIKEN ATOMIC CHARGES
-----------------------
   0 F :   -0.527445
   1 I :    0.368813
   2 C :    0.042518
   3 C :   -0.313648
   4 C :   -0.110100
   5 C :   -0.313648
   6 C :    0.042519
   7 N :   -0.503188
   8 H :    0.275796
   9 H :    0.254400
  10 H :    0.253788
  11 H :    0.254400
  12 H :    0.275796
Sum of atomic charges:    0.0000000

LOEWDIN ATOMIC CHARGES
----------------------
   0 F :   -0.487528
   1 I :    0.294596
   2 C :   -0.033016
   3 C :   -0.147190
   4 C :   -0.082300
   5 C :   -0.147190
   6 C :   -0.033016
   7 N :   -0.120056
   8 H :    0.149255
   9 H :    0.153350
  10 H :    0.150491
  11 H :    0.153350
  12 H :    0.149255

  Mayer bond orders larger than 0.100000
B(  0-F ,  1-I ) :   0.7140 B(  1-I ,  7-N ) :   0.2752 B(  2-C ,  3-C ) :   1.4045
B(  2-C ,  7-N ) :   1.3756 B(  2-C ,  8-H ) :   0.8953 B(  3-C ,  4-C ) :   1.4002
B(  3-C ,  9-H ) :   0.9070 B(  4-C ,  5-C ) :   1.4002 B(  4-C , 10-H ) :   0.9112
B(  5-C ,  6-C ) :   1.4045 B(  5-C , 11-H ) :   0.9070 B(  6-C ,  7-N ) :   1.3756
B(  6-C , 12-H ) :   0.8953

Dispersion correction           -0.007134116
FINAL SINGLE POINT ENERGY      -645.111782560483

DIPOLE MOMENT
-------------
                                X             Y             Z
Electronic contribution:      0.00000      -0.00000      98.50350
Nuclear contribution   :      0.00000      -0.00000    -101.97037
                        -----------------------------------------
Total Dipole Moment    :      0.00000      -0.00000      -3.46687
                        -----------------------------------------
Magnitude (a.u.)       :      3.46687
Magnitude (Debye)      :      8.81208

Rotational constants in cm-1:     0.201469     0.017015     0.015690
Rotational constants in MHz :  6039.887504   510.105801   470.379360

                             ****ORCA TERMINATED NORMALLY****
TOTAL RUN TIME: 0 days 0 hours 2 minutes 25 seconds 117 msec
