                         Program Version 5.0.3 -  RELEASE  -
|  1> ! PBEh-3c def2/J TightSCF DefGrid3
|  2>
|  3> %maxcore 60000
|  4>
|  5> %pal
|  6> nprocs 4
|  7> end
|  8>
|  9> *xyzfile 0 1 P6.xyz
| 10>
| 11>                          ****END OF INPUT****

CARTESIAN COORDINATES (ANGSTROEM)
---------------------------------
  C     -1.987389    0.052068    0.251315
  C     -0.856026    0.180244   -0.433287
  C      0.406894   -0.591275   -0.181933
  C      1.595574    0.312454    0.176822
  H     -2.082155   -0.660504    1.064760
  H     -2.862024    0.649966    0.023979
  H     -0.809734    0.910764   -1.239765
  H      0.660081   -1.165695   -1.081226
  H      0.237825   -1.319573    0.616662
  H      1.790339    1.041433   -0.614267
  H      2.505253   -0.275616    0.318644
  H      1.401361    0.865734    1.098296

 Total Charge           Charge          ....    0
 Multiplicity           Mult            ....    1
 Number of Electrons    NEL             ....   32
 Basis Dimension        Dim             ....   76

ORBITAL ENERGIES
----------------

  NO   OCC          E(Eh)            E(eV)
   0   2.0000     -10.443309      -284.1769
   1   2.0000     -10.438781      -284.0537
   2   2.0000     -10.429784      -283.8089
   3   2.0000     -10.427103      -283.7359
   4   2.0000      -0.889805       -24.2128
   5   2.0000      -0.812282       -22.1033
   6   2.0000      -0.702346       -19.1118
   7   2.0000      -0.620274       -16.8785
   8   2.0000      -0.530077       -14.4241
   9   2.0000      -0.499112       -13.5815
  10   2.0000      -0.480268       -13.0688
  11   2.0000      -0.434684       -11.8283
  12   2.0000      -0.424386       -11.5481
  13   2.0000      -0.391741       -10.6598
  14   2.0000      -0.382357       -10.4045
  15   2.0000      -0.298368        -8.1190
  16   0.0000       0.049010         1.3336
  17   0.0000       0.155687         4.2364
  18   0.0000       0.181094         4.9278
  19   0.0000       0.185889         5.0583
  20   0.0000       0.208895         5.6843

MULLIKEN ATOMIC CHARGES
-----------------------
   0 C :   -0.487138
   1 C :   -0.123424
   2 C :   -0.472635
   3 C :   -0.638550
   4 H :    0.206985
   5 H :    0.213350
   6 H :    0.208927
   7 H :    0.220983
   8 H :    0.217995
   9 H :    0.210968
  10 H :    0.219510
  11 H :    0.223030
Sum of atomic charges:   -0.0000000

LOEWDIN ATOMIC CHARGES
----------------------
   0 C :   -0.278707
   1 C :   -0.139525
   2 C :   -0.244509
   3 C :   -0.359914
   4 H :    0.126867
   5 H :    0.131020
   6 H :    0.126483
   7 H :    0.130312
   8 H :    0.126981
   9 H :    0.124629
  10 H :    0.127157
  11 H :    0.129205

  Mayer bond orders larger than 0.100000
B(  0-C ,  1-C ) :   1.9404 B(  0-C ,  4-H ) :   0.9306 B(  0-C ,  5-H ) :   0.9301
B(  1-C ,  2-C ) :   0.9945 B(  1-C ,  6-H ) :   0.9180 B(  2-C ,  3-C ) :   0.9771
B(  2-C ,  7-H ) :   0.9117 B(  2-C ,  8-H ) :   0.9229 B(  3-C ,  9-H ) :   0.9295
B(  3-C , 10-H ) :   0.9288 B(  3-C , 11-H ) :   0.9265

Dispersion correction           -0.004305348
FINAL SINGLE POINT ENERGY      -156.866912634896

DIPOLE MOMENT
-------------
                                X             Y             Z
Electronic contribution:     -1.88720      -0.12600      -0.47637
Nuclear contribution   :      2.02670       0.11209       0.45087
                        -----------------------------------------
Total Dipole Moment    :      0.13950      -0.01392      -0.02549
                        -----------------------------------------
Magnitude (a.u.)       :      0.14249
Magnitude (Debye)      :      0.36218

Rotational constants in cm-1:     0.759153     0.137875     0.134705
Rotational constants in MHz : 22758.827009  4133.398745  4038.351062

                             ****ORCA TERMINATED NORMALLY****
TOTAL RUN TIME: 0 days 0 hours 0 minutes 59 seconds 443 msec
