                         Program Version 5.0.3 -  RELEASE  -
|  1> ! PBEh-3c def2/J TightSCF DefGrid3
|  2>
|  3> %maxcore 60000
|  4>
|  5> %pal
|  6> nprocs 4
|  7> end
|  8>
|  9> *xyzfile 0 1 r15.xyz
| 10>
| 11>                          ****END OF INPUT****

CARTESIAN COORDINATES (ANGSTROEM)
---------------------------------
  C      0.575633    0.507686    0.484425
  C      2.653141    1.399108   -0.628900
  C      1.247137    2.922113    0.789813
  C      0.082124    1.943328    0.667788
  C      2.164732    2.829761   -0.425309
  C      1.477070    0.432142   -0.748667
  C     -0.575633   -0.507686    0.484425
  C     -0.082124   -1.943328    0.667788
  C     -1.247137   -2.922113    0.789813
  C     -2.164732   -2.829761   -0.425309
  C     -2.653141   -1.399108   -0.628900
  C     -1.477070   -0.432142   -0.748667
  H      1.199764    0.270411    1.356920
  H      3.284826    1.336399   -1.516543
  H      3.273006    1.106020    0.223615
  H      1.820500    2.685085    1.690883
  H      0.875433    3.941121    0.909476
  H     -0.532364    2.229792   -0.190818
  H     -0.558204    2.001784    1.551486
  H      1.613002    3.148164   -1.314910
  H      3.011019    3.509870   -0.316524
  H      1.843122   -0.585490   -0.895554
  H      0.895448    0.694842   -1.637181
  H     -1.199764   -0.270411    1.356920
  H      0.532364   -2.229792   -0.190818
  H      0.558204   -2.001784    1.551486
  H     -1.820500   -2.685085    1.690883
  H     -0.875433   -3.941121    0.909476
  H     -1.613002   -3.148164   -1.314910
  H     -3.011019   -3.509870   -0.316524
  H     -3.273006   -1.106020    0.223615
  H     -3.284826   -1.336399   -1.516543
  H     -1.843122    0.585490   -0.895554
  H     -0.895448   -0.694842   -1.637181

 Total Charge           Charge          ....    0
 Multiplicity           Mult            ....    1
 Number of Electrons    NEL             ....   94
 Basis Dimension        Dim             ....  224

ORBITAL ENERGIES
----------------

  NO   OCC          E(Eh)            E(eV)
   0   2.0000     -10.430344      -283.8241
   1   2.0000     -10.430120      -283.8180
   2   2.0000     -10.424399      -283.6623
   3   2.0000     -10.424387      -283.6620
   4   2.0000     -10.424365      -283.6614
   5   2.0000     -10.424361      -283.6613
   6   2.0000     -10.423975      -283.6508
   7   2.0000     -10.423972      -283.6507
   8   2.0000     -10.422725      -283.6168
   9   2.0000     -10.422698      -283.6160
  10   2.0000     -10.422472      -283.6099
  11   2.0000     -10.422446      -283.6092
  12   2.0000      -0.939260       -25.5586
  13   2.0000      -0.912435       -24.8286
  14   2.0000      -0.850652       -23.1474
  15   2.0000      -0.823753       -22.4155
  16   2.0000      -0.820961       -22.3395
  17   2.0000      -0.791170       -21.5288
  18   2.0000      -0.696234       -18.9455
  19   2.0000      -0.682605       -18.5746
  20   2.0000      -0.673705       -18.3325
  21   2.0000      -0.643093       -17.4995
  22   2.0000      -0.622916       -16.9504
  23   2.0000      -0.603871       -16.4322
  24   2.0000      -0.542698       -14.7676
  25   2.0000      -0.521099       -14.1798
  26   2.0000      -0.503614       -13.7040
  27   2.0000      -0.495944       -13.4953
  28   2.0000      -0.494525       -13.4567
  29   2.0000      -0.489606       -13.3229
  30   2.0000      -0.482794       -13.1375
  31   2.0000      -0.465380       -12.6636
  32   2.0000      -0.427656       -11.6371
  33   2.0000      -0.426351       -11.6016
  34   2.0000      -0.425563       -11.5801
  35   2.0000      -0.423288       -11.5183
  36   2.0000      -0.409455       -11.1418
  37   2.0000      -0.394369       -10.7313
  38   2.0000      -0.382347       -10.4042
  39   2.0000      -0.379647       -10.3307
  40   2.0000      -0.374131       -10.1806
  41   2.0000      -0.362039        -9.8516
  42   2.0000      -0.359777        -9.7900
  43   2.0000      -0.357187        -9.7195
  44   2.0000      -0.334051        -9.0900
  45   2.0000      -0.329950        -8.9784
  46   2.0000      -0.321185        -8.7399
  47   0.0000       0.136421         3.7122
  48   0.0000       0.142876         3.8879
  49   0.0000       0.151883         4.1330
  50   0.0000       0.156643         4.2625
  51   0.0000       0.167477         4.5573

MULLIKEN ATOMIC CHARGES
-----------------------
   0 C :   -0.204445
   1 C :   -0.415353
   2 C :   -0.418216
   3 C :   -0.409044
   4 C :   -0.418241
   5 C :   -0.423574
   6 C :   -0.204445
   7 C :   -0.409045
   8 C :   -0.418216
   9 C :   -0.418241
  10 C :   -0.415353
  11 C :   -0.423574
  12 H :    0.196016
  13 H :    0.217220
  14 H :    0.201313
  15 H :    0.201165
  16 H :    0.217201
  17 H :    0.200286
  18 H :    0.213230
  19 H :    0.200694
  20 H :    0.217849
  21 H :    0.219920
  22 H :    0.203979
  23 H :    0.196016
  24 H :    0.200285
  25 H :    0.213230
  26 H :    0.201165
  27 H :    0.217201
  28 H :    0.200694
  29 H :    0.217849
  30 H :    0.201313
  31 H :    0.217220
  32 H :    0.219920
  33 H :    0.203979
Sum of atomic charges:    0.0000000

LOEWDIN ATOMIC CHARGES
----------------------
   0 C :   -0.143084
   1 C :   -0.236840
   2 C :   -0.237611
   3 C :   -0.230754
   4 C :   -0.239757
   5 C :   -0.233087
   6 C :   -0.143084
   7 C :   -0.230754
   8 C :   -0.237611
   9 C :   -0.239757
  10 C :   -0.236840
  11 C :   -0.233087
  12 H :    0.117136
  13 H :    0.122681
  14 H :    0.118008
  15 H :    0.117954
  16 H :    0.122795
  17 H :    0.117816
  18 H :    0.121912
  19 H :    0.117986
  20 H :    0.122756
  21 H :    0.122480
  22 H :    0.119608
  23 H :    0.117136
  24 H :    0.117816
  25 H :    0.121912
  26 H :    0.117954
  27 H :    0.122795
  28 H :    0.117986
  29 H :    0.122756
  30 H :    0.118008
  31 H :    0.122681
  32 H :    0.122480
  33 H :    0.119608

  Mayer bond orders larger than 0.100000
B(  0-C ,  3-C ) :   0.9810 B(  0-C ,  5-C ) :   0.9668 B(  0-C ,  6-C ) :   0.9837
B(  0-C , 12-H ) :   0.9085 B(  1-C ,  4-C ) :   0.9880 B(  1-C ,  5-C ) :   0.9866
B(  1-C , 13-H ) :   0.9274 B(  1-C , 14-H ) :   0.9179 B(  2-C ,  3-C ) :   0.9887
B(  2-C ,  4-C ) :   0.9874 B(  2-C , 15-H ) :   0.9182 B(  2-C , 16-H ) :   0.9268
B(  3-C , 17-H ) :   0.9118 B(  3-C , 18-H ) :   0.9253 B(  4-C , 19-H ) :   0.9179
B(  4-C , 20-H ) :   0.9266 B(  5-C , 21-H ) :   0.9218 B(  5-C , 22-H ) :   0.9127
B(  6-C ,  7-C ) :   0.9810 B(  6-C , 11-C ) :   0.9668 B(  6-C , 23-H ) :   0.9085
B(  7-C ,  8-C ) :   0.9887 B(  7-C , 24-H ) :   0.9118 B(  7-C , 25-H ) :   0.9253
B(  8-C ,  9-C ) :   0.9874 B(  8-C , 26-H ) :   0.9182 B(  8-C , 27-H ) :   0.9268
B(  9-C , 10-C ) :   0.9880 B(  9-C , 28-H ) :   0.9179 B(  9-C , 29-H ) :   0.9266
B( 10-C , 11-C ) :   0.9866 B( 10-C , 30-H ) :   0.9179 B( 10-C , 31-H ) :   0.9274
B( 11-C , 32-H ) :   0.9218 B( 11-C , 33-H ) :   0.9127

Dispersion correction           -0.021674211
FINAL SINGLE POINT ENERGY      -469.536354244291

DIPOLE MOMENT
-------------
                                X             Y             Z
Electronic contribution:      0.00000      -0.00000       0.64945
Nuclear contribution   :     -0.00000       0.00000      -0.64113
                        -----------------------------------------
Total Dipole Moment    :      0.00000      -0.00000       0.00832
                        -----------------------------------------
Magnitude (a.u.)       :      0.00832
Magnitude (Debye)      :      0.02115

Rotational constants in cm-1:     0.072083     0.015665     0.014921
Rotational constants in MHz :  2160.983488   469.637788   447.332566

                             ****ORCA TERMINATED NORMALLY****
TOTAL RUN TIME: 0 days 0 hours 2 minutes 50 seconds 434 msec
