                         Program Version 5.0.3 -  RELEASE  -
|  1> ! PBEh-3c def2/J TightSCF DefGrid3
|  2>
|  3> %maxcore 60000
|  4>
|  5> %pal
|  6> nprocs 4
|  7> end
|  8>
|  9> *xyzfile 0 1 13r_9.xyz
| 10>
| 11>                          ****END OF INPUT****

CARTESIAN COORDINATES (ANGSTROEM)
---------------------------------
  N      0.000000    0.000000   -0.368755
  H      0.000000    0.000000   -1.383787
  C      1.225774    0.000000    0.157840
  H      1.339315    0.000000    1.229867
  H      2.068094    0.000000   -0.511436
  C     -1.225774    0.000000    0.157840
  H     -1.339315    0.000000    1.229867
  H     -2.068094    0.000000   -0.511436

 Total Charge           Charge          ....    0
 Multiplicity           Mult            ....    1
 Number of Electrons    NEL             ....   24
 Basis Dimension        Dim             ....   55

ORBITAL ENERGIES
----------------

  NO   OCC          E(Eh)            E(eV)
   0   2.0000     -14.728007      -400.7694
   1   2.0000     -10.436326      -283.9869
   2   2.0000     -10.436286      -283.9858
   3   2.0000      -1.074399       -29.2359
   4   2.0000      -0.798134       -21.7183
   5   2.0000      -0.692691       -18.8491
   6   2.0000      -0.589426       -16.0391
   7   2.0000      -0.537710       -14.6318
   8   2.0000      -0.456649       -12.4260
   9   2.0000      -0.448664       -12.2088
  10   2.0000      -0.438361       -11.9284
  11   2.0000      -0.190159        -5.1745
  12   0.0000       0.032344         0.8801
  13   0.0000       0.112050         3.0490
  14   0.0000       0.194692         5.2978
  15   0.0000       0.211116         5.7448
  16   0.0000       0.226636         6.1671

MULLIKEN ATOMIC CHARGES
-----------------------
   0 N :   -0.324704
   1 H :    0.378180
   2 C :   -0.458093
   3 H :    0.217369
   4 H :    0.213986
   5 C :   -0.458093
   6 H :    0.217369
   7 H :    0.213986
Sum of atomic charges:   -0.0000000

LOEWDIN ATOMIC CHARGES
----------------------
   0 N :    0.000425
   1 H :    0.270171
   2 C :   -0.389699
   3 H :    0.128553
   4 H :    0.125848
   5 C :   -0.389699
   6 H :    0.128553
   7 H :    0.125848

  Mayer bond orders larger than 0.100000
B(  0-N ,  1-H ) :   0.8207 B(  0-N ,  2-C ) :   1.3757 B(  0-N ,  5-C ) :   1.3757
B(  2-C ,  3-H ) :   0.9310 B(  2-C ,  4-H ) :   0.9305 B(  2-C ,  5-C ) :   0.4125
B(  5-C ,  6-H ) :   0.9310 B(  5-C ,  7-H ) :   0.9305

Dispersion correction           -0.002276446
FINAL SINGLE POINT ENERGY      -133.582338516601

DIPOLE MOMENT
-------------
                                X             Y             Z
Electronic contribution:     -0.00000       0.00000      -0.73068
Nuclear contribution   :     -0.00000       0.00000       0.19170
                        -----------------------------------------
Total Dipole Moment    :     -0.00000       0.00000      -0.53898
                        -----------------------------------------
Magnitude (a.u.)       :      0.53898
Magnitude (Debye)      :      1.36997

Rotational constants in cm-1:     2.115258     0.348786     0.299416
Rotational constants in MHz : 63413.848728 10456.352037  8976.251850

                             ****ORCA TERMINATED NORMALLY****
TOTAL RUN TIME: 0 days 0 hours 1 minutes 6 seconds 304 msec
