                         Program Version 5.0.3 -  RELEASE  -
|  1> ! PBEh-3c def2/J TightSCF DefGrid3
|  2>
|  3> %maxcore 60000
|  4>
|  5> %pal
|  6> nprocs 4
|  7> end
|  8>
|  9> *xyzfile 0 1 B_T.xyz
| 10>
| 11>                          ****END OF INPUT****

CARTESIAN COORDINATES (ANGSTROEM)
---------------------------------
  C      0.703015    1.815645    0.000000
  H      0.188715    2.202083    0.879664
  H      0.188715    2.202083   -0.879664
  H      1.714336    2.218927    0.000000
  C      0.703015    0.292668    0.000000
  H      1.243418   -0.076944   -0.874426
  H      1.243418   -0.076944    0.874426
  C     -0.703015   -0.292668    0.000000
  H     -1.243418    0.076944   -0.874426
  H     -1.243418    0.076944    0.874426
  C     -0.703015   -1.815645    0.000000
  H     -0.188715   -2.202083    0.879664
  H     -1.714336   -2.218927    0.000000
  H     -0.188715   -2.202083   -0.879664

 Total Charge           Charge          ....    0
 Multiplicity           Mult            ....    1
 Number of Electrons    NEL             ....   34
 Basis Dimension        Dim             ....   80

ORBITAL ENERGIES
----------------

  NO   OCC          E(Eh)            E(eV)
   0   2.0000     -10.426735      -283.7259
   1   2.0000     -10.426508      -283.7197
   2   2.0000     -10.418799      -283.5099
   3   2.0000     -10.418770      -283.5092
   4   2.0000      -0.884923       -24.0800
   5   2.0000      -0.807229       -21.9658
   6   2.0000      -0.705026       -19.1847
   7   2.0000      -0.645804       -17.5732
   8   2.0000      -0.529030       -14.3956
   9   2.0000      -0.482048       -13.1172
  10   2.0000      -0.475084       -12.9277
  11   2.0000      -0.465338       -12.6625
  12   2.0000      -0.418738       -11.3944
  13   2.0000      -0.399309       -10.8657
  14   2.0000      -0.380866       -10.3639
  15   2.0000      -0.368633       -10.0310
  16   2.0000      -0.368617       -10.0306
  17   0.0000       0.140427         3.8212
  18   0.0000       0.166182         4.5220
  19   0.0000       0.193918         5.2768
  20   0.0000       0.202789         5.5182
  21   0.0000       0.204227         5.5573

MULLIKEN ATOMIC CHARGES
-----------------------
   0 C :   -0.638534
   1 H :    0.208680
   2 H :    0.208680
   3 H :    0.218540
   4 C :   -0.405423
   5 H :    0.204028
   6 H :    0.204028
   7 C :   -0.405423
   8 H :    0.204028
   9 H :    0.204028
  10 C :   -0.638534
  11 H :    0.208680
  12 H :    0.218540
  13 H :    0.208680
Sum of atomic charges:   -0.0000000

LOEWDIN ATOMIC CHARGES
----------------------
   0 C :   -0.362620
   1 H :    0.123308
   2 H :    0.123308
   3 H :    0.125992
   4 C :   -0.247737
   5 H :    0.118874
   6 H :    0.118874
   7 C :   -0.247737
   8 H :    0.118874
   9 H :    0.118874
  10 C :   -0.362620
  11 H :    0.123308
  12 H :    0.125992
  13 H :    0.123308

  Mayer bond orders larger than 0.100000
B(  0-C ,  1-H ) :   0.9295 B(  0-C ,  2-H ) :   0.9295 B(  0-C ,  3-H ) :   0.9324
B(  0-C ,  4-C ) :   0.9990 B(  4-C ,  5-H ) :   0.9203 B(  4-C ,  6-H ) :   0.9203
B(  4-C ,  7-C ) :   0.9887 B(  7-C ,  8-H ) :   0.9203 B(  7-C ,  9-H ) :   0.9203
B(  7-C , 10-C ) :   0.9990 B( 10-C , 11-H ) :   0.9295 B( 10-C , 12-H ) :   0.9324
B( 10-C , 13-H ) :   0.9295

Dispersion correction           -0.005117534
FINAL SINGLE POINT ENERGY      -158.106240453720

DIPOLE MOMENT
-------------
                                X             Y             Z
Electronic contribution:      0.00000       0.00000      -0.00000
Nuclear contribution   :      0.00000      -0.00000       0.00000
                        -----------------------------------------
Total Dipole Moment    :      0.00000       0.00000      -0.00000
                        -----------------------------------------
Magnitude (a.u.)       :      0.00000
Magnitude (Debye)      :      0.00000

Rotational constants in cm-1:     0.785729     0.122381     0.114837
Rotational constants in MHz : 23555.572474  3668.877194  3442.719160

                             ****ORCA TERMINATED NORMALLY****
TOTAL RUN TIME: 0 days 0 hours 0 minutes 44 seconds 536 msec
