                         Program Version 5.0.3 -  RELEASE  -
|  1> ! PBEh-3c def2/J TightSCF DefGrid3
|  2>
|  3> %maxcore 60000
|  4>
|  5> %pal
|  6> nprocs 4
|  7> end
|  8>
|  9> *xyzfile 0 1 teh2_hcl.xyz
| 10>
| 11>                          ****END OF INPUT****

CARTESIAN COORDINATES (ANGSTROEM)
---------------------------------
  Te     0.154843   -1.245179    0.000000
  H     -1.400444   -0.751990    0.000000
  H     -0.327704   -2.807302    0.000000
  H      1.418462    2.328237    0.000000
  Cl     0.154843    2.476234    0.000000

 Total Charge           Charge          ....    0
 Multiplicity           Mult            ....    1
 Number of Electrons    NEL             ....   44
 Basis Dimension        Dim             ....   50

ORBITAL ENERGIES
----------------

  NO   OCC          E(Eh)            E(eV)
   0   2.0000    -102.309739     -2783.9895
   1   2.0000      -9.778807      -266.0949
   2   2.0000      -7.466573      -203.1758
   3   2.0000      -7.458025      -202.9432
   4   2.0000      -7.457858      -202.9386
   5   2.0000      -6.502829      -176.9510
   6   2.0000      -4.596636      -125.0808
   7   2.0000      -4.592356      -124.9644
   8   2.0000      -4.581026      -124.6561
   9   2.0000      -1.707533       -46.4643
  10   2.0000      -1.704428       -46.3799
  11   2.0000      -1.693965       -46.0951
  12   2.0000      -1.690288       -45.9951
  13   2.0000      -1.688999       -45.9600
  14   2.0000      -0.939204       -25.5570
  15   2.0000      -0.715631       -19.4733
  16   2.0000      -0.533095       -14.5062
  17   2.0000      -0.438789       -11.9401
  18   2.0000      -0.391677       -10.6581
  19   2.0000      -0.385160       -10.4807
  20   2.0000      -0.370426       -10.0798
  21   2.0000      -0.263223        -7.1627
  22   0.0000       0.013631         0.3709
  23   0.0000       0.057349         1.5605
  24   0.0000       0.075980         2.0675
  25   0.0000       0.263149         7.1606
  26   0.0000       0.336082         9.1452

MULLIKEN ATOMIC CHARGES
-----------------------
   0 Te:   -0.209704
   1 H :    0.098643
   2 H :    0.087204
   3 H :    0.297970
   4 Cl:   -0.274112
Sum of atomic charges:    0.0000000

LOEWDIN ATOMIC CHARGES
----------------------
   0 Te:   -0.141346
   1 H :    0.061900
   2 H :    0.052188
   3 H :    0.186200
   4 Cl:   -0.158942

  Mayer bond orders larger than 0.100000
B(  0-Te,  1-H ) :   0.9707 B(  0-Te,  2-H ) :   0.9661 B(  3-H ,  4-Cl) :   0.8843

Dispersion correction           -0.001293637
FINAL SINGLE POINT ENERGY      -729.526373096467

DIPOLE MOMENT
-------------
                                X             Y             Z
Electronic contribution:      1.48405     -56.94940       0.00000
Nuclear contribution   :     -1.07234      56.96597       0.00000
                        -----------------------------------------
Total Dipole Moment    :      0.41171       0.01657       0.00000
                        -----------------------------------------
Magnitude (a.u.)       :      0.41205
Magnitude (Debye)      :      1.04734

Rotational constants in cm-1:     4.003341     0.042381     0.041937
Rotational constants in MHz : 120017.157233  1270.537339  1257.227949

                             ****ORCA TERMINATED NORMALLY****
TOTAL RUN TIME: 0 days 0 hours 1 minutes 9 seconds 463 msec
