                         Program Version 5.0.3 -  RELEASE  -
|  1> ! PBEh-3c def2/J TightSCF DefGrid3
|  2>
|  3> %maxcore 60000
|  4>
|  5> %pal
|  6> nprocs 4
|  7> end
|  8>
|  9> *xyzfile 0 1 31.xyz
| 10>
| 11>                          ****END OF INPUT****

CARTESIAN COORDINATES (ANGSTROEM)
---------------------------------
  N     -0.043203   -1.221211   -1.126963
  H     -0.045552   -2.231823   -1.111104
  C     -1.301143   -0.603006   -1.156899
  O     -2.319549   -1.273685   -1.166754
  C     -1.229148    0.846919   -1.173150
  H     -2.145068    1.410331   -1.215700
  C     -0.027524    1.456706   -1.127220
  H      0.078037    2.531346   -1.129043
  N      1.142199    0.749153   -1.069081
  H      2.031391    1.215642   -1.005232
  C      1.200856   -0.632963   -1.045150
  O      2.244068   -1.252318   -0.966740
  C      0.733677   -0.216076    2.237265
  H      1.250795   -1.087064    1.860038
  H      1.339289    0.570918    2.664579
  C     -0.595099   -0.115486    2.188018
  H     -1.207102   -0.902965    1.771117
  H     -1.106924    0.755584    2.572018

 Total Charge           Charge          ....    0
 Multiplicity           Mult            ....    1
 Number of Electrons    NEL             ....   74
 Basis Dimension        Dim             ....  166

ORBITAL ENERGIES
----------------

  NO   OCC          E(Eh)            E(eV)
   0   2.0000     -19.481893      -530.1293
   1   2.0000     -19.475478      -529.9547
   2   2.0000     -14.715199      -400.4209
   3   2.0000     -14.695418      -399.8826
   4   2.0000     -10.607935      -288.6566
   5   2.0000     -10.572471      -287.6916
   6   2.0000     -10.535363      -286.6818
   7   2.0000     -10.464467      -284.7526
   8   2.0000     -10.443343      -284.1778
   9   2.0000     -10.442268      -284.1486
  10   2.0000      -1.195295       -32.5256
  11   2.0000      -1.157007       -31.4838
  12   2.0000      -1.091386       -29.6981
  13   2.0000      -1.032882       -28.1061
  14   2.0000      -0.896967       -24.4077
  15   2.0000      -0.851842       -23.1798
  16   2.0000      -0.777829       -21.1658
  17   2.0000      -0.748463       -20.3667
  18   2.0000      -0.675924       -18.3928
  19   2.0000      -0.654483       -17.8094
  20   2.0000      -0.634541       -17.2667
  21   2.0000      -0.591645       -16.0995
  22   2.0000      -0.553578       -15.0636
  23   2.0000      -0.542625       -14.7656
  24   2.0000      -0.531849       -14.4724
  25   2.0000      -0.520822       -14.1723
  26   2.0000      -0.489406       -13.3174
  27   2.0000      -0.484272       -13.1777
  28   2.0000      -0.479081       -13.0364
  29   2.0000      -0.467475       -12.7207
  30   2.0000      -0.428279       -11.6541
  31   2.0000      -0.410485       -11.1699
  32   2.0000      -0.360459        -9.8086
  33   2.0000      -0.340493        -9.2653
  34   2.0000      -0.327670        -8.9164
  35   2.0000      -0.318607        -8.6697
  36   2.0000      -0.297144        -8.0857
  37   0.0000      -0.019941        -0.5426
  38   0.0000       0.032825         0.8932
  39   0.0000       0.043883         1.1941
  40   0.0000       0.098535         2.6813
  41   0.0000       0.146801         3.9947

MULLIKEN ATOMIC CHARGES
-----------------------
   0 N :   -0.720654
   1 H :    0.395890
   2 C :    0.562132
   3 O :   -0.395794
   4 C :   -0.445270
   5 H :    0.263490
   6 C :    0.092490
   7 H :    0.270707
   8 N :   -0.674327
   9 H :    0.390836
  10 C :    0.681660
  11 O :   -0.418946
  12 C :   -0.455079
  13 H :    0.233774
  14 H :    0.211259
  15 C :   -0.440662
  16 H :    0.233240
  17 H :    0.215252
Sum of atomic charges:    0.0000000

LOEWDIN ATOMIC CHARGES
----------------------
   0 N :   -0.202262
   1 H :    0.284835
   2 C :    0.122151
   3 O :   -0.246332
   4 C :   -0.239111
   5 H :    0.162507
   6 C :   -0.008674
   7 H :    0.149003
   8 N :   -0.182270
   9 H :    0.281286
  10 C :    0.144842
  11 O :   -0.266684
  12 C :   -0.270316
  13 H :    0.136559
  14 H :    0.127721
  15 C :   -0.259689
  16 H :    0.136642
  17 H :    0.129790

  Mayer bond orders larger than 0.100000
B(  0-N ,  1-H ) :   0.8009 B(  0-N ,  2-C ) :   0.9762 B(  0-N , 10-C ) :   1.0623
B(  2-C ,  3-O ) :   2.0358 B(  2-C ,  4-C ) :   1.0616 B(  4-C ,  5-H ) :   0.9076
B(  4-C ,  6-C ) :   1.6418 B(  6-C ,  7-H ) :   0.8999 B(  6-C ,  8-N ) :   1.0778
B(  8-N ,  9-H ) :   0.8101 B(  8-N , 10-C ) :   1.0235 B( 10-C , 11-O ) :   2.0419
B( 12-C , 13-H ) :   0.9204 B( 12-C , 14-H ) :   0.9332 B( 12-C , 15-C ) :   1.9633
B( 15-C , 16-H ) :   0.9213 B( 15-C , 17-H ) :   0.9316

Dispersion correction           -0.010281935
FINAL SINGLE POINT ENERGY      -492.348674434065

DIPOLE MOMENT
-------------
                                X             Y             Z
Electronic contribution:      0.32704      -2.31831      -7.38170
Nuclear contribution   :      0.20130       4.01545       7.39553
                        -----------------------------------------
Total Dipole Moment    :      0.52834       1.69714       0.01383
                        -----------------------------------------
Magnitude (a.u.)       :      1.77753
Magnitude (Debye)      :      4.51813

Rotational constants in cm-1:     0.045696     0.041147     0.032754
Rotational constants in MHz :  1369.942741  1233.564365   981.947699

                             ****ORCA TERMINATED NORMALLY****
TOTAL RUN TIME: 0 days 0 hours 1 minutes 59 seconds 473 msec
