                         Program Version 5.0.3 -  RELEASE  -
|  1> ! PBEh-3c def2/J TightSCF DefGrid3
|  2>
|  3> %maxcore 60000
|  4>
|  5> %pal
|  6> nprocs 4
|  7> end
|  8>
|  9> *xyzfile 0 1 23.xyz
| 10>
| 11>                          ****END OF INPUT****

CARTESIAN COORDINATES (ANGSTROEM)
---------------------------------
  N      0.525205    2.518245   -0.254578
  C      1.443650    1.758082   -0.945212
  C      0.877215    0.557514   -1.311867
  C     -0.467490    0.577365   -0.809708
  C     -1.527072   -0.349665   -0.843201
  C     -2.726610   -0.005052   -0.244992
  C     -2.902637    1.244553    0.390970
  C     -1.872698    2.170349    0.444299
  C     -0.656027    1.820837   -0.154491
  H      0.699768    3.431929    0.122596
  H      2.444264    2.124043   -1.108682
  H     -1.435922   -1.309704   -1.334761
  H     -3.867917    1.475982    0.820659
  H     -2.013226    3.129388    0.925951
  O     -3.790049   -0.887733   -0.312586
  C     -4.030884   -1.550136    0.925844
  H     -4.265645   -0.837534    1.719415
  H     -3.160808   -2.140187    1.224414
  H     -4.881338   -2.208248    0.768242
  C      1.566245   -0.599988   -1.959728
  C      2.165758   -1.563108   -0.916809
  N      3.220542   -0.949620   -0.131659
  C      3.074516   -0.248604    1.040902
  C      1.822768   -0.513768    1.850345
  H      2.369363   -0.248473   -2.612053
  H      0.865866   -1.154489   -2.589587
  H      2.575887   -2.440788   -1.420316
  H      1.384675   -1.912144   -0.244168
  H      4.054990   -0.679586   -0.631698
  O      3.950705    0.512307    1.429118
  H      1.686922   -1.581201    2.024799
  H      0.938261   -0.137742    1.336765
  H      1.931720   -0.002825    2.801784

 Total Charge           Charge          ....    0
 Multiplicity           Mult            ....    1
 Number of Electrons    NEL             ....  124
 Basis Dimension        Dim             ....  287

ORBITAL ENERGIES
----------------

  NO   OCC          E(Eh)            E(eV)
   0   2.0000     -19.507265      -530.8197
   1   2.0000     -19.444985      -529.1249
   2   2.0000     -14.689464      -399.7206
   3   2.0000     -14.650391      -398.6574
   4   2.0000     -10.539761      -286.8015
   5   2.0000     -10.496677      -285.6291
   6   2.0000     -10.484161      -285.2885
   7   2.0000     -10.482886      -285.2538
   8   2.0000     -10.482840      -285.2526
   9   2.0000     -10.482656      -285.2476
  10   2.0000     -10.456919      -284.5472
  11   2.0000     -10.452273      -284.4208
  12   2.0000     -10.450825      -284.3814
  13   2.0000     -10.447473      -284.2902
  14   2.0000     -10.446495      -284.2636
  15   2.0000     -10.445518      -284.2370
  16   2.0000     -10.428066      -283.7621
  17   2.0000      -1.155656       -31.4470
  18   2.0000      -1.130548       -30.7638
  19   2.0000      -1.092157       -29.7191
  20   2.0000      -1.015835       -27.6423
  21   2.0000      -0.941329       -25.6149
  22   2.0000      -0.901990       -24.5444
  23   2.0000      -0.845967       -23.0199
  24   2.0000      -0.832404       -22.6509
  25   2.0000      -0.817217       -22.2376
  26   2.0000      -0.805485       -21.9184
  27   2.0000      -0.768594       -20.9145
  28   2.0000      -0.732332       -19.9278
  29   2.0000      -0.702250       -19.1092
  30   2.0000      -0.670028       -18.2324
  31   2.0000      -0.642372       -17.4798
  32   2.0000      -0.634998       -17.2792
  33   2.0000      -0.615743       -16.7552
  34   2.0000      -0.574036       -15.6203
  35   2.0000      -0.559002       -15.2112
  36   2.0000      -0.548218       -14.9178
  37   2.0000      -0.540305       -14.7024
  38   2.0000      -0.525842       -14.3089
  39   2.0000      -0.522005       -14.2045
  40   2.0000      -0.517423       -14.0798
  41   2.0000      -0.508363       -13.8333
  42   2.0000      -0.497106       -13.5269
  43   2.0000      -0.483592       -13.1592
  44   2.0000      -0.479588       -13.0503
  45   2.0000      -0.476156       -12.9569
  46   2.0000      -0.463464       -12.6115
  47   2.0000      -0.455652       -12.3989
  48   2.0000      -0.448977       -12.2173
  49   2.0000      -0.444783       -12.1032
  50   2.0000      -0.431054       -11.7296
  51   2.0000      -0.423416       -11.5217
  52   2.0000      -0.406915       -11.0727
  53   2.0000      -0.403862       -10.9896
  54   2.0000      -0.395611       -10.7651
  55   2.0000      -0.377805       -10.2806
  56   2.0000      -0.329505        -8.9663
  57   2.0000      -0.327332        -8.9072
  58   2.0000      -0.300008        -8.1636
  59   2.0000      -0.290582        -7.9071
  60   2.0000      -0.258055        -7.0220
  61   2.0000      -0.245574        -6.6824
  62   0.0000       0.000825         0.0225
  63   0.0000       0.045198         1.2299
  64   0.0000       0.070101         1.9075
  65   0.0000       0.082881         2.2553
  66   0.0000       0.123803         3.3688

MULLIKEN ATOMIC CHARGES
-----------------------
   0 N :   -0.692696
   1 C :   -0.041090
   2 C :    0.000755
   3 C :    0.067345
   4 C :   -0.433110
   5 C :    0.363025
   6 C :   -0.312963
   7 C :   -0.264914
   8 C :    0.355548
   9 H :    0.363046
  10 H :    0.254747
  11 H :    0.215167
  12 H :    0.229070
  13 H :    0.217769
  14 O :   -0.485265
  15 C :   -0.376743
  16 H :    0.198588
  17 H :    0.200355
  18 H :    0.221371
  19 C :   -0.529431
  20 C :   -0.289735
  21 N :   -0.597711
  22 C :    0.495031
  23 C :   -0.783026
  24 H :    0.228979
  25 H :    0.231458
  26 H :    0.235028
  27 H :    0.239815
  28 H :    0.349952
  29 O :   -0.426867
  30 H :    0.231250
  31 H :    0.271921
  32 H :    0.263333
Sum of atomic charges:    0.0000000

LOEWDIN ATOMIC CHARGES
----------------------
   0 N :   -0.151295
   1 C :   -0.071008
   2 C :   -0.115463
   3 C :   -0.061357
   4 C :   -0.155443
   5 C :    0.043577
   6 C :   -0.159532
   7 C :   -0.151020
   8 C :    0.009181
   9 H :    0.265031
  10 H :    0.142524
  11 H :    0.143140
  12 H :    0.142589
  13 H :    0.138435
  14 O :   -0.219743
  15 C :   -0.172431
  16 H :    0.107956
  17 H :    0.109518
  18 H :    0.124608
  19 C :   -0.236154
  20 C :   -0.145194
  21 N :   -0.247786
  22 C :    0.108723
  23 C :   -0.399323
  24 H :    0.133291
  25 H :    0.136858
  26 H :    0.124400
  27 H :    0.133930
  28 H :    0.252833
  29 O :   -0.282008
  30 H :    0.140684
  31 H :    0.157511
  32 H :    0.152966

  Mayer bond orders larger than 0.100000
B(  0-N ,  1-C ) :   1.1380 B(  0-N ,  8-C ) :   1.0171 B(  0-N ,  9-H ) :   0.8317
B(  1-C ,  2-C ) :   1.5537 B(  1-C , 10-H ) :   0.9050 B(  2-C ,  3-C ) :   1.2462
B(  2-C , 19-C ) :   0.9540 B(  3-C ,  4-C ) :   1.2418 B(  3-C ,  8-C ) :   1.2446
B(  4-C ,  5-C ) :   1.4876 B(  4-C , 11-H ) :   0.9294 B(  5-C ,  6-C ) :   1.3158
B(  5-C , 14-O ) :   0.9528 B(  6-C ,  7-C ) :   1.4856 B(  6-C , 12-H ) :   0.9118
B(  7-C ,  8-C ) :   1.2919 B(  7-C , 13-H ) :   0.9198 B( 14-O , 15-C ) :   0.9524
B( 15-C , 16-H ) :   0.9115 B( 15-C , 17-H ) :   0.9130 B( 15-C , 18-H ) :   0.9281
B( 19-C , 20-C ) :   0.9467 B( 19-C , 24-H ) :   0.9263 B( 19-C , 25-H ) :   0.9127
B( 20-C , 21-N ) :   0.9724 B( 20-C , 26-H ) :   0.9129 B( 20-C , 27-H ) :   0.9040
B( 21-N , 22-C ) :   1.1360 B( 21-N , 28-H ) :   0.8264 B( 22-C , 23-C ) :   0.9327
B( 22-C , 29-O ) :   2.0258 B( 23-C , 30-H ) :   0.9119 B( 23-C , 31-H ) :   0.8874
B( 23-C , 32-H ) :   0.9190

Dispersion correction           -0.022945745
FINAL SINGLE POINT ENERGY      -763.324061497685

DIPOLE MOMENT
-------------
                                X             Y             Z
Electronic contribution:      1.20152       7.47629      -2.89646
Nuclear contribution   :     -1.61442      -7.51903       2.75342
                        -----------------------------------------
Total Dipole Moment    :     -0.41290      -0.04274      -0.14304
                        -----------------------------------------
Magnitude (a.u.)       :      0.43907
Magnitude (Debye)      :      1.11601

Rotational constants in cm-1:     0.026487     0.009735     0.008996
Rotational constants in MHz :   794.058070   291.849918   269.683199

                             ****ORCA TERMINATED NORMALLY****
TOTAL RUN TIME: 0 days 0 hours 4 minutes 57 seconds 580 msec
