                         Program Version 5.0.3 -  RELEASE  -
|  1> ! PBEh-3c def2/J TightSCF DefGrid3
|  2>
|  3> %maxcore 60000
|  4>
|  5> %pal
|  6> nprocs 4
|  7> end
|  8>
|  9> *xyzfile 0 1 G3.xyz
| 10>
| 11>                          ****END OF INPUT****

CARTESIAN COORDINATES (ANGSTROEM)
---------------------------------
  C     -0.112885   -1.418638   -0.780362
  O      0.409592   -0.236549   -1.363648
  C      0.619800    0.889906   -0.502538
  C     -0.610116    1.207578    0.367781
  C     -1.439006   -1.162435   -0.046267
  C     -1.247603   -0.050889    1.009516
  O     -0.486797   -0.499195    2.124550
  O     -1.660438    1.793834   -0.422680
  C      1.931151    0.774794    0.328828
  O      2.882254   -0.116345   -0.256160
  H      0.129114   -1.185827    1.802964
  H     -1.335903    2.594302   -0.864241
  H      2.976338    0.089209   -1.200714
  O      0.793330   -1.988476    0.160863
  O     -2.470747   -0.863513   -0.970219
  H     -2.231803    0.245771    1.385863
  H     -0.318410    1.895038    1.174214
  H      0.751512    1.711942   -1.219023
  H      2.363465    1.780059    0.437354
  H      1.703488   -1.750095   -0.111972
  H     -2.393889    0.076703   -1.216359
  H     -0.265721   -2.088282   -1.632305
  H     -1.732896   -2.085261    0.464248
  H      1.746172    0.386370    1.330311

 Total Charge           Charge          ....    0
 Multiplicity           Mult            ....    1
 Number of Electrons    NEL             ....   96
 Basis Dimension        Dim             ....  204

ORBITAL ENERGIES
----------------

  NO   OCC          E(Eh)            E(eV)
   0   2.0000     -19.522734      -531.2406
   1   2.0000     -19.521268      -531.2007
   2   2.0000     -19.521133      -531.1970
   3   2.0000     -19.507473      -530.8253
   4   2.0000     -19.485480      -530.2269
   5   2.0000     -19.480817      -530.1000
   6   2.0000     -10.545773      -286.9651
   7   2.0000     -10.519725      -286.2563
   8   2.0000     -10.513380      -286.0836
   9   2.0000     -10.506386      -285.8933
  10   2.0000     -10.498461      -285.6777
  11   2.0000     -10.492389      -285.5124
  12   2.0000      -1.195222       -32.5237
  13   2.0000      -1.153197       -31.3801
  14   2.0000      -1.146947       -31.2100
  15   2.0000      -1.125444       -30.6249
  16   2.0000      -1.116727       -30.3877
  17   2.0000      -1.110658       -30.2225
  18   2.0000      -0.882431       -24.0122
  19   2.0000      -0.851534       -23.1714
  20   2.0000      -0.787075       -21.4174
  21   2.0000      -0.732873       -19.9425
  22   2.0000      -0.723063       -19.6755
  23   2.0000      -0.645756       -17.5719
  24   2.0000      -0.627643       -17.0790
  25   2.0000      -0.610075       -16.6010
  26   2.0000      -0.590826       -16.0772
  27   2.0000      -0.578017       -15.7286
  28   2.0000      -0.558896       -15.2083
  29   2.0000      -0.542410       -14.7597
  30   2.0000      -0.525968       -14.3123
  31   2.0000      -0.517441       -14.0803
  32   2.0000      -0.513772       -13.9805
  33   2.0000      -0.491141       -13.3646
  34   2.0000      -0.473068       -12.8728
  35   2.0000      -0.469738       -12.7822
  36   2.0000      -0.462200       -12.5771
  37   2.0000      -0.451743       -12.2926
  38   2.0000      -0.431732       -11.7480
  39   2.0000      -0.410260       -11.1637
  40   2.0000      -0.395716       -10.7680
  41   2.0000      -0.383843       -10.4449
  42   2.0000      -0.368011       -10.0141
  43   2.0000      -0.357861        -9.7379
  44   2.0000      -0.354796        -9.6545
  45   2.0000      -0.340858        -9.2752
  46   2.0000      -0.321329        -8.7438
  47   2.0000      -0.306722        -8.3463
  48   0.0000       0.090343         2.4584
  49   0.0000       0.097549         2.6544
  50   0.0000       0.122822         3.3421
  51   0.0000       0.141755         3.8573
  52   0.0000       0.149751         4.0749

MULLIKEN ATOMIC CHARGES
-----------------------
   0 C :    0.234349
   1 O :   -0.485635
   2 C :   -0.055955
   3 C :   -0.008464
   4 C :   -0.032592
   5 C :   -0.012045
   6 O :   -0.652837
   7 O :   -0.649180
   8 C :   -0.191844
   9 O :   -0.632485
  10 H :    0.441171
  11 H :    0.423480
  12 H :    0.426295
  13 O :   -0.677523
  14 O :   -0.642484
  15 H :    0.257760
  16 H :    0.228813
  17 H :    0.212146
  18 H :    0.208246
  19 H :    0.451613
  20 H :    0.434573
  21 H :    0.230738
  22 H :    0.249514
  23 H :    0.242347
Sum of atomic charges:   -0.0000000

LOEWDIN ATOMIC CHARGES
----------------------
   0 C :    0.076726
   1 O :   -0.242220
   2 C :   -0.048676
   3 C :   -0.039515
   4 C :   -0.053618
   5 C :   -0.032340
   6 O :   -0.404053
   7 O :   -0.396265
   8 C :   -0.117964
   9 O :   -0.399226
  10 H :    0.311487
  11 H :    0.314762
  12 H :    0.316666
  13 O :   -0.409152
  14 O :   -0.392974
  15 H :    0.137514
  16 H :    0.123513
  17 H :    0.118854
  18 H :    0.113456
  19 H :    0.320271
  20 H :    0.312486
  21 H :    0.119100
  22 H :    0.137229
  23 H :    0.133940

  Mayer bond orders larger than 0.100000
B(  0-C ,  1-O ) :   0.9785 B(  0-C ,  4-C ) :   0.8992 B(  0-C , 13-O ) :   0.9888
B(  0-C , 21-H ) :   0.8989 B(  1-O ,  2-C ) :   0.9901 B(  2-C ,  3-C ) :   0.9037
B(  2-C ,  8-C ) :   0.9178 B(  2-C , 17-H ) :   0.9205 B(  3-C ,  5-C ) :   0.9200
B(  3-C ,  7-O ) :   0.9419 B(  3-C , 16-H ) :   0.8959 B(  4-C ,  5-C ) :   0.9309
B(  4-C , 14-O ) :   1.0410 B(  4-C , 22-H ) :   0.8904 B(  5-C ,  6-O ) :   1.0280
B(  5-C , 15-H ) :   0.8915 B(  6-O , 10-H ) :   0.7162 B(  7-O , 11-H ) :   0.7814
B(  8-C ,  9-O ) :   0.9794 B(  8-C , 18-H ) :   0.9012 B(  8-C , 23-H ) :   0.8934
B(  9-O , 12-H ) :   0.7782 B( 13-O , 19-H ) :   0.7074 B( 14-O , 20-H ) :   0.7348

Dispersion correction           -0.014764174
FINAL SINGLE POINT ENERGY      -685.706814427458

DIPOLE MOMENT
-------------
                                X             Y             Z
Electronic contribution:     -1.37152      -1.76528      -1.50555
Nuclear contribution   :      2.39569       3.17552       0.74339
                        -----------------------------------------
Total Dipole Moment    :      1.02416       1.41024      -0.76216
                        -----------------------------------------
Magnitude (a.u.)       :      1.90225
Magnitude (Debye)      :      4.83515

Rotational constants in cm-1:     0.042567     0.028696     0.025665
Rotational constants in MHz :  1276.134639   860.284111   769.410838

                             ****ORCA TERMINATED NORMALLY****
TOTAL RUN TIME: 0 days 0 hours 2 minutes 14 seconds 785 msec
