                         Program Version 5.0.3 -  RELEASE  -
|  1> ! PBEh-3c def2/J TightSCF DefGrid3
|  2>
|  3> %maxcore 60000
|  4>
|  5> %pal
|  6> nprocs 4
|  7> end
|  8>
|  9> *xyzfile 0 1 22.xyz
| 10>
| 11>                          ****END OF INPUT****

CARTESIAN COORDINATES (ANGSTROEM)
---------------------------------
  N     -2.677362   -0.805313    0.086063
  H     -3.108270   -1.707394    0.239835
  H     -3.022194   -0.452723   -0.797594
  H     -3.016044   -0.176598    0.803273
  P      0.185983   -0.636312   -0.203578
  H     -0.041253   -1.026698    1.131205
  C     -0.385882    1.050814   -0.015178
  C      1.937219   -0.269817    0.046196
  N     -0.814712    2.116016    0.011744
  N      3.076359   -0.136116    0.115170

 Total Charge           Charge          ....    0
 Multiplicity           Mult            ....    1
 Number of Electrons    NEL             ....   52
 Basis Dimension        Dim             ....  101

ORBITAL ENERGIES
----------------

  NO   OCC          E(Eh)            E(eV)
   0   2.0000     -77.824051     -2117.7001
   1   2.0000     -14.664394      -399.0385
   2   2.0000     -14.659969      -398.9180
   3   2.0000     -14.646099      -398.5406
   4   2.0000     -10.503190      -285.8063
   5   2.0000     -10.493987      -285.5559
   6   2.0000      -6.895211      -187.6282
   7   2.0000      -4.986140      -135.6798
   8   2.0000      -4.985411      -135.6599
   9   2.0000      -4.983357      -135.6040
  10   2.0000      -1.027900       -27.9706
  11   2.0000      -1.020332       -27.7646
  12   2.0000      -0.979999       -26.6671
  13   2.0000      -0.823614       -22.4117
  14   2.0000      -0.605219       -16.4689
  15   2.0000      -0.557216       -15.1626
  16   2.0000      -0.555388       -15.1129
  17   2.0000      -0.540938       -14.7197
  18   2.0000      -0.460002       -12.5173
  19   2.0000      -0.443533       -12.0691
  20   2.0000      -0.440337       -11.9822
  21   2.0000      -0.415172       -11.2974
  22   2.0000      -0.409761       -11.1502
  23   2.0000      -0.399887       -10.8815
  24   2.0000      -0.363687        -9.8964
  25   2.0000      -0.338515        -9.2115
  26   0.0000      -0.012209        -0.3322
  27   0.0000       0.011049         0.3007
  28   0.0000       0.028934         0.7873
  29   0.0000       0.050498         1.3741
  30   0.0000       0.086527         2.3545

MULLIKEN ATOMIC CHARGES
-----------------------
   0 N :   -0.966525
   1 H :    0.342269
   2 H :    0.347489
   3 H :    0.348141
   4 P :    0.364197
   5 H :    0.161483
   6 C :   -0.125625
   7 C :   -0.156770
   8 N :   -0.162781
   9 N :   -0.151878
Sum of atomic charges:   -0.0000000

LOEWDIN ATOMIC CHARGES
----------------------
   0 N :   -0.620620
   1 H :    0.229825
   2 H :    0.234691
   3 H :    0.234641
   4 P :    0.335946
   5 H :    0.081311
   6 C :   -0.176570
   7 C :   -0.202162
   8 N :   -0.063633
   9 N :   -0.053428

  Mayer bond orders larger than 0.100000
B(  0-N ,  1-H ) :   0.8626 B(  0-N ,  2-H ) :   0.8601 B(  0-N ,  3-H ) :   0.8578
B(  0-N ,  4-P ) :   0.1027 B(  4-P ,  5-H ) :   0.9356 B(  4-P ,  6-C ) :   0.9366
B(  4-P ,  7-C ) :   0.8915 B(  6-C ,  8-N ) :   3.0809 B(  7-C ,  9-N ) :   3.0760

Dispersion correction           -0.004605337
FINAL SINGLE POINT ENERGY      -583.230678331590

DIPOLE MOMENT
-------------
                                X             Y             Z
Electronic contribution:      7.00537       1.28872      -1.37043
Nuclear contribution   :     -9.05314      -2.65826       1.51913
                        -----------------------------------------
Total Dipole Moment    :     -2.04777      -1.36954       0.14870
                        -----------------------------------------
Magnitude (a.u.)       :      2.46802
Magnitude (Debye)      :      6.27321

Rotational constants in cm-1:     0.157764     0.052366     0.040100
Rotational constants in MHz :  4729.653637  1569.889681  1202.171756

                             ****ORCA TERMINATED NORMALLY****
TOTAL RUN TIME: 0 days 0 hours 1 minutes 15 seconds 454 msec
