                         Program Version 5.0.3 -  RELEASE  -
|  1> ! PBEh-3c def2/J TightSCF DefGrid3
|  2>
|  3> %maxcore 60000
|  4>
|  5> %pal
|  6> nprocs 4
|  7> end
|  8>
|  9> *xyzfile 0 1 9a.xyz
| 10>
| 11>                          ****END OF INPUT****

CARTESIAN COORDINATES (ANGSTROEM)
---------------------------------
  C     -0.549184    0.146266    0.000000
  O     -1.033573   -0.956454    0.000000
  S      1.179203    0.512756    0.000000
  H     -1.147910    1.067750    0.000000
  H      1.551464   -0.770318    0.000000

 Total Charge           Charge          ....    0
 Multiplicity           Mult            ....    1
 Number of Electrons    NEL             ....   32
 Basis Dimension        Dim             ....   52

ORBITAL ENERGIES
----------------

  NO   OCC          E(Eh)            E(eV)
   0   2.0000     -89.613350     -2438.5032
   1   2.0000     -19.516229      -531.0636
   2   2.0000     -10.575480      -287.7735
   3   2.0000      -8.257252      -224.6913
   4   2.0000      -6.147686      -167.2871
   5   2.0000      -6.144068      -167.1886
   6   2.0000      -6.140375      -167.0881
   7   2.0000      -1.181409       -32.1478
   8   2.0000      -0.878601       -23.9080
   9   2.0000      -0.689506       -18.7624
  10   2.0000      -0.546770       -14.8784
  11   2.0000      -0.529447       -14.4070
  12   2.0000      -0.477296       -12.9879
  13   2.0000      -0.448937       -12.2162
  14   2.0000      -0.332290        -9.0421
  15   2.0000      -0.330490        -8.9931
  16   0.0000      -0.003525        -0.0959
  17   0.0000       0.042980         1.1696
  18   0.0000       0.114027         3.1028
  19   0.0000       0.216264         5.8848
  20   0.0000       0.248864         6.7719

MULLIKEN ATOMIC CHARGES
-----------------------
   0 C :    0.034413
   1 O :   -0.306205
   2 S :   -0.152131
   3 H :    0.206456
   4 H :    0.217466
Sum of atomic charges:   -0.0000000

LOEWDIN ATOMIC CHARGES
----------------------
   0 C :   -0.078920
   1 O :   -0.195726
   2 S :    0.043101
   3 H :    0.103431
   4 H :    0.128113

  Mayer bond orders larger than 0.100000
B(  0-C ,  1-O ) :   2.0600 B(  0-C ,  2-S ) :   1.0655 B(  0-C ,  3-H ) :   0.8443
B(  1-O ,  2-S ) :   0.1341 B(  2-S ,  4-H ) :   0.9101

Dispersion correction           -0.001471047
FINAL SINGLE POINT ENERGY      -512.013356710046

DIPOLE MOMENT
-------------
                                X             Y             Z
Electronic contribution:      0.47562       0.28620      -0.00000
Nuclear contribution   :     -0.12311       0.15428       0.00000
                        -----------------------------------------
Total Dipole Moment    :      0.35250       0.44047      -0.00000
                        -----------------------------------------
Magnitude (a.u.)       :      0.56416
Magnitude (Debye)      :      1.43397

Rotational constants in cm-1:     2.079674     0.205118     0.186703
Rotational constants in MHz : 62347.055872  6149.279680  5597.226198

                             ****ORCA TERMINATED NORMALLY****
TOTAL RUN TIME: 0 days 0 hours 0 minutes 59 seconds 662 msec
