                         Program Version 5.0.3 -  RELEASE  -
|  1> ! PBEh-3c def2/J TightSCF DefGrid3
|  2>
|  3> %maxcore 60000
|  4>
|  5> %pal
|  6> nprocs 4
|  7> end
|  8>
|  9> *xyzfile 0 1 R57.xyz
| 10>
| 11>                          ****END OF INPUT****

CARTESIAN COORDINATES (ANGSTROEM)
---------------------------------
  C      0.000000    1.190474    0.026473
  C      0.000000    0.732134   -1.237476
  C      0.000000   -0.732134   -1.237476
  C      0.000000   -1.190474    0.026473
  C      0.000000    0.000000    0.952437
  C      0.000000    2.602182    0.502970
  C      0.000000   -2.602182    0.502970
  H      0.000000    1.345416   -2.127560
  H      0.000000   -1.345416   -2.127560
  H     -0.875055    0.000000    1.611908
  H      0.875055    0.000000    1.611908
  H     -0.876877    2.817896    1.120235
  H      0.000000    3.300009   -0.333923
  H      0.876877    2.817896    1.120235
  H      0.000000   -3.300009   -0.333923
  H     -0.876877   -2.817896    1.120235
  H      0.876877   -2.817896    1.120235

 Total Charge           Charge          ....    0
 Multiplicity           Mult            ....    1
 Number of Electrons    NEL             ....   52
 Basis Dimension        Dim             ....  125

ORBITAL ENERGIES
----------------

  NO   OCC          E(Eh)            E(eV)
   0   2.0000     -10.440686      -284.1055
   1   2.0000     -10.440676      -284.1052
   2   2.0000     -10.436989      -284.0049
   3   2.0000     -10.430341      -283.8240
   4   2.0000     -10.430331      -283.8237
   5   2.0000     -10.427883      -283.7571
   6   2.0000     -10.427583      -283.7490
   7   2.0000      -0.954865       -25.9832
   8   2.0000      -0.850680       -23.1482
   9   2.0000      -0.802636       -21.8408
  10   2.0000      -0.771387       -20.9905
  11   2.0000      -0.716429       -19.4950
  12   2.0000      -0.601105       -16.3569
  13   2.0000      -0.579129       -15.7589
  14   2.0000      -0.536754       -14.6058
  15   2.0000      -0.505882       -13.7657
  16   2.0000      -0.469405       -12.7732
  17   2.0000      -0.469332       -12.7712
  18   2.0000      -0.464525       -12.6404
  19   2.0000      -0.441144       -12.0041
  20   2.0000      -0.432354       -11.7650
  21   2.0000      -0.401345       -10.9212
  22   2.0000      -0.399724       -10.8770
  23   2.0000      -0.379025       -10.3138
  24   2.0000      -0.335612        -9.1325
  25   2.0000      -0.237496        -6.4626
  26   0.0000       0.017675         0.4810
  27   0.0000       0.124354         3.3838
  28   0.0000       0.154583         4.2064
  29   0.0000       0.159510         4.3405
  30   0.0000       0.181864         4.9488

MULLIKEN ATOMIC CHARGES
-----------------------
   0 C :    0.086698
   1 C :   -0.244445
   2 C :   -0.244445
   3 C :    0.086698
   4 C :   -0.506746
   5 C :   -0.705951
   6 C :   -0.705950
   7 H :    0.204421
   8 H :    0.204421
   9 H :    0.240723
  10 H :    0.240723
  11 H :    0.221634
  12 H :    0.228660
  13 H :    0.221634
  14 H :    0.228660
  15 H :    0.221634
  16 H :    0.221634
Sum of atomic charges:    0.0000000

LOEWDIN ATOMIC CHARGES
----------------------
   0 C :   -0.063822
   1 C :   -0.157883
   2 C :   -0.157883
   3 C :   -0.063822
   4 C :   -0.221444
   5 C :   -0.350826
   6 C :   -0.350826
   7 H :    0.128717
   8 H :    0.128717
   9 H :    0.150895
  10 H :    0.150895
  11 H :    0.133520
  12 H :    0.136600
  13 H :    0.133520
  14 H :    0.136600
  15 H :    0.133520
  16 H :    0.133520

  Mayer bond orders larger than 0.100000
B(  0-C ,  1-C ) :   1.7798 B(  0-C ,  4-C ) :   1.0011 B(  0-C ,  5-C ) :   0.9749
B(  1-C ,  2-C ) :   1.1114 B(  1-C ,  7-H ) :   0.9248 B(  2-C ,  3-C ) :   1.7798
B(  2-C ,  8-H ) :   0.9248 B(  3-C ,  4-C ) :   1.0011 B(  3-C ,  6-C ) :   0.9749
B(  4-C ,  9-H ) :   0.8921 B(  4-C , 10-H ) :   0.8921 B(  5-C , 11-H ) :   0.9181
B(  5-C , 12-H ) :   0.9323 B(  5-C , 13-H ) :   0.9181 B(  6-C , 14-H ) :   0.9323
B(  6-C , 15-H ) :   0.9181 B(  6-C , 16-H ) :   0.9181

Dispersion correction           -0.008274800
FINAL SINGLE POINT ENERGY      -272.137172644900

DIPOLE MOMENT
-------------
                                X             Y             Z
Electronic contribution:      0.00000       0.00000      -2.59251
Nuclear contribution   :      0.00000      -0.00000       2.88527
                        -----------------------------------------
Total Dipole Moment    :      0.00000       0.00000       0.29277
                        -----------------------------------------
Magnitude (a.u.)       :      0.29277
Magnitude (Debye)      :      0.74415

Rotational constants in cm-1:     0.216161     0.062012     0.049502
Rotational constants in MHz :  6480.349266  1859.064651  1484.032914

                             ****ORCA TERMINATED NORMALLY****
TOTAL RUN TIME: 0 days 0 hours 1 minutes 6 seconds 328 msec
