                         Program Version 5.0.3 -  RELEASE  -
|  1> ! PBEh-3c def2/J TightSCF DefGrid3
|  2>
|  3> %maxcore 60000
|  4>
|  5> %pal
|  6> nprocs 4
|  7> end
|  8>
|  9> *xyzfile 1 2 1e.xyz
| 10>
| 11>                          ****END OF INPUT****

CARTESIAN COORDINATES (ANGSTROEM)
---------------------------------
  C     -0.837664    1.218534   -0.845179
  C     -0.908589    0.379339    0.392238
  O     -1.574848    0.669463    1.339382
  C     -0.090591   -0.934053    0.515492
  C      1.372654   -0.682925    0.222174
  H     -0.791084    0.560579   -1.713770
  H      0.102067    1.778891   -0.772985
  H     -1.678652    1.906925   -0.890445
  H     -0.579767   -1.570366   -0.234936
  H     -0.265954   -1.351710    1.505747
  H      1.547599   -0.316715   -0.788513
  H      1.875797   -1.650794    0.323729
  H      1.829033   -0.007167    0.947067

 Total Charge           Charge          ....    1
 Multiplicity           Mult            ....    2
 Number of Electrons    NEL             ....   39
 Basis Dimension        Dim             ....   91

ORBITAL ENERGIES
----------------
                 SPIN UP ORBITALS
  NO   OCC          E(Eh)            E(eV)
   0   1.0000     -19.874602      -540.8154
   1   1.0000     -10.828488      -294.6581
   2   1.0000     -10.697636      -291.0975
   3   1.0000     -10.684917      -290.7514
   4   1.0000     -10.631873      -289.3080
   5   1.0000      -1.525994       -41.5244
   6   1.0000      -1.132066       -30.8051
   7   1.0000      -1.067299       -29.0427
   8   1.0000      -0.955205       -25.9924
   9   1.0000      -0.879764       -23.9396
  10   1.0000      -0.830590       -22.6015
  11   1.0000      -0.799840       -21.7648
  12   1.0000      -0.791456       -21.5366
  13   1.0000      -0.721959       -19.6455
  14   1.0000      -0.692222       -18.8363
  15   1.0000      -0.687240       -18.7007
  16   1.0000      -0.673195       -18.3186
  17   1.0000      -0.652229       -17.7481
  18   1.0000      -0.616455       -16.7746
  19   1.0000      -0.602542       -16.3960
  20   0.0000      -0.252334        -6.8663
  21   0.0000      -0.066277        -1.8035
  22   0.0000      -0.043437        -1.1820
  23   0.0000      -0.021599        -0.5877
  24   0.0000       0.000761         0.0207

                 SPIN DOWN ORBITALS
  NO   OCC          E(Eh)            E(eV)
   0   1.0000     -19.850041      -540.1471
   1   1.0000     -10.829869      -294.6957
   2   1.0000     -10.693945      -290.9970
   3   1.0000     -10.682187      -290.6771
   4   1.0000     -10.631606      -289.3007
   5   1.0000      -1.473762       -40.1031
   6   1.0000      -1.115790       -30.3622
   7   1.0000      -1.054161       -28.6852
   8   1.0000      -0.938407       -25.5353
   9   1.0000      -0.855728       -23.2856
  10   1.0000      -0.787677       -21.4338
  11   1.0000      -0.783535       -21.3211
  12   1.0000      -0.751158       -20.4401
  13   1.0000      -0.713040       -19.4028
  14   1.0000      -0.684439       -18.6245
  15   1.0000      -0.677588       -18.4381
  16   1.0000      -0.651910       -17.7394
  17   1.0000      -0.624849       -17.0030
  18   1.0000      -0.613744       -16.7008
  19   0.0000      -0.388444       -10.5701
  20   0.0000      -0.247004        -6.7213
  21   0.0000      -0.064179        -1.7464
  22   0.0000      -0.038158        -1.0383
  23   0.0000      -0.019358        -0.5267

MULLIKEN ATOMIC CHARGES AND SPIN POPULATIONS
--------------------------------------------
   0 C :   -0.735197    0.120923
   1 C :    0.427194   -0.097446
   2 O :    0.014669    0.786975
   3 C :   -0.547596    0.165855
   4 C :   -0.675234    0.010485
   5 H :    0.317315   -0.001195
   6 H :    0.332384   -0.004343
   7 H :    0.341255   -0.002986
   8 H :    0.327391    0.006309
   9 H :    0.336171   -0.006533
  10 H :    0.263111   -0.000995
  11 H :    0.318656    0.019381
  12 H :    0.279880    0.003568
Sum of atomic charges         :    1.0000000

LOEWDIN ATOMIC CHARGES AND SPIN POPULATIONS
-------------------------------------------
   0 C :   -0.331406    0.097721
   1 C :    0.196789   -0.005786
   2 O :    0.202400    0.737596
   3 C :   -0.203372    0.144917
   4 C :   -0.349100    0.013403
   5 H :    0.195587   -0.000688
   6 H :    0.210647   -0.003167
   7 H :    0.197161   -0.002704
   8 H :    0.195719    0.004657
   9 H :    0.183722   -0.004778
  10 H :    0.152555   -0.000529
  11 H :    0.186877    0.016069
  12 H :    0.162420    0.003289

  Mayer bond orders larger than 0.100000
B(  0-C ,  1-C ) :   0.9012 B(  0-C ,  5-H ) :   0.8655 B(  0-C ,  6-H ) :   0.8405
B(  0-C ,  7-H ) :   0.8663 B(  1-C ,  2-O ) :   1.8821 B(  1-C ,  3-C ) :   0.8208
B(  3-C ,  4-C ) :   0.9501 B(  3-C ,  8-H ) :   0.8382 B(  3-C ,  9-H ) :   0.8652
B(  4-C , 10-H ) :   0.9027 B(  4-C , 11-H ) :   0.8686 B(  4-C , 12-H ) :   0.8958

Dispersion correction           -0.005157696
FINAL SINGLE POINT ENERGY      -231.619593293527

DIPOLE MOMENT
-------------
                                X             Y             Z
Electronic contribution:     -4.76990       1.60775       3.27356
Nuclear contribution   :      4.88455      -1.62499      -3.92467
                        -----------------------------------------
Total Dipole Moment    :      0.11464      -0.01724      -0.65111
                        -----------------------------------------
Magnitude (a.u.)       :      0.66135
Magnitude (Debye)      :      1.68103

Rotational constants in cm-1:     0.257477     0.131803     0.098630
Rotational constants in MHz :  7718.951554  3951.340231  2956.858205

                             ****ORCA TERMINATED NORMALLY****
TOTAL RUN TIME: 0 days 0 hours 2 minutes 58 seconds 774 msec
