                         Program Version 5.0.3 -  RELEASE  -
|  1> ! PBEh-3c def2/J TightSCF DefGrid3
|  2>
|  3> %maxcore 60000
|  4>
|  5> %pal
|  6> nprocs 4
|  7> end
|  8>
|  9> *xyzfile 0 1 BrBr_PCH.xyz
| 10>
| 11>                          ****END OF INPUT****

CARTESIAN COORDINATES (ANGSTROEM)
---------------------------------
  Br     0.000000    0.000000    2.363436
  Br     0.000000    0.000000    0.083551
  P      0.000000    0.000000   -3.359217
  C      0.000000    0.000000   -4.883525
  H      0.000000    0.000000   -5.955139

 Total Charge           Charge          ....    0
 Multiplicity           Mult            ....    1
 Number of Electrons    NEL             ....   92
 Basis Dimension        Dim             ....   99

ORBITAL ENERGIES
----------------

  NO   OCC          E(Eh)            E(eV)
   0   2.0000    -484.571778    -13185.8684
   1   2.0000    -484.568509    -13185.7795
   2   2.0000     -77.754818     -2115.8162
   3   2.0000     -63.234035     -1720.6856
   4   2.0000     -63.231257     -1720.6100
   5   2.0000     -56.939186     -1549.3940
   6   2.0000     -56.936267     -1549.3146
   7   2.0000     -56.935487     -1549.2934
   8   2.0000     -56.935487     -1549.2934
   9   2.0000     -56.932765     -1549.2193
  10   2.0000     -56.932765     -1549.2193
  11   2.0000     -10.493952      -285.5549
  12   2.0000      -9.062547      -246.6044
  13   2.0000      -9.060007      -246.5353
  14   2.0000      -6.840626      -186.1429
  15   2.0000      -6.837878      -186.0681
  16   2.0000      -6.832734      -185.9282
  17   2.0000      -6.822157      -185.6403
  18   2.0000      -6.822157      -185.6403
  19   2.0000      -6.819781      -185.5757
  20   2.0000      -6.819781      -185.5757
  21   2.0000      -4.922196      -133.9398
  22   2.0000      -4.922196      -133.9398
  23   2.0000      -4.922043      -133.9356
  24   2.0000      -2.853925       -77.6593
  25   2.0000      -2.850447       -77.5646
  26   2.0000      -2.848175       -77.5028
  27   2.0000      -2.848175       -77.5028
  28   2.0000      -2.845481       -77.4295
  29   2.0000      -2.845481       -77.4295
  30   2.0000      -2.832329       -77.0716
  31   2.0000      -2.832310       -77.0711
  32   2.0000      -2.830040       -77.0093
  33   2.0000      -2.830017       -77.0087
  34   2.0000      -0.942926       -25.6583
  35   2.0000      -0.813135       -22.1265
  36   2.0000      -0.807047       -21.9609
  37   2.0000      -0.616665       -16.7803
  38   2.0000      -0.481081       -13.0909
  39   2.0000      -0.417461       -11.3597
  40   2.0000      -0.417461       -11.3597
  41   2.0000      -0.416059       -11.3215
  42   2.0000      -0.338678        -9.2159
  43   2.0000      -0.338678        -9.2159
  44   2.0000      -0.329010        -8.9528
  45   2.0000      -0.329010        -8.9528
  46   0.0000      -0.107640        -2.9290
  47   0.0000      -0.029967        -0.8154
  48   0.0000      -0.029967        -0.8154
  49   0.0000       0.136505         3.7145
  50   0.0000       0.161591         4.3971

MULLIKEN ATOMIC CHARGES
-----------------------
   0 Br:   -0.005645
   1 Br:   -0.005808
   2 P :    0.155275
   3 C :   -0.400143
   4 H :    0.256323
Sum of atomic charges:   -0.0000000

LOEWDIN ATOMIC CHARGES
----------------------
   0 Br:   -0.009555
   1 Br:   -0.003602
   2 P :    0.228887
   3 C :   -0.371384
   4 H :    0.155654

  Mayer bond orders larger than 0.100000
B(  0-Br,  1-Br) :   1.0454 B(  2-P ,  3-C ) :   2.9096 B(  3-C ,  4-H ) :   0.8913

Dispersion correction           -0.001809811
FINAL SINGLE POINT ENERGY     -5525.503911462881

DIPOLE MOMENT
-------------
                                X             Y             Z
Electronic contribution:      0.00000       0.00000      22.46797
Nuclear contribution   :      0.00000       0.00000     -22.86898
                        -----------------------------------------
Total Dipole Moment    :      0.00000       0.00000      -0.40101
                        -----------------------------------------
Magnitude (a.u.)       :      0.40101
Magnitude (Debye)      :      1.01930

Rotational constants in cm-1:     0.000000     0.015118     0.015118
Rotational constants in MHz :     0.000000   453.232450   453.232450

                             ****ORCA TERMINATED NORMALLY****
TOTAL RUN TIME: 0 days 0 hours 1 minutes 22 seconds 394 msec
