                         Program Version 5.0.3 -  RELEASE  -
|  1> ! PBEh-3c def2/J TightSCF DefGrid3
|  2>
|  3> %maxcore 60000
|  4>
|  5> %pal
|  6> nprocs 4
|  7> end
|  8>
|  9> *xyzfile 0 1 pc22.xyz
| 10>
| 11>                          ****END OF INPUT****

CARTESIAN COORDINATES (ANGSTROEM)
---------------------------------
  C     -0.648664    1.221093    1.542609
  C     -1.411615    0.053300    1.394586
  C     -0.745015   -1.170427    1.547262
  C      0.648664   -1.221093    1.542609
  C      1.411615   -0.053300    1.394586
  C      2.792872   -0.119654    0.793625
  C     -2.792872    0.119654    0.793625
  C      2.792872    0.119654   -0.793625
  C     -2.792872   -0.119654   -0.793625
  C      1.411615    0.053300   -1.394586
  C      0.745015   -1.170427   -1.547262
  C     -0.648664   -1.221093   -1.542609
  C     -1.411615   -0.053300   -1.394586
  C     -0.745015    1.170427   -1.547262
  C      0.648664    1.221093   -1.542609
  C      0.745015    1.170427    1.547262
  H     -1.149404    2.190963    1.504738
  H     -1.315220   -2.101388    1.514151
  H      1.149404   -2.190963    1.504738
  H      3.459967    0.629923    1.243743
  H      3.227797   -1.109412    0.992316
  H     -3.227797    1.109412    0.992316
  H     -3.459967   -0.629923    1.243743
  H      3.227797    1.109412   -0.992316
  H      3.459967   -0.629923   -1.243743
  H     -3.459967    0.629923   -1.243743
  H     -3.227797   -1.109412   -0.992316
  H      1.315220   -2.101388   -1.514151
  H     -1.149404   -2.190963   -1.504738
  H     -1.315220    2.101388   -1.514151
  H      1.149404    2.190963   -1.504738
  H      1.315220    2.101388    1.514151

 Total Charge           Charge          ....    0
 Multiplicity           Mult            ....    1
 Number of Electrons    NEL             ....  112
 Basis Dimension        Dim             ....  272

ORBITAL ENERGIES
----------------

  NO   OCC          E(Eh)            E(eV)
   0   2.0000     -10.449597      -284.3480
   1   2.0000     -10.449586      -284.3477
   2   2.0000     -10.449503      -284.3454
   3   2.0000     -10.449489      -284.3451
   4   2.0000     -10.448493      -284.3179
   5   2.0000     -10.448417      -284.3159
   6   2.0000     -10.448329      -284.3135
   7   2.0000     -10.448282      -284.3122
   8   2.0000     -10.440974      -284.1133
   9   2.0000     -10.440890      -284.1111
  10   2.0000     -10.440841      -284.1097
  11   2.0000     -10.440767      -284.1077
  12   2.0000     -10.440328      -284.0958
  13   2.0000     -10.440321      -284.0956
  14   2.0000     -10.440261      -284.0939
  15   2.0000     -10.440241      -284.0934
  16   2.0000      -0.964224       -26.2379
  17   2.0000      -0.941090       -25.6084
  18   2.0000      -0.905832       -24.6489
  19   2.0000      -0.846142       -23.0247
  20   2.0000      -0.845106       -22.9965
  21   2.0000      -0.831529       -22.6271
  22   2.0000      -0.820229       -22.3196
  23   2.0000      -0.763482       -20.7754
  24   2.0000      -0.743251       -20.2249
  25   2.0000      -0.682911       -18.5829
  26   2.0000      -0.671082       -18.2611
  27   2.0000      -0.669111       -18.2074
  28   2.0000      -0.652129       -17.7453
  29   2.0000      -0.622830       -16.9481
  30   2.0000      -0.566810       -15.4237
  31   2.0000      -0.547777       -14.9058
  32   2.0000      -0.525440       -14.2980
  33   2.0000      -0.521606       -14.1936
  34   2.0000      -0.515315       -14.0224
  35   2.0000      -0.499440       -13.5904
  36   2.0000      -0.494877       -13.4663
  37   2.0000      -0.492582       -13.4038
  38   2.0000      -0.480303       -13.0697
  39   2.0000      -0.473000       -12.8710
  40   2.0000      -0.465243       -12.6599
  41   2.0000      -0.451933       -12.2977
  42   2.0000      -0.441353       -12.0098
  43   2.0000      -0.416474       -11.3328
  44   2.0000      -0.416352       -11.3295
  45   2.0000      -0.399073       -10.8593
  46   2.0000      -0.395514       -10.7625
  47   2.0000      -0.389550       -10.6002
  48   2.0000      -0.386692       -10.5224
  49   2.0000      -0.385544       -10.4912
  50   2.0000      -0.369363       -10.0509
  51   2.0000      -0.349705        -9.5159
  52   2.0000      -0.310162        -8.4399
  53   2.0000      -0.268869        -7.3163
  54   2.0000      -0.254858        -6.9350
  55   2.0000      -0.252285        -6.8650
  56   0.0000      -0.005377        -0.1463
  57   0.0000       0.009325         0.2537
  58   0.0000       0.021645         0.5890
  59   0.0000       0.052685         1.4336
  60   0.0000       0.119757         3.2587

MULLIKEN ATOMIC CHARGES
-----------------------
   0 C :   -0.238255
   1 C :    0.104339
   2 C :   -0.238168
   3 C :   -0.238255
   4 C :    0.104339
   5 C :   -0.494455
   6 C :   -0.494455
   7 C :   -0.494455
   8 C :   -0.494455
   9 C :    0.104339
  10 C :   -0.238168
  11 C :   -0.238255
  12 C :    0.104340
  13 C :   -0.238168
  14 C :   -0.238254
  15 C :   -0.238168
  16 H :    0.206636
  17 H :    0.206019
  18 H :    0.206636
  19 H :    0.231586
  20 H :    0.222298
  21 H :    0.222297
  22 H :    0.231587
  23 H :    0.222297
  24 H :    0.231587
  25 H :    0.231587
  26 H :    0.222298
  27 H :    0.206019
  28 H :    0.206636
  29 H :    0.206018
  30 H :    0.206636
  31 H :    0.206019
Sum of atomic charges:   -0.0000000

LOEWDIN ATOMIC CHARGES
----------------------
   0 C :   -0.126067
   1 C :   -0.055934
   2 C :   -0.125301
   3 C :   -0.126067
   4 C :   -0.055933
   5 C :   -0.220054
   6 C :   -0.220054
   7 C :   -0.220054
   8 C :   -0.220054
   9 C :   -0.055934
  10 C :   -0.125301
  11 C :   -0.126067
  12 C :   -0.055933
  13 C :   -0.125301
  14 C :   -0.126067
  15 C :   -0.125301
  16 H :    0.130893
  17 H :    0.131553
  18 H :    0.130893
  19 H :    0.134210
  20 H :    0.130699
  21 H :    0.130699
  22 H :    0.134210
  23 H :    0.130699
  24 H :    0.134210
  25 H :    0.134210
  26 H :    0.130699
  27 H :    0.131553
  28 H :    0.130893
  29 H :    0.131553
  30 H :    0.130893
  31 H :    0.131553

  Mayer bond orders larger than 0.100000
B(  0-C ,  1-C ) :   1.3991 B(  0-C , 15-C ) :   1.4410 B(  0-C , 16-H ) :   0.9204
B(  1-C ,  2-C ) :   1.3897 B(  1-C ,  6-C ) :   0.9770 B(  2-C ,  3-C ) :   1.4410
B(  2-C , 17-H ) :   0.9235 B(  3-C ,  4-C ) :   1.3991 B(  3-C , 18-H ) :   0.9204
B(  4-C ,  5-C ) :   0.9770 B(  4-C , 15-C ) :   1.3897 B(  5-C ,  7-C ) :   0.9131
B(  5-C , 19-H ) :   0.9207 B(  5-C , 20-H ) :   0.9255 B(  6-C ,  8-C ) :   0.9131
B(  6-C , 21-H ) :   0.9255 B(  6-C , 22-H ) :   0.9207 B(  7-C ,  9-C ) :   0.9770
B(  7-C , 23-H ) :   0.9255 B(  7-C , 24-H ) :   0.9207 B(  8-C , 12-C ) :   0.9770
B(  8-C , 25-H ) :   0.9207 B(  8-C , 26-H ) :   0.9255 B(  9-C , 10-C ) :   1.3897
B(  9-C , 14-C ) :   1.3991 B( 10-C , 11-C ) :   1.4410 B( 10-C , 27-H ) :   0.9235
B( 11-C , 12-C ) :   1.3991 B( 11-C , 28-H ) :   0.9204 B( 12-C , 13-C ) :   1.3897
B( 13-C , 14-C ) :   1.4410 B( 13-C , 29-H ) :   0.9235 B( 14-C , 30-H ) :   0.9204
B( 15-C , 31-H ) :   0.9235

Dispersion correction           -0.027528050
FINAL SINGLE POINT ENERGY      -617.940998754145

DIPOLE MOMENT
-------------
                                X             Y             Z
Electronic contribution:     -0.00000       0.00000       0.00000
Nuclear contribution   :      0.00000       0.00000      -0.00000
                        -----------------------------------------
Total Dipole Moment    :     -0.00000       0.00000       0.00000
                        -----------------------------------------
Magnitude (a.u.)       :      0.00000
Magnitude (Debye)      :      0.00000

Rotational constants in cm-1:     0.029909     0.021021     0.016831
Rotational constants in MHz :   896.659539   630.193502   504.586845

                             ****ORCA TERMINATED NORMALLY****
TOTAL RUN TIME: 0 days 0 hours 4 minutes 1 seconds 91 msec
