                         Program Version 5.0.3 -  RELEASE  -
|  1> ! PBEh-3c def2/J TightSCF DefGrid3
|  2>
|  3> %maxcore 60000
|  4>
|  5> %pal
|  6> nprocs 4
|  7> end
|  8>
|  9> *xyzfile 0 1 H2O2.xyz
| 10>
| 11>                          ****END OF INPUT****

CARTESIAN COORDINATES (ANGSTROEM)
---------------------------------
  O     -0.728048   -0.097931   -0.260961
  H     -0.784289   -0.922325    0.261900
  O      0.727985    0.097393   -0.261064
  H      0.784352    0.922864    0.260125

 Total Charge           Charge          ....    0
 Multiplicity           Mult            ....    1
 Number of Electrons    NEL             ....   18
 Basis Dimension        Dim             ....   34

ORBITAL ENERGIES
----------------

  NO   OCC          E(Eh)            E(eV)
   0   2.0000     -19.547916      -531.9258
   1   2.0000     -19.547887      -531.9250
   2   2.0000      -1.214690       -33.0534
   3   2.0000      -0.990656       -26.9571
   4   2.0000      -0.580853       -15.8058
   5   2.0000      -0.554342       -15.0844
   6   2.0000      -0.475186       -12.9305
   7   2.0000      -0.378860       -10.3093
   8   2.0000      -0.339142        -9.2285
   9   0.0000       0.070453         1.9171
  10   0.0000       0.127272         3.4632
  11   0.0000       0.172282         4.6880
  12   0.0000       0.870067        23.6757
  13   0.0000       0.880130        23.9496

MULLIKEN ATOMIC CHARGES
-----------------------
   0 O :   -0.436200
   1 H :    0.436218
   2 O :   -0.436227
   3 H :    0.436210
Sum of atomic charges:    0.0000000

LOEWDIN ATOMIC CHARGES
----------------------
   0 O :   -0.307920
   1 H :    0.307929
   2 O :   -0.307938
   3 H :    0.307929

  Mayer bond orders larger than 0.100000
B(  0-O ,  1-H ) :   0.7844 B(  0-O ,  2-O ) :   1.0012 B(  2-O ,  3-H ) :   0.7844

Dispersion correction           -0.000470310
FINAL SINGLE POINT ENERGY      -151.219207493882

DIPOLE MOMENT
-------------
                                X             Y             Z
Electronic contribution:     -0.00007      -0.00016      -0.14804
Nuclear contribution   :      0.00011       0.00095       0.92053
                        -----------------------------------------
Total Dipole Moment    :      0.00004       0.00080       0.77249
                        -----------------------------------------
Magnitude (a.u.)       :      0.77249
Magnitude (Debye)      :      1.96351

Rotational constants in cm-1:     9.813384     0.862886     0.833690
Rotational constants in MHz : 294197.841615 25868.686307 24993.389417

                             ****ORCA TERMINATED NORMALLY****
TOTAL RUN TIME: 0 days 0 hours 0 minutes 56 seconds 155 msec
