                         Program Version 5.0.3 -  RELEASE  -
|  1> ! PBEh-3c def2/J TightSCF DefGrid3
|  2>
|  3> %maxcore 60000
|  4>
|  5> %pal
|  6> nprocs 4
|  7> end
|  8>
|  9> *xyzfile 0 1 E1.xyz
| 10>
| 11>                          ****END OF INPUT****

CARTESIAN COORDINATES (ANGSTROEM)
---------------------------------
  H      0.629277    0.629277   -0.629277
  C      0.000000    0.000000    0.000000
  H     -0.629277   -0.629277   -0.629277
  H      0.629277   -0.629277    0.629277
  H     -0.629277    0.629277    0.629277

 Total Charge           Charge          ....    0
 Multiplicity           Mult            ....    1
 Number of Electrons    NEL             ....   10
 Basis Dimension        Dim             ....   23

ORBITAL ENERGIES
----------------

  NO   OCC          E(Eh)            E(eV)
   0   2.0000     -10.415134      -283.4102
   1   2.0000      -0.774176       -21.0664
   2   2.0000      -0.444751       -12.1023
   3   2.0000      -0.444751       -12.1023
   4   2.0000      -0.444751       -12.1023
   5   0.0000       0.174051         4.7362
   6   0.0000       0.218176         5.9369
   7   0.0000       0.218176         5.9369
   8   0.0000       0.218176         5.9369
   9   0.0000       0.508275        13.8309

MULLIKEN ATOMIC CHARGES
-----------------------
   0 H :    0.219802
   1 C :   -0.879209
   2 H :    0.219802
   3 H :    0.219802
   4 H :    0.219802
Sum of atomic charges:   -0.0000000

LOEWDIN ATOMIC CHARGES
----------------------
   0 H :    0.130583
   1 C :   -0.522332
   2 H :    0.130583
   3 H :    0.130583
   4 H :    0.130583

  Mayer bond orders larger than 0.100000
B(  0-H ,  1-C ) :   0.9368 B(  1-C ,  2-H ) :   0.9368 B(  1-C ,  3-H ) :   0.9368
B(  1-C ,  4-H ) :   0.9368

Dispersion correction           -0.000682683
FINAL SINGLE POINT ENERGY       -40.426598296189

DIPOLE MOMENT
-------------
                                X             Y             Z
Electronic contribution:     -0.00000      -0.00000       0.00000
Nuclear contribution   :      0.00000       0.00000       0.00000
                        -----------------------------------------
Total Dipole Moment    :     -0.00000      -0.00000       0.00000
                        -----------------------------------------
Magnitude (a.u.)       :      0.00000
Magnitude (Debye)      :      0.00000

Rotational constants in cm-1:     5.279132     5.279132     5.279132
Rotational constants in MHz : 158264.397790 158264.397790 158264.397790

                             ****ORCA TERMINATED NORMALLY****
TOTAL RUN TIME: 0 days 0 hours 0 minutes 16 seconds 614 msec
