                         Program Version 5.0.3 -  RELEASE  -
|  1> ! PBEh-3c def2/J TightSCF DefGrid3
|  2>
|  3> %maxcore 60000
|  4>
|  5> %pal
|  6> nprocs 4
|  7> end
|  8>
|  9> *xyzfile 0 1 1-pentyne.xyz
| 10>
| 11>                          ****END OF INPUT****

CARTESIAN COORDINATES (ANGSTROEM)
---------------------------------
  C     -1.613251   -0.412589   -1.034021
  H     -1.434209   -1.469877   -1.281926
  H     -1.421297    0.179124   -1.941963
  H     -2.678429   -0.304960   -0.786231
  C     -0.727957    0.045708    0.125526
  H     -0.939154    1.097144    0.373000
  H     -0.953967   -0.537061    1.031629
  C      0.774779   -0.096788   -0.195875
  H      1.008603    0.474846   -1.110966
  H      1.000963   -1.151253   -0.430545
  C      1.647047    0.353279    0.882236
  C      2.354078    0.742289    1.786123
  H      2.982795    1.080138    2.583014

 Total Charge           Charge          ....    0
 Multiplicity           Mult            ....    1
 Number of Electrons    NEL             ....   38
 Basis Dimension        Dim             ....   91

ORBITAL ENERGIES
----------------

  NO   OCC          E(Eh)            E(eV)
   0   2.0000     -10.464650      -284.7576
   1   2.0000     -10.449296      -284.3398
   2   2.0000     -10.446662      -284.2681
   3   2.0000     -10.437115      -284.0083
   4   2.0000     -10.433973      -283.9229
   5   2.0000      -0.901366       -24.5274
   6   2.0000      -0.833554       -22.6822
   7   2.0000      -0.771697       -20.9990
   8   2.0000      -0.675389       -18.3783
   9   2.0000      -0.591960       -16.1081
  10   2.0000      -0.533892       -14.5279
  11   2.0000      -0.528196       -14.3729
  12   2.0000      -0.477544       -12.9946
  13   2.0000      -0.457951       -12.4615
  14   2.0000      -0.421989       -11.4829
  15   2.0000      -0.404019       -10.9939
  16   2.0000      -0.390009       -10.6127
  17   2.0000      -0.310590        -8.4516
  18   2.0000      -0.310300        -8.4437
  19   0.0000       0.079120         2.1530
  20   0.0000       0.083795         2.2802
  21   0.0000       0.140104         3.8124
  22   0.0000       0.180327         4.9069
  23   0.0000       0.182509         4.9663

MULLIKEN ATOMIC CHARGES
-----------------------
   0 C :   -0.644525
   1 H :    0.211370
   2 H :    0.211468
   3 H :    0.227022
   4 C :   -0.413838
   5 H :    0.225424
   6 H :    0.224984
   7 C :   -0.560586
   8 H :    0.241399
   9 H :    0.241564
  10 C :    0.320167
  11 C :   -0.507458
  12 H :    0.223009
Sum of atomic charges:   -0.0000000

LOEWDIN ATOMIC CHARGES
----------------------
   0 C :   -0.363472
   1 H :    0.124958
   2 H :    0.124991
   3 H :    0.131492
   4 C :   -0.235760
   5 H :    0.129931
   6 H :    0.129737
   7 C :   -0.242965
   8 H :    0.146846
   9 H :    0.146697
  10 C :   -0.039219
  11 C :   -0.215431
  12 H :    0.162193

  Mayer bond orders larger than 0.100000
B(  0-C ,  1-H ) :   0.9279 B(  0-C ,  2-H ) :   0.9278 B(  0-C ,  3-H ) :   0.9295
B(  0-C ,  4-C ) :   0.9884 B(  4-C ,  5-H ) :   0.9165 B(  4-C ,  6-H ) :   0.9166
B(  4-C ,  7-C ) :   0.9658 B(  7-C ,  8-H ) :   0.9014 B(  7-C ,  9-H ) :   0.9015
B(  7-C , 10-C ) :   0.9714 B( 10-C , 11-C ) :   2.6752 B( 11-C , 12-H ) :   0.9501

Dispersion correction           -0.004988672
FINAL SINGLE POINT ENERGY      -194.839072052097

DIPOLE MOMENT
-------------
                                X             Y             Z
Electronic contribution:      4.97986       1.28189       3.17362
Nuclear contribution   :     -5.23580      -1.35890      -3.36335
                        -----------------------------------------
Total Dipole Moment    :     -0.25595      -0.07701      -0.18974
                        -----------------------------------------
Magnitude (a.u.)       :      0.32778
Magnitude (Debye)      :      0.83314

Rotational constants in cm-1:     0.785759     0.073529     0.069871
Rotational constants in MHz : 23556.466932  2204.340770  2094.692476

                             ****ORCA TERMINATED NORMALLY****
TOTAL RUN TIME: 0 days 0 hours 1 minutes 10 seconds 738 msec
