                         Program Version 5.0.3 -  RELEASE  -
|  1> ! PBEh-3c def2/J TightSCF DefGrid3
|  2>
|  3> %maxcore 60000
|  4>
|  5> %pal
|  6> nprocs 4
|  7> end
|  8>
|  9> *xyzfile 1 1 25.xyz
| 10>
| 11>                          ****END OF INPUT****

CARTESIAN COORDINATES (ANGSTROEM)
---------------------------------
  Li     0.132649    0.248353    1.293562
  C      0.127834    1.521671   -0.710209
  C     -1.116189    0.851567   -0.633982
  C     -1.154785   -0.559238   -0.531142
  C      0.050647   -1.299957   -0.504487
  C      1.294679   -0.629853   -0.580606
  C      1.333272    0.780958   -0.683473
  H      2.226155   -1.202579   -0.564279
  H      2.294571    1.298493   -0.746639
  H      0.157561    2.611623   -0.794159
  H     -2.047854    1.423668   -0.658987
  H     -2.116273   -1.077411   -0.476711
  H      0.020727   -2.390553   -0.429451

 Total Charge           Charge          ....    1
 Multiplicity           Mult            ....    1
 Number of Electrons    NEL             ....   44
 Basis Dimension        Dim             ....  111

ORBITAL ENERGIES
----------------

  NO   OCC          E(Eh)            E(eV)
   0   2.0000     -10.653460      -289.8954
   1   2.0000     -10.653207      -289.8885
   2   2.0000     -10.653206      -289.8885
   3   2.0000     -10.652644      -289.8732
   4   2.0000     -10.652643      -289.8731
   5   2.0000     -10.652452      -289.8680
   6   2.0000      -2.346106       -63.8408
   7   2.0000      -1.150668       -31.3113
   8   2.0000      -1.030396       -28.0385
   9   2.0000      -1.030395       -28.0385
  10   2.0000      -0.868073       -23.6215
  11   2.0000      -0.868071       -23.6214
  12   2.0000      -0.776784       -21.1374
  13   2.0000      -0.709297       -19.3010
  14   2.0000      -0.699624       -19.0377
  15   2.0000      -0.670497       -18.2452
  16   2.0000      -0.670493       -18.2450
  17   2.0000      -0.626059       -17.0359
  18   2.0000      -0.587068       -15.9749
  19   2.0000      -0.587066       -15.9749
  20   2.0000      -0.500287       -13.6135
  21   2.0000      -0.500286       -13.6135
  22   0.0000      -0.186388        -5.0719
  23   0.0000      -0.186387        -5.0719
  24   0.0000      -0.166097        -4.5197
  25   0.0000      -0.081425        -2.2157
  26   0.0000      -0.077111        -2.0983

MULLIKEN ATOMIC CHARGES
-----------------------
   0 Li:    0.822302
   1 C :   -0.276308
   2 C :   -0.276235
   3 C :   -0.276192
   4 C :   -0.276321
   5 C :   -0.276388
   6 C :   -0.276448
   7 H :    0.305927
   8 H :    0.305940
   9 H :    0.305934
  10 H :    0.305929
  11 H :    0.305928
  12 H :    0.305934
Sum of atomic charges:    1.0000000

LOEWDIN ATOMIC CHARGES
----------------------
   0 Li:    0.482039
   1 C :   -0.096493
   2 C :   -0.096452
   3 C :   -0.096447
   4 C :   -0.096488
   5 C :   -0.096533
   6 C :   -0.096538
   7 H :    0.182824
   8 H :    0.182828
   9 H :    0.182819
  10 H :    0.182810
  11 H :    0.182812
  12 H :    0.182818

  Mayer bond orders larger than 0.100000
B(  1-C ,  2-C ) :   1.3731 B(  1-C ,  6-C ) :   1.3731 B(  1-C ,  9-H ) :   0.8902
B(  2-C ,  3-C ) :   1.3731 B(  2-C , 10-H ) :   0.8902 B(  3-C ,  4-C ) :   1.3731
B(  3-C , 11-H ) :   0.8902 B(  4-C ,  5-C ) :   1.3730 B(  4-C , 12-H ) :   0.8902
B(  5-C ,  6-C ) :   1.3731 B(  5-C ,  7-H ) :   0.8902 B(  6-C ,  8-H ) :   0.8902

Dispersion correction           -0.005970848
FINAL SINGLE POINT ENERGY      -239.036461861312

DIPOLE MOMENT
-------------
                                X             Y             Z
Electronic contribution:      0.10270       0.32681       4.51846
Nuclear contribution   :     -0.05565      -0.17636      -2.43811
                        -----------------------------------------
Total Dipole Moment    :      0.04705       0.15046       2.08035
                        -----------------------------------------
Magnitude (a.u.)       :      2.08632
Magnitude (Debye)      :      5.30300

Rotational constants in cm-1:     0.147410     0.147408     0.092436
Rotational constants in MHz :  4419.230487  4419.193275  2771.169359

                             ****ORCA TERMINATED NORMALLY****
TOTAL RUN TIME: 0 days 0 hours 0 minutes 42 seconds 738 msec
