                         Program Version 5.0.3 -  RELEASE  -
|  1> ! PBEh-3c def2/J TightSCF DefGrid3
|  2>
|  3> %maxcore 60000
|  4>
|  5> %pal
|  6> nprocs 4
|  7> end
|  8>
|  9> *xyzfile 0 1 bih3_2.xyz
| 10>
| 11>                          ****END OF INPUT****

CARTESIAN COORDINATES (ANGSTROEM)
---------------------------------
  Bi     0.000000    2.255783    0.000000
  Bi     0.000000   -2.255783    0.000000
  H      0.890481    3.134779    1.243070
  H      1.247215    1.007261    0.000000
  H      0.890481    3.134779   -1.243070
  H     -0.890481   -3.134779   -1.243070
  H     -1.247215   -1.007261    0.000000
  H     -0.890481   -3.134779    1.243070

 Total Charge           Charge          ....    0
 Multiplicity           Mult            ....    1
 Number of Electrons    NEL             ....   52
 Basis Dimension        Dim             ....   64

ORBITAL ENERGIES
----------------

  NO   OCC          E(Eh)            E(eV)
   0   2.0000      -6.171744      -167.9417
   1   2.0000      -6.171743      -167.9417
   2   2.0000      -3.862465      -105.1030
   3   2.0000      -3.862463      -105.1030
   4   2.0000      -3.862288      -105.0982
   5   2.0000      -3.862287      -105.0982
   6   2.0000      -3.858107      -104.9844
   7   2.0000      -3.858107      -104.9844
   8   2.0000      -1.143292       -31.1105
   9   2.0000      -1.143250       -31.1094
  10   2.0000      -1.143093       -31.1051
  11   2.0000      -1.143063       -31.1043
  12   2.0000      -1.136416       -30.9235
  13   2.0000      -1.136405       -30.9231
  14   2.0000      -1.136397       -30.9229
  15   2.0000      -1.136371       -30.9222
  16   2.0000      -1.132711       -30.8226
  17   2.0000      -1.132679       -30.8218
  18   2.0000      -0.687395       -18.7050
  19   2.0000      -0.682727       -18.5779
  20   2.0000      -0.385546       -10.4912
  21   2.0000      -0.371160       -10.0998
  22   2.0000      -0.369991       -10.0680
  23   2.0000      -0.359669        -9.7871
  24   2.0000      -0.316719        -8.6184
  25   2.0000      -0.306562        -8.3420
  26   0.0000       0.012792         0.3481
  27   0.0000       0.014982         0.4077
  28   0.0000       0.039370         1.0713
  29   0.0000       0.040399         1.0993
  30   0.0000       0.068612         1.8670

MULLIKEN ATOMIC CHARGES
-----------------------
   0 Bi:    0.017465
   1 Bi:    0.017465
   2 H :   -0.003526
   3 H :   -0.010413
   4 H :   -0.003526
   5 H :   -0.003526
   6 H :   -0.010413
   7 H :   -0.003526
Sum of atomic charges:    0.0000000

LOEWDIN ATOMIC CHARGES
----------------------
   0 Bi:    0.009535
   1 Bi:    0.009535
   2 H :   -0.002625
   3 H :   -0.004284
   4 H :   -0.002625
   5 H :   -0.002625
   6 H :   -0.004284
   7 H :   -0.002625

  Mayer bond orders larger than 0.100000
B(  0-Bi,  2-H ) :   0.9831 B(  0-Bi,  3-H ) :   0.9752 B(  0-Bi,  4-H ) :   0.9831
B(  1-Bi,  5-H ) :   0.9831 B(  1-Bi,  6-H ) :   0.9752 B(  1-Bi,  7-H ) :   0.9831

Dispersion correction           -0.002311410
FINAL SINGLE POINT ENERGY      -432.792655315708

DIPOLE MOMENT
-------------
                                X             Y             Z
Electronic contribution:     -0.00000      -0.00000       0.00000
Nuclear contribution   :     -0.00000       0.00000       0.00000
                        -----------------------------------------
Total Dipole Moment    :     -0.00000      -0.00000       0.00000
                        -----------------------------------------
Magnitude (a.u.)       :      0.00000
Magnitude (Debye)      :      0.00000

Rotational constants in cm-1:     1.351250     0.007751     0.007751
Rotational constants in MHz : 40509.443696   232.379493   232.377898

                             ****ORCA TERMINATED NORMALLY****
TOTAL RUN TIME: 0 days 0 hours 1 minutes 32 seconds 323 msec
