                         Program Version 5.0.3 -  RELEASE  -
|  1> ! PBEh-3c def2/J TightSCF DefGrid3
|  2>
|  3> %maxcore 60000
|  4>
|  5> %pal
|  6> nprocs 4
|  7> end
|  8>
|  9> *xyzfile 0 2 na.xyz
| 10>
| 11>                          ****END OF INPUT****

CARTESIAN COORDINATES (ANGSTROEM)
---------------------------------
  Na     0.000000    0.000000    0.000000

 Total Charge           Charge          ....    0
 Multiplicity           Mult            ....    2
 Number of Electrons    NEL             ....   11
 Basis Dimension        Dim             ....   15

ORBITAL ENERGIES
----------------
                 SPIN UP ORBITALS
  NO   OCC          E(Eh)            E(eV)
   0   1.0000     -38.948354     -1059.8386
   1   1.0000      -2.394544       -65.1589
   2   1.0000      -1.266656       -34.4675
   3   1.0000      -1.266656       -34.4675
   4   1.0000      -1.266656       -34.4675
   5   1.0000      -0.146103        -3.9757
   6   0.0000       0.004346         0.1183
   7   0.0000       0.004346         0.1183
   8   0.0000       0.004347         0.1183
   9   0.0000       0.068631         1.8675
  10   0.0000       0.264457         7.1962

                 SPIN DOWN ORBITALS
  NO   OCC          E(Eh)            E(eV)
   0   1.0000     -38.945942     -1059.7730
   1   1.0000      -2.389111       -65.0110
   2   1.0000      -1.263500       -34.3816
   3   1.0000      -1.263500       -34.3816
   4   1.0000      -1.263500       -34.3816
   5   0.0000      -0.037272        -1.0142
   6   0.0000       0.046606         1.2682
   7   0.0000       0.046607         1.2683
   8   0.0000       0.046608         1.2683
   9   0.0000       0.096025         2.6130

MULLIKEN ATOMIC CHARGES AND SPIN POPULATIONS
--------------------------------------------
   0 Na:    0.000000    1.000000
Sum of atomic charges         :    0.0000000

LOEWDIN ATOMIC CHARGES AND SPIN POPULATIONS
-------------------------------------------
   0 Na:    0.000000    1.000000

Dispersion correction            0.000000000
FINAL SINGLE POINT ENERGY      -162.010693494001

DIPOLE MOMENT
-------------
                                X             Y             Z
Electronic contribution:      0.00002      -0.00000       0.00003
Nuclear contribution   :      0.00000       0.00000       0.00000
                        -----------------------------------------
Total Dipole Moment    :      0.00002      -0.00000       0.00003
                        -----------------------------------------
Magnitude (a.u.)       :      0.00003
Magnitude (Debye)      :      0.00008

Rotational constants in cm-1:     0.000000     0.000000     0.000000
Rotational constants in MHz :     0.000000     0.000000     0.000000

                             ****ORCA TERMINATED NORMALLY****
TOTAL RUN TIME: 0 days 0 hours 0 minutes 28 seconds 121 msec
