                         Program Version 5.0.3 -  RELEASE  -
|  1> ! PBEh-3c def2/J TightSCF DefGrid3
|  2>
|  3> %maxcore 60000
|  4>
|  5> %pal
|  6> nprocs 4
|  7> end
|  8>
|  9> *xyzfile 0 1 H4P2O7_2.xyz
| 10>
| 11>                          ****END OF INPUT****

CARTESIAN COORDINATES (ANGSTROEM)
---------------------------------
  O      2.547702    0.176371   -0.962437
  P      1.357401    0.087911    0.073099
  O      1.266043    1.250233    0.980467
  O      0.000000    0.000000   -0.844419
  P     -1.357401   -0.087911    0.073099
  O     -1.266043   -1.250233    0.980467
  O     -1.486299    1.365802    0.692340
  O     -2.547702   -0.176371   -0.962437
  O      1.486299   -1.365802    0.692340
  H      2.754166   -0.675694   -1.383952
  H     -0.586631    1.639529    1.022692
  H     -2.754166    0.675694   -1.383952
  H      0.586631   -1.639529    1.022692

 Total Charge           Charge          ....    0
 Multiplicity           Mult            ....    1
 Number of Electrons    NEL             ....   90
 Basis Dimension        Dim             ....  149

ORBITAL ENERGIES
----------------

  NO   OCC          E(Eh)            E(eV)
   0   2.0000     -77.946451     -2121.0308
   1   2.0000     -77.946441     -2121.0305
   2   2.0000     -19.571753      -532.5745
   3   2.0000     -19.568962      -532.4985
   4   2.0000     -19.568929      -532.4976
   5   2.0000     -19.550970      -532.0089
   6   2.0000     -19.550933      -532.0079
   7   2.0000     -19.488670      -530.3137
   8   2.0000     -19.488649      -530.3131
   9   2.0000      -6.991120      -190.2380
  10   2.0000      -6.991115      -190.2379
  11   2.0000      -5.085701      -138.3890
  12   2.0000      -5.085645      -138.3874
  13   2.0000      -5.085183      -138.3749
  14   2.0000      -5.085178      -138.3747
  15   2.0000      -5.083115      -138.3186
  16   2.0000      -5.083115      -138.3186
  17   2.0000      -1.262132       -34.3443
  18   2.0000      -1.226805       -33.3831
  19   2.0000      -1.182279       -32.1714
  20   2.0000      -1.170332       -31.8464
  21   2.0000      -1.160923       -31.5903
  22   2.0000      -1.108399       -30.1611
  23   2.0000      -1.096627       -29.8407
  24   2.0000      -0.762164       -20.7395
  25   2.0000      -0.723648       -19.6915
  26   2.0000      -0.659683       -17.9509
  27   2.0000      -0.657674       -17.8962
  28   2.0000      -0.652211       -17.7476
  29   2.0000      -0.603697       -16.4274
  30   2.0000      -0.550355       -14.9759
  31   2.0000      -0.537487       -14.6258
  32   2.0000      -0.526272       -14.3206
  33   2.0000      -0.500331       -13.6147
  34   2.0000      -0.493268       -13.4225
  35   2.0000      -0.487448       -13.2641
  36   2.0000      -0.472595       -12.8600
  37   2.0000      -0.458833       -12.4855
  38   2.0000      -0.442257       -12.0344
  39   2.0000      -0.441893       -12.0245
  40   2.0000      -0.436668       -11.8823
  41   2.0000      -0.394068       -10.7231
  42   2.0000      -0.391546       -10.6545
  43   2.0000      -0.385508       -10.4902
  44   2.0000      -0.378026       -10.2866
  45   0.0000       0.054128         1.4729
  46   0.0000       0.086392         2.3508
  47   0.0000       0.105562         2.8725
  48   0.0000       0.111416         3.0318
  49   0.0000       0.144321         3.9272

MULLIKEN ATOMIC CHARGES
-----------------------
   0 O :   -0.677110
   1 P :    1.438244
   2 O :   -0.649683
   3 O :   -0.683564
   4 P :    1.438244
   5 O :   -0.649683
   6 O :   -0.732010
   7 O :   -0.677110
   8 O :   -0.732010
   9 H :    0.470565
  10 H :    0.491777
  11 H :    0.470565
  12 H :    0.491777
Sum of atomic charges:   -0.0000000

LOEWDIN ATOMIC CHARGES
----------------------
   0 O :   -0.420235
   1 P :    0.908788
   2 O :   -0.515795
   3 O :   -0.418224
   4 P :    0.908788
   5 O :   -0.515795
   6 O :   -0.461959
   7 O :   -0.420235
   8 O :   -0.461959
   9 H :    0.351113
  10 H :    0.347200
  11 H :    0.351113
  12 H :    0.347200

  Mayer bond orders larger than 0.100000
B(  0-O ,  1-P ) :   1.1239 B(  0-O ,  9-H ) :   0.7335 B(  1-P ,  2-O ) :   1.7768
B(  1-P ,  3-O ) :   0.9097 B(  1-P ,  8-O ) :   1.1389 B(  2-O , 10-H ) :   0.1057
B(  3-O ,  4-P ) :   0.9097 B(  4-P ,  5-O ) :   1.7768 B(  4-P ,  6-O ) :   1.1389
B(  4-P ,  7-O ) :   1.1239 B(  5-O , 12-H ) :   0.1057 B(  6-O , 10-H ) :   0.6396
B(  7-O , 11-H ) :   0.7335 B(  8-O , 12-H ) :   0.6396

Dispersion correction           -0.007668876
FINAL SINGLE POINT ENERGY     -1210.005917444265

DIPOLE MOMENT
-------------
                                X             Y             Z
Electronic contribution:      0.00000      -0.00000      -0.43525
Nuclear contribution   :     -0.00000       0.00000      -0.95134
                        -----------------------------------------
Total Dipole Moment    :      0.00000      -0.00000      -1.38659
                        -----------------------------------------
Magnitude (a.u.)       :      1.38659
Magnitude (Debye)      :      3.52443

Rotational constants in cm-1:     0.080273     0.030523     0.029200
Rotational constants in MHz :  2406.535491   915.050277   875.399316

                             ****ORCA TERMINATED NORMALLY****
TOTAL RUN TIME: 0 days 0 hours 2 minutes 0 seconds 482 msec
