                         Program Version 5.0.3 -  RELEASE  -
|  1> ! PBEh-3c def2/J TightSCF DefGrid3
|  2>
|  3> %maxcore 60000
|  4>
|  5> %pal
|  6> nprocs 4
|  7> end
|  8>
|  9> *xyzfile 0 1 BeH2.xyz
| 10>
| 11>                          ****END OF INPUT****

CARTESIAN COORDINATES (ANGSTROEM)
---------------------------------
  Be    -0.000000    0.000000    0.000000
  H      0.000000    0.000000   -1.337715
  H      0.000000    0.000000    1.337715

 Total Charge           Charge          ....    0
 Multiplicity           Mult            ....    1
 Number of Electrons    NEL             ....    6
 Basis Dimension        Dim             ....   13

ORBITAL ENERGIES
----------------

  NO   OCC          E(Eh)            E(eV)
   0   2.0000      -4.209653      -114.5505
   1   2.0000      -0.398141       -10.8340
   2   2.0000      -0.365573        -9.9478
   3   0.0000      -0.014480        -0.3940
   4   0.0000      -0.014480        -0.3940
   5   0.0000       0.080611         2.1935
   6   0.0000       0.146100         3.9756
   7   0.0000       0.163997         4.4626

MULLIKEN ATOMIC CHARGES
-----------------------
   0 Be:    0.074058
   1 H :   -0.037029
   2 H :   -0.037029
Sum of atomic charges:    0.0000000

LOEWDIN ATOMIC CHARGES
----------------------
   0 Be:    0.112625
   1 H :   -0.056312
   2 H :   -0.056312

  Mayer bond orders larger than 0.100000
B(  0-Be,  1-H ) :   0.9961 B(  0-Be,  2-H ) :   0.9961

Dispersion correction           -0.000293027
FINAL SINGLE POINT ENERGY       -15.841636382258

DIPOLE MOMENT
-------------
                                X             Y             Z
Electronic contribution:     -0.00000      -0.00000      -0.00000
Nuclear contribution   :      0.00000       0.00000       0.00000
                        -----------------------------------------
Total Dipole Moment    :     -0.00000      -0.00000      -0.00000
                        -----------------------------------------
Magnitude (a.u.)       :      0.00000
Magnitude (Debye)      :      0.00000

Rotational constants in cm-1:     0.000000     4.672819     4.672819
Rotational constants in MHz :     0.000000 140087.576673 140087.576673

                             ****ORCA TERMINATED NORMALLY****
TOTAL RUN TIME: 0 days 0 hours 1 minutes 3 seconds 255 msec
