                         Program Version 5.0.3 -  RELEASE  -
|  1> ! PBEh-3c def2/J TightSCF DefGrid3
|  2>
|  3> %maxcore 60000
|  4>
|  5> %pal
|  6> nprocs 4
|  7> end
|  8>
|  9> *xyzfile 0 1 FCCH.xyz
| 10>
| 11>                          ****END OF INPUT****

CARTESIAN COORDINATES (ANGSTROEM)
---------------------------------
  C      0.000000    0.000000   -0.095444
  C      0.000000    0.000000   -1.284149
  F      0.000000    0.000000    1.180380
  H      0.000000    0.000000   -2.345863

 Total Charge           Charge          ....    0
 Multiplicity           Mult            ....    1
 Number of Electrons    NEL             ....   22
 Basis Dimension        Dim             ....   47

ORBITAL ENERGIES
----------------

  NO   OCC          E(Eh)            E(eV)
   0   2.0000     -25.183483      -685.2774
   1   2.0000     -10.547976      -287.0250
   2   2.0000     -10.460204      -284.6366
   3   2.0000      -1.430551       -38.9273
   4   2.0000      -0.864936       -23.5361
   5   2.0000      -0.711489       -19.3606
   6   2.0000      -0.600176       -16.3316
   7   2.0000      -0.600176       -16.3316
   8   2.0000      -0.597312       -16.2537
   9   2.0000      -0.340868        -9.2755
  10   2.0000      -0.340868        -9.2755
  11   0.0000       0.097343         2.6488
  12   0.0000       0.097343         2.6488
  13   0.0000       0.121570         3.3081
  14   0.0000       0.203870         5.5476
  15   0.0000       0.405423        11.0321

MULLIKEN ATOMIC CHARGES
-----------------------
   0 C :    0.340306
   1 C :   -0.413161
   2 F :   -0.178269
   3 H :    0.251124
Sum of atomic charges:   -0.0000000

LOEWDIN ATOMIC CHARGES
----------------------
   0 C :    0.138872
   1 C :   -0.266350
   2 F :   -0.044169
   3 H :    0.171647

  Mayer bond orders larger than 0.100000
B(  0-C ,  1-C ) :   2.7712 B(  0-C ,  2-F ) :   1.1922 B(  1-C ,  3-H ) :   0.9239

Dispersion correction           -0.000738493
FINAL SINGLE POINT ENERGY      -176.174234375661

DIPOLE MOMENT
-------------
                                X             Y             Z
Electronic contribution:      0.00000       0.00000       3.04799
Nuclear contribution   :      0.00000       0.00000      -3.29542
                        -----------------------------------------
Total Dipole Moment    :      0.00000       0.00000      -0.24743
                        -----------------------------------------
Magnitude (a.u.)       :      0.24743
Magnitude (Debye)      :      0.62892

Rotational constants in cm-1:     0.000000     0.326342     0.326342
Rotational constants in MHz :     0.000000  9783.495963  9783.495963

                             ****ORCA TERMINATED NORMALLY****
TOTAL RUN TIME: 0 days 0 hours 1 minutes 5 seconds 637 msec
