                         Program Version 5.0.3 -  RELEASE  -
|  1> ! PBEh-3c def2/J TightSCF DefGrid3
|  2>
|  3> %maxcore 60000
|  4>
|  5> %pal
|  6> nprocs 4
|  7> end
|  8>
|  9> *xyzfile 0 1 omcb.xyz
| 10>
| 11>                          ****END OF INPUT****

CARTESIAN COORDINATES (ANGSTROEM)
---------------------------------
  C     -0.789688    0.789688   -0.093402
  C     -0.789688   -0.789688    0.093402
  C      0.789688   -0.789688   -0.093402
  C      0.789688    0.789688    0.093402
  C     -1.607583    1.607583    0.919428
  C     -1.246984    1.246984   -1.491066
  C     -1.246984   -1.246984    1.491066
  C     -1.607583   -1.607583   -0.919428
  C      1.246984   -1.246984   -1.491066
  C      1.607583   -1.607583    0.919428
  C      1.246984    1.246984    1.491066
  C      1.607583    1.607583   -0.919428
  H     -1.367271    1.367271    1.955379
  H     -1.426927    2.677880    0.769354
  H     -2.677880    1.426927    0.769354
  H     -0.731736    0.731736   -2.301674
  H     -2.320461    1.067608   -1.608586
  H     -1.067608    2.320461   -1.608586
  H     -0.731736   -0.731736    2.301674
  H     -2.320461   -1.067608    1.608586
  H     -1.067608   -2.320461    1.608586
  H     -1.367271   -1.367271   -1.955379
  H     -1.426927   -2.677880   -0.769354
  H     -2.677880   -1.426927   -0.769354
  H      0.731736   -0.731736   -2.301674
  H      2.320461   -1.067608   -1.608586
  H      1.067608   -2.320461   -1.608586
  H      1.367271   -1.367271    1.955379
  H      1.426927   -2.677880    0.769354
  H      2.677880   -1.426927    0.769354
  H      0.731736    0.731736    2.301674
  H      2.320461    1.067608    1.608586
  H      1.067608    2.320461    1.608586
  H      1.367271    1.367271   -1.955379
  H      1.426927    2.677880   -0.769354
  H      2.677880    1.426927   -0.769354

 Total Charge           Charge          ....    0
 Multiplicity           Mult            ....    1
 Number of Electrons    NEL             ....   96
 Basis Dimension        Dim             ....  228

ORBITAL ENERGIES
----------------

  NO   OCC          E(Eh)            E(eV)
   0   2.0000     -10.444822      -284.2181
   1   2.0000     -10.444706      -284.2149
   2   2.0000     -10.444706      -284.2149
   3   2.0000     -10.444593      -284.2118
   4   2.0000     -10.419535      -283.5300
   5   2.0000     -10.419518      -283.5295
   6   2.0000     -10.419518      -283.5295
   7   2.0000     -10.419513      -283.5294
   8   2.0000     -10.417651      -283.4787
   9   2.0000     -10.417651      -283.4787
  10   2.0000     -10.417650      -283.4787
  11   2.0000     -10.417629      -283.4781
  12   2.0000      -0.954799       -25.9814
  13   2.0000      -0.854249       -23.2453
  14   2.0000      -0.854249       -23.2453
  15   2.0000      -0.808751       -22.0072
  16   2.0000      -0.783956       -21.3325
  17   2.0000      -0.751651       -20.4535
  18   2.0000      -0.751651       -20.4535
  19   2.0000      -0.739925       -20.1344
  20   2.0000      -0.728802       -19.8317
  21   2.0000      -0.612028       -16.6541
  22   2.0000      -0.612028       -16.6541
  23   2.0000      -0.536814       -14.6074
  24   2.0000      -0.535637       -14.5754
  25   2.0000      -0.525687       -14.3047
  26   2.0000      -0.501036       -13.6339
  27   2.0000      -0.494408       -13.4535
  28   2.0000      -0.494408       -13.4535
  29   2.0000      -0.450096       -12.2477
  30   2.0000      -0.450096       -12.2477
  31   2.0000      -0.449716       -12.2374
  32   2.0000      -0.440361       -11.9828
  33   2.0000      -0.440361       -11.9828
  34   2.0000      -0.436360       -11.8740
  35   2.0000      -0.433812       -11.8046
  36   2.0000      -0.431184       -11.7331
  37   2.0000      -0.420615       -11.4455
  38   2.0000      -0.413069       -11.2402
  39   2.0000      -0.413069       -11.2402
  40   2.0000      -0.406236       -11.0543
  41   2.0000      -0.404521       -11.0076
  42   2.0000      -0.374036       -10.1780
  43   2.0000      -0.374036       -10.1780
  44   2.0000      -0.334130        -9.0921
  45   2.0000      -0.325090        -8.8462
  46   2.0000      -0.307397        -8.3647
  47   2.0000      -0.307397        -8.3647
  48   0.0000       0.103245         2.8094
  49   0.0000       0.130388         3.5480
  50   0.0000       0.151093         4.1114
  51   0.0000       0.166773         4.5381
  52   0.0000       0.167649         4.5620

MULLIKEN ATOMIC CHARGES
-----------------------
   0 C :   -0.010557
   1 C :   -0.010557
   2 C :   -0.010557
   3 C :   -0.010558
   4 C :   -0.640451
   5 C :   -0.648031
   6 C :   -0.648031
   7 C :   -0.640451
   8 C :   -0.648031
   9 C :   -0.640451
  10 C :   -0.648031
  11 C :   -0.640451
  12 H :    0.216837
  13 H :    0.214126
  14 H :    0.214126
  15 H :    0.211619
  16 H :    0.221166
  17 H :    0.221166
  18 H :    0.211619
  19 H :    0.221166
  20 H :    0.221166
  21 H :    0.216837
  22 H :    0.214126
  23 H :    0.214126
  24 H :    0.211619
  25 H :    0.221166
  26 H :    0.221166
  27 H :    0.216837
  28 H :    0.214126
  29 H :    0.214126
  30 H :    0.211619
  31 H :    0.221166
  32 H :    0.221166
  33 H :    0.216837
  34 H :    0.214126
  35 H :    0.214126
Sum of atomic charges:    0.0000000

LOEWDIN ATOMIC CHARGES
----------------------
   0 C :   -0.061326
   1 C :   -0.061327
   2 C :   -0.061326
   3 C :   -0.061327
   4 C :   -0.346915
   5 C :   -0.342228
   6 C :   -0.342228
   7 C :   -0.346915
   8 C :   -0.342228
   9 C :   -0.346915
  10 C :   -0.342228
  11 C :   -0.346915
  12 H :    0.124115
  13 H :    0.126423
  14 H :    0.126423
  15 H :    0.118295
  16 H :    0.127607
  17 H :    0.127607
  18 H :    0.118295
  19 H :    0.127607
  20 H :    0.127607
  21 H :    0.124115
  22 H :    0.126423
  23 H :    0.126423
  24 H :    0.118295
  25 H :    0.127607
  26 H :    0.127607
  27 H :    0.124115
  28 H :    0.126423
  29 H :    0.126423
  30 H :    0.118295
  31 H :    0.127607
  32 H :    0.127607
  33 H :    0.124115
  34 H :    0.126423
  35 H :    0.126423

  Mayer bond orders larger than 0.100000
B(  0-C ,  1-C ) :   0.9359 B(  0-C ,  3-C ) :   0.9359 B(  0-C ,  4-C ) :   0.9888
B(  0-C ,  5-C ) :   0.9813 B(  1-C ,  2-C ) :   0.9359 B(  1-C ,  6-C ) :   0.9813
B(  1-C ,  7-C ) :   0.9888 B(  2-C ,  3-C ) :   0.9359 B(  2-C ,  8-C ) :   0.9813
B(  2-C ,  9-C ) :   0.9888 B(  3-C , 10-C ) :   0.9813 B(  3-C , 11-C ) :   0.9888
B(  4-C , 12-H ) :   0.9224 B(  4-C , 13-H ) :   0.9274 B(  4-C , 14-H ) :   0.9274
B(  5-C , 15-H ) :   0.9212 B(  5-C , 16-H ) :   0.9225 B(  5-C , 17-H ) :   0.9225
B(  6-C , 18-H ) :   0.9212 B(  6-C , 19-H ) :   0.9225 B(  6-C , 20-H ) :   0.9225
B(  7-C , 21-H ) :   0.9224 B(  7-C , 22-H ) :   0.9274 B(  7-C , 23-H ) :   0.9274
B(  8-C , 24-H ) :   0.9212 B(  8-C , 25-H ) :   0.9225 B(  8-C , 26-H ) :   0.9225
B(  9-C , 27-H ) :   0.9224 B(  9-C , 28-H ) :   0.9274 B(  9-C , 29-H ) :   0.9274
B( 10-C , 30-H ) :   0.9212 B( 10-C , 31-H ) :   0.9225 B( 10-C , 32-H ) :   0.9225
B( 11-C , 33-H ) :   0.9224 B( 11-C , 34-H ) :   0.9274 B( 11-C , 35-H ) :   0.9274

Dispersion correction           -0.025407714
FINAL SINGLE POINT ENERGY      -470.705907668868

DIPOLE MOMENT
-------------
                                X             Y             Z
Electronic contribution:      0.00000       0.00000      -0.00000
Nuclear contribution   :     -0.00000       0.00000       0.00000
                        -----------------------------------------
Total Dipole Moment    :      0.00000       0.00000      -0.00000
                        -----------------------------------------
Magnitude (a.u.)       :      0.00000
Magnitude (Debye)      :      0.00000

Rotational constants in cm-1:     0.032911     0.032911     0.027914
Rotational constants in MHz :   986.648291   986.648291   836.847027

                             ****ORCA TERMINATED NORMALLY****
TOTAL RUN TIME: 0 days 0 hours 2 minutes 36 seconds 336 msec
