                         Program Version 5.0.3 -  RELEASE  -
|  1> ! PBEh-3c def2/J TightSCF DefGrid3
|  2>
|  3> %maxcore 60000
|  4>
|  5> %pal
|  6> nprocs 4
|  7> end
|  8>
|  9> *xyzfile 1 1 his0.xyz
| 10>
| 11>                          ****END OF INPUT****

CARTESIAN COORDINATES (ANGSTROEM)
---------------------------------
  N      1.256940    1.636619   -0.157974
  C      1.527928    0.364654    0.522047
  C      1.827172   -0.715035   -0.510605
  O      1.240312   -1.753156   -0.586333
  H      1.256360    2.393049    0.517792
  O      2.827000   -0.349160   -1.300606
  H     -0.519205    1.300060   -0.766608
  H      2.407349    0.427536    1.180394
  C      0.328420   -0.036646    1.381336
  C     -0.919069   -0.223205    0.588066
  H      0.165888    0.735776    2.141284
  H      0.547537   -0.956703    1.924063
  C     -1.946924   -1.102156    0.690048
  N     -1.212614    0.583762   -0.481517
  H     -2.113872   -1.915194    1.376246
  H     -3.686353   -1.286255   -0.515348
  C     -2.356705    0.220153   -1.028158
  N     -2.821646   -0.800295   -0.323695
  H     -2.829151    0.668250   -1.887072
  H      1.988705    1.854441   -0.824961
  H      3.031931   -1.046496   -1.938399

 Total Charge           Charge          ....    1
 Multiplicity           Mult            ....    1
 Number of Electrons    NEL             ....   82
 Basis Dimension        Dim             ....  185

ORBITAL ENERGIES
----------------

  NO   OCC          E(Eh)            E(eV)
   0   2.0000     -19.675676      -535.4024
   1   2.0000     -19.620250      -533.8942
   2   2.0000     -14.892611      -405.2486
   3   2.0000     -14.874513      -404.7561
   4   2.0000     -14.784367      -402.3031
   5   2.0000     -10.715257      -291.5770
   6   2.0000     -10.710324      -291.4427
   7   2.0000     -10.659495      -290.0596
   8   2.0000     -10.649094      -289.7766
   9   2.0000     -10.637927      -289.4727
  10   2.0000     -10.607189      -288.6363
  11   2.0000      -1.362388       -37.0725
  12   2.0000      -1.347278       -36.6613
  13   2.0000      -1.267000       -34.4768
  14   2.0000      -1.200352       -32.6632
  15   2.0000      -1.151760       -31.3410
  16   2.0000      -1.058281       -28.7973
  17   2.0000      -0.993016       -27.0213
  18   2.0000      -0.927060       -25.2266
  19   2.0000      -0.915819       -24.9207
  20   2.0000      -0.860705       -23.4210
  21   2.0000      -0.830836       -22.6082
  22   2.0000      -0.787613       -21.4320
  23   2.0000      -0.758115       -20.6294
  24   2.0000      -0.732686       -19.9374
  25   2.0000      -0.709747       -19.3132
  26   2.0000      -0.705805       -19.2059
  27   2.0000      -0.693963       -18.8837
  28   2.0000      -0.691965       -18.8293
  29   2.0000      -0.671221       -18.2649
  30   2.0000      -0.667979       -18.1766
  31   2.0000      -0.637216       -17.3395
  32   2.0000      -0.622291       -16.9334
  33   2.0000      -0.606803       -16.5119
  34   2.0000      -0.583225       -15.8704
  35   2.0000      -0.575681       -15.6651
  36   2.0000      -0.547648       -14.9023
  37   2.0000      -0.512169       -13.9368
  38   2.0000      -0.484651       -13.1880
  39   2.0000      -0.461163       -12.5489
  40   2.0000      -0.449379       -12.2282
  41   0.0000      -0.141667        -3.8550
  42   0.0000      -0.098436        -2.6786
  43   0.0000      -0.087968        -2.3937
  44   0.0000      -0.039219        -1.0672
  45   0.0000      -0.009421        -0.2564

MULLIKEN ATOMIC CHARGES
-----------------------
   0 N :   -0.811654
   1 C :   -0.257955
   2 C :    0.564959
   3 O :   -0.360394
   4 H :    0.365628
   5 O :   -0.578425
   6 H :    0.444406
   7 H :    0.300606
   8 C :   -0.513719
   9 C :    0.340179
  10 H :    0.284598
  11 H :    0.297823
  12 C :   -0.092406
  13 N :   -0.595138
  14 H :    0.313125
  15 H :    0.427224
  16 C :    0.242458
  17 N :   -0.553913
  18 H :    0.328681
  19 H :    0.384865
  20 H :    0.469053
Sum of atomic charges:    1.0000000

LOEWDIN ATOMIC CHARGES
----------------------
   0 N :   -0.455190
   1 C :   -0.109366
   2 C :    0.117297
   3 O :   -0.194494
   4 H :    0.248795
   5 O :   -0.269698
   6 H :    0.301963
   7 H :    0.153950
   8 C :   -0.227566
   9 C :    0.019068
  10 H :    0.161089
  11 H :    0.174612
  12 C :   -0.075572
  13 N :   -0.081882
  14 H :    0.175413
  15 H :    0.301704
  16 C :    0.039996
  17 N :   -0.066862
  18 H :    0.178118
  19 H :    0.256624
  20 H :    0.352001

  Mayer bond orders larger than 0.100000
B(  0-N ,  1-C ) :   0.9653 B(  0-N ,  4-H ) :   0.8347 B(  0-N ,  6-H ) :   0.1473
B(  0-N , 19-H ) :   0.8187 B(  1-C ,  2-C ) :   0.8856 B(  1-C ,  7-H ) :   0.8696
B(  1-C ,  8-C ) :   0.9599 B(  2-C ,  3-O ) :   2.0664 B(  2-C ,  5-O ) :   1.1797
B(  5-O , 20-H ) :   0.7370 B(  6-H , 13-N ) :   0.6629 B(  8-C ,  9-C ) :   0.9227
B(  8-C , 10-H ) :   0.8908 B(  8-C , 11-H ) :   0.8930 B(  9-C , 12-C ) :   1.6126
B(  9-C , 13-N ) :   1.1309 B( 12-C , 14-H ) :   0.8821 B( 12-C , 17-N ) :   1.1201
B( 13-N , 16-C ) :   1.3325 B( 15-H , 17-N ) :   0.7869 B( 16-C , 17-N ) :   1.3009
B( 16-C , 18-H ) :   0.8702

Dispersion correction           -0.012429318
FINAL SINGLE POINT ENERGY      -547.991903370992

DIPOLE MOMENT
-------------
                                X             Y             Z
Electronic contribution:     -1.58162      -2.99995      -2.67719
Nuclear contribution   :     -0.20041       3.79621       2.47193
                        -----------------------------------------
Total Dipole Moment    :     -1.78204       0.79626      -0.20527
                        -----------------------------------------
Magnitude (a.u.)       :      1.96260
Magnitude (Debye)      :      4.98854

Rotational constants in cm-1:     0.069623     0.025838     0.024407
Rotational constants in MHz :  2087.246048   774.593957   731.706627

                             ****ORCA TERMINATED NORMALLY****
TOTAL RUN TIME: 0 days 0 hours 2 minutes 16 seconds 735 msec
