                         Program Version 5.0.3 -  RELEASE  -
|  1> ! PBEh-3c def2/J TightSCF DefGrid3
|  2>
|  3> %maxcore 60000
|  4>
|  5> %pal
|  6> nprocs 4
|  7> end
|  8>
|  9> *xyzfile 0 1 P_GG.xyz
| 10>
| 11>                          ****END OF INPUT****

CARTESIAN COORDINATES (ANGSTROEM)
---------------------------------
  C      0.000000    1.833709   -0.650028
  C      0.835431    0.977116    0.293545
  C      0.000000    0.000000    1.118854
  C     -0.835431   -0.977116    0.293545
  C      0.000000   -1.833709   -0.650028
  H      0.613884    2.577986   -1.154810
  H     -1.588542   -0.430944   -0.276794
  H     -1.386124   -1.625973    0.976510
  H     -0.782410    2.361064   -0.103148
  H     -0.482803    1.230780   -1.417723
  H     -0.663702    0.571147    1.773022
  H      0.663702   -0.571147    1.773022
  H      1.588542    0.430944   -0.276794
  H      1.386124    1.625973    0.976510
  H     -0.613884   -2.577986   -1.154810
  H      0.482803   -1.230780   -1.417723
  H      0.782410   -2.361064   -0.103148

 Total Charge           Charge          ....    0
 Multiplicity           Mult            ....    1
 Number of Electrons    NEL             ....   42
 Basis Dimension        Dim             ....   99

ORBITAL ENERGIES
----------------

  NO   OCC          E(Eh)            E(eV)
   0   2.0000     -10.426302      -283.7141
   1   2.0000     -10.426268      -283.7132
   2   2.0000     -10.425107      -283.6816
   3   2.0000     -10.418583      -283.5041
   4   2.0000     -10.418574      -283.5038
   5   2.0000      -0.894092       -24.3295
   6   2.0000      -0.829692       -22.5771
   7   2.0000      -0.756936       -20.5973
   8   2.0000      -0.690949       -18.8017
   9   2.0000      -0.619173       -16.8486
  10   2.0000      -0.527449       -14.3526
  11   2.0000      -0.522382       -14.2147
  12   2.0000      -0.469874       -12.7859
  13   2.0000      -0.459671       -12.5083
  14   2.0000      -0.455438       -12.3931
  15   2.0000      -0.416579       -11.3357
  16   2.0000      -0.404385       -11.0039
  17   2.0000      -0.397384       -10.8134
  18   2.0000      -0.365787        -9.9536
  19   2.0000      -0.360214        -9.8019
  20   2.0000      -0.360113        -9.7992
  21   0.0000       0.128144         3.4870
  22   0.0000       0.174803         4.7566
  23   0.0000       0.180962         4.9242
  24   0.0000       0.190648         5.1878
  25   0.0000       0.195669         5.3244

MULLIKEN ATOMIC CHARGES
-----------------------
   0 C :   -0.647188
   1 C :   -0.426354
   2 C :   -0.411095
   3 C :   -0.426354
   4 C :   -0.647188
   5 H :    0.220875
   6 H :    0.210333
   7 H :    0.216994
   8 H :    0.209134
   9 H :    0.212834
  10 H :    0.208919
  11 H :    0.208919
  12 H :    0.210333
  13 H :    0.216994
  14 H :    0.220875
  15 H :    0.212834
  16 H :    0.209134
Sum of atomic charges:   -0.0000000

LOEWDIN ATOMIC CHARGES
----------------------
   0 C :   -0.365146
   1 C :   -0.249818
   2 C :   -0.242978
   3 C :   -0.249818
   4 C :   -0.365146
   5 H :    0.126810
   6 H :    0.119751
   7 H :    0.123015
   8 H :    0.123319
   9 H :    0.122871
  10 H :    0.120688
  11 H :    0.120688
  12 H :    0.119751
  13 H :    0.123015
  14 H :    0.126810
  15 H :    0.122871
  16 H :    0.123319

  Mayer bond orders larger than 0.100000
B(  0-C ,  1-C ) :   0.9886 B(  0-C ,  5-H ) :   0.9312 B(  0-C ,  8-H ) :   0.9294
B(  0-C ,  9-H ) :   0.9259 B(  1-C ,  2-C ) :   0.9879 B(  1-C , 12-H ) :   0.9177
B(  1-C , 13-H ) :   0.9235 B(  2-C ,  3-C ) :   0.9879 B(  2-C , 10-H ) :   0.9234
B(  2-C , 11-H ) :   0.9234 B(  3-C ,  4-C ) :   0.9886 B(  3-C ,  6-H ) :   0.9177
B(  3-C ,  7-H ) :   0.9235 B(  4-C , 14-H ) :   0.9312 B(  4-C , 15-H ) :   0.9259
B(  4-C , 16-H ) :   0.9294

Dispersion correction           -0.007349733
FINAL SINGLE POINT ENERGY      -197.332961886760

DIPOLE MOMENT
-------------
                                X             Y             Z
Electronic contribution:     -0.00000      -0.00000       1.10246
Nuclear contribution   :     -0.00000       0.00000      -1.07765
                        -----------------------------------------
Total Dipole Moment    :     -0.00000      -0.00000       0.02482
                        -----------------------------------------
Magnitude (a.u.)       :      0.02482
Magnitude (Debye)      :      0.06308

Rotational constants in cm-1:     0.253297     0.101041     0.091320
Rotational constants in MHz :  7593.653876  3029.126463  2737.718558

                             ****ORCA TERMINATED NORMALLY****
TOTAL RUN TIME: 0 days 0 hours 1 minutes 34 seconds 383 msec
