                         Program Version 5.0.3 -  RELEASE  -
|  1> ! PBEh-3c def2/J TightSCF DefGrid3
|  2>
|  3> %maxcore 60000
|  4>
|  5> %pal
|  6> nprocs 4
|  7> end
|  8>
|  9> *xyzfile 0 1 03ts.xyz
| 10>
| 11>                          ****END OF INPUT****

CARTESIAN COORDINATES (ANGSTROEM)
---------------------------------
  C     -0.604403    0.096284    1.304476
  Si    -0.749113    1.431227    0.000000
  C      1.541445   -0.090641    0.697742
  C     -1.157812   -1.042048    0.704231
  C     -0.604403    0.096284   -1.304476
  C      1.541445   -0.090641   -0.697742
  C     -1.157812   -1.042048   -0.704231
  H     -0.575682    0.195105    2.383393
  H     -2.101623    2.060163    0.000000
  H      0.270933    2.509472    0.000000
  H      1.876087    0.789609    1.233399
  H      1.647480   -1.020871    1.237947
  H     -1.437213   -1.927869    1.267424
  H     -0.575682    0.195105   -2.383393
  H      1.876087    0.789609   -1.233399
  H      1.647480   -1.020871   -1.237947
  H     -1.437213   -1.927869   -1.267424

 Total Charge           Charge          ....    0
 Multiplicity           Mult            ....    1
 Number of Electrons    NEL             ....   60
 Basis Dimension        Dim             ....  128

ORBITAL ENERGIES
----------------

  NO   OCC          E(Eh)            E(eV)
   0   2.0000     -66.730413     -1815.8269
   1   2.0000     -10.447568      -284.2928
   2   2.0000     -10.446963      -284.2763
   3   2.0000     -10.445678      -284.2413
   4   2.0000     -10.445672      -284.2412
   5   2.0000     -10.444817      -284.2179
   6   2.0000     -10.444332      -284.2047
   7   2.0000      -5.506254      -149.8328
   8   2.0000      -3.797807      -103.3436
   9   2.0000      -3.797210      -103.3273
  10   2.0000      -3.796719      -103.3140
  11   2.0000      -0.920205       -25.0401
  12   2.0000      -0.839223       -22.8364
  13   2.0000      -0.787157       -21.4196
  14   2.0000      -0.698994       -19.0206
  15   2.0000      -0.655886       -17.8476
  16   2.0000      -0.584330       -15.9004
  17   2.0000      -0.569675       -15.5016
  18   2.0000      -0.548680       -14.9303
  19   2.0000      -0.514112       -13.9897
  20   2.0000      -0.468875       -12.7587
  21   2.0000      -0.447533       -12.1780
  22   2.0000      -0.440521       -11.9872
  23   2.0000      -0.426598       -11.6083
  24   2.0000      -0.411614       -11.2006
  25   2.0000      -0.380672       -10.3586
  26   2.0000      -0.359732        -9.7888
  27   2.0000      -0.349395        -9.5075
  28   2.0000      -0.271988        -7.4012
  29   2.0000      -0.261677        -7.1206
  30   0.0000      -0.003280        -0.0892
  31   0.0000       0.026942         0.7331
  32   0.0000       0.072450         1.9715
  33   0.0000       0.113567         3.0903
  34   0.0000       0.146649         3.9905

MULLIKEN ATOMIC CHARGES
-----------------------
   0 C :   -0.514838
   1 Si:    0.499639
   2 C :   -0.471125
   3 C :   -0.174663
   4 C :   -0.514839
   5 C :   -0.471124
   6 C :   -0.174662
   7 H :    0.227458
   8 H :   -0.011503
   9 H :   -0.029634
  10 H :    0.243247
  11 H :    0.242941
  12 H :    0.217728
  13 H :    0.227458
  14 H :    0.243247
  15 H :    0.242941
  16 H :    0.217728
Sum of atomic charges:   -0.0000000

LOEWDIN ATOMIC CHARGES
----------------------
   0 C :   -0.279217
   1 Si:    0.358800
   2 C :   -0.263758
   3 C :   -0.152148
   4 C :   -0.279217
   5 C :   -0.263758
   6 C :   -0.152148
   7 H :    0.139601
   8 H :   -0.028488
   9 H :   -0.037282
  10 H :    0.139610
  11 H :    0.139324
  12 H :    0.130073
  13 H :    0.139601
  14 H :    0.139610
  15 H :    0.139324
  16 H :    0.130073

  Mayer bond orders larger than 0.100000
B(  0-C ,  1-Si) :   0.9172 B(  0-C ,  2-C ) :   0.3829 B(  0-C ,  3-C ) :   1.4145
B(  0-C ,  7-H ) :   0.9148 B(  1-Si,  4-C ) :   0.9172 B(  1-Si,  8-H ) :   0.9498
B(  1-Si,  9-H ) :   0.9544 B(  2-C ,  5-C ) :   1.4265 B(  2-C , 10-H ) :   0.9118
B(  2-C , 11-H ) :   0.9201 B(  3-C ,  6-C ) :   1.3847 B(  3-C , 12-H ) :   0.9187
B(  4-C ,  5-C ) :   0.3829 B(  4-C ,  6-C ) :   1.4145 B(  4-C , 13-H ) :   0.9148
B(  5-C , 14-H ) :   0.9118 B(  5-C , 15-H ) :   0.9201 B(  6-C , 16-H ) :   0.9187

Dispersion correction           -0.010558240
FINAL SINGLE POINT ENERGY      -523.157597547855

DIPOLE MOMENT
-------------
                                X             Y             Z
Electronic contribution:     -3.06144       0.62022       0.00000
Nuclear contribution   :      3.28660      -0.82865      -0.00000
                        -----------------------------------------
Total Dipole Moment    :      0.22516      -0.20843       0.00000
                        -----------------------------------------
Magnitude (a.u.)       :      0.30682
Magnitude (Debye)      :      0.77987

Rotational constants in cm-1:     0.089392     0.078271     0.072260
Rotational constants in MHz :  2679.919396  2346.508955  2166.313692

                             ****ORCA TERMINATED NORMALLY****
TOTAL RUN TIME: 0 days 0 hours 1 minutes 41 seconds 592 msec
