                         Program Version 5.0.3 -  RELEASE  -
|  1> ! PBEh-3c def2/J TightSCF DefGrid3
|  2>
|  3> %maxcore 60000
|  4>
|  5> %pal
|  6> nprocs 4
|  7> end
|  8>
|  9> *xyzfile 1 1 E36.xyz
| 10>
| 11>                          ****END OF INPUT****

CARTESIAN COORDINATES (ANGSTROEM)
---------------------------------
  C     -0.731002    0.214765    0.000000
  S      1.119354    0.291588    0.000000
  H      1.390779   -0.593095    0.997425
  H      1.390779   -0.593095   -0.997425
  H     -1.051465    0.748787    0.892207
  H     -1.066980   -0.817737    0.000000
  H     -1.051465    0.748787   -0.892207

 Total Charge           Charge          ....    1
 Multiplicity           Mult            ....    1
 Number of Electrons    NEL             ....   26
 Basis Dimension        Dim             ....   43

ORBITAL ENERGIES
----------------

  NO   OCC          E(Eh)            E(eV)
   0   2.0000     -89.919675     -2446.8388
   1   2.0000     -10.708521      -291.3937
   2   2.0000      -8.560813      -232.9516
   3   2.0000      -6.449109      -175.4892
   4   2.0000      -6.449088      -175.4886
   5   2.0000      -6.444604      -175.3666
   6   2.0000      -1.171454       -31.8769
   7   2.0000      -0.999369       -27.1942
   8   2.0000      -0.799548       -21.7568
   9   2.0000      -0.758525       -20.6405
  10   2.0000      -0.706577       -19.2269
  11   2.0000      -0.697199       -18.9718
  12   2.0000      -0.641589       -17.4585
  13   0.0000      -0.200072        -5.4442
  14   0.0000      -0.197498        -5.3742
  15   0.0000      -0.148017        -4.0277
  16   0.0000      -0.029716        -0.8086
  17   0.0000      -0.021840        -0.5943

MULLIKEN ATOMIC CHARGES
-----------------------
   0 C :   -0.756255
   1 S :    0.074234
   2 H :    0.327771
   3 H :    0.327771
   4 H :    0.345773
   5 H :    0.334934
   6 H :    0.345773
Sum of atomic charges:    1.0000000

LOEWDIN ATOMIC CHARGES
----------------------
   0 C :   -0.419066
   1 S :    0.475594
   2 H :    0.188574
   3 H :    0.188574
   4 H :    0.191475
   5 H :    0.183374
   6 H :    0.191475

  Mayer bond orders larger than 0.100000
B(  0-C ,  1-S ) :   0.9271 B(  0-C ,  4-H ) :   0.8522 B(  0-C ,  5-H ) :   0.8582
B(  0-C ,  6-H ) :   0.8522 B(  1-S ,  2-H ) :   0.8545 B(  1-S ,  3-H ) :   0.8545

Dispersion correction           -0.001995127
FINAL SINGLE POINT ENERGY      -438.454438897042

DIPOLE MOMENT
-------------
                                X             Y             Z
Electronic contribution:      2.86218       0.88534       0.00000
Nuclear contribution   :     -2.93270      -1.56731       0.00000
                        -----------------------------------------
Total Dipole Moment    :     -0.07053      -0.68197       0.00000
                        -----------------------------------------
Magnitude (a.u.)       :      0.68561
Magnitude (Debye)      :      1.74268

Rotational constants in cm-1:     2.497630     0.396924     0.392567
Rotational constants in MHz : 74877.055314 11899.487347 11768.856947

                             ****ORCA TERMINATED NORMALLY****
TOTAL RUN TIME: 0 days 0 hours 1 minutes 1 seconds 246 msec
