                         Program Version 5.0.3 -  RELEASE  -
|  1> ! PBEh-3c def2/J TightSCF DefGrid3
|  2>
|  3> %maxcore 60000
|  4>
|  5> %pal
|  6> nprocs 4
|  7> end
|  8>
|  9> *xyzfile 0 1 24_benI-Nm3B.xyz
| 10>
| 11>                          ****END OF INPUT****

CARTESIAN COORDINATES (ANGSTROEM)
---------------------------------
  N     -4.582592   -0.001975    4.004623
  C     -5.432248    1.033095    3.443517
  C     -5.202064   -1.306091    3.850638
  C     -4.310611    0.268567    5.404935
  H     -5.229215    0.283653    6.011064
  H     -3.647037   -0.497335    5.803030
  H     -3.817378    1.234370    5.501577
  H     -6.408881    1.087511    3.948188
  H     -4.940827    2.000098    3.537088
  H     -5.600716    0.834533    2.386353
  H     -6.166829   -1.372212    4.376310
  H     -5.370060   -1.508609    2.794164
  H     -4.539891   -2.074437    4.246253

 Total Charge           Charge          ....    0
 Multiplicity           Mult            ....    1
 Number of Electrons    NEL             ....   34
 Basis Dimension        Dim             ....   78

ORBITAL ENERGIES
----------------

  NO   OCC          E(Eh)            E(eV)
   0   2.0000     -14.622680      -397.9033
   1   2.0000     -10.446384      -284.2605
   2   2.0000     -10.446380      -284.2605
   3   2.0000     -10.446310      -284.2585
   4   2.0000      -1.017406       -27.6850
   5   2.0000      -0.783065       -21.3083
   6   2.0000      -0.783054       -21.3080
   7   2.0000      -0.659791       -17.9538
   8   2.0000      -0.526819       -14.3355
   9   2.0000      -0.522209       -14.2100
  10   2.0000      -0.522188       -14.2095
  11   2.0000      -0.444322       -12.0906
  12   2.0000      -0.444321       -12.0906
  13   2.0000      -0.418254       -11.3813
  14   2.0000      -0.406830       -11.0704
  15   2.0000      -0.406794       -11.0694
  16   2.0000      -0.259688        -7.0665
  17   0.0000       0.125707         3.4207
  18   0.0000       0.196823         5.3558
  19   0.0000       0.196834         5.3561
  20   0.0000       0.206367         5.6155
  21   0.0000       0.213053         5.7975

MULLIKEN ATOMIC CHARGES
-----------------------
   0 N :   -0.371106
   1 C :   -0.490159
   2 C :   -0.490139
   3 C :   -0.490131
   4 H :    0.176313
   5 H :    0.218757
   6 H :    0.218761
   7 H :    0.176317
   8 H :    0.218780
   9 H :    0.218760
  10 H :    0.176309
  11 H :    0.218780
  12 H :    0.218758
Sum of atomic charges:   -0.0000000

LOEWDIN ATOMIC CHARGES
----------------------
   0 N :   -0.234690
   1 C :   -0.259001
   2 C :   -0.258994
   3 C :   -0.258998
   4 H :    0.093593
   5 H :    0.121810
   6 H :    0.121814
   7 H :    0.093600
   8 H :    0.121823
   9 H :    0.121809
  10 H :    0.093602
  11 H :    0.121817
  12 H :    0.121816

  Mayer bond orders larger than 0.100000
B(  0-N ,  1-C ) :   0.9984 B(  0-N ,  2-C ) :   0.9984 B(  0-N ,  3-C ) :   0.9984
B(  1-C ,  7-H ) :   0.9060 B(  1-C ,  8-H ) :   0.9284 B(  1-C ,  9-H ) :   0.9284
B(  2-C , 10-H ) :   0.9060 B(  2-C , 11-H ) :   0.9284 B(  2-C , 12-H ) :   0.9284
B(  3-C ,  4-H ) :   0.9060 B(  3-C ,  5-H ) :   0.9284 B(  3-C ,  6-H ) :   0.9284

Dispersion correction           -0.004882592
FINAL SINGLE POINT ENERGY      -174.087042555672

DIPOLE MOMENT
-------------
                                X             Y             Z
Electronic contribution:      1.25158      -0.00143      -0.71617
Nuclear contribution   :     -1.50035       0.00168       0.85844
                        -----------------------------------------
Total Dipole Moment    :     -0.24877       0.00024       0.14228
                        -----------------------------------------
Magnitude (a.u.)       :      0.28658
Magnitude (Debye)      :      0.72843

Rotational constants in cm-1:     0.293313     0.293276     0.166928
Rotational constants in MHz :  8793.300540  8792.203733  5004.370923

                             ****ORCA TERMINATED NORMALLY****
TOTAL RUN TIME: 0 days 0 hours 1 minutes 7 seconds 491 msec
