                         Program Version 5.0.3 -  RELEASE  -
|  1> ! PBEh-3c def2/J TightSCF DefGrid3
|  2>
|  3> %maxcore 60000
|  4>
|  5> %pal
|  6> nprocs 4
|  7> end
|  8>
|  9> *xyzfile 0 1 P8X.xyz
| 10>
| 11>                          ****END OF INPUT****

CARTESIAN COORDINATES (ANGSTROEM)
---------------------------------
  C      0.847644    0.489260   -1.062273
  C     -0.293596   -0.533103   -0.767837
  C     -0.293596   -0.533103    0.767837
  C      0.847644    0.489260    1.062273
  C      2.135206   -0.199018   -0.664131
  C      2.135206   -0.199018    0.664131
  O      0.656768    1.414656    0.000000
  C     -1.648452    0.019162   -1.163561
  C     -1.648452    0.019162    1.163561
  N     -2.338312    0.294206    0.000000
  O     -2.064554    0.199897    2.275788
  O     -2.064554    0.199897   -2.275788
  H      0.792698    0.977591   -2.031835
  H     -0.132832   -1.495681   -1.251418
  H     -0.132832   -1.495681    1.251418
  H      0.792698    0.977591    2.031835
  H      2.833497   -0.668238   -1.342668
  H      2.833497   -0.668238    1.342668
  H     -3.257677    0.711402    0.000000

 Total Charge           Charge          ....    0
 Multiplicity           Mult            ....    1
 Number of Electrons    NEL             ....   86
 Basis Dimension        Dim             ....  194

ORBITAL ENERGIES
----------------

  NO   OCC          E(Eh)            E(eV)
   0   2.0000     -19.520572      -531.1818
   1   2.0000     -19.492411      -530.4155
   2   2.0000     -19.492389      -530.4149
   3   2.0000     -14.695829      -399.8938
   4   2.0000     -10.576382      -287.7980
   5   2.0000     -10.576325      -287.7964
   6   2.0000     -10.523921      -286.3705
   7   2.0000     -10.523840      -286.3682
   8   2.0000     -10.480754      -285.1958
   9   2.0000     -10.480529      -285.1897
  10   2.0000     -10.467324      -284.8304
  11   2.0000     -10.466320      -284.8031
  12   2.0000      -1.203574       -32.7509
  13   2.0000      -1.186825       -32.2951
  14   2.0000      -1.171277       -31.8721
  15   2.0000      -1.064728       -28.9727
  16   2.0000      -0.936017       -25.4703
  17   2.0000      -0.891289       -24.2532
  18   2.0000      -0.863913       -23.5083
  19   2.0000      -0.759698       -20.6724
  20   2.0000      -0.722372       -19.6568
  21   2.0000      -0.690141       -18.7797
  22   2.0000      -0.659300       -17.9405
  23   2.0000      -0.649206       -17.6658
  24   2.0000      -0.626067       -17.0362
  25   2.0000      -0.598103       -16.2752
  26   2.0000      -0.558055       -15.1855
  27   2.0000      -0.539303       -14.6752
  28   2.0000      -0.522804       -14.2262
  29   2.0000      -0.506144       -13.7729
  30   2.0000      -0.502034       -13.6610
  31   2.0000      -0.488290       -13.2871
  32   2.0000      -0.481930       -13.1140
  33   2.0000      -0.467876       -12.7315
  34   2.0000      -0.458066       -12.4646
  35   2.0000      -0.435805       -11.8589
  36   2.0000      -0.426522       -11.6063
  37   2.0000      -0.408113       -11.1053
  38   2.0000      -0.353717        -9.6251
  39   2.0000      -0.348587        -9.4855
  40   2.0000      -0.343557        -9.3487
  41   2.0000      -0.321708        -8.7541
  42   2.0000      -0.316548        -8.6137
  43   0.0000      -0.001035        -0.0282
  44   0.0000       0.022024         0.5993
  45   0.0000       0.049507         1.3472
  46   0.0000       0.136116         3.7039
  47   0.0000       0.141187         3.8419

MULLIKEN ATOMIC CHARGES
-----------------------
   0 C :   -0.056454
   1 C :   -0.397655
   2 C :   -0.397654
   3 C :   -0.056454
   4 C :   -0.173909
   5 C :   -0.173910
   6 O :   -0.436215
   7 C :    0.564526
   8 C :    0.564526
   9 N :   -0.672195
  10 O :   -0.361770
  11 O :   -0.361770
  12 H :    0.261159
  13 H :    0.292155
  14 H :    0.292155
  15 H :    0.261159
  16 H :    0.232758
  17 H :    0.232757
  18 H :    0.386792
Sum of atomic charges:    0.0000000

LOEWDIN ATOMIC CHARGES
----------------------
   0 C :    0.011183
   1 C :   -0.170248
   2 C :   -0.170248
   3 C :    0.011183
   4 C :   -0.139260
   5 C :   -0.139260
   6 O :   -0.225421
   7 C :    0.130715
   8 C :    0.130715
   9 N :   -0.191186
  10 O :   -0.208036
  11 O :   -0.208036
  12 H :    0.142862
  13 H :    0.158321
  14 H :    0.158321
  15 H :    0.142862
  16 H :    0.143924
  17 H :    0.143923
  18 H :    0.277685

  Mayer bond orders larger than 0.100000
B(  0-C ,  1-C ) :   0.9102 B(  0-C ,  4-C ) :   0.9785 B(  0-C ,  6-O ) :   0.9738
B(  0-C , 12-H ) :   0.9118 B(  1-C ,  2-C ) :   0.9431 B(  1-C ,  7-C ) :   0.9056
B(  1-C , 13-H ) :   0.8886 B(  2-C ,  3-C ) :   0.9102 B(  2-C ,  8-C ) :   0.9056
B(  2-C , 14-H ) :   0.8886 B(  3-C ,  5-C ) :   0.9785 B(  3-C ,  6-O ) :   0.9738
B(  3-C , 15-H ) :   0.9118 B(  4-C ,  5-C ) :   1.8662 B(  4-C , 16-H ) :   0.9162
B(  5-C , 17-H ) :   0.9162 B(  7-C ,  9-N ) :   1.0474 B(  7-C , 11-O ) :   2.1153
B(  8-C ,  9-N ) :   1.0474 B(  8-C , 10-O ) :   2.1153 B(  9-N , 18-H ) :   0.8020

Dispersion correction           -0.012672167
FINAL SINGLE POINT ENERGY      -588.224422994439

DIPOLE MOMENT
-------------
                                X             Y             Z
Electronic contribution:     -4.88597       1.71328      -0.00000
Nuclear contribution   :      5.82014      -2.57595       0.00000
                        -----------------------------------------
Total Dipole Moment    :      0.93416      -0.86267      -0.00000
                        -----------------------------------------
Magnitude (a.u.)       :      1.27155
Magnitude (Debye)      :      3.23203

Rotational constants in cm-1:     0.053180     0.035679     0.024576
Rotational constants in MHz :  1594.284078  1069.619072   736.764926

                             ****ORCA TERMINATED NORMALLY****
TOTAL RUN TIME: 0 days 0 hours 2 minutes 10 seconds 941 msec
