                         Program Version 5.0.3 -  RELEASE  -
|  1> ! PBEh-3c def2/J TightSCF DefGrid3
|  2>
|  3> %maxcore 60000
|  4>
|  5> %pal
|  6> nprocs 4
|  7> end
|  8>
|  9> *xyzfile 0 1 2a.xyz
| 10>
| 11>                          ****END OF INPUT****

CARTESIAN COORDINATES (ANGSTROEM)
---------------------------------
  C     -0.366696    1.097709    0.000000
  C     -0.742654   -0.207490    0.000000
  C      0.260542   -1.237672    0.000000
  O      1.475491   -1.004176    0.000000
  O      0.888677    1.506885    0.000000
  H     -1.084158    1.907347    0.000000
  H     -1.788451   -0.463879    0.000000
  H     -0.081008   -2.280357    0.000000
  H      1.438257    0.681632    0.000000

 Total Charge           Charge          ....    0
 Multiplicity           Mult            ....    1
 Number of Electrons    NEL             ....   38
 Basis Dimension        Dim             ....   83

ORBITAL ENERGIES
----------------

  NO   OCC          E(Eh)            E(eV)
   0   2.0000     -19.542941      -531.7905
   1   2.0000     -19.502654      -530.6942
   2   2.0000     -10.545218      -286.9500
   3   2.0000     -10.542972      -286.8889
   4   2.0000     -10.448285      -284.3123
   5   2.0000      -1.204489       -32.7758
   6   2.0000      -1.153355       -31.3844
   7   2.0000      -0.882096       -24.0031
   8   2.0000      -0.748976       -20.3807
   9   2.0000      -0.685693       -18.6586
  10   2.0000      -0.595375       -16.2010
  11   2.0000      -0.552101       -15.0234
  12   2.0000      -0.521320       -14.1858
  13   2.0000      -0.501878       -13.6568
  14   2.0000      -0.493171       -13.4199
  15   2.0000      -0.446386       -12.1468
  16   2.0000      -0.444295       -12.0899
  17   2.0000      -0.327173        -8.9028
  18   2.0000      -0.301174        -8.1954
  19   0.0000      -0.036619        -0.9965
  20   0.0000       0.107229         2.9179
  21   0.0000       0.149056         4.0560
  22   0.0000       0.184692         5.0257
  23   0.0000       0.198584         5.4037

MULLIKEN ATOMIC CHARGES
-----------------------
   0 C :    0.138392
   1 C :   -0.475842
   2 C :    0.168452
   3 O :   -0.432677
   4 O :   -0.556408
   5 H :    0.251152
   6 H :    0.243345
   7 H :    0.193286
   8 H :    0.470300
Sum of atomic charges:   -0.0000000

LOEWDIN ATOMIC CHARGES
----------------------
   0 C :    0.074737
   1 C :   -0.336573
   2 C :    0.071703
   3 O :   -0.263337
   4 O :   -0.274242
   5 H :    0.137692
   6 H :    0.149591
   7 H :    0.105637
   8 H :    0.334792

  Mayer bond orders larger than 0.100000
B(  0-C ,  1-C ) :   1.5544 B(  0-C ,  4-O ) :   1.2884 B(  0-C ,  5-H ) :   0.9079
B(  1-C ,  2-C ) :   1.1200 B(  1-C ,  6-H ) :   0.9078 B(  2-C ,  3-O ) :   1.8620
B(  2-C ,  7-H ) :   0.8904 B(  3-O ,  8-H ) :   0.1581 B(  4-O ,  8-H ) :   0.6291

Dispersion correction           -0.003341733
FINAL SINGLE POINT ENERGY      -266.572356842623

DIPOLE MOMENT
-------------
                                X             Y             Z
Electronic contribution:      1.69794       0.31327      -0.00000
Nuclear contribution   :     -2.75669      -0.33311       0.00000
                        -----------------------------------------
Total Dipole Moment    :     -1.05875      -0.01984      -0.00000
                        -----------------------------------------
Magnitude (a.u.)       :      1.05893
Magnitude (Debye)      :      2.69159

Rotational constants in cm-1:     0.330238     0.172415     0.113275
Rotational constants in MHz :  9900.299730  5168.862323  3395.894615

                             ****ORCA TERMINATED NORMALLY****
TOTAL RUN TIME: 0 days 0 hours 1 minutes 31 seconds 800 msec
