                         Program Version 5.0.3 -  RELEASE  -
|  1> ! PBEh-3c def2/J TightSCF DefGrid3
|  2>
|  3> %maxcore 60000
|  4>
|  5> %pal
|  6> nprocs 4
|  7> end
|  8>
|  9> *xyzfile 0 2 10.xyz
| 10>
| 11>                          ****END OF INPUT****

CARTESIAN COORDINATES (ANGSTROEM)
---------------------------------
  H      1.889492   -0.893210    1.476084
  Si    -1.105949    1.721507   -0.223037
  H      1.129968   -0.906782   -1.318893
  Cl    -1.306460   -2.334077   -0.310873
  C      2.045830   -0.268868    0.587012
  H     -2.419847   -0.819803   -1.395503
  F     -2.645598    0.052869   -1.694788
  H      0.865832    1.411800   -1.676987
  C     -1.208883    0.226450    1.081816
  N      0.415331    1.040850   -0.840975
  B     -0.486860   -0.825921    0.246039
  H     -0.571353    0.629919    1.888529
  Mg     1.732145    1.839572    0.979245
  C      0.872733   -0.353103   -0.409088
  H      3.000458   -0.556790    0.133789
  H     -2.206837    0.035587    1.477630

 Total Charge           Charge          ....    0
 Multiplicity           Mult            ....    2
 Number of Electrons    NEL             ....   89
 Basis Dimension        Dim             ....  158

ORBITAL ENERGIES
----------------
                 SPIN UP ORBITALS
  NO   OCC          E(Eh)            E(eV)
   0   1.0000    -102.318043     -2784.2155
   1   1.0000     -66.771679     -1816.9498
   2   1.0000     -47.356736     -1288.6423
   3   1.0000     -25.094793      -682.8640
   4   1.0000     -14.665446      -399.0671
   5   1.0000     -10.473715      -285.0043
   6   1.0000     -10.432995      -283.8962
   7   1.0000     -10.406248      -283.1684
   8   1.0000      -9.784846      -266.2592
   9   1.0000      -7.470099      -203.2717
  10   1.0000      -7.466675      -203.1785
  11   1.0000      -7.464546      -203.1206
  12   1.0000      -7.020481      -191.0370
  13   1.0000      -5.540415      -150.7623
  14   1.0000      -3.832998      -104.3012
  15   1.0000      -3.829330      -104.2014
  16   1.0000      -3.827038      -104.1390
  17   1.0000      -3.306597       -89.9771
  18   1.0000      -1.989674       -54.1418
  19   1.0000      -1.988488       -54.1095
  20   1.0000      -1.986232       -54.0481
  21   1.0000      -1.319796       -35.9135
  22   1.0000      -0.996965       -27.1288
  23   1.0000      -0.937635       -25.5143
  24   1.0000      -0.807113       -21.9627
  25   1.0000      -0.792881       -21.5754
  26   1.0000      -0.671462       -18.2714
  27   1.0000      -0.623401       -16.9636
  28   1.0000      -0.604507       -16.4495
  29   1.0000      -0.551765       -15.0143
  30   1.0000      -0.527991       -14.3674
  31   1.0000      -0.507662       -13.8142
  32   1.0000      -0.490029       -13.3344
  33   1.0000      -0.485935       -13.2230
  34   1.0000      -0.464051       -12.6275
  35   1.0000      -0.453203       -12.3323
  36   1.0000      -0.446532       -12.1508
  37   1.0000      -0.415751       -11.3132
  38   1.0000      -0.400172       -10.8892
  39   1.0000      -0.392160       -10.6712
  40   1.0000      -0.359884        -9.7929
  41   1.0000      -0.337021        -9.1708
  42   1.0000      -0.289587        -7.8801
  43   1.0000      -0.270185        -7.3521
  44   1.0000      -0.185885        -5.0582
  45   0.0000      -0.049758        -1.3540
  46   0.0000      -0.024423        -0.6646
  47   0.0000      -0.009904        -0.2695
  48   0.0000       0.037738         1.0269
  49   0.0000       0.053924         1.4673

                 SPIN DOWN ORBITALS
  NO   OCC          E(Eh)            E(eV)
   0   1.0000    -102.318045     -2784.2155
   1   1.0000     -66.771580     -1816.9471
   2   1.0000     -47.354341     -1288.5771
   3   1.0000     -25.094772      -682.8635
   4   1.0000     -14.663534      -399.0150
   5   1.0000     -10.473873      -285.0086
   6   1.0000     -10.432843      -283.8921
   7   1.0000     -10.403622      -283.0970
   8   1.0000      -9.784848      -266.2593
   9   1.0000      -7.470108      -203.2720
  10   1.0000      -7.466691      -203.1790
  11   1.0000      -7.464530      -203.1202
  12   1.0000      -7.020460      -191.0364
  13   1.0000      -5.540261      -150.7582
  14   1.0000      -3.832806      -104.2959
  15   1.0000      -3.829284      -104.2001
  16   1.0000      -3.826904      -104.1354
  17   1.0000      -3.302110       -89.8550
  18   1.0000      -1.987323       -54.0778
  19   1.0000      -1.985863       -54.0381
  20   1.0000      -1.980982       -53.9053
  21   1.0000      -1.319756       -35.9124
  22   1.0000      -0.993444       -27.0330
  23   1.0000      -0.937519       -25.5112
  24   1.0000      -0.804640       -21.8954
  25   1.0000      -0.791053       -21.5256
  26   1.0000      -0.667477       -18.1630
  27   1.0000      -0.623275       -16.9602
  28   1.0000      -0.603497       -16.4220
  29   1.0000      -0.551142       -14.9973
  30   1.0000      -0.526693       -14.3320
  31   1.0000      -0.506386       -13.7795
  32   1.0000      -0.489942       -13.3320
  33   1.0000      -0.485371       -13.2076
  34   1.0000      -0.460200       -12.5227
  35   1.0000      -0.452048       -12.3009
  36   1.0000      -0.445261       -12.1162
  37   1.0000      -0.415330       -11.3017
  38   1.0000      -0.399578       -10.8731
  39   1.0000      -0.390844       -10.6354
  40   1.0000      -0.355950        -9.6859
  41   1.0000      -0.330187        -8.9848
  42   1.0000      -0.277104        -7.5404
  43   1.0000      -0.261425        -7.1137
  44   0.0000      -0.061204        -1.6655
  45   0.0000      -0.032246        -0.8775
  46   0.0000      -0.022678        -0.6171
  47   0.0000       0.009732         0.2648
  48   0.0000       0.051731         1.4077

MULLIKEN ATOMIC CHARGES AND SPIN POPULATIONS
--------------------------------------------
   0 H :    0.230350   -0.006388
   1 Si:    0.591264    0.038535
   2 H :    0.242158    0.007654
   3 Cl:   -0.244416   -0.000136
   4 C :   -0.855881    0.132576
   5 H :    0.518271    0.000154
   6 F :   -0.483706    0.000091
   7 H :    0.378367   -0.002765
   8 C :   -0.952323    0.003724
   9 N :   -0.814951    0.063826
  10 B :    0.495891   -0.002542
  11 H :    0.293806   -0.002494
  12 Mg:    0.286680    0.784692
  13 C :   -0.181283   -0.010710
  14 H :    0.224067   -0.006121
  15 H :    0.271707   -0.000095
Sum of atomic charges         :   -0.0000000

LOEWDIN ATOMIC CHARGES AND SPIN POPULATIONS
-------------------------------------------
   0 H :    0.157646   -0.003314
   1 Si:    0.411236    0.046566
   2 H :    0.144352    0.005961
   3 Cl:    0.058259   -0.000273
   4 C :   -0.453515    0.104117
   5 H :    0.370951    0.000079
   6 F :   -0.353059    0.000534
   7 H :    0.273625   -0.001900
   8 C :   -0.512267    0.006538
   9 N :   -0.317676    0.061041
  10 B :   -0.042576   -0.000554
  11 H :    0.207373   -0.000527
  12 Mg:   -0.143951    0.786571
  13 C :   -0.117437   -0.001896
  14 H :    0.150953   -0.002926
  15 H :    0.166084   -0.000017

  Mayer bond orders larger than 0.100000
B(  0-H ,  4-C ) :   0.8983 B(  1-Si,  6-F ) :   0.1188 B(  1-Si,  8-C ) :   0.7909
B(  1-Si,  9-N ) :   0.9614 B(  1-Si, 12-Mg) :   0.2092 B(  2-H , 13-C ) :   0.9101
B(  3-Cl,  5-H ) :   0.1013 B(  3-Cl, 10-B ) :   1.1089 B(  4-C , 12-Mg) :   0.7076
B(  4-C , 13-C ) :   0.9409 B(  4-C , 14-H ) :   0.9098 B(  5-H ,  6-F ) :   0.6344
B(  7-H ,  9-N ) :   0.8019 B(  8-C , 10-B ) :   1.0550 B(  8-C , 11-H ) :   0.8381
B(  8-C , 15-H ) :   0.9041 B(  9-N , 12-Mg) :   0.3118 B(  9-N , 13-C ) :   0.8340
B( 10-B , 13-C ) :   0.9295

Dispersion correction           -0.010925905
FINAL SINGLE POINT ENERGY     -1245.977525835413

DIPOLE MOMENT
-------------
                                X             Y             Z
Electronic contribution:     -6.44168      -2.08809      -2.71282
Nuclear contribution   :      6.91641       1.88821       2.44855
                        -----------------------------------------
Total Dipole Moment    :      0.47473      -0.19988      -0.26427
                        -----------------------------------------
Magnitude (a.u.)       :      0.57893
Magnitude (Debye)      :      1.47152

Rotational constants in cm-1:     0.048443     0.026945     0.020374
Rotational constants in MHz :  1452.299211   807.793111   610.793346

                             ****ORCA TERMINATED NORMALLY****
TOTAL RUN TIME: 0 days 0 hours 4 minutes 36 seconds 748 msec
