                         Program Version 5.0.3 -  RELEASE  -
|  1> ! PBEh-3c def2/J TightSCF DefGrid3
|  2>
|  3> %maxcore 60000
|  4>
|  5> %pal
|  6> nprocs 4
|  7> end
|  8>
|  9> *xyzfile 1 1 213A.xyz
| 10>
| 11>                          ****END OF INPUT****

CARTESIAN COORDINATES (ANGSTROEM)
---------------------------------
  C     -0.489080   -1.393130   -0.478210
  N      0.097440   -0.122700    0.070810
  C     -0.618460    1.154260   -0.292940
  C     -2.014410    1.269680    0.320210
  H      0.160760   -0.221690    1.094660
  H      1.067290   -0.090400   -0.274440
  H     -0.530720   -1.310870   -1.568300
  H      0.189240   -2.200250   -0.187400
  H     -1.489300   -1.565600   -0.071990
  H     -2.440310    2.251230    0.077760
  H     -2.700510    0.506650   -0.066090
  H     -1.976340    1.183600    1.414930
  H     -0.651510    1.194680   -1.388580
  H      0.032420    1.968670    0.049090

 Total Charge           Charge          ....    1
 Multiplicity           Mult            ....    1
 Number of Electrons    NEL             ....   34
 Basis Dimension        Dim             ....   80

ORBITAL ENERGIES
----------------

  NO   OCC          E(Eh)            E(eV)
   0   2.0000     -14.961500      -407.1231
   1   2.0000     -10.687012      -290.8084
   2   2.0000     -10.681647      -290.6624
   3   2.0000     -10.611478      -288.7530
   4   2.0000      -1.305010       -35.5111
   5   2.0000      -1.049058       -28.5463
   6   2.0000      -0.988760       -26.9055
   7   2.0000      -0.903675       -24.5902
   8   2.0000      -0.849468       -23.1152
   9   2.0000      -0.788588       -21.4586
  10   2.0000      -0.739163       -20.1136
  11   2.0000      -0.686374       -18.6772
  12   2.0000      -0.661998       -18.0139
  13   2.0000      -0.657591       -17.8940
  14   2.0000      -0.625491       -17.0205
  15   2.0000      -0.607932       -16.5427
  16   2.0000      -0.589892       -16.0518
  17   0.0000      -0.113584        -3.0908
  18   0.0000      -0.055613        -1.5133
  19   0.0000      -0.034803        -0.9470
  20   0.0000      -0.021950        -0.5973
  21   0.0000      -0.011538        -0.3140

MULLIKEN ATOMIC CHARGES
-----------------------
   0 C :   -0.542306
   1 N :   -0.646947
   2 C :   -0.339517
   3 C :   -0.666034
   4 H :    0.442572
   5 H :    0.448631
   6 H :    0.298497
   7 H :    0.298965
   8 H :    0.304794
   9 H :    0.301788
  10 H :    0.255291
  11 H :    0.248513
  12 H :    0.295988
  13 H :    0.299765
Sum of atomic charges:    1.0000000

LOEWDIN ATOMIC CHARGES
----------------------
   0 C :   -0.248610
   1 N :   -0.131607
   2 C :   -0.149764
   3 C :   -0.369384
   4 H :    0.301360
   5 H :    0.304676
   6 H :    0.166930
   7 H :    0.166409
   8 H :    0.168658
   9 H :    0.177114
  10 H :    0.148161
  11 H :    0.147064
  12 H :    0.159370
  13 H :    0.159623

  Mayer bond orders larger than 0.100000
B(  0-C ,  1-N ) :   0.8623 B(  0-C ,  6-H ) :   0.8905 B(  0-C ,  7-H ) :   0.8921
B(  0-C ,  8-H ) :   0.8881 B(  1-N ,  2-C ) :   0.8208 B(  1-N ,  4-H ) :   0.7735
B(  1-N ,  5-H ) :   0.7768 B(  2-C ,  3-C ) :   0.9794 B(  2-C , 12-H ) :   0.8833
B(  2-C , 13-H ) :   0.8864 B(  3-C ,  9-H ) :   0.8907 B(  3-C , 10-H ) :   0.9073
B(  3-C , 11-H ) :   0.9085

Dispersion correction           -0.005348191
FINAL SINGLE POINT ENERGY      -174.465103650818

DIPOLE MOMENT
-------------
                                X             Y             Z
Electronic contribution:      1.87842      -0.14481       0.16086
Nuclear contribution   :     -0.86854      -0.32568      -0.02738
                        -----------------------------------------
Total Dipole Moment    :      1.00988      -0.47049       0.13349
                        -----------------------------------------
Magnitude (a.u.)       :      1.12207
Magnitude (Debye)      :      2.85207

Rotational constants in cm-1:     0.452929     0.156954     0.134946
Rotational constants in MHz : 13578.475934  4705.375787  4045.586523

                             ****ORCA TERMINATED NORMALLY****
TOTAL RUN TIME: 0 days 0 hours 0 minutes 49 seconds 997 msec
