                         Program Version 5.0.3 -  RELEASE  -
|  1> ! PBEh-3c def2/J TightSCF DefGrid3
|  2>
|  3> %maxcore 60000
|  4>
|  5> %pal
|  6> nprocs 4
|  7> end
|  8>
|  9> *xyzfile 0 1 s4-c2v.xyz
| 10>
| 11>                          ****END OF INPUT****

CARTESIAN COORDINATES (ANGSTROEM)
---------------------------------
  S     -1.552343    0.921961    0.000000
  S     -1.068508   -0.921961    0.000000
  S      1.068508   -0.921961    0.000000
  S      1.552343    0.921961    0.000000

 Total Charge           Charge          ....    0
 Multiplicity           Mult            ....    1
 Number of Electrons    NEL             ....   64
 Basis Dimension        Dim             ....   72

ORBITAL ENERGIES
----------------

  NO   OCC          E(Eh)            E(eV)
   0   2.0000     -89.687807     -2440.5293
   1   2.0000     -89.687748     -2440.5277
   2   2.0000     -89.619818     -2438.6792
   3   2.0000     -89.619750     -2438.6774
   4   2.0000      -8.324724      -226.5273
   5   2.0000      -8.324706      -226.5268
   6   2.0000      -8.258340      -224.7209
   7   2.0000      -8.258314      -224.7201
   8   2.0000      -6.214268      -169.0988
   9   2.0000      -6.214173      -169.0962
  10   2.0000      -6.210191      -168.9879
  11   2.0000      -6.210188      -168.9878
  12   2.0000      -6.209805      -168.9774
  13   2.0000      -6.209782      -168.9767
  14   2.0000      -6.149287      -167.3306
  15   2.0000      -6.149275      -167.3303
  16   2.0000      -6.144735      -167.2068
  17   2.0000      -6.144723      -167.2064
  18   2.0000      -6.141101      -167.1079
  19   2.0000      -6.141080      -167.1073
  20   2.0000      -0.982267       -26.7289
  21   2.0000      -0.903834       -24.5946
  22   2.0000      -0.751685       -20.4544
  23   2.0000      -0.645999       -17.5785
  24   2.0000      -0.511953       -13.9310
  25   2.0000      -0.474856       -12.9215
  26   2.0000      -0.458915       -12.4877
  27   2.0000      -0.423503       -11.5241
  28   2.0000      -0.384284       -10.4569
  29   2.0000      -0.312861        -8.5134
  30   2.0000      -0.312228        -8.4961
  31   2.0000      -0.272578        -7.4172
  32   0.0000      -0.149818        -4.0768
  33   0.0000      -0.041661        -1.1337
  34   0.0000      -0.005849        -0.1592
  35   0.0000       0.071213         1.9378
  36   0.0000       0.264171         7.1885

MULLIKEN ATOMIC CHARGES
-----------------------
   0 S :   -0.099164
   1 S :    0.099164
   2 S :    0.099164
   3 S :   -0.099164
Sum of atomic charges:    0.0000000

LOEWDIN ATOMIC CHARGES
----------------------
   0 S :   -0.141575
   1 S :    0.141575
   2 S :    0.141575
   3 S :   -0.141575

  Mayer bond orders larger than 0.100000
B(  0-S ,  1-S ) :   1.4726 B(  0-S ,  2-S ) :   0.3753 B(  0-S ,  3-S ) :   0.3587
B(  1-S ,  2-S ) :   0.8774 B(  1-S ,  3-S ) :   0.3753 B(  2-S ,  3-S ) :   1.4726

Dispersion correction           -0.002886931
FINAL SINGLE POINT ENERGY     -1590.935371262555

DIPOLE MOMENT
-------------
                                X             Y             Z
Electronic contribution:      0.00000      -0.57285      -0.00000
Nuclear contribution   :     -0.00000       0.00000       0.00000
                        -----------------------------------------
Total Dipole Moment    :      0.00000      -0.57285      -0.00000
                        -----------------------------------------
Magnitude (a.u.)       :      0.57285
Magnitude (Debye)      :      1.45607

Rotational constants in cm-1:     0.154649     0.074028     0.050063
Rotational constants in MHz :  4636.273933  2219.294869  1500.861453

                             ****ORCA TERMINATED NORMALLY****
TOTAL RUN TIME: 0 days 0 hours 0 minutes 37 seconds 491 msec
