                         Program Version 5.0.3 -  RELEASE  -
|  1> ! PBEh-3c def2/J TightSCF DefGrid3
|  2>
|  3> %maxcore 60000
|  4>
|  5> %pal
|  6> nprocs 4
|  7> end
|  8>
|  9> *xyzfile 0 1 14.xyz
| 10>
| 11>                          ****END OF INPUT****

CARTESIAN COORDINATES (ANGSTROEM)
---------------------------------
  C      0.020636    1.508893   -1.270161
  C     -1.232970    0.951134   -1.513636
  C     -1.336596   -0.248667   -2.214642
  C     -0.187233   -0.889374   -2.675021
  C      1.066498   -0.326486   -2.437468
  C      1.170710    0.873710   -1.736210
  C     -1.980358    0.402885    1.995129
  C     -0.773232    1.051077    2.200473
  C      0.412139    0.426316    1.778520
  C      1.792572    0.780925    1.813175
  C      2.486846   -0.254043    1.229105
  C      0.327831   -0.849918    1.155649
  C     -0.886757   -1.508281    0.954468
  C     -2.037576   -0.864736    1.381418
  H     -2.123391    1.442484   -1.146794
  H     -0.743443    2.021413    2.679383
  H     -2.309264   -0.684581   -2.398897
  H     -0.268632   -1.818546   -3.223498
  H      2.228721    1.676860    2.221365
  H      1.958295   -0.817054   -2.805621
  H      2.141745    1.309707   -1.546269
  H     -2.900056    0.872415    2.317680
  H     -0.931211   -2.478454    0.477175
  H      0.101784    2.433594   -0.715622
  H     -2.997289   -1.343354    1.240614
  H      1.849284   -2.059666    0.327078
  H      3.544590   -0.371503    1.063297
  N      1.606356   -1.236750    0.849312

 Total Charge           Charge          ....    0
 Multiplicity           Mult            ....    1
 Number of Electrons    NEL             ....  104
 Basis Dimension        Dim             ....  251

ORBITAL ENERGIES
----------------

  NO   OCC          E(Eh)            E(eV)
   0   2.0000     -14.679749      -399.4563
   1   2.0000     -10.475962      -285.0654
   2   2.0000     -10.471659      -284.9483
   3   2.0000     -10.441132      -284.1177
   4   2.0000     -10.440495      -284.1003
   5   2.0000     -10.440073      -284.0888
   6   2.0000     -10.438648      -284.0500
   7   2.0000     -10.438310      -284.0408
   8   2.0000     -10.437537      -284.0198
   9   2.0000     -10.437090      -284.0077
  10   2.0000     -10.436956      -284.0040
  11   2.0000     -10.436260      -283.9851
  12   2.0000     -10.435438      -283.9627
  13   2.0000     -10.431596      -283.8582
  14   2.0000     -10.428031      -283.7611
  15   2.0000      -1.083854       -29.4932
  16   2.0000      -0.942323       -25.6419
  17   2.0000      -0.930340       -25.3158
  18   2.0000      -0.869768       -23.6676
  19   2.0000      -0.825713       -22.4688
  20   2.0000      -0.825524       -22.4636
  21   2.0000      -0.818546       -22.2738
  22   2.0000      -0.798656       -21.7325
  23   2.0000      -0.696784       -18.9604
  24   2.0000      -0.669438       -18.2163
  25   2.0000      -0.669358       -18.2142
  26   2.0000      -0.665110       -18.0986
  27   2.0000      -0.651093       -17.7171
  28   2.0000      -0.604369       -16.4457
  29   2.0000      -0.582686       -15.8557
  30   2.0000      -0.544105       -14.8058
  31   2.0000      -0.530958       -14.4481
  32   2.0000      -0.516795       -14.0627
  33   2.0000      -0.498556       -13.5664
  34   2.0000      -0.494606       -13.4589
  35   2.0000      -0.485937       -13.2230
  36   2.0000      -0.481859       -13.1120
  37   2.0000      -0.472567       -12.8592
  38   2.0000      -0.471722       -12.8362
  39   2.0000      -0.465343       -12.6626
  40   2.0000      -0.445987       -12.1359
  41   2.0000      -0.408835       -11.1250
  42   2.0000      -0.406300       -11.0560
  43   2.0000      -0.389322       -10.5940
  44   2.0000      -0.388852       -10.5812
  45   2.0000      -0.384824       -10.4716
  46   2.0000      -0.381251       -10.3744
  47   2.0000      -0.322309        -8.7705
  48   2.0000      -0.281415        -7.6577
  49   2.0000      -0.279375        -7.6022
  50   2.0000      -0.254603        -6.9281
  51   2.0000      -0.237196        -6.4544
  52   0.0000       0.013399         0.3646
  53   0.0000       0.028666         0.7801
  54   0.0000       0.029474         0.8020
  55   0.0000       0.054988         1.4963
  56   0.0000       0.099724         2.7136

MULLIKEN ATOMIC CHARGES
-----------------------
   0 C :   -0.211529
   1 C :   -0.197495
   2 C :   -0.215633
   3 C :   -0.229811
   4 C :   -0.239393
   5 C :   -0.203475
   6 C :   -0.234226
   7 C :   -0.311131
   8 C :    0.099900
   9 C :   -0.371824
  10 C :   -0.011196
  11 C :    0.378264
  12 C :   -0.251931
  13 C :   -0.241628
  14 H :    0.218866
  15 H :    0.205291
  16 H :    0.213346
  17 H :    0.210805
  18 H :    0.209305
  19 H :    0.208134
  20 H :    0.215400
  21 H :    0.208431
  22 H :    0.209105
  23 H :    0.221257
  24 H :    0.209668
  25 H :    0.357737
  26 H :    0.234527
  27 N :   -0.680765
Sum of atomic charges:    0.0000000

LOEWDIN ATOMIC CHARGES
----------------------
   0 C :   -0.123028
   1 C :   -0.124137
   2 C :   -0.133884
   3 C :   -0.147521
   4 C :   -0.149126
   5 C :   -0.132006
   6 C :   -0.159946
   7 C :   -0.133189
   8 C :   -0.059183
   9 C :   -0.204459
  10 C :   -0.080823
  11 C :    0.022021
  12 C :   -0.150685
  13 C :   -0.145029
  14 H :    0.136867
  15 H :    0.133853
  16 H :    0.132693
  17 H :    0.130750
  18 H :    0.137274
  19 H :    0.128932
  20 H :    0.134338
  21 H :    0.131157
  22 H :    0.134695
  23 H :    0.136649
  24 H :    0.131917
  25 H :    0.261838
  26 H :    0.133253
  27 N :   -0.143221

  Mayer bond orders larger than 0.100000
B(  0-C ,  1-C ) :   1.4303 B(  0-C ,  5-C ) :   1.4308 B(  0-C , 23-H ) :   0.9176
B(  1-C ,  2-C ) :   1.4276 B(  1-C , 14-H ) :   0.9180 B(  2-C ,  3-C ) :   1.4275
B(  2-C , 16-H ) :   0.9216 B(  3-C ,  4-C ) :   1.4240 B(  3-C , 17-H ) :   0.9226
B(  4-C ,  5-C ) :   1.4275 B(  4-C , 19-H ) :   0.9235 B(  5-C , 20-H ) :   0.9184
B(  6-C ,  7-C ) :   1.4997 B(  6-C , 13-C ) :   1.3579 B(  6-C , 21-H ) :   0.9223
B(  7-C ,  8-C ) :   1.2865 B(  7-C , 15-H ) :   0.9316 B(  8-C ,  9-C ) :   1.2502
B(  8-C , 11-C ) :   1.2448 B(  9-C , 10-C ) :   1.5796 B(  9-C , 18-H ) :   0.9351
B( 10-C , 26-H ) :   0.9121 B( 10-C , 27-N ) :   1.1534 B( 11-C , 12-C ) :   1.3018
B( 11-C , 27-N ) :   1.0170 B( 12-C , 13-C ) :   1.4968 B( 12-C , 22-H ) :   0.9201
B( 13-C , 24-H ) :   0.9220 B( 25-H , 27-N ) :   0.8337

Dispersion correction           -0.021343400
FINAL SINGLE POINT ENERGY      -594.747617278312

DIPOLE MOMENT
-------------
                                X             Y             Z
Electronic contribution:      1.44150      -0.96743       2.27716
Nuclear contribution   :     -0.92125       0.44547      -2.55630
                        -----------------------------------------
Total Dipole Moment    :      0.52025      -0.52196      -0.27913
                        -----------------------------------------
Magnitude (a.u.)       :      0.78805
Magnitude (Debye)      :      2.00306

Rotational constants in cm-1:     0.029086     0.021246     0.016811
Rotational constants in MHz :   871.973793   636.940047   503.984290

                             ****ORCA TERMINATED NORMALLY****
TOTAL RUN TIME: 0 days 0 hours 3 minutes 22 seconds 247 msec
