                         Program Version 5.0.3 -  RELEASE  -
|  1> ! PBEh-3c def2/J TightSCF DefGrid3
|  2>
|  3> %maxcore 60000
|  4>
|  5> %pal
|  6> nprocs 4
|  7> end
|  8>
|  9> *xyzfile 0 1 16A.xyz
| 10>
| 11>                          ****END OF INPUT****

CARTESIAN COORDINATES (ANGSTROEM)
---------------------------------
  C      0.515413   -0.473460    1.756757
  H      1.575035   -0.398468    1.526072
  H      0.288021   -1.480514    2.098541
  H      0.270089    0.209396    2.566655
  C     -0.375218   -0.155954    0.576958
  O     -1.597606   -0.183547    0.667022
  N      0.286297    0.155071   -0.567930
  H      1.293526    0.155909   -0.563751
  C     -0.418407    0.481569   -1.785663
  H     -1.480654    0.408420   -1.573763
  H     -0.190587    1.494438   -2.115204
  H     -0.165909   -0.212860   -2.585694

 Total Charge           Charge          ....    0
 Multiplicity           Mult            ....    1
 Number of Electrons    NEL             ....   40
 Basis Dimension        Dim             ....   89

ORBITAL ENERGIES
----------------

  NO   OCC          E(Eh)            E(eV)
   0   2.0000     -19.446716      -529.1720
   1   2.0000     -14.662115      -398.9764
   2   2.0000     -10.543021      -286.8902
   3   2.0000     -10.463700      -284.7318
   4   2.0000     -10.439388      -284.0702
   5   2.0000      -1.133231       -30.8368
   6   2.0000      -1.019021       -27.7290
   7   2.0000      -0.840331       -22.8666
   8   2.0000      -0.768232       -20.9047
   9   2.0000      -0.655528       -17.8378
  10   2.0000      -0.569062       -15.4850
  11   2.0000      -0.529739       -14.4149
  12   2.0000      -0.520638       -14.1673
  13   2.0000      -0.482292       -13.1238
  14   2.0000      -0.461702       -12.5635
  15   2.0000      -0.451454       -12.2847
  16   2.0000      -0.441448       -12.0124
  17   2.0000      -0.403854       -10.9894
  18   2.0000      -0.302177        -8.2227
  19   2.0000      -0.299137        -8.1399
  20   0.0000       0.070365         1.9147
  21   0.0000       0.118694         3.2298
  22   0.0000       0.176750         4.8096
  23   0.0000       0.188772         5.1368
  24   0.0000       0.201931         5.4948

MULLIKEN ATOMIC CHARGES
-----------------------
   0 C :   -0.746532
   1 H :    0.203950
   2 H :    0.258150
   3 H :    0.258431
   4 C :    0.521631
   5 O :   -0.432794
   6 N :   -0.626465
   7 H :    0.353113
   8 C :   -0.495207
   9 H :    0.270941
  10 H :    0.217508
  11 H :    0.217275
Sum of atomic charges:    0.0000000

LOEWDIN ATOMIC CHARGES
----------------------
   0 C :   -0.389782
   1 H :    0.122749
   2 H :    0.156418
   3 H :    0.156456
   4 C :    0.104337
   5 O :   -0.288126
   6 N :   -0.250879
   7 H :    0.251326
   8 C :   -0.260979
   9 H :    0.157088
  10 H :    0.120664
  11 H :    0.120727

  Mayer bond orders larger than 0.100000
B(  0-C ,  1-H ) :   0.9230 B(  0-C ,  2-H ) :   0.9105 B(  0-C ,  3-H ) :   0.9106
B(  0-C ,  4-C ) :   0.9246 B(  4-C ,  5-O ) :   1.9931 B(  4-C ,  6-N ) :   1.1362
B(  6-N ,  7-H ) :   0.8286 B(  6-N ,  8-C ) :   0.9501 B(  8-C ,  9-H ) :   0.8942
B(  8-C , 10-H ) :   0.9222 B(  8-C , 11-H ) :   0.9224

Dispersion correction           -0.004437171
FINAL SINGLE POINT ENERGY      -247.988930305713

DIPOLE MOMENT
-------------
                                X             Y             Z
Electronic contribution:     -2.14642      -0.25313       0.92734
Nuclear contribution   :      3.56810       0.37648      -1.37969
                        -----------------------------------------
Total Dipole Moment    :      1.42168       0.12335      -0.45236
                        -----------------------------------------
Magnitude (a.u.)       :      1.49700
Magnitude (Debye)      :      3.80507

Rotational constants in cm-1:     0.332783     0.130091     0.096895
Rotational constants in MHz :  9976.595567  3900.017951  2904.836735

                             ****ORCA TERMINATED NORMALLY****
TOTAL RUN TIME: 0 days 0 hours 1 minutes 27 seconds 33 msec
