                         Program Version 5.0.3 -  RELEASE  -
|  1> ! PBEh-3c def2/J TightSCF DefGrid3
|  2>
|  3> %maxcore 60000
|  4>
|  5> %pal
|  6> nprocs 4
|  7> end
|  8>
|  9> *xyzfile 0 1 n2h4_st1.xyz
| 10>
| 11>                          ****END OF INPUT****

CARTESIAN COORDINATES (ANGSTROEM)
---------------------------------
  N      0.050755    0.706692   -0.221881
  N     -0.050755   -0.706692   -0.221881
  H      0.852383   -1.083877   -0.457776
  H     -0.323589   -1.074054    0.679653
  H     -0.852383    1.083877   -0.457776
  H      0.323589    1.074054    0.679653

 Total Charge           Charge          ....    0
 Multiplicity           Mult            ....    1
 Number of Electrons    NEL             ....   18
 Basis Dimension        Dim             ....   38

ORBITAL ENERGIES
----------------

  NO   OCC          E(Eh)            E(eV)
   0   2.0000     -14.626298      -398.0018
   1   2.0000     -14.626203      -397.9992
   2   2.0000      -1.041847       -28.3501
   3   2.0000      -0.825932       -22.4748
   4   2.0000      -0.558431       -15.1957
   5   2.0000      -0.547441       -14.8966
   6   2.0000      -0.504350       -13.7241
   7   2.0000      -0.295194        -8.0326
   8   2.0000      -0.293430        -7.9846
   9   0.0000       0.137694         3.7468
  10   0.0000       0.169149         4.6028
  11   0.0000       0.212681         5.7874
  12   0.0000       0.235132         6.3983
  13   0.0000       0.295618         8.0442

MULLIKEN ATOMIC CHARGES
-----------------------
   0 N :   -0.634620
   1 N :   -0.634620
   2 H :    0.330365
   3 H :    0.304256
   4 H :    0.330365
   5 H :    0.304256
Sum of atomic charges:    0.0000000

LOEWDIN ATOMIC CHARGES
----------------------
   0 N :   -0.417528
   1 N :   -0.417528
   2 H :    0.218100
   3 H :    0.199429
   4 H :    0.218100
   5 H :    0.199429

  Mayer bond orders larger than 0.100000
B(  0-N ,  1-N ) :   1.0343 B(  0-N ,  4-H ) :   0.8589 B(  0-N ,  5-H ) :   0.8637
B(  1-N ,  2-H ) :   0.8589 B(  1-N ,  3-H ) :   0.8637

Dispersion correction           -0.001187564
FINAL SINGLE POINT ENERGY      -111.616841334407

DIPOLE MOMENT
-------------
                                X             Y             Z
Electronic contribution:     -0.00000      -0.00000      -0.23343
Nuclear contribution   :      0.00000      -0.00000       1.09137
                        -----------------------------------------
Total Dipole Moment    :     -0.00000      -0.00000       0.85794
                        -----------------------------------------
Magnitude (a.u.)       :      0.85794
Magnitude (Debye)      :      2.18071

Rotational constants in cm-1:     4.898964     0.827144     0.825038
Rotational constants in MHz : 146867.244738 24797.146127 24734.009633

                             ****ORCA TERMINATED NORMALLY****
TOTAL RUN TIME: 0 days 0 hours 0 minutes 48 seconds 794 msec
