                         Program Version 5.0.3 -  RELEASE  -
|  1> ! PBEh-3c def2/J TightSCF DefGrid3
|  2>
|  3> %maxcore 60000
|  4>
|  5> %pal
|  6> nprocs 4
|  7> end
|  8>
|  9> *xyzfile 0 1 ph3.xyz
| 10>
| 11>                          ****END OF INPUT****

CARTESIAN COORDINATES (ANGSTROEM)
---------------------------------
  P      0.000000    0.000000    0.127026
  H      0.000000    1.189365   -0.635130
  H     -1.030020   -0.594683   -0.635130
  H      1.030020   -0.594683   -0.635130

 Total Charge           Charge          ....    0
 Multiplicity           Mult            ....    1
 Number of Electrons    NEL             ....   18
 Basis Dimension        Dim             ....   24

ORBITAL ENERGIES
----------------

  NO   OCC          E(Eh)            E(eV)
   0   2.0000     -77.726937     -2115.0575
   1   2.0000      -6.808030      -185.2559
   2   2.0000      -4.898153      -133.2855
   3   2.0000      -4.898152      -133.2855
   4   2.0000      -4.896198      -133.2323
   5   2.0000      -0.719548       -19.5799
   6   2.0000      -0.437052       -11.8928
   7   2.0000      -0.437052       -11.8928
   8   2.0000      -0.316267        -8.6061
   9   0.0000       0.072247         1.9660
  10   0.0000       0.072249         1.9660
  11   0.0000       0.164688         4.4814
  12   0.0000       0.383706        10.4412
  13   0.0000       0.512644        13.9498

MULLIKEN ATOMIC CHARGES
-----------------------
   0 P :   -0.260214
   1 H :    0.086736
   2 H :    0.086739
   3 H :    0.086739
Sum of atomic charges:   -0.0000000

LOEWDIN ATOMIC CHARGES
----------------------
   0 P :   -0.094088
   1 H :    0.031359
   2 H :    0.031364
   3 H :    0.031364

  Mayer bond orders larger than 0.100000
B(  0-P ,  1-H ) :   0.9628 B(  0-P ,  2-H ) :   0.9628 B(  0-P ,  3-H ) :   0.9628

Dispersion correction           -0.000715647
FINAL SINGLE POINT ENERGY      -342.730799781827

DIPOLE MOMENT
-------------
                                X             Y             Z
Electronic contribution:     -0.00000       0.00001       1.60427
Nuclear contribution   :      0.00000      -0.00000      -2.01488
                        -----------------------------------------
Total Dipole Moment    :     -0.00000       0.00001      -0.41062
                        -----------------------------------------
Magnitude (a.u.)       :      0.41062
Magnitude (Debye)      :      1.04370

Rotational constants in cm-1:     4.508354     4.508351     3.940804
Rotational constants in MHz : 135157.061165 135156.965795 118142.343647

                             ****ORCA TERMINATED NORMALLY****
TOTAL RUN TIME: 0 days 0 hours 0 minutes 51 seconds 201 msec
