                         Program Version 5.0.3 -  RELEASE  -
|  1> ! PBEh-3c def2/J TightSCF DefGrid3
|  2>
|  3> %maxcore 60000
|  4>
|  5> %pal
|  6> nprocs 4
|  7> end
|  8>
|  9> *xyzfile 0 1 01ts.xyz
| 10>
| 11>                          ****END OF INPUT****

CARTESIAN COORDINATES (ANGSTROEM)
---------------------------------
  C      1.442015    0.244951   -0.693510
  C      1.442015    0.244951    0.693510
  C     -0.558162   -0.470859   -1.432825
  C     -0.558162   -0.470859    1.432825
  C     -1.439662    0.303479   -0.700915
  C     -1.439662    0.303479    0.700915
  H      1.947825   -0.548818   -1.230494
  H      1.347064    1.177622   -1.233014
  H      1.347064    1.177622    1.233014
  H      1.947825   -0.548818    1.230494
  H     -0.242270   -1.438806   -1.067932
  H     -0.504691   -0.355280   -2.510003
  H     -0.504691   -0.355280    2.510003
  H     -0.242270   -1.438806    1.067932
  H     -1.992119    1.087712   -1.211005
  H     -1.992119    1.087712    1.211005

 Total Charge           Charge          ....    0
 Multiplicity           Mult            ....    1
 Number of Electrons    NEL             ....   46
 Basis Dimension        Dim             ....  110

ORBITAL ENERGIES
----------------

  NO   OCC          E(Eh)            E(eV)
   0   2.0000     -10.446874      -284.2739
   1   2.0000     -10.446790      -284.2716
   2   2.0000     -10.441120      -284.1173
   3   2.0000     -10.440497      -284.1004
   4   2.0000     -10.435146      -283.9548
   5   2.0000     -10.434616      -283.9403
   6   2.0000      -0.900766       -24.5111
   7   2.0000      -0.832441       -22.6519
   8   2.0000      -0.801792       -21.8179
   9   2.0000      -0.698313       -19.0020
  10   2.0000      -0.652096       -17.7444
  11   2.0000      -0.584756       -15.9120
  12   2.0000      -0.554005       -15.0752
  13   2.0000      -0.524162       -14.2632
  14   2.0000      -0.485227       -13.2037
  15   2.0000      -0.462426       -12.5832
  16   2.0000      -0.460099       -12.5199
  17   2.0000      -0.418314       -11.3829
  18   2.0000      -0.407442       -11.0870
  19   2.0000      -0.394482       -10.7344
  20   2.0000      -0.391012       -10.6400
  21   2.0000      -0.264438        -7.1957
  22   2.0000      -0.261555        -7.1173
  23   0.0000       0.008672         0.2360
  24   0.0000       0.037867         1.0304
  25   0.0000       0.138613         3.7719
  26   0.0000       0.155820         4.2401
  27   0.0000       0.157428         4.2838

MULLIKEN ATOMIC CHARGES
-----------------------
   0 C :   -0.458276
   1 C :   -0.458276
   2 C :   -0.511740
   3 C :   -0.511740
   4 C :   -0.165986
   5 C :   -0.165986
   6 H :    0.226913
   7 H :    0.234778
   8 H :    0.234778
   9 H :    0.226913
  10 H :    0.238627
  11 H :    0.225803
  12 H :    0.225803
  13 H :    0.238627
  14 H :    0.209881
  15 H :    0.209881
Sum of atomic charges:   -0.0000000

LOEWDIN ATOMIC CHARGES
----------------------
   0 C :   -0.267163
   1 C :   -0.267163
   2 C :   -0.234198
   3 C :   -0.234198
   4 C :   -0.169130
   5 C :   -0.169130
   6 H :    0.132989
   7 H :    0.136761
   8 H :    0.136761
   9 H :    0.132989
  10 H :    0.136715
  11 H :    0.133618
  12 H :    0.133618
  13 H :    0.136715
  14 H :    0.130408
  15 H :    0.130408

  Mayer bond orders larger than 0.100000
B(  0-C ,  1-C ) :   1.5061 B(  0-C ,  2-C ) :   0.3736 B(  0-C ,  6-H ) :   0.9193
B(  0-C ,  7-H ) :   0.9222 B(  1-C ,  3-C ) :   0.3736 B(  1-C ,  8-H ) :   0.9222
B(  1-C ,  9-H ) :   0.9193 B(  2-C ,  3-C ) :   0.1055 B(  2-C ,  4-C ) :   1.4881
B(  2-C , 10-H ) :   0.9072 B(  2-C , 11-H ) :   0.9231 B(  3-C ,  5-C ) :   1.4881
B(  3-C , 12-H ) :   0.9231 B(  3-C , 13-H ) :   0.9072 B(  4-C ,  5-C ) :   1.3824
B(  4-C , 14-H ) :   0.9215 B(  5-C , 15-H ) :   0.9215

Dispersion correction           -0.008472794
FINAL SINGLE POINT ENERGY      -234.011340000669

DIPOLE MOMENT
-------------
                                X             Y             Z
Electronic contribution:     -2.24365       0.36205       0.00000
Nuclear contribution   :      2.43979      -0.34050      -0.00000
                        -----------------------------------------
Total Dipole Moment    :      0.19614       0.02154       0.00000
                        -----------------------------------------
Magnitude (a.u.)       :      0.19732
Magnitude (Debye)      :      0.50156

Rotational constants in cm-1:     0.145504     0.116660     0.075888
Rotational constants in MHz :  4362.105872  3497.374819  2275.069474

                             ****ORCA TERMINATED NORMALLY****
TOTAL RUN TIME: 0 days 0 hours 1 minutes 25 seconds 502 msec
