                         Program Version 5.0.3 -  RELEASE  -
|  1> ! PBEh-3c def2/J TightSCF DefGrid3
|  2>
|  3> %maxcore 60000
|  4>
|  5> %pal
|  6> nprocs 4
|  7> end
|  8>
|  9> *xyzfile 0 1 t-hcoh.xyz
| 10>
| 11>                          ****END OF INPUT****

CARTESIAN COORDINATES (ANGSTROEM)
---------------------------------
  C      0.736341   -0.122339    0.000000
  H      1.138053    0.915167    0.000000
  O     -0.561832    0.083259    0.000000
  H     -0.994401   -0.778911    0.000000

 Total Charge           Charge          ....    0
 Multiplicity           Mult            ....    1
 Number of Electrons    NEL             ....   16
 Basis Dimension        Dim             ....   34

ORBITAL ENERGIES
----------------

  NO   OCC          E(Eh)            E(eV)
   0   2.0000     -19.576522      -532.7042
   1   2.0000     -10.506098      -285.8855
   2   2.0000      -1.218177       -33.1483
   3   2.0000      -0.755300       -20.5528
   4   2.0000      -0.550233       -14.9726
   5   2.0000      -0.518639       -14.1129
   6   2.0000      -0.479731       -13.0542
   7   2.0000      -0.266109        -7.2412
   8   0.0000      -0.013496        -0.3672
   9   0.0000       0.117839         3.2065
  10   0.0000       0.209032         5.6881
  11   0.0000       0.285583         7.7711
  12   0.0000       0.552785        15.0420

MULLIKEN ATOMIC CHARGES
-----------------------
   0 C :   -0.124448
   1 H :    0.147891
   2 O :   -0.481449
   3 H :    0.458006
Sum of atomic charges:   -0.0000000

LOEWDIN ATOMIC CHARGES
----------------------
   0 C :   -0.180925
   1 H :    0.079617
   2 O :   -0.230000
   3 H :    0.331309

  Mayer bond orders larger than 0.100000
B(  0-C ,  1-H ) :   0.9171 B(  0-C ,  2-O ) :   1.4119 B(  2-O ,  3-H ) :   0.7609

Dispersion correction           -0.000579076
FINAL SINGLE POINT ENERGY      -114.162770944565

DIPOLE MOMENT
-------------
                                X             Y             Z
Electronic contribution:     -0.75575      -0.14558      -0.00000
Nuclear contribution   :      0.12645       0.12906       0.00000
                        -----------------------------------------
Total Dipole Moment    :     -0.62930      -0.01652      -0.00000
                        -----------------------------------------
Magnitude (a.u.)       :      0.62952
Magnitude (Debye)      :      1.60011

Rotational constants in cm-1:     9.652468     1.215860     1.079839
Rotational constants in MHz : 289373.696499 36450.561308 32372.769714

                             ****ORCA TERMINATED NORMALLY****
TOTAL RUN TIME: 0 days 0 hours 0 minutes 35 seconds 103 msec
