                         Program Version 5.0.3 -  RELEASE  -
|  1> ! PBEh-3c def2/J TightSCF DefGrid3
|  2>
|  3> %maxcore 60000
|  4>
|  5> %pal
|  6> nprocs 4
|  7> end
|  8>
|  9> *xyzfile 0 1 FI.xyz
| 10>
| 11>                          ****END OF INPUT****

CARTESIAN COORDINATES (ANGSTROEM)
---------------------------------
  F      0.000000    0.000000   -1.641345
  I      0.000000    0.000000    0.278719

 Total Charge           Charge          ....    0
 Multiplicity           Mult            ....    1
 Number of Electrons    NEL             ....   34
 Basis Dimension        Dim             ....   41

ORBITAL ENERGIES
----------------

  NO   OCC          E(Eh)            E(eV)
   0   2.0000     -25.096622      -682.9138
   1   2.0000      -7.150546      -194.5763
   2   2.0000      -5.141505      -139.9075
   3   2.0000      -5.113257      -139.1388
   4   2.0000      -5.113257      -139.1388
   5   2.0000      -2.094443       -56.9927
   6   2.0000      -2.085176       -56.7405
   7   2.0000      -2.085176       -56.7405
   8   2.0000      -2.061369       -56.0927
   9   2.0000      -2.061366       -56.0926
  10   2.0000      -1.286528       -35.0082
  11   2.0000      -0.787433       -21.4271
  12   2.0000      -0.519002       -14.1228
  13   2.0000      -0.499870       -13.6022
  14   2.0000      -0.499870       -13.6022
  15   2.0000      -0.327001        -8.8982
  16   2.0000      -0.327001        -8.8982
  17   0.0000      -0.099426        -2.7055
  18   0.0000       0.265281         7.2187
  19   0.0000       0.400809        10.9066
  20   0.0000       0.400970        10.9110
  21   0.0000       0.400970        10.9110

MULLIKEN ATOMIC CHARGES
-----------------------
   0 F :   -0.450318
   1 I :    0.450318
Sum of atomic charges:   -0.0000000

LOEWDIN ATOMIC CHARGES
----------------------
   0 F :   -0.404062
   1 I :    0.404062

  Mayer bond orders larger than 0.100000
B(  0-F ,  1-I ) :   0.8499

Dispersion correction           -0.000241483
FINAL SINGLE POINT ENERGY      -397.349672132229

DIPOLE MOMENT
-------------
                                X             Y             Z
Electronic contribution:     -0.00000      -0.00000      17.40107
Nuclear contribution   :      0.00000       0.00000     -16.59162
                        -----------------------------------------
Total Dipole Moment    :     -0.00000      -0.00000       0.80945
                        -----------------------------------------
Magnitude (a.u.)       :      0.80945
Magnitude (Debye)      :      2.05747

Rotational constants in cm-1:     0.000000     0.276723     0.276723
Rotational constants in MHz :     0.000000  8295.948978  8295.948978

                             ****ORCA TERMINATED NORMALLY****
TOTAL RUN TIME: 0 days 0 hours 1 minutes 5 seconds 824 msec
