                         Program Version 5.0.3 -  RELEASE  -
|  1> ! PBEh-3c def2/J TightSCF DefGrid3
|  2>
|  3> %maxcore 60000
|  4>
|  5> %pal
|  6> nprocs 4
|  7> end
|  8>
|  9> *xyzfile 0 1 pbh4_hcl.xyz
| 10>
| 11>                          ****END OF INPUT****

CARTESIAN COORDINATES (ANGSTROEM)
---------------------------------
  Pb     0.000000    0.000000    1.341893
  H      0.000000    1.404653    0.345324
  H      0.000000   -1.404653    0.345324
  H      1.405300    0.000000    2.338533
  H     -1.405300    0.000000    2.338533
  H      0.000000    0.000000   -3.990896
  Cl     0.000000    0.000000   -2.718711

 Total Charge           Charge          ....    0
 Multiplicity           Mult            ....    1
 Number of Electrons    NEL             ....   44
 Basis Dimension        Dim             ....   54

ORBITAL ENERGIES
----------------

  NO   OCC          E(Eh)            E(eV)
   0   2.0000    -102.299632     -2783.7145
   1   2.0000      -9.768800      -265.8226
   2   2.0000      -7.456617      -202.9049
   3   2.0000      -7.447913      -202.6680
   4   2.0000      -7.447883      -202.6672
   5   2.0000      -5.693452      -154.9267
   6   2.0000      -3.485845       -94.8547
   7   2.0000      -3.485827       -94.8542
   8   2.0000      -3.485813       -94.8538
   9   2.0000      -0.930350       -25.3161
  10   2.0000      -0.928923       -25.2773
  11   2.0000      -0.928909       -25.2769
  12   2.0000      -0.928869       -25.2758
  13   2.0000      -0.917507       -24.9666
  14   2.0000      -0.917467       -24.9655
  15   2.0000      -0.621267       -16.9055
  16   2.0000      -0.525518       -14.3001
  17   2.0000      -0.378132       -10.2895
  18   2.0000      -0.377165       -10.2632
  19   2.0000      -0.357976        -9.7410
  20   2.0000      -0.357508        -9.7283
  21   2.0000      -0.356145        -9.6912
  22   0.0000       0.050028         1.3613
  23   0.0000       0.061656         1.6778
  24   0.0000       0.082415         2.2426
  25   0.0000       0.083273         2.2660
  26   0.0000       0.098326         2.6756

MULLIKEN ATOMIC CHARGES
-----------------------
   0 Pb:   -0.033336
   1 H :    0.010555
   2 H :    0.010555
   3 H :    0.003822
   4 H :    0.003822
   5 H :    0.290104
   6 Cl:   -0.285522
Sum of atomic charges:    0.0000000

LOEWDIN ATOMIC CHARGES
----------------------
   0 Pb:   -0.074519
   1 H :    0.017683
   2 H :    0.017683
   3 H :    0.013088
   4 H :    0.013088
   5 H :    0.180062
   6 Cl:   -0.167085

  Mayer bond orders larger than 0.100000
B(  0-Pb,  1-H ) :   0.9426 B(  0-Pb,  2-H ) :   0.9426 B(  0-Pb,  3-H ) :   0.9427
B(  0-Pb,  4-H ) :   0.9427 B(  5-H ,  6-Cl) :   0.8864

Dispersion correction           -0.001675143
FINAL SINGLE POINT ENERGY      -655.481444201958

DIPOLE MOMENT
-------------
                                X             Y             Z
Electronic contribution:     -0.00000      -0.00000      89.75683
Nuclear contribution   :      0.00000       0.00000     -90.39504
                        -----------------------------------------
Total Dipole Moment    :     -0.00000      -0.00000      -0.63821
                        -----------------------------------------
Magnitude (a.u.)       :      0.63821
Magnitude (Debye)      :      1.62220

Rotational constants in cm-1:     2.118060     0.031736     0.031736
Rotational constants in MHz : 63497.846837   951.428506   951.421942

                             ****ORCA TERMINATED NORMALLY****
TOTAL RUN TIME: 0 days 0 hours 1 minutes 5 seconds 90 msec
