                         Program Version 5.0.3 -  RELEASE  -
|  1> ! PBEh-3c def2/J TightSCF DefGrid3
|  2>
|  3> %maxcore 60000
|  4>
|  5> %pal
|  6> nprocs 4
|  7> end
|  8>
|  9> *xyzfile 0 1 12.xyz
| 10>
| 11>                          ****END OF INPUT****

CARTESIAN COORDINATES (ANGSTROEM)
---------------------------------
  B     -2.305738    0.477836    0.438260
  C      0.149954    0.874114   -0.402863
  Cl     0.214317   -1.172437   -3.262377
  P      2.199498   -1.161418   -2.616089
  H     -0.385920   -0.601154    0.770803
  B     -2.490518    1.200465    1.991109
  F     -2.898681   -0.806661    0.351287
  H      3.288875    1.205879   -0.425317
  O     -2.580029    1.740736    3.080200
  Al     2.046402   -2.429947   -0.696248
  Al     2.046877    0.226144   -0.427426
  H     -2.627217    1.237955   -0.451967
  N     -0.738827    0.221916    0.268148
  N      2.106743   -1.339737    0.659012
  H     -0.269915    1.732506   -0.938267
  H      2.244181   -1.406196    1.661735

 Total Charge           Charge          ....    0
 Multiplicity           Mult            ....    1
 Number of Electrons    NEL             ....  110
 Basis Dimension        Dim             ....  187

ORBITAL ENERGIES
----------------

  NO   OCC          E(Eh)            E(eV)
   0   2.0000    -102.336400     -2784.7150
   1   2.0000     -77.818841     -2117.5583
   2   2.0000     -56.703448     -1542.9793
   3   2.0000     -56.631588     -1541.0239
   4   2.0000     -25.015935      -680.7182
   5   2.0000     -19.443566      -529.0863
   6   2.0000     -14.715181      -400.4204
   7   2.0000     -14.668877      -399.1604
   8   2.0000     -10.520304      -286.2720
   9   2.0000      -9.802875      -266.7498
  10   2.0000      -7.490330      -203.8222
  11   2.0000      -7.482639      -203.6129
  12   2.0000      -7.481759      -203.5890
  13   2.0000      -6.961682      -189.4370
  14   2.0000      -6.931403      -188.6131
  15   2.0000      -6.890116      -187.4896
  16   2.0000      -4.981012      -135.5402
  17   2.0000      -4.979735      -135.5055
  18   2.0000      -4.977215      -135.4369
  19   2.0000      -4.442867      -120.8966
  20   2.0000      -4.368434      -118.8711
  21   2.0000      -2.932713       -79.8032
  22   2.0000      -2.932325       -79.7926
  23   2.0000      -2.925982       -79.6200
  24   2.0000      -2.859646       -77.8149
  25   2.0000      -2.857498       -77.7565
  26   2.0000      -2.854635       -77.6786
  27   2.0000      -1.235483       -33.6192
  28   2.0000      -1.065460       -28.9926
  29   2.0000      -1.032050       -28.0835
  30   2.0000      -0.955805       -26.0088
  31   2.0000      -0.939215       -25.5573
  32   2.0000      -0.744092       -20.2478
  33   2.0000      -0.701716       -19.0947
  34   2.0000      -0.637135       -17.3373
  35   2.0000      -0.589454       -16.0399
  36   2.0000      -0.563772       -15.3410
  37   2.0000      -0.521104       -14.1800
  38   2.0000      -0.489701       -13.3255
  39   2.0000      -0.481328       -13.0976
  40   2.0000      -0.474919       -12.9232
  41   2.0000      -0.454308       -12.3624
  42   2.0000      -0.444899       -12.1063
  43   2.0000      -0.439352       -11.9554
  44   2.0000      -0.433117       -11.7857
  45   2.0000      -0.420885       -11.4529
  46   2.0000      -0.408965       -11.1285
  47   2.0000      -0.399123       -10.8607
  48   2.0000      -0.370980       -10.0949
  49   2.0000      -0.359900        -9.7934
  50   2.0000      -0.356890        -9.7115
  51   2.0000      -0.349649        -9.5144
  52   2.0000      -0.343501        -9.3471
  53   2.0000      -0.314938        -8.5699
  54   2.0000      -0.308111        -8.3841
  55   0.0000      -0.167873        -4.5681
  56   0.0000      -0.092226        -2.5096
  57   0.0000      -0.058208        -1.5839
  58   0.0000      -0.025017        -0.6807
  59   0.0000      -0.000642        -0.0175

MULLIKEN ATOMIC CHARGES
-----------------------
   0 B :    0.256855
   1 C :   -0.258643
   2 Cl:   -0.190549
   3 P :   -0.104874
   4 H :    0.381474
   5 B :    0.071482
   6 F :   -0.379717
   7 H :   -0.073370
   8 O :   -0.299150
   9 Al:    0.698175
  10 Al:    0.711762
  11 H :   -0.037841
  12 N :   -0.459094
  13 N :   -0.929446
  14 H :    0.249268
  15 H :    0.363665
Sum of atomic charges:    0.0000000

LOEWDIN ATOMIC CHARGES
----------------------
   0 B :   -0.120455
   1 C :   -0.108478
   2 Cl:   -0.073864
   3 P :    0.085813
   4 H :    0.269599
   5 B :    0.007969
   6 F :   -0.261122
   7 H :   -0.065618
   8 O :   -0.177832
   9 Al:    0.409623
  10 Al:    0.188026
  11 H :   -0.015479
  12 N :   -0.070411
  13 N :   -0.493654
  14 H :    0.156492
  15 H :    0.269391

  Mayer bond orders larger than 0.100000
B(  0-B ,  5-B ) :   0.8847 B(  0-B ,  6-F ) :   0.9717 B(  0-B , 11-H ) :   0.9335
B(  0-B , 12-N ) :   0.6427 B(  1-C , 10-Al) :   0.7047 B(  1-C , 12-N ) :   1.7943
B(  1-C , 14-H ) :   0.8889 B(  2-Cl,  3-P ) :   0.9572 B(  2-Cl,  9-Al) :   0.1107
B(  3-P ,  9-Al) :   1.1509 B(  3-P , 10-Al) :   0.5209 B(  4-H , 12-N ) :   0.7796
B(  5-B ,  8-O ) :   2.5040 B(  7-H , 10-Al) :   0.9277 B(  9-Al, 10-Al) :   0.1217
B(  9-Al, 13-N ) :   1.3329 B( 10-Al, 13-N ) :   0.6778 B( 13-N , 15-H ) :   0.8081

Dispersion correction           -0.009980142
FINAL SINGLE POINT ENERGY     -1659.612346361790

DIPOLE MOMENT
-------------
                                X             Y             Z
Electronic contribution:      0.77011      -7.93704      -6.28727
Nuclear contribution   :      2.92348       5.26833       5.11803
                        -----------------------------------------
Total Dipole Moment    :      3.69358      -2.66871      -1.16925
                        -----------------------------------------
Magnitude (a.u.)       :      4.70444
Magnitude (Debye)      :     11.95773

Rotational constants in cm-1:     0.032106     0.011015     0.009652
Rotational constants in MHz :   962.520538   330.234791   289.350524

                             ****ORCA TERMINATED NORMALLY****
TOTAL RUN TIME: 0 days 0 hours 3 minutes 11 seconds 245 msec
