                         Program Version 5.0.3 -  RELEASE  -
|  1> ! PBEh-3c def2/J TightSCF DefGrid3
|  2>
|  3> %maxcore 60000
|  4>
|  5> %pal
|  6> nprocs 4
|  7> end
|  8>
|  9> *xyzfile 0 1 37B.xyz
| 10>
| 11>                          ****END OF INPUT****

CARTESIAN COORDINATES (ANGSTROEM)
---------------------------------
  C     -0.000210   -0.000402   -0.001665
  C     -0.096554   -0.152488    1.513975
  H      0.895992   -0.167955    1.966332
  H     -0.655479    0.675396    1.952410
  H     -0.603719   -1.081154    1.779325
  C      0.713843    1.306503   -0.337290
  H      0.795363    1.440002   -1.416972
  H      0.170371    2.161191    0.068211
  H      1.721448    1.317153    0.080943
  C     -1.405221    0.019422   -0.598985
  H     -1.368290    0.136612   -1.682834
  H     -1.987521    0.846846   -0.190639
  H     -1.935124   -0.908365   -0.377655
  C      0.787690   -1.173887   -0.579003
  H      0.292470   -2.120878   -0.358760
  H      0.882533   -1.086704   -1.662138
  H      1.792408   -1.211292   -0.155255

 Total Charge           Charge          ....    0
 Multiplicity           Mult            ....    1
 Number of Electrons    NEL             ....   42
 Basis Dimension        Dim             ....   99

ORBITAL ENERGIES
----------------

  NO   OCC          E(Eh)            E(eV)
   0   2.0000     -10.446031      -284.2510
   1   2.0000     -10.417309      -283.4694
   2   2.0000     -10.417294      -283.4690
   3   2.0000     -10.417249      -283.4677
   4   2.0000     -10.417148      -283.4650
   5   2.0000      -0.913959       -24.8701
   6   2.0000      -0.762307       -20.7434
   7   2.0000      -0.762126       -20.7385
   8   2.0000      -0.761868       -20.7315
   9   2.0000      -0.596723       -16.2377
  10   2.0000      -0.505334       -13.7508
  11   2.0000      -0.505177       -13.7466
  12   2.0000      -0.504746       -13.7348
  13   2.0000      -0.452482       -12.3127
  14   2.0000      -0.452137       -12.3033
  15   2.0000      -0.411237       -11.1903
  16   2.0000      -0.411129       -11.1874
  17   2.0000      -0.411118       -11.1871
  18   2.0000      -0.365042        -9.9333
  19   2.0000      -0.364882        -9.9289
  20   2.0000      -0.364706        -9.9242
  21   0.0000       0.117891         3.2080
  22   0.0000       0.186493         5.0747
  23   0.0000       0.186597         5.0776
  24   0.0000       0.187093         5.0911
  25   0.0000       0.218812         5.9542

MULLIKEN ATOMIC CHARGES
-----------------------
   0 C :   -0.111285
   1 C :   -0.605153
   2 H :    0.210996
   3 H :    0.211010
   4 H :    0.211138
   5 C :   -0.605400
   6 H :    0.211174
   7 H :    0.210996
   8 H :    0.211008
   9 C :   -0.605464
  10 H :    0.211366
  11 H :    0.210895
  12 H :    0.210961
  13 C :   -0.605475
  14 H :    0.210974
  15 H :    0.211341
  16 H :    0.210917
Sum of atomic charges:    0.0000000

LOEWDIN ATOMIC CHARGES
----------------------
   0 C :   -0.116894
   1 C :   -0.343167
   2 H :    0.124124
   3 H :    0.124120
   4 H :    0.124229
   5 C :   -0.343298
   6 H :    0.124163
   7 H :    0.124169
   8 H :    0.124170
   9 C :   -0.343352
  10 H :    0.124194
  11 H :    0.124215
  12 H :    0.124142
  13 C :   -0.343359
  14 H :    0.124149
  15 H :    0.124179
  16 H :    0.124217

  Mayer bond orders larger than 0.100000
B(  0-C ,  1-C ) :   0.9825 B(  0-C ,  5-C ) :   0.9825 B(  0-C ,  9-C ) :   0.9825
B(  0-C , 13-C ) :   0.9825 B(  1-C ,  2-H ) :   0.9304 B(  1-C ,  3-H ) :   0.9304
B(  1-C ,  4-H ) :   0.9304 B(  5-C ,  6-H ) :   0.9304 B(  5-C ,  7-H ) :   0.9305
B(  5-C ,  8-H ) :   0.9305 B(  9-C , 10-H ) :   0.9305 B(  9-C , 11-H ) :   0.9304
B(  9-C , 12-H ) :   0.9305 B( 13-C , 14-H ) :   0.9305 B( 13-C , 15-H ) :   0.9305
B( 13-C , 16-H ) :   0.9304

Dispersion correction           -0.007725776
FINAL SINGLE POINT ENERGY      -197.340800813332

DIPOLE MOMENT
-------------
                                X             Y             Z
Electronic contribution:     -0.00111      -0.00216      -0.00852
Nuclear contribution   :      0.00120       0.00226       0.00788
                        -----------------------------------------
Total Dipole Moment    :      0.00009       0.00010      -0.00064
                        -----------------------------------------
Magnitude (a.u.)       :      0.00065
Magnitude (Debye)      :      0.00166

Rotational constants in cm-1:     0.149904     0.149699     0.149482
Rotational constants in MHz :  4494.006802  4487.855766  4481.354970

                             ****ORCA TERMINATED NORMALLY****
TOTAL RUN TIME: 0 days 0 hours 1 minutes 12 seconds 677 msec
