                         Program Version 5.0.3 -  RELEASE  -
|  1> ! PBEh-3c def2/J TightSCF DefGrid3
|  2>
|  3> %maxcore 60000
|  4>
|  5> %pal
|  6> nprocs 4
|  7> end
|  8>
|  9> *xyzfile 0 1 2N.xyz
| 10>
| 11>                          ****END OF INPUT****

CARTESIAN COORDINATES (ANGSTROEM)
---------------------------------
  N     -2.487166    0.174617   -0.120451
  H     -1.493607    0.124901   -0.322120
  H     -2.795487    1.088367   -0.423437
  H     -2.939264   -0.491707   -0.730841
  C      0.890151   -0.015014   -0.537022
  Cl     1.930476   -0.169816   -1.881413
  C      1.635581   -0.130506    0.728037
  H      2.727688   -0.135668    0.707958
  H      1.256034    0.629113    1.417068
  H      1.275594   -1.074287    1.162220

 Total Charge           Charge          ....    0
 Multiplicity           Mult            ....    1
 Number of Electrons    NEL             ....   42
 Basis Dimension        Dim             ....   75

ORBITAL ENERGIES
----------------

  NO   OCC          E(Eh)            E(eV)
   0   2.0000    -102.333275     -2784.6300
   1   2.0000     -14.568160      -396.4198
   2   2.0000     -10.545503      -286.9577
   3   2.0000     -10.462794      -284.7071
   4   2.0000      -9.801598      -266.7150
   5   2.0000      -7.487751      -203.7521
   6   2.0000      -7.483179      -203.6277
   7   2.0000      -7.479720      -203.5335
   8   2.0000      -0.994404       -27.0591
   9   2.0000      -0.908954       -24.7339
  10   2.0000      -0.853227       -23.2175
  11   2.0000      -0.644619       -17.5410
  12   2.0000      -0.527246       -14.3471
  13   2.0000      -0.505758       -13.7624
  14   2.0000      -0.488372       -13.2893
  15   2.0000      -0.486270       -13.2321
  16   2.0000      -0.480894       -13.0858
  17   2.0000      -0.417333       -11.3562
  18   2.0000      -0.398012       -10.8305
  19   2.0000      -0.290071        -7.8932
  20   2.0000      -0.277330        -7.5465
  21   0.0000      -0.071853        -1.9552
  22   0.0000       0.090656         2.4669
  23   0.0000       0.152743         4.1563
  24   0.0000       0.170960         4.6520
  25   0.0000       0.183766         5.0005

MULLIKEN ATOMIC CHARGES
-----------------------
   0 N :   -0.988634
   1 H :    0.367353
   2 H :    0.300905
   3 H :    0.301398
   4 C :   -0.016587
   5 Cl:   -0.035733
   6 C :   -0.729123
   7 H :    0.241489
   8 H :    0.278274
   9 H :    0.280658
Sum of atomic charges:   -0.0000000

LOEWDIN ATOMIC CHARGES
----------------------
   0 N :   -0.671168
   1 H :    0.220515
   2 H :    0.210080
   3 H :    0.210225
   4 C :   -0.175840
   5 Cl:    0.151432
   6 C :   -0.428536
   7 H :    0.127169
   8 H :    0.171032
   9 H :    0.185090

  Mayer bond orders larger than 0.100000
B(  0-N ,  1-H ) :   0.8119 B(  0-N ,  2-H ) :   0.8892 B(  0-N ,  3-H ) :   0.8888
B(  4-C ,  5-Cl) :   1.2660 B(  4-C ,  6-C ) :   1.0413 B(  6-C ,  7-H ) :   0.8957
B(  6-C ,  8-H ) :   0.8785 B(  6-C ,  9-H ) :   0.8621

Dispersion correction           -0.003004349
FINAL SINGLE POINT ENERGY      -593.851872175881

DIPOLE MOMENT
-------------
                                X             Y             Z
Electronic contribution:      8.75036      -0.65871      -7.74355
Nuclear contribution   :     -7.79592       0.64052       7.69219
                        -----------------------------------------
Total Dipole Moment    :      0.95444      -0.01819      -0.05135
                        -----------------------------------------
Magnitude (a.u.)       :      0.95599
Magnitude (Debye)      :      2.42994

Rotational constants in cm-1:     0.232982     0.063653     0.050843
Rotational constants in MHz :  6984.621076  1908.282857  1524.223717

                             ****ORCA TERMINATED NORMALLY****
TOTAL RUN TIME: 0 days 0 hours 0 minutes 28 seconds 42 msec
