                         Program Version 5.0.3 -  RELEASE  -
|  1> ! PBEh-3c def2/J TightSCF DefGrid3
|  2>
|  3> %maxcore 60000
|  4>
|  5> %pal
|  6> nprocs 4
|  7> end
|  8>
|  9> *xyzfile 0 1 E44.xyz
| 10>
| 11>                          ****END OF INPUT****

CARTESIAN COORDINATES (ANGSTROEM)
---------------------------------
  C      0.729839   -1.264119   -0.065421
  C      0.000000    0.000000    0.401783
  C      0.729839    1.264119   -0.065421
  C     -1.459679    0.000000   -0.065421
  H      1.761586   -1.284636    0.295269
  H      0.231735   -2.167897    0.295269
  H      0.759029   -1.314677   -1.158633
  H      0.000000    0.000000    1.498765
  H      0.231735    2.167897    0.295269
  H      0.759029    1.314677   -1.158633
  H      1.761586    1.284636    0.295269
  H     -1.993321    0.883260    0.295269
  H     -1.993321   -0.883260    0.295269
  H     -1.518059    0.000000   -1.158633

 Total Charge           Charge          ....    0
 Multiplicity           Mult            ....    1
 Number of Electrons    NEL             ....   34
 Basis Dimension        Dim             ....   80

ORBITAL ENERGIES
----------------

  NO   OCC          E(Eh)            E(eV)
   0   2.0000     -10.440070      -284.0888
   1   2.0000     -10.419674      -283.5337
   2   2.0000     -10.419672      -283.5337
   3   2.0000     -10.419586      -283.5313
   4   2.0000      -0.889720       -24.2105
   5   2.0000      -0.759643       -20.6709
   6   2.0000      -0.759643       -20.6709
   7   2.0000      -0.626594       -17.0505
   8   2.0000      -0.519786       -14.1441
   9   2.0000      -0.484912       -13.1951
  10   2.0000      -0.484911       -13.1951
  11   2.0000      -0.433591       -11.7986
  12   2.0000      -0.433591       -11.7986
  13   2.0000      -0.411955       -11.2099
  14   2.0000      -0.373673       -10.1682
  15   2.0000      -0.373673       -10.1682
  16   2.0000      -0.366105        -9.9622
  17   0.0000       0.131566         3.5801
  18   0.0000       0.194241         5.2856
  19   0.0000       0.200324         5.4511
  20   0.0000       0.200325         5.4511
  21   0.0000       0.204538         5.5658

MULLIKEN ATOMIC CHARGES
-----------------------
   0 C :   -0.622456
   1 C :   -0.237130
   2 C :   -0.622456
   3 C :   -0.622418
   4 H :    0.213996
   5 H :    0.213982
   6 H :    0.204348
   7 H :    0.207507
   8 H :    0.213982
   9 H :    0.204348
  10 H :    0.213996
  11 H :    0.213977
  12 H :    0.213977
  13 H :    0.204349
Sum of atomic charges:   -0.0000000

LOEWDIN ATOMIC CHARGES
----------------------
   0 C :   -0.355854
   1 C :   -0.166635
   2 C :   -0.355854
   3 C :   -0.355844
   4 H :    0.124693
   5 H :    0.124689
   6 H :    0.122605
   7 H :    0.118229
   8 H :    0.124689
   9 H :    0.122605
  10 H :    0.124693
  11 H :    0.124689
  12 H :    0.124689
  13 H :    0.122606

  Mayer bond orders larger than 0.100000
B(  0-C ,  1-C ) :   0.9878 B(  0-C ,  4-H ) :   0.9313 B(  0-C ,  5-H ) :   0.9314
B(  0-C ,  6-H ) :   0.9277 B(  1-C ,  2-C ) :   0.9878 B(  1-C ,  3-C ) :   0.9878
B(  1-C ,  7-H ) :   0.9116 B(  2-C ,  8-H ) :   0.9314 B(  2-C ,  9-H ) :   0.9277
B(  2-C , 10-H ) :   0.9313 B(  3-C , 11-H ) :   0.9314 B(  3-C , 12-H ) :   0.9314
B(  3-C , 13-H ) :   0.9277

Dispersion correction           -0.005366899
FINAL SINGLE POINT ENERGY      -158.108802679739

DIPOLE MOMENT
-------------
                                X             Y             Z
Electronic contribution:      0.00000       0.00000       0.59175
Nuclear contribution   :     -0.00000       0.00000      -0.55781
                        -----------------------------------------
Total Dipole Moment    :      0.00000       0.00000       0.03393
                        -----------------------------------------
Magnitude (a.u.)       :      0.03393
Magnitude (Debye)      :      0.08625

Rotational constants in cm-1:     0.258941     0.258941     0.149856
Rotational constants in MHz :  7762.859447  7762.859420  4492.581833

                             ****ORCA TERMINATED NORMALLY****
TOTAL RUN TIME: 0 days 0 hours 1 minutes 18 seconds 840 msec
