                         Program Version 5.0.3 -  RELEASE  -
|  1> ! PBEh-3c def2/J TightSCF DefGrid3
|  2>
|  3> %maxcore 60000
|  4>
|  5> %pal
|  6> nprocs 4
|  7> end
|  8>
|  9> *xyzfile 0 1 106.xyz
| 10>
| 11>                          ****END OF INPUT****

CARTESIAN COORDINATES (ANGSTROEM)
---------------------------------
  C     -0.098985   -1.104448    0.000000
  C     -0.495961    0.359965    0.000000
  O     -1.659733    0.714330    0.000000
  N      0.534091    1.254354    0.000000
  H     -0.532865   -1.580267    0.878692
  H      0.978038   -1.267912    0.000000
  H     -0.532865   -1.580267   -0.878692
  H      1.494832    0.969184    0.000000
  H      0.313447    2.235060    0.000000

 Total Charge           Charge          ....    0
 Multiplicity           Mult            ....    1
 Number of Electrons    NEL             ....   32
 Basis Dimension        Dim             ....   70

ORBITAL ENERGIES
----------------

  NO   OCC          E(Eh)            E(eV)
   0   2.0000     -19.448949      -529.2328
   1   2.0000     -14.654496      -398.7691
   2   2.0000     -10.548289      -287.0335
   3   2.0000     -10.441862      -284.1375
   4   2.0000      -1.137753       -30.9598
   5   2.0000      -1.000287       -27.2192
   6   2.0000      -0.825356       -22.4591
   7   2.0000      -0.660548       -17.9744
   8   2.0000      -0.606091       -16.4926
   9   2.0000      -0.534121       -14.5342
  10   2.0000      -0.505112       -13.7448
  11   2.0000      -0.461000       -12.5445
  12   2.0000      -0.456607       -12.4249
  13   2.0000      -0.420551       -11.4438
  14   2.0000      -0.316518        -8.6129
  15   2.0000      -0.304167        -8.2768
  16   0.0000       0.070155         1.9090
  17   0.0000       0.121435         3.3044
  18   0.0000       0.170444         4.6380
  19   0.0000       0.186567         5.0768
  20   0.0000       0.219336         5.9684

MULLIKEN ATOMIC CHARGES
-----------------------
   0 C :   -0.747708
   1 C :    0.499846
   2 O :   -0.411807
   3 N :   -0.798459
   4 H :    0.259349
   5 H :    0.207209
   6 H :    0.259349
   7 H :    0.360289
   8 H :    0.371933
Sum of atomic charges:   -0.0000000

LOEWDIN ATOMIC CHARGES
----------------------
   0 C :   -0.395595
   1 C :    0.100484
   2 O :   -0.272615
   3 N :   -0.379911
   4 H :    0.157210
   5 H :    0.124514
   6 H :    0.157210
   7 H :    0.250258
   8 H :    0.258445

  Mayer bond orders larger than 0.100000
B(  0-C ,  1-C ) :   0.9217 B(  0-C ,  4-H ) :   0.9103 B(  0-C ,  5-H ) :   0.9222
B(  0-C ,  6-H ) :   0.9103 B(  1-C ,  2-O ) :   2.0408 B(  1-C ,  3-N ) :   1.1370
B(  3-N ,  7-H ) :   0.8313 B(  3-N ,  8-H ) :   0.8253

Dispersion correction           -0.002880963
FINAL SINGLE POINT ENERGY      -208.767781637470

DIPOLE MOMENT
-------------
                                X             Y             Z
Electronic contribution:     -2.02928       2.51179       0.00000
Nuclear contribution   :      3.54547      -2.63229       0.00000
                        -----------------------------------------
Total Dipole Moment    :      1.51618      -0.12050       0.00000
                        -----------------------------------------
Magnitude (a.u.)       :      1.52096
Magnitude (Debye)      :      3.86598

Rotational constants in cm-1:     0.363032     0.308716     0.172143
Rotational constants in MHz : 10883.420752  9255.059399  5160.705666

                             ****ORCA TERMINATED NORMALLY****
TOTAL RUN TIME: 0 days 0 hours 0 minutes 26 seconds 213 msec
