                         Program Version 5.0.3 -  RELEASE  -
|  1> ! PBEh-3c def2/J TightSCF DefGrid3
|  2>
|  3> %maxcore 60000
|  4>
|  5> %pal
|  6> nprocs 4
|  7> end
|  8>
|  9> *xyzfile -1 1 18.xyz
| 10>
| 11>                          ****END OF INPUT****

CARTESIAN COORDINATES (ANGSTROEM)
---------------------------------
  O      1.081584    0.535522    1.164534
  O      0.731405    1.117288   -1.029012
  C      0.552963    0.415822    0.019326
  H     -0.182535   -0.436034   -0.095031
  H      2.366974    2.205484   -0.659712
  N      3.322687    2.455182   -0.353690
  C      4.094872    1.203780   -0.451236
  H      5.107788    1.348008   -0.034866
  H      3.614583    0.352477    0.066517
  H      4.211798    0.937271   -1.514399
  H      3.177107    2.632321    0.643504

 Total Charge           Charge          ....   -1
 Multiplicity           Mult            ....    1
 Number of Electrons    NEL             ....   42
 Basis Dimension        Dim             ....   87

ORBITAL ENERGIES
----------------

  NO   OCC          E(Eh)            E(eV)
   0   2.0000     -19.229176      -523.2525
   1   2.0000     -19.225010      -523.1391
   2   2.0000     -14.424498      -392.5106
   3   2.0000     -10.325588      -280.9735
   4   2.0000     -10.291888      -280.0565
   5   2.0000      -0.909426       -24.7467
   6   2.0000      -0.823119       -22.3982
   7   2.0000      -0.784368       -21.3437
   8   2.0000      -0.564789       -15.3687
   9   2.0000      -0.412777       -11.2322
  10   2.0000      -0.362226        -9.8567
  11   2.0000      -0.322399        -8.7729
  12   2.0000      -0.291431        -7.9302
  13   2.0000      -0.281964        -7.6726
  14   2.0000      -0.258678        -7.0390
  15   2.0000      -0.241191        -6.5631
  16   2.0000      -0.231144        -6.2898
  17   2.0000      -0.122009        -3.3200
  18   2.0000      -0.089635        -2.4391
  19   2.0000      -0.087667        -2.3855
  20   2.0000      -0.080427        -2.1885
  21   0.0000       0.294316         8.0087
  22   0.0000       0.313014         8.5175
  23   0.0000       0.351659         9.5691
  24   0.0000       0.366218         9.9653
  25   0.0000       0.383240        10.4285

MULLIKEN ATOMIC CHARGES
-----------------------
   0 O :   -0.585281
   1 O :   -0.593204
   2 C :    0.257966
   3 H :    0.010472
   4 H :    0.369489
   5 N :   -0.791643
   6 C :   -0.482256
   7 H :    0.143053
   8 H :    0.210123
   9 H :    0.172291
  10 H :    0.288990
Sum of atomic charges:   -1.0000000

LOEWDIN ATOMIC CHARGES
----------------------
   0 O :   -0.447671
   1 O :   -0.451314
   2 C :   -0.011918
   3 H :   -0.011065
   4 H :    0.238975
   5 N :   -0.532031
   6 C :   -0.278514
   7 H :    0.082064
   8 H :    0.106133
   9 H :    0.098428
  10 H :    0.206912

  Mayer bond orders larger than 0.100000
B(  0-O ,  1-O ) :   0.1435 B(  0-O ,  2-C ) :   1.7714 B(  1-O ,  2-C ) :   1.6791
B(  1-O ,  4-H ) :   0.1234 B(  2-C ,  3-H ) :   0.8689 B(  4-H ,  5-N ) :   0.7559
B(  5-N ,  6-C ) :   1.0592 B(  5-N , 10-H ) :   0.8786 B(  6-C ,  7-H ) :   0.9404
B(  6-C ,  8-H ) :   0.9008 B(  6-C ,  9-H ) :   0.9380

Dispersion correction           -0.003627132
FINAL SINGLE POINT ENERGY      -284.446566600148

DIPOLE MOMENT
-------------
                                X             Y             Z
Electronic contribution:     -5.18669      -0.37773       0.81435
Nuclear contribution   :      6.05535       0.13628      -0.78208
                        -----------------------------------------
Total Dipole Moment    :      0.86866      -0.24145       0.03227
                        -----------------------------------------
Magnitude (a.u.)       :      0.90217
Magnitude (Debye)      :      2.29312

Rotational constants in cm-1:     0.259693     0.081351     0.072077
Rotational constants in MHz :  7785.391022  2438.847552  2160.825868

                             ****ORCA TERMINATED NORMALLY****
TOTAL RUN TIME: 0 days 0 hours 0 minutes 52 seconds 223 msec
