                         Program Version 5.0.3 -  RELEASE  -
|  1> ! PBEh-3c def2/J TightSCF DefGrid3
|  2>
|  3> %maxcore 60000
|  4>
|  5> %pal
|  6> nprocs 4
|  7> end
|  8>
|  9> *xyzfile 0 1 biphenyl_TS.xyz
| 10>
| 11>                          ****END OF INPUT****

CARTESIAN COORDINATES (ANGSTROEM)
---------------------------------
  C      0.744722    0.000000    0.000000
  C      1.478769   -1.194459    0.000000
  C      2.866723   -1.196488    0.000000
  C      3.573084    0.000000    0.000000
  C      2.866723    1.196488    0.000000
  C      1.478769    1.194459    0.000000
  C     -0.744722    0.000000    0.000000
  C     -1.478769   -1.194459    0.000000
  C     -2.866723   -1.196488    0.000000
  C     -3.573084    0.000000    0.000000
  C     -2.866723    1.196488    0.000000
  C     -1.478769    1.194459    0.000000
  H      0.969708   -2.146558    0.000000
  H      3.397998   -2.139987    0.000000
  H      4.655461    0.000000    0.000000
  H      3.397998    2.139987    0.000000
  H      0.969708    2.146558    0.000000
  H     -0.969708   -2.146558    0.000000
  H     -3.397998   -2.139987    0.000000
  H     -4.655461    0.000000    0.000000
  H     -3.397998    2.139987    0.000000
  H     -0.969708    2.146558    0.000000

 Total Charge           Charge          ....    0
 Multiplicity           Mult            ....    1
 Number of Electrons    NEL             ....   82
 Basis Dimension        Dim             ....  200

ORBITAL ENERGIES
----------------

  NO   OCC          E(Eh)            E(eV)
   0   2.0000     -10.465857      -284.7904
   1   2.0000     -10.465609      -284.7837
   2   2.0000     -10.450764      -284.3797
   3   2.0000     -10.450748      -284.3793
   4   2.0000     -10.450712      -284.3783
   5   2.0000     -10.450689      -284.3777
   6   2.0000     -10.450231      -284.3653
   7   2.0000     -10.450194      -284.3642
   8   2.0000     -10.450060      -284.3606
   9   2.0000     -10.450053      -284.3604
  10   2.0000     -10.449165      -284.3362
  11   2.0000     -10.449160      -284.3361
  12   2.0000      -0.972708       -26.4687
  13   2.0000      -0.949497       -25.8371
  14   2.0000      -0.873313       -23.7641
  15   2.0000      -0.845629       -23.0107
  16   2.0000      -0.834960       -22.7204
  17   2.0000      -0.812791       -22.1172
  18   2.0000      -0.707697       -19.2574
  19   2.0000      -0.702951       -19.1283
  20   2.0000      -0.664162       -18.0728
  21   2.0000      -0.656694       -17.8695
  22   2.0000      -0.608810       -16.5666
  23   2.0000      -0.566193       -15.4069
  24   2.0000      -0.543097       -14.7784
  25   2.0000      -0.533620       -14.5205
  26   2.0000      -0.502471       -13.6729
  27   2.0000      -0.493216       -13.4211
  28   2.0000      -0.492926       -13.4132
  29   2.0000      -0.487182       -13.2569
  30   2.0000      -0.472366       -12.8537
  31   2.0000      -0.445903       -12.1336
  32   2.0000      -0.420797       -11.4505
  33   2.0000      -0.414276       -11.2730
  34   2.0000      -0.413836       -11.2611
  35   2.0000      -0.397523       -10.8171
  36   2.0000      -0.383546       -10.4368
  37   2.0000      -0.331024        -9.0076
  38   2.0000      -0.299346        -8.1456
  39   2.0000      -0.293079        -7.9751
  40   2.0000      -0.260160        -7.0793
  41   0.0000      -0.021150        -0.5755
  42   0.0000       0.006003         0.1633
  43   0.0000       0.030321         0.8251
  44   0.0000       0.060062         1.6344
  45   0.0000       0.130931         3.5628

MULLIKEN ATOMIC CHARGES
-----------------------
   0 C :    0.164775
   1 C :   -0.309572
   2 C :   -0.190407
   3 C :   -0.245123
   4 C :   -0.190404
   5 C :   -0.309572
   6 C :    0.164778
   7 C :   -0.309572
   8 C :   -0.190406
   9 C :   -0.245124
  10 C :   -0.190406
  11 C :   -0.309572
  12 H :    0.208707
  13 H :    0.220904
  14 H :    0.221082
  15 H :    0.220904
  16 H :    0.208706
  17 H :    0.208706
  18 H :    0.220904
  19 H :    0.221082
  20 H :    0.220904
  21 H :    0.208707
Sum of atomic charges:   -0.0000000

LOEWDIN ATOMIC CHARGES
----------------------
   0 C :   -0.032337
   1 C :   -0.124782
   2 C :   -0.130180
   3 C :   -0.135748
   4 C :   -0.130180
   5 C :   -0.124782
   6 C :   -0.032337
   7 C :   -0.124782
   8 C :   -0.130180
   9 C :   -0.135748
  10 C :   -0.130180
  11 C :   -0.124782
  12 H :    0.133809
  13 H :    0.136820
  14 H :    0.136751
  15 H :    0.136820
  16 H :    0.133809
  17 H :    0.133809
  18 H :    0.136820
  19 H :    0.136751
  20 H :    0.136820
  21 H :    0.133809

  Mayer bond orders larger than 0.100000
B(  0-C ,  1-C ) :   1.3654 B(  0-C ,  5-C ) :   1.3654 B(  0-C ,  6-C ) :   0.9681
B(  1-C ,  2-C ) :   1.4334 B(  1-C , 12-H ) :   0.9160 B(  2-C ,  3-C ) :   1.4186
B(  2-C , 13-H ) :   0.9200 B(  3-C ,  4-C ) :   1.4186 B(  3-C , 14-H ) :   0.9182
B(  4-C ,  5-C ) :   1.4334 B(  4-C , 15-H ) :   0.9200 B(  5-C , 16-H ) :   0.9160
B(  6-C ,  7-C ) :   1.3654 B(  6-C , 11-C ) :   1.3654 B(  7-C ,  8-C ) :   1.4334
B(  7-C , 17-H ) :   0.9160 B(  8-C ,  9-C ) :   1.4186 B(  8-C , 18-H ) :   0.9200
B(  9-C , 10-C ) :   1.4186 B(  9-C , 19-H ) :   0.9182 B( 10-C , 11-C ) :   1.4334
B( 10-C , 20-H ) :   0.9200 B( 11-C , 21-H ) :   0.9160

Dispersion correction           -0.014441729
FINAL SINGLE POINT ENERGY      -462.267789925343

DIPOLE MOMENT
-------------
                                X             Y             Z
Electronic contribution:      0.00000      -0.00000       0.00000
Nuclear contribution   :      0.00000       0.00000       0.00000
                        -----------------------------------------
Total Dipole Moment    :      0.00000      -0.00000       0.00000
                        -----------------------------------------
Magnitude (a.u.)       :      0.00000
Magnitude (Debye)      :      0.00000

Rotational constants in cm-1:     0.096679     0.018445     0.015490
Rotational constants in MHz :  2898.350588   552.967386   464.371397

                             ****ORCA TERMINATED NORMALLY****
TOTAL RUN TIME: 0 days 0 hours 2 minutes 19 seconds 430 msec
