                         Program Version 5.0.3 -  RELEASE  -
|  1> ! PBEh-3c def2/J TightSCF DefGrid3
|  2>
|  3> %maxcore 60000
|  4>
|  5> %pal
|  6> nprocs 4
|  7> end
|  8>
|  9> *xyzfile 0 1 GLY_b.xyz
| 10>
| 11>                          ****END OF INPUT****

CARTESIAN COORDINATES (ANGSTROEM)
---------------------------------
  H      6.369193   -1.943004   -1.217421
  C      6.399925   -0.881685   -0.959226
  H      6.350267   -0.288731   -1.876652
  H      7.356406   -0.693984   -0.465003
  C      5.279143   -0.586219    0.024563
  O      5.196456   -1.159594    1.104328
  N      4.384296    0.368730   -0.377837
  H      4.432453    0.747633   -1.313388
  C      3.214358    0.730427    0.412910
  H      3.257057    0.095759    1.300982
  C      3.230980    2.209473    0.811963
  H      3.182277    2.841509   -0.079429
  H      2.369837    2.449007    1.443812
  H      4.144568    2.437817    1.366901
  C      1.971756    0.421869   -0.437575
  O      1.757441    1.033080   -1.481889
  N      1.179038   -0.585284    0.019277
  H      1.384924   -1.028501    0.904199
  C     -0.041380   -0.987973   -0.657634
  H     -0.105020   -0.396441   -1.572143
  H      0.002872   -2.051335   -0.921503
  C     -1.234946   -0.791184    0.282976
  O     -1.322494   -1.444840    1.319496
  N     -2.120668    0.173364   -0.083001
  H     -2.021677    0.642416   -0.972294
  C     -3.314448    0.487700    0.698936
  H     -3.286710   -0.190449    1.555458
  C     -3.308405    1.945510    1.170976
  H     -3.346136    2.618035    0.310780
  H     -4.183420    2.148395    1.797316
  H     -2.406598    2.151237    1.753386
  C     -4.535432    0.221147   -0.196808
  O     -4.730844    0.900791   -1.199426
  N     -5.331362   -0.812458    0.189242
  H     -5.057419   -1.353521    0.996109
  C     -6.496095   -1.230687   -0.571519
  H     -6.355860   -2.229809   -1.000189
  H     -7.392210   -1.239867    0.057702
  H     -6.631786   -0.513410   -1.381295

 Total Charge           Charge          ....    0
 Multiplicity           Mult            ....    1
 Number of Electrons    NEL             ....  146
 Basis Dimension        Dim             ....  325

ORBITAL ENERGIES
----------------

  NO   OCC          E(Eh)            E(eV)
   0   2.0000     -19.470872      -529.8294
   1   2.0000     -19.469005      -529.7786
   2   2.0000     -19.467313      -529.7325
   3   2.0000     -19.455872      -529.4212
   4   2.0000     -14.678969      -399.4350
   5   2.0000     -14.678924      -399.4338
   6   2.0000     -14.677154      -399.3857
   7   2.0000     -14.666513      -399.0961
   8   2.0000     -10.562654      -287.4244
   9   2.0000     -10.558190      -287.3030
  10   2.0000     -10.557021      -287.2711
  11   2.0000     -10.552493      -287.1479
  12   2.0000     -10.501476      -285.7597
  13   2.0000     -10.495567      -285.5989
  14   2.0000     -10.494228      -285.5625
  15   2.0000     -10.477151      -285.0978
  16   2.0000     -10.445299      -284.2310
  17   2.0000     -10.441484      -284.1272
  18   2.0000     -10.437555      -284.0203
  19   2.0000      -1.158625       -31.5278
  20   2.0000      -1.152718       -31.3671
  21   2.0000      -1.148205       -31.2442
  22   2.0000      -1.139566       -31.0092
  23   2.0000      -1.037996       -28.2453
  24   2.0000      -1.033960       -28.1355
  25   2.0000      -1.030067       -28.0296
  26   2.0000      -1.024926       -27.8896
  27   2.0000      -0.881625       -23.9902
  28   2.0000      -0.870388       -23.6845
  29   2.0000      -0.823851       -22.4181
  30   2.0000      -0.812162       -22.1000
  31   2.0000      -0.802630       -21.8407
  32   2.0000      -0.737873       -20.0786
  33   2.0000      -0.720147       -19.5962
  34   2.0000      -0.677744       -18.4424
  35   2.0000      -0.668636       -18.1945
  36   2.0000      -0.663864       -18.0647
  37   2.0000      -0.659925       -17.9575
  38   2.0000      -0.627288       -17.0694
  39   2.0000      -0.603467       -16.4212
  40   2.0000      -0.560657       -15.2563
  41   2.0000      -0.557395       -15.1675
  42   2.0000      -0.550648       -14.9839
  43   2.0000      -0.540348       -14.7036
  44   2.0000      -0.537329       -14.6215
  45   2.0000      -0.532695       -14.4954
  46   2.0000      -0.518425       -14.1071
  47   2.0000      -0.513162       -13.9638
  48   2.0000      -0.504458       -13.7270
  49   2.0000      -0.493243       -13.4218
  50   2.0000      -0.489071       -13.3083
  51   2.0000      -0.484345       -13.1797
  52   2.0000      -0.477333       -12.9889
  53   2.0000      -0.470695       -12.8083
  54   2.0000      -0.463472       -12.6117
  55   2.0000      -0.460306       -12.5256
  56   2.0000      -0.454617       -12.3707
  57   2.0000      -0.447750       -12.1839
  58   2.0000      -0.440318       -11.9817
  59   2.0000      -0.433817       -11.8048
  60   2.0000      -0.427531       -11.6337
  61   2.0000      -0.424190       -11.5428
  62   2.0000      -0.421959       -11.4821
  63   2.0000      -0.420939       -11.4543
  64   2.0000      -0.408423       -11.1137
  65   2.0000      -0.338372        -9.2076
  66   2.0000      -0.333464        -9.0740
  67   2.0000      -0.330444        -8.9918
  68   2.0000      -0.313664        -8.5352
  69   2.0000      -0.309972        -8.4348
  70   2.0000      -0.305452        -8.3118
  71   2.0000      -0.304586        -8.2882
  72   2.0000      -0.297975        -8.1083
  73   0.0000       0.031327         0.8525
  74   0.0000       0.042312         1.1514
  75   0.0000       0.058144         1.5822
  76   0.0000       0.072403         1.9702
  77   0.0000       0.113749         3.0953

MULLIKEN ATOMIC CHARGES
-----------------------
   0 H :    0.257646
   1 C :   -0.748398
   2 H :    0.214146
   3 H :    0.259172
   4 C :    0.527071
   5 O :   -0.431162
   6 N :   -0.629154
   7 H :    0.368666
   8 C :   -0.206690
   9 H :    0.268214
  10 C :   -0.629494
  11 H :    0.235570
  12 H :    0.221249
  13 H :    0.238007
  14 C :    0.565454
  15 O :   -0.443995
  16 N :   -0.635089
  17 H :    0.382341
  18 C :   -0.382461
  19 H :    0.264480
  20 H :    0.259728
  21 C :    0.532835
  22 O :   -0.440931
  23 N :   -0.626129
  24 H :    0.380189
  25 C :   -0.213359
  26 H :    0.262489
  27 C :   -0.628524
  28 H :    0.242070
  29 H :    0.224024
  30 H :    0.235599
  31 C :    0.563035
  32 O :   -0.436492
  33 N :   -0.636968
  34 H :    0.366075
  35 C :   -0.495361
  36 H :    0.224133
  37 H :    0.223168
  38 H :    0.268847
Sum of atomic charges:   -0.0000000

LOEWDIN ATOMIC CHARGES
----------------------
   0 H :    0.156617
   1 C :   -0.389420
   2 H :    0.127984
   3 H :    0.157511
   4 C :    0.111936
   5 O :   -0.284454
   6 N :   -0.227891
   7 H :    0.262150
   8 C :   -0.093729
   9 H :    0.147945
  10 C :   -0.353099
  11 H :    0.140046
  12 H :    0.133273
  13 H :    0.138117
  14 C :    0.113852
  15 O :   -0.291965
  16 N :   -0.221647
  17 H :    0.269886
  18 C :   -0.165624
  19 H :    0.150860
  20 H :    0.145158
  21 C :    0.103630
  22 O :   -0.290528
  23 N :   -0.213037
  24 H :    0.269444
  25 C :   -0.094032
  26 H :    0.144916
  27 C :   -0.352215
  28 H :    0.143311
  29 H :    0.135130
  30 H :    0.136976
  31 C :    0.110044
  32 O :   -0.286372
  33 N :   -0.241910
  34 H :    0.258853
  35 C :   -0.257559
  36 H :    0.124716
  37 H :    0.125030
  38 H :    0.156094

  Mayer bond orders larger than 0.100000
B(  0-H ,  1-C ) :   0.9099 B(  1-C ,  2-H ) :   0.9202 B(  1-C ,  3-H ) :   0.9097
B(  1-C ,  4-C ) :   0.9223 B(  4-C ,  5-O ) :   1.9845 B(  4-C ,  6-N ) :   1.1273
B(  6-N ,  7-H ) :   0.8110 B(  6-N ,  8-C ) :   0.9272 B(  8-C ,  9-H ) :   0.8739
B(  8-C , 10-C ) :   0.9870 B(  8-C , 14-C ) :   0.8754 B( 10-C , 11-H ) :   0.9138
B( 10-C , 12-H ) :   0.9213 B( 10-C , 13-H ) :   0.9207 B( 14-C , 15-O ) :   1.9578
B( 14-C , 16-N ) :   1.1326 B( 16-N , 17-H ) :   0.8053 B( 16-N , 18-C ) :   0.9498
B( 18-C , 19-H ) :   0.8838 B( 18-C , 20-H ) :   0.9010 B( 18-C , 21-C ) :   0.8848
B( 21-C , 22-O ) :   1.9632 B( 21-C , 23-N ) :   1.1514 B( 22-O , 23-N ) :   0.1017
B( 23-N , 24-H ) :   0.8048 B( 23-N , 25-C ) :   0.9210 B( 25-C , 26-H ) :   0.8779
B( 25-C , 27-C ) :   0.9889 B( 25-C , 31-C ) :   0.8754 B( 27-C , 28-H ) :   0.9107
B( 27-C , 29-H ) :   0.9206 B( 27-C , 30-H ) :   0.9209 B( 31-C , 32-O ) :   1.9704
B( 31-C , 33-N ) :   1.1376 B( 32-O , 33-N ) :   0.1021 B( 33-N , 34-H ) :   0.8214
B( 33-N , 35-C ) :   0.9460 B( 35-C , 36-H ) :   0.9185 B( 35-C , 37-H ) :   0.9203
B( 35-C , 38-H ) :   0.8977

Dispersion correction           -0.022587042
FINAL SINGLE POINT ENERGY      -949.161130031029

DIPOLE MOMENT
-------------
                                X             Y             Z
Electronic contribution:      1.06911      -4.09176      -0.76470
Nuclear contribution   :     -1.81424       3.92827       0.63963
                        -----------------------------------------
Total Dipole Moment    :     -0.74513      -0.16349      -0.12507
                        -----------------------------------------
Magnitude (a.u.)       :      0.77304
Magnitude (Debye)      :      1.96490

Rotational constants in cm-1:     0.032466     0.003842     0.003732
Rotational constants in MHz :   973.304712   115.166205   111.870203

                             ****ORCA TERMINATED NORMALLY****
TOTAL RUN TIME: 0 days 0 hours 4 minutes 53 seconds 749 msec
