                         Program Version 5.0.3 -  RELEASE  -
|  1> ! PBEh-3c def2/J TightSCF DefGrid3
|  2>
|  3> %maxcore 60000
|  4>
|  5> %pal
|  6> nprocs 4
|  7> end
|  8>
|  9> *xyzfile 0 1 ARG_xbx.xyz
| 10>
| 11>                          ****END OF INPUT****

CARTESIAN COORDINATES (ANGSTROEM)
---------------------------------
  N      2.566237   -0.266928    0.478935
  H      2.931949    0.360671    1.181292
  C      1.295176    0.116306   -0.079723
  H      1.430954    0.331614   -1.144621
  C      0.238563   -0.995637    0.052974
  C      0.886811    1.406407    0.636800
  H      0.763386   -1.939926    0.183294
  H     -0.364174   -0.820009    0.944702
  C     -0.655240   -1.089644   -1.180127
  O      1.635092    1.947469    1.451876
  H     -0.133454   -1.654361   -1.954075
  H     -0.823964   -0.098093   -1.599787
  C     -2.001602   -1.756641   -0.905422
  H     -1.838834   -2.790847   -0.604504
  H     -2.598732   -1.780825   -1.822734
  N     -2.726037   -1.118827    0.176761
  H     -3.168561   -1.700263    0.866562
  C     -3.127020    0.189244    0.133382
  N     -3.051995    1.002079   -0.867389
  N     -3.650416    0.631268    1.341302
  H     -2.837843    0.488842   -1.717444
  H     -3.862189    1.616260    1.307546
  H     -3.105254    0.377216    2.150453
  N     -0.324495    1.908832    0.332571
  C     -0.794340    3.120523    0.972584
  H     -0.969833    1.439117   -0.286375
  H     -0.083091    3.929786    0.823970
  H     -0.917821    2.977350    2.045676
  H     -1.747671    3.383355    0.524299
  C      3.345032   -1.172999   -0.160665
  C      4.714226   -1.393261    0.434467
  O      2.954049   -1.783841   -1.152918
  H      5.461463   -1.121281   -0.307710
  H      4.881134   -0.818434    1.341734
  H      4.834131   -2.452173    0.649493

 Total Charge           Charge          ....    0
 Multiplicity           Mult            ....    1
 Number of Electrons    NEL             ....  124
 Basis Dimension        Dim             ....  278

ORBITAL ENERGIES
----------------

  NO   OCC          E(Eh)            E(eV)
   0   2.0000     -19.462498      -529.6015
   1   2.0000     -19.446366      -529.1625
   2   2.0000     -14.667470      -399.1222
   3   2.0000     -14.657276      -398.8448
   4   2.0000     -14.649802      -398.6414
   5   2.0000     -14.648593      -398.6085
   6   2.0000     -14.597769      -397.2255
   7   2.0000     -10.554395      -287.1997
   8   2.0000     -10.546993      -286.9983
   9   2.0000     -10.539018      -286.7813
  10   2.0000     -10.490989      -285.4743
  11   2.0000     -10.485800      -285.3331
  12   2.0000     -10.462639      -284.7029
  13   2.0000     -10.447327      -284.2862
  14   2.0000     -10.440307      -284.0952
  15   2.0000     -10.434457      -283.9360
  16   2.0000      -1.148385       -31.2491
  17   2.0000      -1.130543       -30.7636
  18   2.0000      -1.098780       -29.8993
  19   2.0000      -1.019633       -27.7456
  20   2.0000      -1.015843       -27.6425
  21   2.0000      -0.999817       -27.2064
  22   2.0000      -0.947137       -25.7729
  23   2.0000      -0.896489       -24.3947
  24   2.0000      -0.846885       -23.0449
  25   2.0000      -0.811146       -22.0724
  26   2.0000      -0.784573       -21.3493
  27   2.0000      -0.742942       -20.2165
  28   2.0000      -0.695620       -18.9288
  29   2.0000      -0.662726       -18.0337
  30   2.0000      -0.652691       -17.7606
  31   2.0000      -0.641890       -17.4667
  32   2.0000      -0.629899       -17.1404
  33   2.0000      -0.603673       -16.4268
  34   2.0000      -0.592867       -16.1327
  35   2.0000      -0.553440       -15.0599
  36   2.0000      -0.545122       -14.8335
  37   2.0000      -0.534835       -14.5536
  38   2.0000      -0.528135       -14.3713
  39   2.0000      -0.521950       -14.2030
  40   2.0000      -0.510143       -13.8817
  41   2.0000      -0.506970       -13.7953
  42   2.0000      -0.497557       -13.5392
  43   2.0000      -0.487168       -13.2565
  44   2.0000      -0.468347       -12.7444
  45   2.0000      -0.463410       -12.6100
  46   2.0000      -0.460519       -12.5313
  47   2.0000      -0.450070       -12.2470
  48   2.0000      -0.447875       -12.1873
  49   2.0000      -0.440795       -11.9946
  50   2.0000      -0.422958       -11.5093
  51   2.0000      -0.419711       -11.4209
  52   2.0000      -0.402207       -10.9446
  53   2.0000      -0.395264       -10.7557
  54   2.0000      -0.386738       -10.5237
  55   2.0000      -0.331723        -9.0267
  56   2.0000      -0.323404        -8.8003
  57   2.0000      -0.317512        -8.6399
  58   2.0000      -0.307105        -8.3567
  59   2.0000      -0.298442        -8.1210
  60   2.0000      -0.292297        -7.9538
  61   2.0000      -0.287378        -7.8200
  62   0.0000       0.053484         1.4554
  63   0.0000       0.067866         1.8467
  64   0.0000       0.072641         1.9767
  65   0.0000       0.100584         2.7370
  66   0.0000       0.123031         3.3478

MULLIKEN ATOMIC CHARGES
-----------------------
   0 N :   -0.648926
   1 H :    0.384948
   2 C :   -0.144663
   3 H :    0.265695
   4 C :   -0.439051
   5 C :    0.527879
   6 H :    0.267565
   7 H :    0.223789
   8 C :   -0.476780
   9 O :   -0.453074
  10 H :    0.268108
  11 H :    0.203147
  12 C :   -0.301937
  13 H :    0.236871
  14 H :    0.229589
  15 N :   -0.629551
  16 H :    0.361370
  17 C :    0.537156
  18 N :   -0.644108
  19 N :   -0.789499
  20 H :    0.307833
  21 H :    0.364992
  22 H :    0.344790
  23 N :   -0.652743
  24 C :   -0.496892
  25 H :    0.411439
  26 H :    0.242124
  27 H :    0.217719
  28 H :    0.233226
  29 C :    0.519995
  30 C :   -0.747311
  31 O :   -0.450119
  32 H :    0.253854
  33 H :    0.219452
  34 H :    0.253111
Sum of atomic charges:   -0.0000000

LOEWDIN ATOMIC CHARGES
----------------------
   0 N :   -0.229336
   1 H :    0.268384
   2 C :   -0.086537
   3 H :    0.144480
   4 C :   -0.240373
   5 C :    0.111657
   6 H :    0.147500
   7 H :    0.123898
   8 C :   -0.256468
   9 O :   -0.293373
  10 H :    0.147779
  11 H :    0.114712
  12 C :   -0.150987
  13 H :    0.134137
  14 H :    0.118643
  15 N :   -0.268599
  16 H :    0.257913
  17 C :    0.080470
  18 N :   -0.457415
  19 N :   -0.402409
  20 H :    0.219628
  21 H :    0.255263
  22 H :    0.244428
  23 N :   -0.239592
  24 C :   -0.253566
  25 H :    0.260893
  26 H :    0.134436
  27 H :    0.121299
  28 H :    0.133700
  29 C :    0.104129
  30 C :   -0.387286
  31 O :   -0.297239
  32 H :    0.155046
  33 H :    0.130560
  34 H :    0.154225

  Mayer bond orders larger than 0.100000
B(  0-N ,  1-H ) :   0.7669 B(  0-N ,  2-C ) :   0.9424 B(  0-N , 29-C ) :   1.1671
B(  2-C ,  3-H ) :   0.8845 B(  2-C ,  4-C ) :   0.9177 B(  2-C ,  5-C ) :   0.9268
B(  4-C ,  6-H ) :   0.9078 B(  4-C ,  7-H ) :   0.9108 B(  4-C ,  8-C ) :   0.9489
B(  5-C ,  9-O ) :   1.9276 B(  5-C , 23-N ) :   1.1798 B(  8-C , 10-H ) :   0.9005
B(  8-C , 11-H ) :   0.9097 B(  8-C , 12-C ) :   0.9684 B( 12-C , 13-H ) :   0.9164
B( 12-C , 14-H ) :   0.9063 B( 12-C , 15-N ) :   0.9541 B( 15-N , 16-H ) :   0.8262
B( 15-N , 17-C ) :   1.0982 B( 17-C , 18-N ) :   1.8420 B( 17-C , 19-N ) :   1.0905
B( 18-N , 20-H ) :   0.8406 B( 19-N , 21-H ) :   0.8347 B( 19-N , 22-H ) :   0.8385
B( 23-N , 24-C ) :   0.9639 B( 23-N , 25-H ) :   0.7320 B( 24-C , 26-H ) :   0.9138
B( 24-C , 27-H ) :   0.9191 B( 24-C , 28-H ) :   0.9163 B( 29-C , 30-C ) :   0.9283
B( 29-C , 31-O ) :   1.9486 B( 30-C , 32-H ) :   0.9112 B( 30-C , 33-H ) :   0.9206
B( 30-C , 34-H ) :   0.9128

Dispersion correction           -0.023164974
FINAL SINGLE POINT ENERGY      -776.974524861384

DIPOLE MOMENT
-------------
                                X             Y             Z
Electronic contribution:      2.39021       0.69965       0.44705
Nuclear contribution   :     -3.34858      -1.30338       0.35095
                        -----------------------------------------
Total Dipole Moment    :     -0.95836      -0.60373       0.79799
                        -----------------------------------------
Magnitude (a.u.)       :      1.38555
Magnitude (Debye)      :      3.52178

Rotational constants in cm-1:     0.026344     0.010593     0.008238
Rotational constants in MHz :   789.763630   317.558316   246.982618

                             ****ORCA TERMINATED NORMALLY****
TOTAL RUN TIME: 0 days 0 hours 4 minutes 58 seconds 724 msec
