                         Program Version 5.0.3 -  RELEASE  -
|  1> ! PBEh-3c def2/J TightSCF DefGrid3
|  2>
|  3> %maxcore 60000
|  4>
|  5> %pal
|  6> nprocs 4
|  7> end
|  8>
|  9> *xyzfile 0 1 CL2.xyz
| 10>
| 11>                          ****END OF INPUT****

CARTESIAN COORDINATES (ANGSTROEM)
---------------------------------
  Cl     0.000000    0.000000   -0.994086
  Cl     0.000000    0.000000    0.994086

 Total Charge           Charge          ....    0
 Multiplicity           Mult            ....    1
 Number of Electrons    NEL             ....   34
 Basis Dimension        Dim             ....   36

ORBITAL ENERGIES
----------------

  NO   OCC          E(Eh)            E(eV)
   0   2.0000    -102.356710     -2785.2677
   1   2.0000    -102.356657     -2785.2662
   2   2.0000      -9.822578      -267.2859
   3   2.0000      -9.822567      -267.2856
   4   2.0000      -7.513166      -204.4436
   5   2.0000      -7.513044      -204.4403
   6   2.0000      -7.500041      -204.0865
   7   2.0000      -7.500041      -204.0865
   8   2.0000      -7.500040      -204.0865
   9   2.0000      -7.500040      -204.0865
  10   2.0000      -1.033474       -28.1222
  11   2.0000      -0.847000       -23.0480
  12   2.0000      -0.522357       -14.2141
  13   2.0000      -0.466836       -12.7033
  14   2.0000      -0.466836       -12.7033
  15   2.0000      -0.355079        -9.6622
  16   2.0000      -0.355079        -9.6622
  17   0.0000      -0.083338        -2.2677
  18   0.0000       0.438081        11.9208
  19   0.0000       0.559392        15.2218
  20   0.0000       0.599219        16.3056
  21   0.0000       0.628268        17.0960

MULLIKEN ATOMIC CHARGES
-----------------------
   0 Cl:   -0.000000
   1 Cl:    0.000000
Sum of atomic charges:   -0.0000000

LOEWDIN ATOMIC CHARGES
----------------------
   0 Cl:   -0.000000
   1 Cl:    0.000000

  Mayer bond orders larger than 0.100000
B(  0-Cl,  1-Cl) :   1.0339

Dispersion correction           -0.000448669
FINAL SINGLE POINT ENERGY      -919.358993538670

DIPOLE MOMENT
-------------
                                X             Y             Z
Electronic contribution:      0.00000       0.00000       0.00000
Nuclear contribution   :      0.00000       0.00000       0.00000
                        -----------------------------------------
Total Dipole Moment    :      0.00000       0.00000       0.00000
                        -----------------------------------------
Magnitude (a.u.)       :      0.00000
Magnitude (Debye)      :      0.00000

Rotational constants in cm-1:     0.000000     0.240584     0.240584
Rotational constants in MHz :     0.000000  7212.513103  7212.513103

                             ****ORCA TERMINATED NORMALLY****
TOTAL RUN TIME: 0 days 0 hours 0 minutes 31 seconds 985 msec
