                         Program Version 5.0.3 -  RELEASE  -
|  1> ! PBEh-3c def2/J TightSCF DefGrid3
|  2>
|  3> %maxcore 60000
|  4>
|  5> %pal
|  6> nprocs 4
|  7> end
|  8>
|  9> *xyzfile 1 2 2e.xyz
| 10>
| 11>                          ****END OF INPUT****

CARTESIAN COORDINATES (ANGSTROEM)
---------------------------------
  C     -2.398392    0.075282   -0.370624
  C     -1.161574   -0.363312    0.371299
  O      0.000000    0.000000   -0.329910
  C      1.161574    0.363312    0.371299
  C      2.398392   -0.075282   -0.370624
  H     -3.265742   -0.334609    0.148572
  H     -2.401692   -0.290198   -1.397497
  H     -2.469035    1.164189   -0.371897
  H     -1.106542   -1.476115    0.370468
  H     -1.086548   -0.039338    1.414634
  H      1.086548    0.039338    1.414634
  H      1.106542    1.476115    0.370468
  H      2.469035   -1.164189   -0.371897
  H      3.265742    0.334609    0.148572
  H      2.401692    0.290198   -1.397497

 Total Charge           Charge          ....    1
 Multiplicity           Mult            ....    2
 Number of Electrons    NEL             ....   41
 Basis Dimension        Dim             ....   95

ORBITAL ENERGIES
----------------
                 SPIN UP ORBITALS
  NO   OCC          E(Eh)            E(eV)
   0   1.0000     -19.872307      -540.7530
   1   1.0000     -10.728525      -291.9380
   2   1.0000     -10.728481      -291.9368
   3   1.0000     -10.619090      -288.9601
   4   1.0000     -10.619088      -288.9601
   5   1.0000      -1.488746       -40.5108
   6   1.0000      -1.116740       -30.3880
   7   1.0000      -1.032099       -28.0848
   8   1.0000      -0.940025       -25.5794
   9   1.0000      -0.915729       -24.9183
  10   1.0000      -0.849349       -23.1120
  11   1.0000      -0.807605       -21.9760
  12   1.0000      -0.779146       -21.2016
  13   1.0000      -0.705419       -19.1954
  14   1.0000      -0.681540       -18.5456
  15   1.0000      -0.653844       -17.7920
  16   1.0000      -0.630052       -17.1446
  17   1.0000      -0.628496       -17.1022
  18   1.0000      -0.624436       -16.9918
  19   1.0000      -0.609840       -16.5946
  20   1.0000      -0.590188       -16.0598
  21   0.0000      -0.090056        -2.4506
  22   0.0000      -0.037010        -1.0071
  23   0.0000      -0.034858        -0.9485
  24   0.0000      -0.019937        -0.5425
  25   0.0000      -0.009085        -0.2472

                 SPIN DOWN ORBITALS
  NO   OCC          E(Eh)            E(eV)
   0   1.0000     -19.848537      -540.1062
   1   1.0000     -10.728417      -291.9351
   2   1.0000     -10.728371      -291.9338
   3   1.0000     -10.618391      -288.9411
   4   1.0000     -10.618389      -288.9411
   5   1.0000      -1.433620       -39.0108
   6   1.0000      -1.108747       -30.1705
   7   1.0000      -1.021091       -27.7853
   8   1.0000      -0.930429       -25.3183
   9   1.0000      -0.902459       -24.5572
  10   1.0000      -0.806187       -21.9375
  11   1.0000      -0.762143       -20.7390
  12   1.0000      -0.759693       -20.6723
  13   1.0000      -0.689861       -18.7721
  14   1.0000      -0.651438       -17.7265
  15   1.0000      -0.646678       -17.5970
  16   1.0000      -0.623565       -16.9681
  17   1.0000      -0.622706       -16.9447
  18   1.0000      -0.609991       -16.5987
  19   1.0000      -0.598526       -16.2867
  20   0.0000      -0.383778       -10.4431
  21   0.0000      -0.083063        -2.2603
  22   0.0000      -0.030975        -0.8429
  23   0.0000      -0.029019        -0.7896
  24   0.0000      -0.014218        -0.3869

MULLIKEN ATOMIC CHARGES AND SPIN POPULATIONS
--------------------------------------------
   0 C :   -0.668998    0.026139
   1 C :   -0.246784   -0.017685
   2 O :   -0.136188    0.728798
   3 C :   -0.246784   -0.017685
   4 C :   -0.668997    0.026139
   5 H :    0.290617    0.001409
   6 H :    0.285947    0.000403
   7 H :    0.276949    0.007040
   8 H :    0.336944    0.102510
   9 H :    0.293418    0.015787
  10 H :    0.293418    0.015787
  11 H :    0.336944    0.102510
  12 H :    0.276949    0.007040
  13 H :    0.290617    0.001409
  14 H :    0.285947    0.000403
Sum of atomic charges         :    1.0000000

LOEWDIN ATOMIC CHARGES AND SPIN POPULATIONS
-------------------------------------------
   0 C :   -0.357932    0.025179
   1 C :   -0.084128    0.018749
   2 O :    0.130191    0.705265
   3 C :   -0.084128    0.018749
   4 C :   -0.357932    0.025179
   5 H :    0.176548    0.000553
   6 H :    0.168170    0.000588
   7 H :    0.163918    0.005001
   8 H :    0.207566    0.084759
   9 H :    0.160763    0.012540
  10 H :    0.160763    0.012540
  11 H :    0.207566    0.084759
  12 H :    0.163918    0.005001
  13 H :    0.176548    0.000553
  14 H :    0.168170    0.000588

  Mayer bond orders larger than 0.100000
B(  0-C ,  1-C ) :   0.9626 B(  0-C ,  5-H ) :   0.8849 B(  0-C ,  6-H ) :   0.8927
B(  0-C ,  7-H ) :   0.8960 B(  1-C ,  2-O ) :   0.9101 B(  1-C ,  8-H ) :   0.7950
B(  1-C ,  9-H ) :   0.8649 B(  2-O ,  3-C ) :   0.9101 B(  3-C ,  4-C ) :   0.9626
B(  3-C , 10-H ) :   0.8649 B(  3-C , 11-H ) :   0.7950 B(  4-C , 12-H ) :   0.8960
B(  4-C , 13-H ) :   0.8849 B(  4-C , 14-H ) :   0.8927

Dispersion correction           -0.005285473
FINAL SINGLE POINT ENERGY      -232.802460464205

DIPOLE MOMENT
-------------
                                X             Y             Z
Electronic contribution:      0.00000       0.00000      -0.26650
Nuclear contribution   :      0.00000       0.00000       0.92845
                        -----------------------------------------
Total Dipole Moment    :      0.00000       0.00000       0.66195
                        -----------------------------------------
Magnitude (a.u.)       :      0.66195
Magnitude (Debye)      :      1.68254

Rotational constants in cm-1:     0.619892     0.072759     0.070923
Rotational constants in MHz : 18583.884307  2181.261281  2126.214476

                             ****ORCA TERMINATED NORMALLY****
TOTAL RUN TIME: 0 days 0 hours 2 minutes 43 seconds 76 msec
