                         Program Version 5.0.3 -  RELEASE  -
|  1> ! PBEh-3c def2/J TightSCF DefGrid3
|  2>
|  3> %maxcore 60000
|  4>
|  5> %pal
|  6> nprocs 4
|  7> end
|  8>
|  9> *xyzfile 0 1 16.xyz
| 10>
| 11>                          ****END OF INPUT****

CARTESIAN COORDINATES (ANGSTROEM)
---------------------------------
  C     -0.229401   -0.511490    1.911948
  H      0.830221   -0.436497    1.681263
  H     -0.456793   -1.518543    2.253732
  H     -0.474725    0.171366    2.721846
  C     -1.120032   -0.193983    0.732149
  O     -2.342420   -0.221576    0.822213
  N     -0.458517    0.117042   -0.412739
  H      0.548712    0.117880   -0.408560
  C     -1.163221    0.443540   -1.630473
  H     -2.225469    0.370391   -1.418572
  H     -0.935402    1.456409   -1.960013
  H     -0.910723   -0.250889   -2.430503
  O      2.597680    0.135039   -0.526996
  H      3.162657   -0.577920   -0.832196
  H      3.177432    0.899233   -0.503098

 Total Charge           Charge          ....    0
 Multiplicity           Mult            ....    1
 Number of Electrons    NEL             ....   50
 Basis Dimension        Dim             ....  108

ORBITAL ENERGIES
----------------

  NO   OCC          E(Eh)            E(eV)
   0   2.0000     -19.517765      -531.1054
   1   2.0000     -19.428117      -528.6659
   2   2.0000     -14.635317      -398.2472
   3   2.0000     -10.523638      -286.3628
   4   2.0000     -10.447520      -284.2915
   5   2.0000     -10.421879      -283.5937
   6   2.0000      -1.144575       -31.1455
   7   2.0000      -1.114420       -30.3249
   8   2.0000      -0.996006       -27.1027
   9   2.0000      -0.822135       -22.3714
  10   2.0000      -0.750337       -20.4177
  11   2.0000      -0.632148       -17.2016
  12   2.0000      -0.621380       -16.9086
  13   2.0000      -0.551437       -15.0054
  14   2.0000      -0.512791       -13.9538
  15   2.0000      -0.502766       -13.6810
  16   2.0000      -0.482788       -13.1373
  17   2.0000      -0.466391       -12.6912
  18   2.0000      -0.444197       -12.0872
  19   2.0000      -0.432491       -11.7687
  20   2.0000      -0.419944       -11.4272
  21   2.0000      -0.398851       -10.8533
  22   2.0000      -0.386791       -10.5251
  23   2.0000      -0.284280        -7.7356
  24   2.0000      -0.278231        -7.5710
  25   0.0000       0.088364         2.4045
  26   0.0000       0.092567         2.5189
  27   0.0000       0.179427         4.8824
  28   0.0000       0.180223         4.9041
  29   0.0000       0.190024         5.1708

MULLIKEN ATOMIC CHARGES
-----------------------
   0 C :   -0.755917
   1 H :    0.220935
   2 H :    0.247406
   3 H :    0.247917
   4 C :    0.510022
   5 O :   -0.443580
   6 N :   -0.656856
   7 H :    0.397553
   8 C :   -0.491713
   9 H :    0.262988
  10 H :    0.208904
  11 H :    0.208836
  12 O :   -0.815585
  13 H :    0.429509
  14 H :    0.429580
Sum of atomic charges:    0.0000000

LOEWDIN ATOMIC CHARGES
----------------------
   0 C :   -0.393988
   1 H :    0.130008
   2 H :    0.150893
   3 H :    0.151035
   4 C :    0.100405
   5 O :   -0.299052
   6 N :   -0.260041
   7 H :    0.255082
   8 C :   -0.259657
   9 H :    0.152312
  10 H :    0.116373
  11 H :    0.116516
  12 O :   -0.581719
  13 H :    0.310904
  14 H :    0.310931

  Mayer bond orders larger than 0.100000
B(  0-C ,  1-H ) :   0.9140 B(  0-C ,  2-H ) :   0.9147 B(  0-C ,  3-H ) :   0.9148
B(  0-C ,  4-C ) :   0.9260 B(  4-C ,  5-O ) :   1.9844 B(  4-C ,  6-N ) :   1.1612
B(  5-O ,  6-N ) :   0.1013 B(  6-N ,  7-H ) :   0.7510 B(  6-N ,  8-C ) :   0.9653
B(  8-C ,  9-H ) :   0.8978 B(  8-C , 10-H ) :   0.9247 B(  8-C , 11-H ) :   0.9249
B( 12-O , 13-H ) :   0.7968 B( 12-O , 14-H ) :   0.7968

Dispersion correction           -0.005468573
FINAL SINGLE POINT ENERGY      -324.256674399052

DIPOLE MOMENT
-------------
                                X             Y             Z
Electronic contribution:     -2.71721      -0.28392       1.05982
Nuclear contribution   :      5.32061       0.46383      -1.78906
                        -----------------------------------------
Total Dipole Moment    :      2.60340       0.17991      -0.72924
                        -----------------------------------------
Magnitude (a.u.)       :      2.70959
Magnitude (Debye)      :      6.88723

Rotational constants in cm-1:     0.131101     0.063517     0.043738
Rotational constants in MHz :  3930.320611  1904.195807  1311.245220

                             ****ORCA TERMINATED NORMALLY****
TOTAL RUN TIME: 0 days 0 hours 1 minutes 40 seconds 139 msec
