                         Program Version 5.0.3 -  RELEASE  -
|  1> ! PBEh-3c def2/J TightSCF DefGrid3
|  2>
|  3> %maxcore 60000
|  4>
|  5> %pal
|  6> nprocs 4
|  7> end
|  8>
|  9> *xyzfile -1 2 EA_24.xyz
| 10>
| 11>                          ****END OF INPUT****

CARTESIAN COORDINATES (ANGSTROEM)
---------------------------------
  S      0.000000    0.000000    1.026051
  S      0.000000    0.000000   -1.026051

 Total Charge           Charge          ....   -1
 Multiplicity           Mult            ....    2
 Number of Electrons    NEL             ....   33
 Basis Dimension        Dim             ....   36

ORBITAL ENERGIES
----------------
                 SPIN UP ORBITALS
  NO   OCC          E(Eh)            E(eV)
   0   1.0000     -89.333683     -2430.8931
   1   1.0000     -89.333613     -2430.8912
   2   1.0000      -7.969801      -216.8693
   3   1.0000      -7.969780      -216.8688
   4   1.0000      -5.862646      -159.5307
   5   1.0000      -5.862639      -159.5305
   6   1.0000      -5.860664      -159.4768
   7   1.0000      -5.860436      -159.4706
   8   1.0000      -5.851303      -159.2220
   9   1.0000      -5.851295      -159.2218
  10   1.0000      -0.592066       -16.1109
  11   1.0000      -0.417312       -11.3556
  12   1.0000      -0.151981        -4.1356
  13   1.0000      -0.137708        -3.7472
  14   1.0000      -0.110498        -3.0068
  15   1.0000      -0.025780        -0.7015
  16   1.0000       0.004376         0.1191
  17   0.0000       0.267914         7.2903
  18   0.0000       0.586575        15.9615
  19   0.0000       0.691097        18.8057
  20   0.0000       0.773660        21.0524
  21   0.0000       0.816777        22.2256

                 SPIN DOWN ORBITALS
  NO   OCC          E(Eh)            E(eV)
   0   1.0000     -89.330341     -2430.8022
   1   1.0000     -89.330271     -2430.8002
   2   1.0000      -7.966436      -216.7777
   3   1.0000      -7.966397      -216.7767
   4   1.0000      -5.858843      -159.4272
   5   1.0000      -5.858607      -159.4208
   6   1.0000      -5.850207      -159.1922
   7   1.0000      -5.850194      -159.1919
   8   1.0000      -5.849333      -159.1684
   9   1.0000      -5.849324      -159.1682
  10   1.0000      -0.571038       -15.5387
  11   1.0000      -0.381612       -10.3842
  12   1.0000      -0.140316        -3.8182
  13   1.0000      -0.103382        -2.8132
  14   1.0000      -0.073152        -1.9906
  15   1.0000       0.013737         0.3738
  16   0.0000       0.140902         3.8341
  17   0.0000       0.279695         7.6109
  18   0.0000       0.593021        16.1369
  19   0.0000       0.702909        19.1271
  20   0.0000       0.787481        21.4285

MULLIKEN ATOMIC CHARGES AND SPIN POPULATIONS
--------------------------------------------
   0 S :   -0.500000    0.500000
   1 S :   -0.500000    0.500000
Sum of atomic charges         :   -1.0000000

LOEWDIN ATOMIC CHARGES AND SPIN POPULATIONS
-------------------------------------------
   0 S :   -0.500000    0.500000
   1 S :   -0.500000    0.500000

  Mayer bond orders larger than 0.100000
B(  0-S ,  1-S ) :   1.5032

Dispersion correction           -0.000530613
FINAL SINGLE POINT ENERGY      -795.508116857366

DIPOLE MOMENT
-------------
                                X             Y             Z
Electronic contribution:     -0.00000       0.00000       0.00000
Nuclear contribution   :      0.00000       0.00000       0.00000
                        -----------------------------------------
Total Dipole Moment    :     -0.00000       0.00000       0.00000
                        -----------------------------------------
Magnitude (a.u.)       :      0.00000
Magnitude (Debye)      :      0.00000

Rotational constants in cm-1:     0.000000     0.249727     0.249727
Rotational constants in MHz :     0.000000  7486.625509  7486.625509

                             ****ORCA TERMINATED NORMALLY****
TOTAL RUN TIME: 0 days 0 hours 0 minutes 21 seconds 753 msec
