                         Program Version 5.0.3 -  RELEASE  -
|  1> ! PBEh-3c def2/J TightSCF DefGrid3
|  2>
|  3> %maxcore 60000
|  4>
|  5> %pal
|  6> nprocs 4
|  7> end
|  8>
|  9> *xyzfile 0 1 E6.xyz
| 10>
| 11>                          ****END OF INPUT****

CARTESIAN COORDINATES (ANGSTROEM)
---------------------------------
  C      0.000000   -1.285206   -0.264840
  C      0.000000    0.000000    0.530885
  F      1.102742    0.000000    1.370238
  F     -1.102742    0.000000    1.370238
  C      0.000000    1.285206   -0.264840
  H      0.000000   -2.133442    0.419631
  H     -0.888088   -1.335570   -0.895236
  H      0.888088   -1.335570   -0.895236
  H      0.888088    1.335570   -0.895236
  H     -0.888088    1.335570   -0.895236
  H      0.000000    2.133442    0.419631

 Total Charge           Charge          ....    0
 Multiplicity           Mult            ....    1
 Number of Electrons    NEL             ....   42
 Basis Dimension        Dim             ....   87

ORBITAL ENERGIES
----------------

  NO   OCC          E(Eh)            E(eV)
   0   2.0000     -25.086557      -682.6399
   1   2.0000     -25.086473      -682.6376
   2   2.0000     -10.606886      -288.6280
   3   2.0000     -10.443672      -284.1868
   4   2.0000     -10.443603      -284.1849
   5   2.0000      -1.353713       -36.8364
   6   2.0000      -1.294105       -35.2144
   7   2.0000      -0.885067       -24.0839
   8   2.0000      -0.806769       -21.9533
   9   2.0000      -0.687949       -18.7200
  10   2.0000      -0.604448       -16.4479
  11   2.0000      -0.573650       -15.6098
  12   2.0000      -0.569896       -15.5077
  13   2.0000      -0.498899       -13.5757
  14   2.0000      -0.491916       -13.3857
  15   2.0000      -0.479996       -13.0614
  16   2.0000      -0.446186       -12.1413
  17   2.0000      -0.444830       -12.1044
  18   2.0000      -0.443414       -12.0659
  19   2.0000      -0.443210       -12.0604
  20   2.0000      -0.388488       -10.5713
  21   0.0000       0.139642         3.7998
  22   0.0000       0.148654         4.0451
  23   0.0000       0.159305         4.3349
  24   0.0000       0.201936         5.4950
  25   0.0000       0.219843         5.9822

MULLIKEN ATOMIC CHARGES
-----------------------
   0 C :   -0.721894
   1 C :    0.719905
   2 F :   -0.350114
   3 F :   -0.350114
   4 C :   -0.721894
   5 H :    0.255151
   6 H :    0.228452
   7 H :    0.228452
   8 H :    0.228452
   9 H :    0.228452
  10 H :    0.255151
Sum of atomic charges:   -0.0000000

LOEWDIN ATOMIC CHARGES
----------------------
   0 C :   -0.370501
   1 C :    0.273686
   2 F :   -0.202213
   3 F :   -0.202213
   4 C :   -0.370501
   5 H :    0.151630
   6 H :    0.142121
   7 H :    0.142121
   8 H :    0.142121
   9 H :    0.142121
  10 H :    0.151630

  Mayer bond orders larger than 0.100000
B(  0-C ,  1-C ) :   0.9742 B(  0-C ,  5-H ) :   0.9131 B(  0-C ,  6-H ) :   0.9146
B(  0-C ,  7-H ) :   0.9146 B(  1-C ,  2-F ) :   0.9534 B(  1-C ,  3-F ) :   0.9534
B(  1-C ,  4-C ) :   0.9742 B(  4-C ,  8-H ) :   0.9146 B(  4-C ,  9-H ) :   0.9146
B(  4-C , 10-H ) :   0.9131

Dispersion correction           -0.003653472
FINAL SINGLE POINT ENERGY      -316.995317590006

DIPOLE MOMENT
-------------
                                X             Y             Z
Electronic contribution:     -0.00000      -0.00000       6.53743
Nuclear contribution   :      0.00000       0.00000      -7.43672
                        -----------------------------------------
Total Dipole Moment    :     -0.00000      -0.00000      -0.89929
                        -----------------------------------------
Magnitude (a.u.)       :      0.89929
Magnitude (Debye)      :      2.28581

Rotational constants in cm-1:     0.170260     0.159892     0.159527
Rotational constants in MHz :  5104.278046  4793.453502  4782.492402

                             ****ORCA TERMINATED NORMALLY****
TOTAL RUN TIME: 0 days 0 hours 1 minutes 19 seconds 449 msec
