                         Program Version 5.0.3 -  RELEASE  -
|  1> ! PBEh-3c def2/J TightSCF DefGrid3
|  2>
|  3> %maxcore 60000
|  4>
|  5> %pal
|  6> nprocs 4
|  7> end
|  8>
|  9> *xyzfile 0 1 4.xyz
| 10>
| 11>                          ****END OF INPUT****

CARTESIAN COORDINATES (ANGSTROEM)
---------------------------------
  N     -0.180617    2.668845   -0.407989
  C      0.815524    1.894040   -0.963412
  C      0.400986    0.582490   -1.043751
  C     -0.930156    0.549308   -0.505187
  C     -1.869717   -0.491253   -0.327438
  C     -3.102451   -0.175560    0.224903
  C     -3.416361    1.153101    0.604262
  C     -2.510807    2.182874    0.435545
  C     -1.263759    1.869092   -0.122519
  H     -0.140299    3.663541   -0.282678
  H      1.751080    2.333469   -1.270097
  H     -1.625197   -1.498624   -0.629772
  H     -4.393155    1.337861    1.029080
  H     -2.766461    3.193774    0.725950
  O     -4.108661   -1.076637    0.453123
  C     -3.845931   -2.418446    0.080324
  H     -2.997609   -2.825960    0.635195
  H     -3.649978   -2.501761   -0.991050
  H     -4.741825   -2.979480    0.328250
  C      1.211153   -0.579627   -1.523807
  C      1.646262   -1.496366   -0.368349
  N      2.386227   -0.785590    0.659812
  C      3.688854   -0.429827    0.465149
  C      4.282226    0.472061    1.529150
  H      2.106848   -0.225604   -2.035253
  H      0.639945   -1.175280   -2.241691
  H      2.286013   -2.290395   -0.749111
  H      0.775716   -1.948938    0.106098
  H      1.859522   -0.276197    1.347351
  O      4.343253   -0.820921   -0.492168
  H      5.222856    0.040781    1.863922
  H      3.625010    0.614886    2.384905
  H      4.501509    1.440339    1.081259

 Total Charge           Charge          ....    0
 Multiplicity           Mult            ....    1
 Number of Electrons    NEL             ....  124
 Basis Dimension        Dim             ....  287

ORBITAL ENERGIES
----------------

  NO   OCC          E(Eh)            E(eV)
   0   2.0000     -19.522001      -531.2206
   1   2.0000     -19.447368      -529.1898
   2   2.0000     -14.685882      -399.6232
   3   2.0000     -14.653303      -398.7367
   4   2.0000     -10.540806      -286.8299
   5   2.0000     -10.502883      -285.7980
   6   2.0000     -10.488375      -285.4032
   7   2.0000     -10.478368      -285.1309
   8   2.0000     -10.477862      -285.1171
   9   2.0000     -10.469670      -284.8942
  10   2.0000     -10.454630      -284.4850
  11   2.0000     -10.447062      -284.2790
  12   2.0000     -10.444266      -284.2029
  13   2.0000     -10.442366      -284.1512
  14   2.0000     -10.440779      -284.1080
  15   2.0000     -10.439126      -284.0631
  16   2.0000     -10.438471      -284.0452
  17   2.0000      -1.170306       -31.8457
  18   2.0000      -1.133291       -30.8384
  19   2.0000      -1.087826       -29.6012
  20   2.0000      -1.015467       -27.6323
  21   2.0000      -0.939221       -25.5575
  22   2.0000      -0.897759       -24.4293
  23   2.0000      -0.848848       -23.0983
  24   2.0000      -0.834658       -22.7122
  25   2.0000      -0.821477       -22.3535
  26   2.0000      -0.798055       -21.7162
  27   2.0000      -0.778031       -21.1713
  28   2.0000      -0.720912       -19.6170
  29   2.0000      -0.692416       -18.8416
  30   2.0000      -0.671606       -18.2753
  31   2.0000      -0.651370       -17.7247
  32   2.0000      -0.629310       -17.1244
  33   2.0000      -0.608971       -16.5709
  34   2.0000      -0.580178       -15.7875
  35   2.0000      -0.564104       -15.3501
  36   2.0000      -0.557848       -15.1798
  37   2.0000      -0.531446       -14.4614
  38   2.0000      -0.530018       -14.4225
  39   2.0000      -0.527466       -14.3531
  40   2.0000      -0.511912       -13.9298
  41   2.0000      -0.509076       -13.8527
  42   2.0000      -0.494880       -13.4664
  43   2.0000      -0.490212       -13.3393
  44   2.0000      -0.471431       -12.8283
  45   2.0000      -0.465792       -12.6748
  46   2.0000      -0.460425       -12.5288
  47   2.0000      -0.455894       -12.4055
  48   2.0000      -0.451696       -12.2913
  49   2.0000      -0.445078       -12.1112
  50   2.0000      -0.424809       -11.5596
  51   2.0000      -0.417256       -11.3541
  52   2.0000      -0.412693       -11.2299
  53   2.0000      -0.403756       -10.9868
  54   2.0000      -0.397962       -10.8291
  55   2.0000      -0.376085       -10.2338
  56   2.0000      -0.352183        -9.5834
  57   2.0000      -0.322399        -8.7729
  58   2.0000      -0.303957        -8.2711
  59   2.0000      -0.293249        -7.9797
  60   2.0000      -0.245623        -6.6837
  61   2.0000      -0.240559        -6.5459
  62   0.0000       0.004943         0.1345
  63   0.0000       0.056402         1.5348
  64   0.0000       0.067211         1.8289
  65   0.0000       0.089962         2.4480
  66   0.0000       0.122959         3.3459

MULLIKEN ATOMIC CHARGES
-----------------------
   0 N :   -0.699563
   1 C :   -0.065086
   2 C :    0.020336
   3 C :    0.080775
   4 C :   -0.490017
   5 C :    0.393891
   6 C :   -0.318069
   7 C :   -0.253379
   8 C :    0.347179
   9 H :    0.358102
  10 H :    0.243697
  11 H :    0.220741
  12 H :    0.234992
  13 H :    0.214140
  14 O :   -0.466455
  15 C :   -0.404564
  16 H :    0.202302
  17 H :    0.206384
  18 H :    0.241381
  19 C :   -0.544220
  20 C :   -0.287116
  21 N :   -0.616262
  22 C :    0.517528
  23 C :   -0.748291
  24 H :    0.257848
  25 H :    0.226083
  26 H :    0.258376
  27 H :    0.221560
  28 H :    0.361282
  29 O :   -0.433412
  30 H :    0.260272
  31 H :    0.212977
  32 H :    0.246586
Sum of atomic charges:   -0.0000000

LOEWDIN ATOMIC CHARGES
----------------------
   0 N :   -0.159388
   1 C :   -0.087559
   2 C :   -0.109501
   3 C :   -0.054848
   4 C :   -0.199405
   5 C :    0.059225
   6 C :   -0.157726
   7 C :   -0.146982
   8 C :    0.001546
   9 H :    0.261347
  10 H :    0.137219
  11 H :    0.139053
  12 H :    0.146372
  13 H :    0.137539
  14 O :   -0.190871
  15 C :   -0.179963
  16 H :    0.111749
  17 H :    0.113654
  18 H :    0.130431
  19 C :   -0.236477
  20 C :   -0.144349
  21 N :   -0.239251
  22 C :    0.104493
  23 C :   -0.390595
  24 H :    0.147289
  25 H :    0.134155
  26 H :    0.143016
  27 H :    0.122603
  28 H :    0.256301
  29 O :   -0.284409
  30 H :    0.156752
  31 H :    0.127170
  32 H :    0.151411

  Mayer bond orders larger than 0.100000
B(  0-N ,  1-C ) :   1.1371 B(  0-N ,  8-C ) :   1.0084 B(  0-N ,  9-H ) :   0.8336
B(  1-C ,  2-C ) :   1.5553 B(  1-C , 10-H ) :   0.9079 B(  2-C ,  3-C ) :   1.2464
B(  2-C , 19-C ) :   0.9536 B(  3-C ,  4-C ) :   1.2530 B(  3-C ,  8-C ) :   1.2556
B(  4-C ,  5-C ) :   1.4201 B(  4-C , 11-H ) :   0.9147 B(  5-C ,  6-C ) :   1.3003
B(  5-C , 14-O ) :   1.0269 B(  6-C ,  7-C ) :   1.5273 B(  6-C , 12-H ) :   0.9084
B(  7-C ,  8-C ) :   1.2734 B(  7-C , 13-H ) :   0.9202 B( 14-O , 15-C ) :   0.9567
B( 15-C , 16-H ) :   0.9073 B( 15-C , 17-H ) :   0.9065 B( 15-C , 18-H ) :   0.9230
B( 19-C , 20-C ) :   0.9554 B( 19-C , 24-H ) :   0.9118 B( 19-C , 25-H ) :   0.9151
B( 20-C , 21-N ) :   0.9561 B( 20-C , 26-H ) :   0.9023 B( 20-C , 27-H ) :   0.9172
B( 21-N , 22-C ) :   1.1420 B( 21-N , 28-H ) :   0.8221 B( 22-C , 23-C ) :   0.9269
B( 22-C , 29-O ) :   1.9811 B( 23-C , 30-H ) :   0.9115 B( 23-C , 31-H ) :   0.9218
B( 23-C , 32-H ) :   0.9131

Dispersion correction           -0.021592701
FINAL SINGLE POINT ENERGY      -763.330537174048

DIPOLE MOMENT
-------------
                                X             Y             Z
Electronic contribution:     -4.28882       5.71462      -1.45217
Nuclear contribution   :      3.72160      -4.88548       2.12871
                        -----------------------------------------
Total Dipole Moment    :     -0.56723       0.82914       0.67654
                        -----------------------------------------
Magnitude (a.u.)       :      1.21117
Magnitude (Debye)      :      3.07854

Rotational constants in cm-1:     0.027332     0.008572     0.007307
Rotational constants in MHz :   819.405245   256.973562   219.043876

                             ****ORCA TERMINATED NORMALLY****
TOTAL RUN TIME: 0 days 0 hours 4 minutes 31 seconds 554 msec
