                         Program Version 5.0.3 -  RELEASE  -
|  1> ! PBEh-3c def2/J TightSCF DefGrid3
|  2>
|  3> %maxcore 60000
|  4>
|  5> %pal
|  6> nprocs 4
|  7> end
|  8>
|  9> *xyzfile 0 1 N2.xyz
| 10>
| 11>                          ****END OF INPUT****

CARTESIAN COORDINATES (ANGSTROEM)
---------------------------------
  N      0.000000    0.000000   -0.550046
  N      0.000000    0.000000    0.550046

 Total Charge           Charge          ....    0
 Multiplicity           Mult            ....    1
 Number of Electrons    NEL             ....   14
 Basis Dimension        Dim             ....   30

ORBITAL ENERGIES
----------------

  NO   OCC          E(Eh)            E(eV)
   0   2.0000     -14.743305      -401.1857
   1   2.0000     -14.741462      -401.1356
   2   2.0000      -1.233054       -33.5531
   3   2.0000      -0.621642       -16.9157
   4   2.0000      -0.517482       -14.0814
   5   2.0000      -0.517482       -14.0814
   6   2.0000      -0.488061       -13.2808
   7   0.0000       0.023536         0.6404
   8   0.0000       0.023536         0.6404
   9   0.0000       0.445830        12.1317
  10   0.0000       0.668164        18.1817
  11   0.0000       0.694705        18.9039

MULLIKEN ATOMIC CHARGES
-----------------------
   0 N :    0.000000
   1 N :   -0.000000
Sum of atomic charges:   -0.0000000

LOEWDIN ATOMIC CHARGES
----------------------
   0 N :    0.000000
   1 N :   -0.000000

  Mayer bond orders larger than 0.100000
B(  0-N ,  1-N ) :   2.9603

Dispersion correction           -0.000227170
FINAL SINGLE POINT ENERGY      -109.279370500468

DIPOLE MOMENT
-------------
                                X             Y             Z
Electronic contribution:      0.00000       0.00000       0.00000
Nuclear contribution   :      0.00000       0.00000       0.00000
                        -----------------------------------------
Total Dipole Moment    :      0.00000       0.00000       0.00000
                        -----------------------------------------
Magnitude (a.u.)       :      0.00000
Magnitude (Debye)      :      0.00000

Rotational constants in cm-1:     0.000000     1.988951     1.988951
Rotational constants in MHz :     0.000000 59627.249132 59627.249132

                             ****ORCA TERMINATED NORMALLY****
TOTAL RUN TIME: 0 days 0 hours 1 minutes 0 seconds 523 msec
