                         Program Version 5.0.3 -  RELEASE  -
|  1> ! PBEh-3c def2/J TightSCF DefGrid3
|  2>
|  3> %maxcore 60000
|  4>
|  5> %pal
|  6> nprocs 4
|  7> end
|  8>
|  9> *xyzfile 1 1 Ap.xyz
| 10>
| 11>                          ****END OF INPUT****

CARTESIAN COORDINATES (ANGSTROEM)
---------------------------------
  N     -1.920088    0.575576    0.221671
  N     -0.040422    2.019006    0.046934
  N      1.231434   -1.289247   -0.238885
  N      1.978653    0.764825    0.227417
  N     -1.741350   -1.701223    0.144180
  C      2.234259   -0.606198    0.154620
  C      0.708483    0.960145   -0.123878
  C     -1.204759   -0.513415   -0.002729
  C     -1.354998    1.777302    0.111230
  C      0.176296   -0.356153   -0.561195
  H      2.609806    1.469838    0.582881
  H     -2.705571   -1.773344    0.433944
  H     -1.203431   -2.542631    0.008612
  H     -2.008524    2.638646    0.215621
  H      3.194585   -1.012754    0.434075
  H      0.045626   -0.410373   -1.654499

 Total Charge           Charge          ....    1
 Multiplicity           Mult            ....    1
 Number of Electrons    NEL             ....   70
 Basis Dimension        Dim             ....  162

ORBITAL ENERGIES
----------------

  NO   OCC          E(Eh)            E(eV)
   0   2.0000     -14.900368      -405.4596
   1   2.0000     -14.874851      -404.7653
   2   2.0000     -14.827623      -403.4801
   3   2.0000     -14.822192      -403.3324
   4   2.0000     -14.815471      -403.1495
   5   2.0000     -10.757644      -292.7304
   6   2.0000     -10.750421      -292.5338
   7   2.0000     -10.722031      -291.7613
   8   2.0000     -10.717510      -291.6383
   9   2.0000     -10.694661      -291.0165
  10   2.0000      -1.350432       -36.7471
  11   2.0000      -1.294087       -35.2139
  12   2.0000      -1.249586       -34.0030
  13   2.0000      -1.189602       -32.3707
  14   2.0000      -1.158222       -31.5168
  15   2.0000      -1.063808       -28.9477
  16   2.0000      -0.945977       -25.7413
  17   2.0000      -0.939512       -25.5654
  18   2.0000      -0.890274       -24.2256
  19   2.0000      -0.860202       -23.4073
  20   2.0000      -0.829801       -22.5800
  21   2.0000      -0.791034       -21.5251
  22   2.0000      -0.767271       -20.8785
  23   2.0000      -0.756970       -20.5982
  24   2.0000      -0.722219       -19.6526
  25   2.0000      -0.700643       -19.0655
  26   2.0000      -0.688062       -18.7231
  27   2.0000      -0.659379       -17.9426
  28   2.0000      -0.643752       -17.5174
  29   2.0000      -0.595173       -16.1955
  30   2.0000      -0.566374       -15.4118
  31   2.0000      -0.539454       -14.6793
  32   2.0000      -0.511712       -13.9244
  33   2.0000      -0.490521       -13.3478
  34   2.0000      -0.476590       -12.9687
  35   0.0000      -0.257065        -6.9951
  36   0.0000      -0.171788        -4.6746
  37   0.0000      -0.123746        -3.3673
  38   0.0000      -0.079688        -2.1684
  39   0.0000      -0.041546        -1.1305

MULLIKEN ATOMIC CHARGES
-----------------------
   0 N :   -0.399596
   1 N :   -0.379368
   2 N :   -0.323318
   3 N :   -0.622207
   4 N :   -0.728970
   5 C :    0.186005
   6 C :    0.583704
   7 C :    0.572195
   8 C :    0.153490
   9 C :   -0.372629
  10 H :    0.432466
  11 H :    0.434108
  12 H :    0.434667
  13 H :    0.314422
  14 H :    0.324966
  15 H :    0.390064
Sum of atomic charges:    1.0000000

LOEWDIN ATOMIC CHARGES
----------------------
   0 N :   -0.196335
   1 N :   -0.175023
   2 N :   -0.162045
   3 N :   -0.119730
   4 N :   -0.218739
   5 C :    0.060476
   6 C :    0.159107
   7 C :    0.157550
   8 C :    0.124817
   9 C :   -0.112499
  10 H :    0.308233
  11 H :    0.302346
  12 H :    0.297536
  13 H :    0.170201
  14 H :    0.174419
  15 H :    0.229684

  Mayer bond orders larger than 0.100000
B(  0-N ,  7-C ) :   1.4804 B(  0-N ,  8-C ) :   1.4317 B(  1-N ,  6-C ) :   1.5662
B(  1-N ,  8-C ) :   1.3860 B(  2-N ,  5-C ) :   1.8469 B(  2-N ,  9-C ) :   1.0711
B(  3-N ,  5-C ) :   1.0122 B(  3-N ,  6-C ) :   1.2408 B(  3-N , 10-H ) :   0.7752
B(  4-N ,  7-C ) :   1.3735 B(  4-N , 11-H ) :   0.7830 B(  4-N , 12-H ) :   0.7849
B(  5-C , 14-H ) :   0.8670 B(  6-C ,  9-C ) :   0.9324 B(  7-C ,  9-C ) :   0.9175
B(  8-C , 13-H ) :   0.8695 B(  9-C , 15-H ) :   0.7830

Dispersion correction           -0.009746767
FINAL SINGLE POINT ENERGY      -466.617520711573

DIPOLE MOMENT
-------------
                                X             Y             Z
Electronic contribution:      0.58607       1.58371       0.06608
Nuclear contribution   :     -0.05612      -2.30386      -0.00228
                        -----------------------------------------
Total Dipole Moment    :      0.52995      -0.72014       0.06379
                        -----------------------------------------
Magnitude (a.u.)       :      0.89640
Magnitude (Debye)      :      2.27846

Rotational constants in cm-1:     0.076763     0.053302     0.032665
Rotational constants in MHz :  2301.286219  1597.948269   979.274392

                             ****ORCA TERMINATED NORMALLY****
TOTAL RUN TIME: 0 days 0 hours 2 minutes 1 seconds 506 msec
