                         Program Version 5.0.3 -  RELEASE  -
|  1> ! PBEh-3c def2/J TightSCF DefGrid3
|  2>
|  3> %maxcore 60000
|  4>
|  5> %pal
|  6> nprocs 4
|  7> end
|  8>
|  9> *xyzfile 0 1 47.xyz
| 10>
| 11>                          ****END OF INPUT****

CARTESIAN COORDINATES (ANGSTROEM)
---------------------------------
  N      0.378786    2.397308   -0.372645
  C     -0.676899    1.534491   -0.578437
  C     -0.268988    0.235209   -0.363600
  C      1.117786    0.307152    0.002458
  C      2.077891   -0.667134    0.334629
  C      3.357144   -0.248970    0.656677
  C      3.709788    1.119292    0.653915
  C      2.784220    2.095401    0.320763
  C      1.490023    1.673760   -0.007538
  H      0.320207    3.398345   -0.412430
  H     -1.643756    1.918828   -0.859541
  H      1.840607   -1.722612    0.358629
  H      4.716675    1.394637    0.937415
  H      3.055860    3.143057    0.326913
  O      4.299952   -1.189324    1.032476
  C      5.243856   -1.458845   -0.000611
  H      4.744787   -1.861612   -0.885343
  H      5.792886   -0.557568   -0.282003
  H      5.937762   -2.196114    0.394502
  C     -1.070677   -1.025860   -0.511585
  C     -2.570098   -0.790296   -0.663865
  N     -3.104745   -0.170110    0.537392
  C     -4.426977    0.022503    0.833327
  C     -5.418878   -0.685421   -0.067591
  H     -0.721674   -1.583343   -1.385186
  H     -0.903499   -1.668402    0.357235
  H     -2.752771   -0.172850   -1.550699
  H     -3.063738   -1.747655   -0.827520
  H     -2.469716    0.379242    1.096599
  O     -4.778417    0.707762    1.782689
  H     -6.419350   -0.427926    0.263616
  H     -5.291155   -0.386740   -1.108279
  H     -5.286891   -1.766204   -0.012372

 Total Charge           Charge          ....    0
 Multiplicity           Mult            ....    1
 Number of Electrons    NEL             ....  124
 Basis Dimension        Dim             ....  287

ORBITAL ENERGIES
----------------

  NO   OCC          E(Eh)            E(eV)
   0   2.0000     -19.506482      -530.7984
   1   2.0000     -19.446034      -529.1535
   2   2.0000     -14.691068      -399.7643
   3   2.0000     -14.651025      -398.6747
   4   2.0000     -10.541245      -286.8419
   5   2.0000     -10.496215      -285.6165
   6   2.0000     -10.487558      -285.3809
   7   2.0000     -10.486991      -285.3655
   8   2.0000     -10.484879      -285.3081
   9   2.0000     -10.482012      -285.2301
  10   2.0000     -10.458025      -284.5773
  11   2.0000     -10.456997      -284.5494
  12   2.0000     -10.451768      -284.4071
  13   2.0000     -10.450743      -284.3792
  14   2.0000     -10.447784      -284.2986
  15   2.0000     -10.446110      -284.2531
  16   2.0000     -10.437617      -284.0220
  17   2.0000      -1.154974       -31.4284
  18   2.0000      -1.131771       -30.7971
  19   2.0000      -1.094014       -29.7696
  20   2.0000      -1.019049       -27.7297
  21   2.0000      -0.941777       -25.6271
  22   2.0000      -0.905883       -24.6503
  23   2.0000      -0.851431       -23.1686
  24   2.0000      -0.833213       -22.6729
  25   2.0000      -0.821145       -22.3445
  26   2.0000      -0.807812       -21.9817
  27   2.0000      -0.768371       -20.9084
  28   2.0000      -0.734736       -19.9932
  29   2.0000      -0.704829       -19.1794
  30   2.0000      -0.667722       -18.1696
  31   2.0000      -0.650541       -17.7021
  32   2.0000      -0.634729       -17.2719
  33   2.0000      -0.618314       -16.8252
  34   2.0000      -0.574778       -15.6405
  35   2.0000      -0.563770       -15.3410
  36   2.0000      -0.557005       -15.1569
  37   2.0000      -0.538127       -14.6432
  38   2.0000      -0.526897       -14.3376
  39   2.0000      -0.521963       -14.2033
  40   2.0000      -0.518393       -14.1062
  41   2.0000      -0.501853       -13.6561
  42   2.0000      -0.498716       -13.5708
  43   2.0000      -0.491697       -13.3798
  44   2.0000      -0.489219       -13.3123
  45   2.0000      -0.472696       -12.8627
  46   2.0000      -0.468546       -12.7498
  47   2.0000      -0.458840       -12.4857
  48   2.0000      -0.453308       -12.3351
  49   2.0000      -0.443069       -12.0565
  50   2.0000      -0.438843       -11.9415
  51   2.0000      -0.429208       -11.6793
  52   2.0000      -0.408645       -11.1198
  53   2.0000      -0.406062       -11.0495
  54   2.0000      -0.397743       -10.8231
  55   2.0000      -0.378824       -10.3083
  56   2.0000      -0.328631        -8.9425
  57   2.0000      -0.325631        -8.8609
  58   2.0000      -0.300243        -8.1700
  59   2.0000      -0.292889        -7.9699
  60   2.0000      -0.259002        -7.0478
  61   2.0000      -0.247646        -6.7388
  62   0.0000       0.000145         0.0039
  63   0.0000       0.045607         1.2410
  64   0.0000       0.068380         1.8607
  65   0.0000       0.084390         2.2964
  66   0.0000       0.119741         3.2583

MULLIKEN ATOMIC CHARGES
-----------------------
   0 N :   -0.703826
   1 C :   -0.057134
   2 C :   -0.026736
   3 C :    0.074962
   4 C :   -0.426795
   5 C :    0.362577
   6 C :   -0.311327
   7 C :   -0.261650
   8 C :    0.365419
   9 H :    0.361932
  10 H :    0.252760
  11 H :    0.218293
  12 H :    0.229423
  13 H :    0.216908
  14 O :   -0.485287
  15 C :   -0.376893
  16 H :    0.202109
  17 H :    0.198005
  18 H :    0.221037
  19 C :   -0.508475
  20 C :   -0.273285
  21 N :   -0.617168
  22 C :    0.494460
  23 C :   -0.775934
  24 H :    0.241251
  25 H :    0.240336
  26 H :    0.210276
  27 H :    0.234934
  28 H :    0.377392
  29 O :   -0.418426
  30 H :    0.271496
  31 H :    0.230684
  32 H :    0.238682
Sum of atomic charges:    0.0000000

LOEWDIN ATOMIC CHARGES
----------------------
   0 N :   -0.155891
   1 C :   -0.091279
   2 C :   -0.113076
   3 C :   -0.055001
   4 C :   -0.149611
   5 C :    0.043721
   6 C :   -0.156898
   7 C :   -0.152169
   8 C :    0.014919
   9 H :    0.263769
  10 H :    0.139460
  11 H :    0.144933
  12 H :    0.142856
  13 H :    0.138011
  14 O :   -0.219800
  15 C :   -0.172377
  16 H :    0.110309
  17 H :    0.107736
  18 H :    0.124483
  19 C :   -0.229769
  20 C :   -0.141010
  21 N :   -0.254418
  22 C :    0.104959
  23 C :   -0.397356
  24 H :    0.142018
  25 H :    0.140879
  26 H :    0.111061
  27 H :    0.128403
  28 H :    0.263342
  29 O :   -0.274107
  30 H :    0.155538
  31 H :    0.141125
  32 H :    0.145235

  Mayer bond orders larger than 0.100000
B(  0-N ,  1-C ) :   1.1324 B(  0-N ,  8-C ) :   1.0129 B(  0-N ,  9-H ) :   0.8316
B(  1-C ,  2-C ) :   1.5452 B(  1-C , 10-H ) :   0.9049 B(  2-C ,  3-C ) :   1.2533
B(  2-C , 19-C ) :   0.9697 B(  3-C ,  4-C ) :   1.2429 B(  3-C ,  8-C ) :   1.2432
B(  4-C ,  5-C ) :   1.4820 B(  4-C , 11-H ) :   0.9287 B(  5-C ,  6-C ) :   1.3182
B(  5-C , 14-O ) :   0.9532 B(  6-C ,  7-C ) :   1.4853 B(  6-C , 12-H ) :   0.9120
B(  7-C ,  8-C ) :   1.2890 B(  7-C , 13-H ) :   0.9198 B( 14-O , 15-C ) :   0.9519
B( 15-C , 16-H ) :   0.9125 B( 15-C , 17-H ) :   0.9118 B( 15-C , 18-H ) :   0.9282
B( 19-C , 20-C ) :   1.0023 B( 19-C , 24-H ) :   0.9058 B( 19-C , 25-H ) :   0.9024
B( 20-C , 21-N ) :   0.9468 B( 20-C , 26-H ) :   0.8973 B( 20-C , 27-H ) :   0.9047
B( 21-N , 22-C ) :   1.1592 B( 21-N , 28-H ) :   0.8009 B( 22-C , 23-C ) :   0.9292
B( 22-C , 29-O ) :   2.0340 B( 23-C , 30-H ) :   0.9166 B( 23-C , 31-H ) :   0.9105
B( 23-C , 32-H ) :   0.9102

Dispersion correction           -0.021136422
FINAL SINGLE POINT ENERGY      -763.319683215575

DIPOLE MOMENT
-------------
                                X             Y             Z
Electronic contribution:      3.86448       6.71137       4.79618
Nuclear contribution   :     -3.08555      -6.52681      -6.63131
                        -----------------------------------------
Total Dipole Moment    :      0.77893       0.18456      -1.83513
                        -----------------------------------------
Magnitude (a.u.)       :      2.00213
Magnitude (Debye)      :      5.08900

Rotational constants in cm-1:     0.037340     0.006329     0.005817
Rotational constants in MHz :  1119.414330   189.742081   174.397870

                             ****ORCA TERMINATED NORMALLY****
TOTAL RUN TIME: 0 days 0 hours 3 minutes 55 seconds 272 msec
