                         Program Version 5.0.3 -  RELEASE  -
|  1> ! PBEh-3c def2/J TightSCF DefGrid3
|  2>
|  3> %maxcore 60000
|  4>
|  5> %scf
|  6>     guess hcore
|  7> end
|  8>
|  9> %pal
| 10> nprocs 4
| 11> end
| 12>
| 13> *xyzfile 0 1 H2S.xyz
| 14>
| 15>                          ****END OF INPUT****

CARTESIAN COORDINATES (ANGSTROEM)
---------------------------------
  S      0.000000    0.000000    0.615117
  H     -0.966251    0.000000   -0.307558
  H      0.966251    0.000000   -0.307558

 Total Charge           Charge          ....    0
 Multiplicity           Mult            ....    1
 Number of Electrons    NEL             ....   18
 Basis Dimension        Dim             ....   22

ORBITAL ENERGIES
----------------

  NO   OCC          E(Eh)            E(eV)
   0   2.0000     -89.581603     -2437.6393
   1   2.0000      -8.225082      -223.8159
   2   2.0000      -6.115732      -166.4175
   3   2.0000      -6.113068      -166.3450
   4   2.0000      -6.107180      -166.1848
   5   2.0000      -0.823539       -22.4096
   6   2.0000      -0.500707       -13.6249
   7   2.0000      -0.412582       -11.2269
   8   2.0000      -0.303265        -8.2523
   9   0.0000       0.067711         1.8425
  10   0.0000       0.105817         2.8794
  11   0.0000       0.430233        11.7072
  12   0.0000       0.551862        15.0169
  13   0.0000       0.629019        17.1165

MULLIKEN ATOMIC CHARGES
-----------------------
   0 S :   -0.377217
   1 H :    0.188609
   2 H :    0.188609
Sum of atomic charges:    0.0000000

LOEWDIN ATOMIC CHARGES
----------------------
   0 S :   -0.210095
   1 H :    0.105048
   2 H :    0.105048

  Mayer bond orders larger than 0.100000
B(  0-S ,  1-H ) :   0.9340 B(  0-S ,  2-H ) :   0.9340

Dispersion correction           -0.000417710
FINAL SINGLE POINT ENERGY      -398.931717741485

DIPOLE MOMENT
-------------
                                X             Y             Z
Electronic contribution:      0.00000       0.00000       1.04235
Nuclear contribution   :      0.00000       0.00000      -1.63042
                        -----------------------------------------
Total Dipole Moment    :      0.00000       0.00000      -0.58807
                        -----------------------------------------
Magnitude (a.u.)       :      0.58807
Magnitude (Debye)      :      1.49476

Rotational constants in cm-1:    10.439845     8.956253     4.820655
Rotational constants in MHz : 312978.680213 268501.720868 144519.598727

                             ****ORCA TERMINATED NORMALLY****
TOTAL RUN TIME: 0 days 0 hours 0 minutes 4 seconds 978 msec
