                         Program Version 5.0.3 -  RELEASE  -
|  1> ! PBEh-3c def2/J TightSCF DefGrid3
|  2>
|  3> %maxcore 60000
|  4>
|  5> %pal
|  6> nprocs 4
|  7> end
|  8>
|  9> *xyzfile 0 1 18.xyz
| 10>
| 11>                          ****END OF INPUT****

CARTESIAN COORDINATES (ANGSTROEM)
---------------------------------
  O     -3.597784   -0.166664    0.000000
  H     -3.916712    0.736826    0.000000
  H     -2.632293   -0.066798    0.000000
  N     -0.680932    0.031656    0.000000
  C      0.014899   -0.002341    1.144895
  H     -0.569834    0.021248    2.055725
  C      1.403919   -0.067525    1.194982
  H      1.909762   -0.092402    2.149344
  C      2.115161   -0.100623    0.000000
  H      3.195001   -0.152396    0.000000
  C      1.403919   -0.067525   -1.194982
  H      1.909762   -0.092402   -2.149344
  C      0.014899   -0.002341   -1.144895
  H     -0.569834    0.021248   -2.055725

 Total Charge           Charge          ....    0
 Multiplicity           Mult            ....    1
 Number of Electrons    NEL             ....   52
 Basis Dimension        Dim             ....  119

ORBITAL ENERGIES
----------------

  NO   OCC          E(Eh)            E(eV)
   0   2.0000     -19.428456      -528.6752
   1   2.0000     -14.662978      -398.9999
   2   2.0000     -10.498930      -285.6904
   3   2.0000     -10.498907      -285.6898
   4   2.0000     -10.484393      -285.2948
   5   2.0000     -10.472355      -284.9673
   6   2.0000     -10.472345      -284.9670
   7   2.0000      -1.066084       -29.0096
   8   2.0000      -1.056385       -28.7457
   9   2.0000      -0.916456       -24.9380
  10   2.0000      -0.870008       -23.6741
  11   2.0000      -0.725463       -19.7409
  12   2.0000      -0.724178       -19.7059
  13   2.0000      -0.616744       -16.7825
  14   2.0000      -0.562980       -15.3195
  15   2.0000      -0.550540       -14.9810
  16   2.0000      -0.539390       -14.6776
  17   2.0000      -0.506447       -13.7811
  18   2.0000      -0.481752       -13.1091
  19   2.0000      -0.472465       -12.8564
  20   2.0000      -0.436210       -11.8699
  21   2.0000      -0.399265       -10.8646
  22   2.0000      -0.349308        -9.5052
  23   2.0000      -0.333339        -9.0706
  24   2.0000      -0.319935        -8.7059
  25   2.0000      -0.315349        -8.5811
  26   0.0000      -0.020598        -0.5605
  27   0.0000      -0.004443        -0.1209
  28   0.0000       0.130456         3.5499
  29   0.0000       0.167434         4.5561
  30   0.0000       0.176053         4.7906

MULLIKEN ATOMIC CHARGES
-----------------------
   0 O :   -0.867772
   1 H :    0.388064
   2 H :    0.435415
   3 N :   -0.437299
   4 C :    0.002210
   5 H :    0.248670
   6 C :   -0.310105
   7 H :    0.240478
   8 C :   -0.123111
   9 H :    0.242198
  10 C :   -0.310106
  11 H :    0.240478
  12 C :    0.002210
  13 H :    0.248670
Sum of atomic charges:   -0.0000000

LOEWDIN ATOMIC CHARGES
----------------------
   0 O :   -0.632922
   1 H :    0.287840
   2 H :    0.283652
   3 N :   -0.142222
   4 C :   -0.046697
   5 H :    0.137092
   6 C :   -0.159128
   7 H :    0.145976
   8 C :   -0.095299
   9 H :    0.144465
  10 C :   -0.159128
  11 H :    0.145976
  12 C :   -0.046697
  13 H :    0.137092

  Mayer bond orders larger than 0.100000
B(  0-O ,  1-H ) :   0.8312 B(  0-O ,  2-H ) :   0.7292 B(  3-N ,  4-C ) :   1.4511
B(  3-N , 12-C ) :   1.4511 B(  4-C ,  5-H ) :   0.9099 B(  4-C ,  6-C ) :   1.3897
B(  6-C ,  7-H ) :   0.9109 B(  6-C ,  8-C ) :   1.4063 B(  8-C ,  9-H ) :   0.9160
B(  8-C , 10-C ) :   1.4063 B( 10-C , 11-H ) :   0.9109 B( 10-C , 12-C ) :   1.3897
B( 12-C , 13-H ) :   0.9099

Dispersion correction           -0.006466241
FINAL SINGLE POINT ENERGY      -323.998952953113

DIPOLE MOMENT
-------------
                                X             Y             Z
Electronic contribution:      1.91448      -0.02100       0.00000
Nuclear contribution   :     -0.12709       0.67078       0.00000
                        -----------------------------------------
Total Dipole Moment    :      1.78739       0.64978       0.00000
                        -----------------------------------------
Magnitude (a.u.)       :      1.90183
Magnitude (Debye)      :      4.83408

Rotational constants in cm-1:     0.199085     0.047384     0.038458
Rotational constants in MHz :  5968.428930  1420.544872  1152.949443

                             ****ORCA TERMINATED NORMALLY****
TOTAL RUN TIME: 0 days 0 hours 1 minutes 35 seconds 558 msec
