                         Program Version 5.0.3 -  RELEASE  -
|  1> ! PBEh-3c def2/J TightSCF DefGrid3
|  2>
|  3> %maxcore 60000
|  4>
|  5> %pal
|  6> nprocs 4
|  7> end
|  8>
|  9> *xyzfile 0 1 AD5.xyz
| 10>
| 11>                          ****END OF INPUT****

CARTESIAN COORDINATES (ANGSTROEM)
---------------------------------
  C     -1.951744    0.212836    0.000000
  C     -1.951744   -0.625637    1.275957
  C     -1.951744   -0.625637   -1.275957
  C     -1.951744    0.224948    2.543414
  C     -1.951744    0.224948   -2.543414
  H     -2.830473    0.872296    0.000000
  H     -1.073014    0.872296    0.000000
  H     -2.829754   -1.283735    1.273933
  H     -1.073733   -1.283735    1.273933
  H     -2.829754   -1.283735   -1.273933
  H     -1.073733   -1.283735   -1.273933
  H     -2.835769    0.869163    2.579899
  H     -1.067718    0.869163    2.579899
  H     -1.951744   -0.396732    3.443617
  H     -2.835769    0.869163   -2.579899
  H     -1.067718    0.869163   -2.579899
  H     -1.951744   -0.396732   -3.443617
  C      1.951744   -0.212836    0.000000
  C      1.951744    0.625637   -1.275957
  C      1.951744    0.625637    1.275957
  C      1.951744   -0.224948   -2.543414
  C      1.951744   -0.224948    2.543414
  H      1.073014   -0.872296    0.000000
  H      2.830473   -0.872296    0.000000
  H      1.073733    1.283735   -1.273933
  H      2.829754    1.283735   -1.273933
  H      1.073733    1.283735    1.273933
  H      2.829754    1.283735    1.273933
  H      1.067718   -0.869163   -2.579899
  H      2.835769   -0.869163   -2.579899
  H      1.951744    0.396732   -3.443617
  H      1.067718   -0.869163    2.579899
  H      2.835769   -0.869163    2.579899
  H      1.951744    0.396732    3.443617

 Total Charge           Charge          ....    0
 Multiplicity           Mult            ....    1
 Number of Electrons    NEL             ....   84
 Basis Dimension        Dim             ....  198

ORBITAL ENERGIES
----------------

  NO   OCC          E(Eh)            E(eV)
   0   2.0000     -10.429604      -283.8039
   1   2.0000     -10.429598      -283.8038
   2   2.0000     -10.429580      -283.8033
   3   2.0000     -10.429571      -283.8030
   4   2.0000     -10.427507      -283.7469
   5   2.0000     -10.427502      -283.7468
   6   2.0000     -10.421219      -283.5758
   7   2.0000     -10.421213      -283.5756
   8   2.0000     -10.421210      -283.5755
   9   2.0000     -10.421200      -283.5753
  10   2.0000      -0.893734       -24.3197
  11   2.0000      -0.890081       -24.2203
  12   2.0000      -0.837735       -22.7959
  13   2.0000      -0.834343       -22.7036
  14   2.0000      -0.755651       -20.5623
  15   2.0000      -0.752414       -20.4742
  16   2.0000      -0.670055       -18.2331
  17   2.0000      -0.669937       -18.2299
  18   2.0000      -0.645868       -17.5750
  19   2.0000      -0.641224       -17.4486
  20   2.0000      -0.546073       -14.8594
  21   2.0000      -0.524706       -14.2780
  22   2.0000      -0.496914       -13.5217
  23   2.0000      -0.495654       -13.4874
  24   2.0000      -0.492970       -13.4144
  25   2.0000      -0.478754       -13.0276
  26   2.0000      -0.458288       -12.4707
  27   2.0000      -0.456676       -12.4268
  28   2.0000      -0.447013       -12.1638
  29   2.0000      -0.446370       -12.1464
  30   2.0000      -0.434483       -11.8229
  31   2.0000      -0.421459       -11.4685
  32   2.0000      -0.402797       -10.9607
  33   2.0000      -0.401164       -10.9162
  34   2.0000      -0.384431       -10.4609
  35   2.0000      -0.380528       -10.3547
  36   2.0000      -0.376887       -10.2556
  37   2.0000      -0.374876       -10.2009
  38   2.0000      -0.368912       -10.0386
  39   2.0000      -0.362755        -9.8711
  40   2.0000      -0.361756        -9.8439
  41   2.0000      -0.358137        -9.7454
  42   0.0000       0.087707         2.3866
  43   0.0000       0.115722         3.1490
  44   0.0000       0.146761         3.9936
  45   0.0000       0.164346         4.4721
  46   0.0000       0.169163         4.6032

MULLIKEN ATOMIC CHARGES
-----------------------
   0 C :   -0.399916
   1 C :   -0.414735
   2 C :   -0.414735
   3 C :   -0.643820
   4 C :   -0.643820
   5 H :    0.202116
   6 H :    0.205940
   7 H :    0.206439
   8 H :    0.205056
   9 H :    0.206439
  10 H :    0.205056
  11 H :    0.210356
  12 H :    0.215069
  13 H :    0.217565
  14 H :    0.210356
  15 H :    0.215069
  16 H :    0.217565
  17 C :   -0.399916
  18 C :   -0.414734
  19 C :   -0.414734
  20 C :   -0.643820
  21 C :   -0.643820
  22 H :    0.205940
  23 H :    0.202116
  24 H :    0.205056
  25 H :    0.206439
  26 H :    0.205056
  27 H :    0.206439
  28 H :    0.215069
  29 H :    0.210356
  30 H :    0.217565
  31 H :    0.215069
  32 H :    0.210356
  33 H :    0.217565
Sum of atomic charges:   -0.0000000

LOEWDIN ATOMIC CHARGES
----------------------
   0 C :   -0.240986
   1 C :   -0.245350
   2 C :   -0.245350
   3 C :   -0.361812
   4 C :   -0.361812
   5 H :    0.118732
   6 H :    0.117383
   7 H :    0.119598
   8 H :    0.116588
   9 H :    0.119598
  10 H :    0.116588
  11 H :    0.123482
  12 H :    0.123756
  13 H :    0.126173
  14 H :    0.123482
  15 H :    0.123756
  16 H :    0.126173
  17 C :   -0.240986
  18 C :   -0.245350
  19 C :   -0.245350
  20 C :   -0.361812
  21 C :   -0.361812
  22 H :    0.117383
  23 H :    0.118732
  24 H :    0.116588
  25 H :    0.119598
  26 H :    0.116588
  27 H :    0.119598
  28 H :    0.123756
  29 H :    0.123482
  30 H :    0.126173
  31 H :    0.123756
  32 H :    0.123482
  33 H :    0.126173

  Mayer bond orders larger than 0.100000
B(  0-C ,  1-C ) :   0.9883 B(  0-C ,  2-C ) :   0.9883 B(  0-C ,  5-H ) :   0.9178
B(  0-C ,  6-H ) :   0.9083 B(  1-C ,  3-C ) :   0.9955 B(  1-C ,  7-H ) :   0.9195
B(  1-C ,  8-H ) :   0.9138 B(  2-C ,  4-C ) :   0.9955 B(  2-C ,  9-H ) :   0.9195
B(  2-C , 10-H ) :   0.9138 B(  3-C , 11-H ) :   0.9284 B(  3-C , 12-H ) :   0.9224
B(  3-C , 13-H ) :   0.9322 B(  4-C , 14-H ) :   0.9284 B(  4-C , 15-H ) :   0.9224
B(  4-C , 16-H ) :   0.9322 B( 17-C , 18-C ) :   0.9883 B( 17-C , 19-C ) :   0.9883
B( 17-C , 22-H ) :   0.9083 B( 17-C , 23-H ) :   0.9178 B( 18-C , 20-C ) :   0.9955
B( 18-C , 24-H ) :   0.9138 B( 18-C , 25-H ) :   0.9195 B( 19-C , 21-C ) :   0.9955
B( 19-C , 26-H ) :   0.9138 B( 19-C , 27-H ) :   0.9195 B( 20-C , 28-H ) :   0.9224
B( 20-C , 29-H ) :   0.9284 B( 20-C , 30-H ) :   0.9322 B( 21-C , 31-H ) :   0.9224
B( 21-C , 32-H ) :   0.9284 B( 21-C , 33-H ) :   0.9322

Dispersion correction           -0.017762287
FINAL SINGLE POINT ENERGY      -394.673689223933

DIPOLE MOMENT
-------------
                                X             Y             Z
Electronic contribution:     -0.00000       0.00000      -0.00000
Nuclear contribution   :      0.00000      -0.00000       0.00000
                        -----------------------------------------
Total Dipole Moment    :     -0.00000       0.00000      -0.00000
                        -----------------------------------------
Magnitude (a.u.)       :      0.00000
Magnitude (Debye)      :      0.00000

Rotational constants in cm-1:     0.030806     0.027602     0.015745
Rotational constants in MHz :   923.528669   827.499967   472.018380

                             ****ORCA TERMINATED NORMALLY****
TOTAL RUN TIME: 0 days 0 hours 2 minutes 15 seconds 450 msec
