                         Program Version 5.0.3 -  RELEASE  -
|  1> ! PBEh-3c def2/J TightSCF DefGrid3
|  2>
|  3> %maxcore 60000
|  4>
|  5> %pal
|  6> nprocs 4
|  7> end
|  8>
|  9> *xyzfile 0 1 3B.xyz
| 10>
| 11>                          ****END OF INPUT****

CARTESIAN COORDINATES (ANGSTROEM)
---------------------------------
  H     -3.541794    1.070493   -0.030825
  F     -4.683277    1.027745   -0.078589

 Total Charge           Charge          ....    0
 Multiplicity           Mult            ....    1
 Number of Electrons    NEL             ....   10
 Basis Dimension        Dim             ....   17

ORBITAL ENERGIES
----------------

  NO   OCC          E(Eh)            E(eV)
   0   2.0000     -25.065191      -682.0585
   1   2.0000      -1.242221       -33.8026
   2   2.0000      -0.540948       -14.7200
   3   2.0000      -0.443126       -12.0581
   4   2.0000      -0.443125       -12.0581
   5   0.0000       0.034257         0.9322
   6   0.0000       0.745299        20.2806
   7   0.0000       1.188993        32.3541
   8   0.0000       1.188994        32.3542
   9   0.0000       1.269000        34.5312

MULLIKEN ATOMIC CHARGES
-----------------------
   0 H :    0.479790
   1 F :   -0.479790
Sum of atomic charges:   -0.0000000

LOEWDIN ATOMIC CHARGES
----------------------
   0 H :    0.403082
   1 F :   -0.403082

  Mayer bond orders larger than 0.100000
B(  0-H ,  1-F ) :   0.7649

Dispersion correction           -0.000067533
FINAL SINGLE POINT ENERGY      -100.209895536618

DIPOLE MOMENT
-------------
                                X             Y             Z
Electronic contribution:     -0.21645      -0.00811      -0.00906
Nuclear contribution   :      1.07024       0.04008       0.04478
                        -----------------------------------------
Total Dipole Moment    :      0.85379       0.03197       0.03572
                        -----------------------------------------
Magnitude (a.u.)       :      0.85514
Magnitude (Debye)      :      2.17359

Rotational constants in cm-1:     0.000000    13.473567    13.473567
Rotational constants in MHz :     0.000000 403927.383789 403927.383789

                             ****ORCA TERMINATED NORMALLY****
TOTAL RUN TIME: 0 days 0 hours 0 minutes 15 seconds 476 msec
