                         Program Version 5.0.3 -  RELEASE  -
|  1> ! PBEh-3c def2/J TightSCF DefGrid3
|  2>
|  3> %maxcore 60000
|  4>
|  5> %pal
|  6> nprocs 4
|  7> end
|  8>
|  9> *xyzfile 0 1 22_benCl-Nm3AB.xyz
| 10>
| 11>                          ****END OF INPUT****

CARTESIAN COORDINATES (ANGSTROEM)
---------------------------------
  C     -0.235164    0.002086    0.132755
  C     -0.238178    0.001189    1.525604
  C      0.955846   -0.002138    2.242723
  C      2.165457   -0.004625    1.552252
  C      2.182877   -0.003792    0.158977
  C      0.981045   -0.000426   -0.546039
  Cl    -1.748955    0.004260    2.378484
  H      0.930823   -0.002763    3.322934
  H      3.093653   -0.007217    2.107162
  H      3.124113   -0.005746   -0.372313
  H      0.985592    0.000253   -1.627467
  H     -1.172880    0.004700   -0.404018
  N     -4.403628    0.003356    3.894350
  C     -5.231718   -1.074214    3.388785
  C     -4.114028   -0.203131    5.300015
  C     -5.065000    1.279020    3.699968
  H     -5.027241   -0.220060    5.916981
  H     -3.593998   -1.150521    5.432396
  H     -3.470363    0.596298    5.663510
  H     -6.026503    1.337442    4.235674
  H     -4.424188    2.083133    4.058008
  H     -5.254103    1.436697    2.639381
  H     -6.201676   -1.135411    3.908711
  H     -5.421511   -0.924313    2.327182
  H     -4.715156   -2.024330    3.514793

 Total Charge           Charge          ....    0
 Multiplicity           Mult            ....    1
 Number of Electrons    NEL             ....   92
 Basis Dimension        Dim             ....  196

ORBITAL ENERGIES
----------------

  NO   OCC          E(Eh)            E(eV)
   0   2.0000    -102.291176     -2783.4844
   1   2.0000     -14.625437      -397.9784
   2   2.0000     -10.503378      -285.8114
   3   2.0000     -10.456341      -284.5315
   4   2.0000     -10.456338      -284.5314
   5   2.0000     -10.455340      -284.5043
   6   2.0000     -10.455324      -284.5038
   7   2.0000     -10.452353      -284.4230
   8   2.0000     -10.445596      -284.2391
   9   2.0000     -10.445484      -284.2361
  10   2.0000     -10.445413      -284.2341
  11   2.0000      -9.757900      -265.5260
  12   2.0000      -7.445642      -202.6062
  13   2.0000      -7.437224      -202.3771
  14   2.0000      -7.436996      -202.3710
  15   2.0000      -1.019687       -27.7471
  16   2.0000      -0.983859       -26.7722
  17   2.0000      -0.923118       -25.1193
  18   2.0000      -0.845442       -23.0057
  19   2.0000      -0.814753       -22.1706
  20   2.0000      -0.782573       -21.2949
  21   2.0000      -0.782489       -21.2926
  22   2.0000      -0.693214       -18.8633
  23   2.0000      -0.671326       -18.2677
  24   2.0000      -0.659523       -17.9465
  25   2.0000      -0.589065       -16.0293
  26   2.0000      -0.531528       -14.4636
  27   2.0000      -0.528163       -14.3720
  28   2.0000      -0.522908       -14.2291
  29   2.0000      -0.522370       -14.2144
  30   2.0000      -0.522299       -14.2125
  31   2.0000      -0.490390       -13.3442
  32   2.0000      -0.481990       -13.1156
  33   2.0000      -0.447481       -12.1766
  34   2.0000      -0.443318       -12.0633
  35   2.0000      -0.443101       -12.0574
  36   2.0000      -0.416805       -11.3419
  37   2.0000      -0.412271       -11.2185
  38   2.0000      -0.411912       -11.2087
  39   2.0000      -0.406005       -11.0480
  40   2.0000      -0.405962       -11.0468
  41   2.0000      -0.376864       -10.2550
  42   2.0000      -0.350996        -9.5511
  43   2.0000      -0.300560        -8.1787
  44   2.0000      -0.278943        -7.5904
  45   2.0000      -0.261152        -7.1063
  46   0.0000       0.011630         0.3165
  47   0.0000       0.013819         0.3760
  48   0.0000       0.093140         2.5345
  49   0.0000       0.129438         3.5222
  50   0.0000       0.169189         4.6039

MULLIKEN ATOMIC CHARGES
-----------------------
   0 C :   -0.192669
   1 C :   -0.022406
   2 C :   -0.192750
   3 C :   -0.225641
   4 C :   -0.218991
   5 C :   -0.225664
   6 Cl:   -0.090059
   7 H :    0.241034
   8 H :    0.225683
   9 H :    0.222866
  10 H :    0.225708
  11 H :    0.240954
  12 N :   -0.373385
  13 C :   -0.491204
  14 C :   -0.491649
  15 C :   -0.491063
  16 H :    0.176903
  17 H :    0.221689
  18 H :    0.221158
  19 H :    0.176495
  20 H :    0.222188
  21 H :    0.221073
  22 H :    0.176610
  23 H :    0.220726
  24 H :    0.222392
Sum of atomic charges:   -0.0000000

LOEWDIN ATOMIC CHARGES
----------------------
   0 C :   -0.149934
   1 C :   -0.128793
   2 C :   -0.150015
   3 C :   -0.127826
   4 C :   -0.142007
   5 C :   -0.127819
   6 Cl:    0.109487
   7 H :    0.145998
   8 H :    0.139188
   9 H :    0.137956
  10 H :    0.139194
  11 H :    0.145994
  12 N :   -0.231884
  13 C :   -0.260189
  14 C :   -0.260414
  15 C :   -0.260117
  16 H :    0.094363
  17 H :    0.123097
  18 H :    0.122870
  19 H :    0.094201
  20 H :    0.123362
  21 H :    0.122883
  22 H :    0.094247
  23 H :    0.122723
  24 H :    0.123434

  Mayer bond orders larger than 0.100000
B(  0-C ,  1-C ) :   1.3609 B(  0-C ,  5-C ) :   1.4226 B(  0-C , 11-H ) :   0.9099
B(  1-C ,  2-C ) :   1.3608 B(  1-C ,  6-Cl) :   1.0239 B(  2-C ,  3-C ) :   1.4226
B(  2-C ,  7-H ) :   0.9098 B(  3-C ,  4-C ) :   1.4224 B(  3-C ,  8-H ) :   0.9177
B(  4-C ,  5-C ) :   1.4223 B(  4-C ,  9-H ) :   0.9192 B(  5-C , 10-H ) :   0.9177
B( 12-N , 13-C ) :   0.9944 B( 12-N , 14-C ) :   0.9943 B( 12-N , 15-C ) :   0.9944
B( 13-C , 22-H ) :   0.9062 B( 13-C , 23-H ) :   0.9278 B( 13-C , 24-H ) :   0.9272
B( 14-C , 16-H ) :   0.9062 B( 14-C , 17-H ) :   0.9274 B( 14-C , 18-H ) :   0.9276
B( 15-C , 19-H ) :   0.9062 B( 15-C , 20-H ) :   0.9273 B( 15-C , 21-H ) :   0.9277

Dispersion correction           -0.013222107
FINAL SINGLE POINT ENERGY      -864.922521831083

DIPOLE MOMENT
-------------
                                X             Y             Z
Electronic contribution:     14.47006       0.02178      -8.30660
Nuclear contribution   :    -14.37895      -0.02462       8.26159
                        -----------------------------------------
Total Dipole Moment    :      0.09111      -0.00284      -0.04500
                        -----------------------------------------
Magnitude (a.u.)       :      0.10166
Magnitude (Debye)      :      0.25840

Rotational constants in cm-1:     0.089103     0.010595     0.010036
Rotational constants in MHz :  2671.239566   317.624085   300.870087

                             ****ORCA TERMINATED NORMALLY****
TOTAL RUN TIME: 0 days 0 hours 2 minutes 37 seconds 885 msec
