                         Program Version 5.0.3 -  RELEASE  -
|  1> ! PBEh-3c def2/J TightSCF DefGrid3
|  2>
|  3> %maxcore 60000
|  4>
|  5> %pal
|  6> nprocs 4
|  7> end
|  8>
|  9> *xyzfile 1 2 3int3.xyz
| 10>
| 11>                          ****END OF INPUT****

CARTESIAN COORDINATES (ANGSTROEM)
---------------------------------
  C     -0.489552    0.008812   -1.585939
  C      0.841032   -0.008515   -1.295267
  C      1.541774   -0.022895    0.000000
  C      0.841032   -0.008515    1.295267
  C     -0.489552    0.008812    1.585939
  C     -1.580777    0.018950    0.691926
  C     -1.580777    0.018950   -0.691926
  H     -0.749007    0.015167   -2.639295
  H      1.514334   -0.014383   -2.148667
  H      2.272373    0.808215    0.000000
  H      2.236530   -0.884744    0.000000
  H      1.514334   -0.014383    2.148667
  H     -0.749007    0.015167    2.639295
  H     -2.561369    0.029681    1.157593
  H     -2.561369    0.029681   -1.157593

 Total Charge           Charge          ....    1
 Multiplicity           Mult            ....    2
 Number of Electrons    NEL             ....   49
 Basis Dimension        Dim             ....  121

ORBITAL ENERGIES
----------------
                 SPIN UP ORBITALS
  NO   OCC          E(Eh)            E(eV)
   0   1.0000     -10.683931      -290.7245
   1   1.0000     -10.683919      -290.7242
   2   1.0000     -10.678050      -290.5645
   3   1.0000     -10.677406      -290.5470
   4   1.0000     -10.657402      -290.0027
   5   1.0000     -10.657373      -290.0019
   6   1.0000     -10.654929      -289.9354
   7   1.0000      -1.156509       -31.4702
   8   1.0000      -1.085463       -29.5369
   9   1.0000      -1.082866       -29.4663
  10   1.0000      -0.966826       -26.3087
  11   1.0000      -0.941962       -25.6321
  12   1.0000      -0.812736       -22.1157
  13   1.0000      -0.795879       -21.6570
  14   1.0000      -0.790321       -21.5057
  15   1.0000      -0.713010       -19.4020
  16   1.0000      -0.704112       -19.1599
  17   1.0000      -0.700606       -19.0645
  18   1.0000      -0.663379       -18.0514
  19   1.0000      -0.646381       -17.5889
  20   1.0000      -0.604066       -16.4375
  21   1.0000      -0.600057       -16.3284
  22   1.0000      -0.593616       -16.1531
  23   1.0000      -0.550608       -14.9828
  24   1.0000      -0.454858       -12.3773
  25   0.0000      -0.267376        -7.2757
  26   0.0000      -0.139841        -3.8053
  27   0.0000      -0.058994        -1.6053
  28   0.0000      -0.052906        -1.4396
  29   0.0000      -0.009160        -0.2492

                 SPIN DOWN ORBITALS
  NO   OCC          E(Eh)            E(eV)
   0   1.0000     -10.678537      -290.5778
   1   1.0000     -10.678522      -290.5774
   2   1.0000     -10.674973      -290.4808
   3   1.0000     -10.674398      -290.4651
   4   1.0000     -10.658094      -290.0215
   5   1.0000     -10.658063      -290.0206
   6   1.0000     -10.655421      -289.9488
   7   1.0000      -1.146474       -31.1972
   8   1.0000      -1.074241       -29.2316
   9   1.0000      -1.073354       -29.2074
  10   1.0000      -0.955756       -26.0074
  11   1.0000      -0.934381       -25.4258
  12   1.0000      -0.805827       -21.9277
  13   1.0000      -0.791041       -21.5253
  14   1.0000      -0.787335       -21.4245
  15   1.0000      -0.710859       -19.3435
  16   1.0000      -0.699462       -19.0333
  17   1.0000      -0.679806       -18.4985
  18   1.0000      -0.657888       -17.9021
  19   1.0000      -0.643672       -17.5152
  20   1.0000      -0.600547       -16.3417
  21   1.0000      -0.591693       -16.1008
  22   1.0000      -0.570534       -15.5250
  23   1.0000      -0.517976       -14.0948
  24   0.0000      -0.320221        -8.7137
  25   0.0000      -0.234920        -6.3925
  26   0.0000      -0.113566        -3.0903
  27   0.0000      -0.056728        -1.5436
  28   0.0000      -0.029859        -0.8125

MULLIKEN ATOMIC CHARGES AND SPIN POPULATIONS
--------------------------------------------
   0 C :   -0.192067   -0.055406
   1 C :   -0.123883    0.360931
   2 C :   -0.579208   -0.065563
   3 C :   -0.123883    0.360932
   4 C :   -0.192066   -0.055406
   5 C :   -0.169587    0.198386
   6 C :   -0.169587    0.198387
   7 H :    0.311508    0.001117
   8 H :    0.313921   -0.020392
   9 H :    0.332342    0.059725
  10 H :    0.332770    0.061019
  11 H :    0.313921   -0.020392
  12 H :    0.311508    0.001117
  13 H :    0.317156   -0.012227
  14 H :    0.317156   -0.012227
Sum of atomic charges         :    1.0000000

LOEWDIN ATOMIC CHARGES AND SPIN POPULATIONS
-------------------------------------------
   0 C :   -0.107430   -0.013335
   1 C :    0.009704    0.299209
   2 C :   -0.251411   -0.005051
   3 C :    0.009704    0.299209
   4 C :   -0.107430   -0.013335
   5 C :   -0.024814    0.178043
   6 C :   -0.024814    0.178043
   7 H :    0.179849    0.000397
   8 H :    0.179903   -0.009834
   9 H :    0.206146    0.053246
  10 H :    0.206765    0.054448
  11 H :    0.179903   -0.009834
  12 H :    0.179849    0.000397
  13 H :    0.182039   -0.005802
  14 H :    0.182039   -0.005802

  Mayer bond orders larger than 0.100000
B(  0-C ,  1-C ) :   1.5494 B(  0-C ,  6-C ) :   1.2902 B(  0-C ,  7-H ) :   0.8810
B(  1-C ,  2-C ) :   1.0254 B(  1-C ,  8-H ) :   0.8800 B(  2-C ,  3-C ) :   1.0254
B(  2-C ,  9-H ) :   0.8280 B(  2-C , 10-H ) :   0.8267 B(  3-C ,  4-C ) :   1.5494
B(  3-C , 11-H ) :   0.8800 B(  4-C ,  5-C ) :   1.2902 B(  4-C , 12-H ) :   0.8810
B(  5-C ,  6-C ) :   1.4320 B(  5-C , 13-H ) :   0.8788 B(  6-C , 14-H ) :   0.8788

Dispersion correction           -0.007833595
FINAL SINGLE POINT ENERGY      -270.611013538982

DIPOLE MOMENT
-------------
                                X             Y             Z
Electronic contribution:     -1.39897       0.02254       0.00000
Nuclear contribution   :      1.68185      -0.02862       0.00000
                        -----------------------------------------
Total Dipole Moment    :      0.28288      -0.00607       0.00000
                        -----------------------------------------
Magnitude (a.u.)       :      0.28295
Magnitude (Debye)      :      0.71919

Rotational constants in cm-1:     0.120652     0.119627     0.060694
Rotational constants in MHz :  3617.061743  3586.324865  1819.561850

                             ****ORCA TERMINATED NORMALLY****
TOTAL RUN TIME: 0 days 0 hours 3 minutes 54 seconds 623 msec
