                         Program Version 5.0.3 -  RELEASE  -
|  1> ! PBEh-3c def2/J TightSCF DefGrid3
|  2>
|  3> %maxcore 60000
|  4>
|  5> %pal
|  6> nprocs 4
|  7> end
|  8>
|  9> *xyzfile 0 1 09B.xyz
| 10>
| 11>                          ****END OF INPUT****

CARTESIAN COORDINATES (ANGSTROEM)
---------------------------------
  O     -0.735002   -0.815072    0.000000
  H     -0.146600   -1.573725    0.000000
  C      0.074113    0.353044    0.000000
  H     -0.601986    1.202336    0.000000
  H      0.704737    0.416709    0.887179
  H      0.704737    0.416709   -0.887179

 Total Charge           Charge          ....    0
 Multiplicity           Mult            ....    1
 Number of Electrons    NEL             ....   18
 Basis Dimension        Dim             ....   38

ORBITAL ENERGIES
----------------

  NO   OCC          E(Eh)            E(eV)
   0   2.0000     -19.482194      -530.1374
   1   2.0000     -10.472824      -284.9800
   2   2.0000      -1.117550       -30.4101
   3   2.0000      -0.760931       -20.7060
   4   2.0000      -0.566544       -15.4164
   5   2.0000      -0.497945       -13.5498
   6   2.0000      -0.479506       -13.0480
   7   2.0000      -0.388606       -10.5745
   8   2.0000      -0.325514        -8.8577
   9   0.0000       0.130717         3.5570
  10   0.0000       0.194503         5.2927
  11   0.0000       0.219559         5.9745
  12   0.0000       0.233874         6.3640
  13   0.0000       0.238509         6.4902

MULLIKEN ATOMIC CHARGES
-----------------------
   0 O :   -0.628022
   1 H :    0.412572
   2 C :   -0.371567
   3 H :    0.218507
   4 H :    0.184255
   5 H :    0.184255
Sum of atomic charges:   -0.0000000

LOEWDIN ATOMIC CHARGES
----------------------
   0 O :   -0.424787
   1 H :    0.305267
   2 C :   -0.197963
   3 H :    0.122426
   4 H :    0.097529
   5 H :    0.097529

  Mayer bond orders larger than 0.100000
B(  0-O ,  1-H ) :   0.7976 B(  0-O ,  2-C ) :   1.0159 B(  2-C ,  3-H ) :   0.9251
B(  2-C ,  4-H ) :   0.9181 B(  2-C ,  5-H ) :   0.9181

Dispersion correction           -0.001081173
FINAL SINGLE POINT ENERGY      -115.466991176810

DIPOLE MOMENT
-------------
                                X             Y             Z
Electronic contribution:     -1.10592      -1.41534       0.00000
Nuclear contribution   :      1.80882       1.40134       0.00000
                        -----------------------------------------
Total Dipole Moment    :      0.70290      -0.01400       0.00000
                        -----------------------------------------
Magnitude (a.u.)       :      0.70304
Magnitude (Debye)      :      1.78700

Rotational constants in cm-1:     4.301626     0.827781     0.798554
Rotational constants in MHz : 128959.493762 24816.253650 23940.031969

                             ****ORCA TERMINATED NORMALLY****
TOTAL RUN TIME: 0 days 0 hours 0 minutes 46 seconds 924 msec
