                         Program Version 5.0.3 -  RELEASE  -
|  1> ! PBEh-3c def2/J TightSCF DefGrid3
|  2>
|  3> %maxcore 60000
|  4>
|  5> %pal
|  6> nprocs 4
|  7> end
|  8>
|  9> *xyzfile 0 1 H2O20es.xyz
| 10>
| 11>                          ****END OF INPUT****

CARTESIAN COORDINATES (ANGSTROEM)
---------------------------------
  O      1.444951   -2.319236    1.385217
  H      0.952341   -1.484260    1.528870
  H      2.369457   -2.113950    1.611665
  O      1.419869   -2.462609   -1.400711
  H      1.441235   -2.494572   -0.419409
  H      0.777162   -3.146846   -1.657572
  O      0.006837    0.017220    1.402716
  H      0.389332    0.906563    1.562540
  H     -0.960950    0.050327    1.560982
  O     -2.736728   -0.071707    1.358842
  H     -2.788195   -0.094611    0.377903
  H     -2.978598   -0.971756    1.641395
  O      4.045464    1.462792   -1.461268
  H      4.788107    1.763985   -1.991293
  H      4.033324    0.473188   -1.531349
  O     -1.000804    4.224960    1.498286
  H     -1.152189    5.008261    2.033562
  H     -1.832839    3.685613    1.541633
  O     -3.227240    2.749223   -1.545325
  H     -3.841257    3.211735   -2.121788
  H     -2.370337    3.248593   -1.588871
  O      0.061546   -0.060867   -1.350479
  H      0.540409   -0.889214   -1.568900
  H      0.052502   -0.051731   -0.366106
  O      1.350577    2.362437   -1.425550
  H      2.294343    2.218039   -1.616529
  H      0.925562    1.487794   -1.559534
  O      4.079711   -1.270590    1.510174
  H      4.818430   -1.530720    2.066755
  H      4.008820   -0.283308    1.579281
  O     -0.911842    4.114684   -1.396828
  H     -0.869957    4.328968   -0.449356
  H     -0.089747    3.630550   -1.585974
  O     -2.685020   -0.042482   -1.427440
  H     -2.983144    0.856001   -1.656218
  H     -1.713234   -0.043809   -1.563534
  O     -3.129549   -2.866551   -1.329938
  H     -3.114090   -1.919143   -1.548098
  H     -3.303241   -2.902586   -0.373692
  O      1.224434    2.478011    1.359538
  H      0.581243    3.165798    1.607615
  H      1.272843    2.516100    0.379301
  O     -0.812813   -4.233132   -1.523932
  H     -0.946661   -5.021368   -2.056653
  H     -1.663369   -3.723242   -1.554369
  O     -3.249886    2.754459    1.347983
  H     -3.192463    1.812021    1.579040
  H     -3.434760    2.766693    0.392857
  O      4.037384   -1.231356   -1.381242
  H      3.233526   -1.719510   -1.624082
  H      4.160404   -1.401225   -0.431294
  O     -3.094015   -2.885118    1.566154
  H     -2.218018   -3.351061    1.594398
  H     -3.689824   -3.386783    2.128595
  O     -0.733254   -4.165935    1.369776
  H      0.070923   -3.653840    1.561915
  H     -0.687990   -4.359780    0.417696
  O      3.909807    1.416469    1.425722
  H      3.066048    1.849574    1.636771
  H      4.055422    1.592840    0.480153

 Total Charge           Charge          ....    0
 Multiplicity           Mult            ....    1
 Number of Electrons    NEL             ....  200
 Basis Dimension        Dim             ....  380

ORBITAL ENERGIES
----------------

  NO   OCC          E(Eh)            E(eV)
   0   2.0000     -19.496110      -530.5161
   1   2.0000     -19.496092      -530.5156
   2   2.0000     -19.495706      -530.5051
   3   2.0000     -19.495336      -530.4951
   4   2.0000     -19.494266      -530.4659
   5   2.0000     -19.493994      -530.4585
   6   2.0000     -19.484570      -530.2021
   7   2.0000     -19.483930      -530.1847
   8   2.0000     -19.482891      -530.1564
   9   2.0000     -19.482685      -530.1508
  10   2.0000     -19.481727      -530.1247
  11   2.0000     -19.480996      -530.1049
  12   2.0000     -19.480989      -530.1046
  13   2.0000     -19.480811      -530.0998
  14   2.0000     -19.473505      -529.9010
  15   2.0000     -19.473487      -529.9005
  16   2.0000     -19.473056      -529.8888
  17   2.0000     -19.472292      -529.8680
  18   2.0000     -19.470918      -529.8306
  19   2.0000     -19.470707      -529.8249
  20   2.0000      -1.127215       -30.6731
  21   2.0000      -1.122838       -30.5540
  22   2.0000      -1.121935       -30.5294
  23   2.0000      -1.118448       -30.4345
  24   2.0000      -1.117883       -30.4192
  25   2.0000      -1.117582       -30.4109
  26   2.0000      -1.116377       -30.3782
  27   2.0000      -1.108951       -30.1761
  28   2.0000      -1.108262       -30.1573
  29   2.0000      -1.106908       -30.1205
  30   2.0000      -1.098811       -29.9002
  31   2.0000      -1.098222       -29.8841
  32   2.0000      -1.097004       -29.8510
  33   2.0000      -1.094740       -29.7894
  34   2.0000      -1.092625       -29.7318
  35   2.0000      -1.091208       -29.6933
  36   2.0000      -1.088576       -29.6217
  37   2.0000      -1.085905       -29.5490
  38   2.0000      -1.084561       -29.5124
  39   2.0000      -1.082160       -29.4471
  40   2.0000      -0.606750       -16.5105
  41   2.0000      -0.605720       -16.4825
  42   2.0000      -0.604078       -16.4378
  43   2.0000      -0.602342       -16.3906
  44   2.0000      -0.601944       -16.3797
  45   2.0000      -0.600447       -16.3390
  46   2.0000      -0.599589       -16.3157
  47   2.0000      -0.597135       -16.2489
  48   2.0000      -0.593188       -16.1415
  49   2.0000      -0.591236       -16.0883
  50   2.0000      -0.588938       -16.0258
  51   2.0000      -0.588490       -16.0136
  52   2.0000      -0.587759       -15.9937
  53   2.0000      -0.580905       -15.8072
  54   2.0000      -0.575268       -15.6538
  55   2.0000      -0.574635       -15.6366
  56   2.0000      -0.574330       -15.6283
  57   2.0000      -0.572968       -15.5913
  58   2.0000      -0.572277       -15.5724
  59   2.0000      -0.570388       -15.5211
  60   2.0000      -0.502176       -13.6649
  61   2.0000      -0.501714       -13.6523
  62   2.0000      -0.500562       -13.6210
  63   2.0000      -0.488144       -13.2831
  64   2.0000      -0.475289       -12.9333
  65   2.0000      -0.474924       -12.9234
  66   2.0000      -0.469549       -12.7771
  67   2.0000      -0.463274       -12.6063
  68   2.0000      -0.460269       -12.5246
  69   2.0000      -0.455508       -12.3950
  70   2.0000      -0.453924       -12.3519
  71   2.0000      -0.444198       -12.0872
  72   2.0000      -0.440967       -11.9993
  73   2.0000      -0.435874       -11.8607
  74   2.0000      -0.433473       -11.7954
  75   2.0000      -0.431028       -11.7289
  76   2.0000      -0.423902       -11.5350
  77   2.0000      -0.414619       -11.2824
  78   2.0000      -0.413697       -11.2573
  79   2.0000      -0.400138       -10.8883
  80   2.0000      -0.381560       -10.3828
  81   2.0000      -0.380296       -10.3484
  82   2.0000      -0.379886       -10.3372
  83   2.0000      -0.379741       -10.3333
  84   2.0000      -0.379361       -10.3230
  85   2.0000      -0.378726       -10.3057
  86   2.0000      -0.375776       -10.2254
  87   2.0000      -0.373572       -10.1654
  88   2.0000      -0.368649       -10.0315
  89   2.0000      -0.367609       -10.0031
  90   2.0000      -0.367139        -9.9904
  91   2.0000      -0.364281        -9.9126
  92   2.0000      -0.363747        -9.8980
  93   2.0000      -0.362978        -9.8771
  94   2.0000      -0.359987        -9.7957
  95   2.0000      -0.359412        -9.7801
  96   2.0000      -0.358403        -9.7527
  97   2.0000      -0.358035        -9.7426
  98   2.0000      -0.357809        -9.7365
  99   2.0000      -0.356326        -9.6961
 100   0.0000       0.079953         2.1756
 101   0.0000       0.106506         2.8982
 102   0.0000       0.107057         2.9132
 103   0.0000       0.131044         3.5659
 104   0.0000       0.131880         3.5886

MULLIKEN ATOMIC CHARGES
-----------------------
   0 O :   -0.915352
   1 H :    0.463696
   2 H :    0.457946
   3 O :   -0.913465
   4 H :    0.443050
   5 H :    0.457048
   6 O :   -0.924604
   7 H :    0.459487
   8 H :    0.459441
   9 O :   -0.913444
  10 H :    0.443844
  11 H :    0.458662
  12 O :   -0.882718
  13 H :    0.430017
  14 H :    0.464982
  15 O :   -0.884228
  16 H :    0.430103
  17 H :    0.464909
  18 O :   -0.882662
  19 H :    0.429703
  20 H :    0.464411
  21 O :   -0.920323
  22 H :    0.457219
  23 H :    0.443824
  24 O :   -0.913971
  25 H :    0.457861
  26 H :    0.457988
  27 O :   -0.882622
  28 H :    0.429905
  29 H :    0.465126
  30 O :   -0.897641
  31 H :    0.439099
  32 H :    0.455435
  33 O :   -0.914751
  34 H :    0.458071
  35 H :    0.457842
  36 O :   -0.897643
  37 H :    0.454525
  38 H :    0.438964
  39 O :   -0.913207
  40 H :    0.457553
  41 H :    0.442921
  42 O :   -0.883365
  43 H :    0.429101
  44 H :    0.464463
  45 O :   -0.896288
  46 H :    0.453738
  47 H :    0.440839
  48 O :   -0.896000
  49 H :    0.454460
  50 H :    0.441284
  51 O :   -0.883679
  52 H :    0.464998
  53 H :    0.429265
  54 O :   -0.898087
  55 H :    0.454748
  56 H :    0.438952
  57 O :   -0.896398
  58 H :    0.454133
  59 H :    0.440832
Sum of atomic charges:   -0.0000000

LOEWDIN ATOMIC CHARGES
----------------------
   0 O :   -0.612981
   1 H :    0.304211
   2 H :    0.305865
   3 O :   -0.616083
   4 H :    0.297723
   5 H :    0.306146
   6 O :   -0.613267
   7 H :    0.305205
   8 H :    0.305388
   9 O :   -0.613902
  10 H :    0.298636
  11 H :    0.306815
  12 O :   -0.605551
  13 H :    0.311612
  14 H :    0.307783
  15 O :   -0.607169
  16 H :    0.311554
  17 H :    0.307624
  18 O :   -0.606134
  19 H :    0.311419
  20 H :    0.307587
  21 O :   -0.613020
  22 H :    0.305360
  23 H :    0.298325
  24 O :   -0.614277
  25 H :    0.305750
  26 H :    0.303744
  27 O :   -0.605451
  28 H :    0.311529
  29 H :    0.307835
  30 O :   -0.609401
  31 H :    0.299169
  32 H :    0.305787
  33 O :   -0.614511
  34 H :    0.305832
  35 H :    0.303489
  36 O :   -0.609954
  37 H :    0.305535
  38 H :    0.299109
  39 O :   -0.614344
  40 H :    0.305461
  41 H :    0.298076
  42 O :   -0.607334
  43 H :    0.310967
  44 H :    0.307562
  45 O :   -0.608547
  46 H :    0.306052
  47 H :    0.300321
  48 O :   -0.607807
  49 H :    0.307261
  50 H :    0.300365
  51 O :   -0.607209
  52 H :    0.307850
  53 H :    0.311054
  54 O :   -0.610114
  55 H :    0.305490
  56 H :    0.299094
  57 O :   -0.608372
  58 H :    0.306808
  59 H :    0.300034

  Mayer bond orders larger than 0.100000
B(  0-O ,  1-H ) :   0.6735 B(  0-O ,  2-H ) :   0.6987 B(  0-O ,  4-H ) :   0.1484
B(  1-H ,  6-O ) :   0.1259 B(  2-H , 27-O ) :   0.1067 B(  3-O ,  4-H ) :   0.6731
B(  3-O ,  5-H ) :   0.7038 B(  3-O , 22-H ) :   0.1474 B(  5-H , 42-O ) :   0.1026
B(  6-O ,  7-H ) :   0.6587 B(  6-O ,  8-H ) :   0.6589 B(  6-O , 23-H ) :   0.1603
B(  7-H , 39-O ) :   0.1523 B(  8-H ,  9-O ) :   0.1517 B(  9-O , 10-H ) :   0.6696
B(  9-O , 11-H ) :   0.7004 B( 10-H , 33-O ) :   0.1520 B( 11-H , 51-O ) :   0.1054
B( 12-O , 13-H ) :   0.7946 B( 12-O , 14-H ) :   0.6346 B( 12-O , 25-H ) :   0.1058
B( 12-O , 59-H ) :   0.1047 B( 14-H , 48-O ) :   0.1728 B( 15-O , 16-H ) :   0.7944
B( 15-O , 17-H ) :   0.6327 B( 15-O , 31-H ) :   0.1041 B( 15-O , 40-H ) :   0.1069
B( 17-H , 45-O ) :   0.1752 B( 18-O , 19-H ) :   0.7949 B( 18-O , 20-H ) :   0.6327
B( 18-O , 34-H ) :   0.1075 B( 18-O , 47-H ) :   0.1048 B( 20-H , 30-O ) :   0.1759
B( 21-O , 22-H ) :   0.6699 B( 21-O , 23-H ) :   0.6574 B( 21-O , 26-H ) :   0.1382
B( 21-O , 35-H ) :   0.1378 B( 24-O , 25-H ) :   0.6995 B( 24-O , 26-H ) :   0.6702
B( 24-O , 41-H ) :   0.1509 B( 27-O , 28-H ) :   0.7947 B( 27-O , 29-H ) :   0.6342
B( 27-O , 50-H ) :   0.1045 B( 29-H , 57-O ) :   0.1732 B( 30-O , 31-H ) :   0.7179
B( 30-O , 32-H ) :   0.7126 B( 33-O , 34-H ) :   0.6979 B( 33-O , 35-H ) :   0.6705
B( 36-O , 37-H ) :   0.7141 B( 36-O , 38-H ) :   0.7172 B( 36-O , 44-H ) :   0.1746
B( 38-H , 51-O ) :   0.1055 B( 39-O , 40-H ) :   0.6999 B( 39-O , 41-H ) :   0.6711
B( 42-O , 43-H ) :   0.7954 B( 42-O , 44-H ) :   0.6341 B( 42-O , 56-H ) :   0.1061
B( 45-O , 46-H ) :   0.7168 B( 45-O , 47-H ) :   0.7159 B( 48-O , 49-H ) :   0.7199
B( 48-O , 50-H ) :   0.7155 B( 51-O , 52-H ) :   0.6323 B( 51-O , 53-H ) :   0.7952
B( 52-H , 54-O ) :   0.1759 B( 54-O , 55-H ) :   0.7129 B( 54-O , 56-H ) :   0.7168
B( 57-O , 58-H ) :   0.7187 B( 57-O , 59-H ) :   0.7157

Dispersion correction           -0.028336088
FINAL SINGLE POINT ENERGY     -1525.564107418439

DIPOLE MOMENT
-------------
                                X             Y             Z
Electronic contribution:      0.04697       0.01640       0.00990
Nuclear contribution   :      0.00142       0.07324       0.04571
                        -----------------------------------------
Total Dipole Moment    :      0.04839       0.08964       0.05561
                        -----------------------------------------
Magnitude (a.u.)       :      0.11606
Magnitude (Debye)      :      0.29499

Rotational constants in cm-1:     0.005454     0.005383     0.003552
Rotational constants in MHz :   163.511770   161.377671   106.484665

                             ****ORCA TERMINATED NORMALLY****
TOTAL RUN TIME: 0 days 0 hours 5 minutes 5 seconds 313 msec
