                         Program Version 5.0.3 -  RELEASE  -
|  1> ! PBEh-3c def2/J TightSCF DefGrid3
|  2>
|  3> %maxcore 60000
|  4>
|  5> %pal
|  6> nprocs 4
|  7> end
|  8>
|  9> *xyzfile 0 1 2N_B.xyz
| 10>
| 11>                          ****END OF INPUT****

CARTESIAN COORDINATES (ANGSTROEM)
---------------------------------
  C     -0.729103    0.134349   -0.803163
  Cl     0.311222   -0.020453   -2.147555
  C      0.016327    0.018857    0.461895
  H      1.108434    0.013695    0.441817
  H     -0.363220    0.778476    1.150927
  H     -0.343660   -0.924924    0.896079

 Total Charge           Charge          ....    0
 Multiplicity           Mult            ....    1
 Number of Electrons    NEL             ....   32
 Basis Dimension        Dim             ....   54

ORBITAL ENERGIES
----------------

  NO   OCC          E(Eh)            E(eV)
   0   2.0000    -102.323422     -2784.3619
   1   2.0000     -10.532875      -286.6141
   2   2.0000     -10.456912      -284.5471
   3   2.0000      -9.791794      -266.4483
   4   2.0000      -7.477916      -203.4844
   5   2.0000      -7.473396      -203.3615
   6   2.0000      -7.469944      -203.2675
   7   2.0000      -0.984907       -26.8007
   8   2.0000      -0.846193       -23.0261
   9   2.0000      -0.636112       -17.3095
  10   2.0000      -0.519409       -14.1338
  11   2.0000      -0.499803       -13.6003
  12   2.0000      -0.477942       -13.0055
  13   2.0000      -0.408857       -11.1256
  14   2.0000      -0.389465       -10.5979
  15   2.0000      -0.271157        -7.3786
  16   0.0000      -0.060769        -1.6536
  17   0.0000       0.101197         2.7537
  18   0.0000       0.157916         4.2971
  19   0.0000       0.187585         5.1045
  20   0.0000       0.206571         5.6211

MULLIKEN ATOMIC CHARGES
-----------------------
   0 C :    0.007769
   1 Cl:   -0.054022
   2 C :   -0.734570
   3 H :    0.237803
   4 H :    0.270382
   5 H :    0.272637
Sum of atomic charges:   -0.0000000

LOEWDIN ATOMIC CHARGES
----------------------
   0 C :   -0.177374
   1 Cl:    0.138932
   2 C :   -0.431962
   3 H :    0.123944
   4 H :    0.166269
   5 H :    0.180190

  Mayer bond orders larger than 0.100000
B(  0-C ,  1-Cl) :   1.2556 B(  0-C ,  2-C ) :   1.0438 B(  2-C ,  3-H ) :   0.8945
B(  2-C ,  4-H ) :   0.8832 B(  2-C ,  5-H ) :   0.8677

Dispersion correction           -0.001835892
FINAL SINGLE POINT ENERGY      -537.417080993255

DIPOLE MOMENT
-------------
                                X             Y             Z
Electronic contribution:      0.68003      -0.00532      -6.37508
Nuclear contribution   :     -0.10878      -0.12021       7.04849
                        -----------------------------------------
Total Dipole Moment    :      0.57125      -0.12553       0.67341
                        -----------------------------------------
Magnitude (a.u.)       :      0.89194
Magnitude (Debye)      :      2.26714

Rotational constants in cm-1:     1.627735     0.201878     0.185502
Rotational constants in MHz : 48798.273502  6052.139309  5561.224292

                             ****ORCA TERMINATED NORMALLY****
TOTAL RUN TIME: 0 days 0 hours 0 minutes 17 seconds 151 msec
