                         Program Version 5.0.3 -  RELEASE  -
|  1> ! PBEh-3c def2/J TightSCF DefGrid3
|  2>
|  3> %maxcore 60000
|  4>
|  5> %pal
|  6> nprocs 4
|  7> end
|  8>
|  9> *xyzfile 0 1 E24.xyz
| 10>
| 11>                          ****END OF INPUT****

CARTESIAN COORDINATES (ANGSTROEM)
---------------------------------
  O     -1.586812    0.134644   -0.267948
  C     -0.409398    0.044307    0.535759
  C      0.873278    0.091586   -0.281892
  H     -1.592161   -0.607468   -0.883140
  H     -0.459643    0.897608    1.213973
  H     -0.431896   -0.864084    1.152401
  H      0.913943    1.001501   -0.883888
  H      1.749783    0.069060    0.371548
  H      0.942905   -0.767155   -0.956814

 Total Charge           Charge          ....    0
 Multiplicity           Mult            ....    1
 Number of Electrons    NEL             ....   26
 Basis Dimension        Dim             ....   57

ORBITAL ENERGIES
----------------

  NO   OCC          E(Eh)            E(eV)
   0   2.0000     -19.481508      -530.1188
   1   2.0000     -10.481262      -285.2096
   2   2.0000     -10.428469      -283.7731
   3   2.0000      -1.115936       -30.3662
   4   2.0000      -0.833064       -22.6688
   5   2.0000      -0.697156       -18.9706
   6   2.0000      -0.561530       -15.2800
   7   2.0000      -0.509845       -13.8736
   8   2.0000      -0.489622       -13.3233
   9   2.0000      -0.435586       -11.8529
  10   2.0000      -0.422787       -11.5046
  11   2.0000      -0.375779       -10.2255
  12   2.0000      -0.323559        -8.8045
  13   0.0000       0.128951         3.5089
  14   0.0000       0.174363         4.7447
  15   0.0000       0.197630         5.3778
  16   0.0000       0.209562         5.7025
  17   0.0000       0.217539         5.9195

MULLIKEN ATOMIC CHARGES
-----------------------
   0 O :   -0.623254
   1 C :   -0.150531
   2 C :   -0.670885
   3 H :    0.407522
   4 H :    0.211535
   5 H :    0.179158
   6 H :    0.230628
   7 H :    0.213299
   8 H :    0.202528
Sum of atomic charges:    0.0000000

LOEWDIN ATOMIC CHARGES
----------------------
   0 O :   -0.417000
   1 C :   -0.099188
   2 C :   -0.388952
   3 H :    0.304710
   4 H :    0.119312
   5 H :    0.096113
   6 H :    0.133533
   7 H :    0.130665
   8 H :    0.120808

  Mayer bond orders larger than 0.100000
B(  0-O ,  1-C ) :   1.0203 B(  0-O ,  3-H ) :   0.7962 B(  1-C ,  2-C ) :   0.9786
B(  1-C ,  4-H ) :   0.9156 B(  1-C ,  5-H ) :   0.9121 B(  2-C ,  6-H ) :   0.9210
B(  2-C ,  7-H ) :   0.9193 B(  2-C ,  8-H ) :   0.9302

Dispersion correction           -0.002457616
FINAL SINGLE POINT ENERGY      -154.701138655766

DIPOLE MOMENT
-------------
                                X             Y             Z
Electronic contribution:     -2.83219       0.20808      -0.24729
Nuclear contribution   :      3.31897      -0.68228       0.15914
                        -----------------------------------------
Total Dipole Moment    :      0.48677      -0.47420      -0.08815
                        -----------------------------------------
Magnitude (a.u.)       :      0.68526
Magnitude (Debye)      :      1.74180

Rotational constants in cm-1:     1.149106     0.304546     0.269123
Rotational constants in MHz : 34449.334989  9130.071663  8068.109849

                             ****ORCA TERMINATED NORMALLY****
TOTAL RUN TIME: 0 days 0 hours 0 minutes 46 seconds 896 msec
