                         Program Version 5.0.3 -  RELEASE  -
|  1> ! PBEh-3c def2/J TightSCF DefGrid3
|  2>
|  3> %maxcore 60000
|  4>
|  5> %pal
|  6> nprocs 4
|  7> end
|  8>
|  9> *xyzfile 0 1 13.xyz
| 10>
| 11>                          ****END OF INPUT****

CARTESIAN COORDINATES (ANGSTROEM)
---------------------------------
  N      0.230637   -1.339636    0.000000
  N     -0.230637    1.339636    0.000000
  F      0.230637   -2.752464    0.000000
  F     -0.230637    2.752464    0.000000
  H      0.810027   -1.117741    0.806477
  H     -0.810027    1.117741    0.806477
  H      0.810027   -1.117741   -0.806477
  H     -0.810027    1.117741   -0.806477

 Total Charge           Charge          ....    0
 Multiplicity           Mult            ....    1
 Number of Electrons    NEL             ....   36
 Basis Dimension        Dim             ....   68

ORBITAL ENERGIES
----------------

  NO   OCC          E(Eh)            E(eV)
   0   2.0000     -25.090598      -682.7499
   1   2.0000     -25.090529      -682.7480
   2   2.0000     -14.711179      -400.3115
   3   2.0000     -14.711149      -400.3107
   4   2.0000      -1.321562       -35.9615
   5   2.0000      -1.321336       -35.9554
   6   2.0000      -0.940665       -25.5968
   7   2.0000      -0.927163       -25.2294
   8   2.0000      -0.605802       -16.4847
   9   2.0000      -0.597990       -16.2721
  10   2.0000      -0.577288       -15.7088
  11   2.0000      -0.570756       -15.5311
  12   2.0000      -0.513493       -13.9729
  13   2.0000      -0.503630       -13.7045
  14   2.0000      -0.439007       -11.9460
  15   2.0000      -0.434146       -11.8137
  16   2.0000      -0.341795        -9.3007
  17   2.0000      -0.333771        -9.0824
  18   0.0000       0.074274         2.0211
  19   0.0000       0.115942         3.1550
  20   0.0000       0.141874         3.8606
  21   0.0000       0.159838         4.3494
  22   0.0000       0.189107         5.1459

MULLIKEN ATOMIC CHARGES
-----------------------
   0 N :   -0.358731
   1 N :   -0.358731
   2 F :   -0.327427
   3 F :   -0.327427
   4 H :    0.343079
   5 H :    0.343079
   6 H :    0.343079
   7 H :    0.343079
Sum of atomic charges:   -0.0000000

LOEWDIN ATOMIC CHARGES
----------------------
   0 N :   -0.195051
   1 N :   -0.195051
   2 F :   -0.257854
   3 F :   -0.257854
   4 H :    0.226453
   5 H :    0.226453
   6 H :    0.226453
   7 H :    0.226453

  Mayer bond orders larger than 0.100000
B(  0-N ,  2-F ) :   0.9183 B(  0-N ,  4-H ) :   0.8462 B(  0-N ,  6-H ) :   0.8462
B(  1-N ,  3-F ) :   0.9183 B(  1-N ,  5-H ) :   0.8462 B(  1-N ,  7-H ) :   0.8462

Dispersion correction           -0.001680610
FINAL SINGLE POINT ENERGY      -310.799900486685

DIPOLE MOMENT
-------------
                                X             Y             Z
Electronic contribution:     -0.00000      -0.00000       0.00000
Nuclear contribution   :      0.00000       0.00000       0.00000
                        -----------------------------------------
Total Dipole Moment    :     -0.00000      -0.00000       0.00000
                        -----------------------------------------
Magnitude (a.u.)       :      0.00000
Magnitude (Debye)      :      0.00000

Rotational constants in cm-1:     3.449462     0.048257     0.048208
Rotational constants in MHz : 103412.282745  1446.715987  1445.235572

                             ****ORCA TERMINATED NORMALLY****
TOTAL RUN TIME: 0 days 0 hours 0 minutes 49 seconds 998 msec
