                         Program Version 5.0.3 -  RELEASE  -
|  1> ! PBEh-3c def2/J TightSCF DefGrid3
|  2>
|  3> %maxcore 60000
|  4>
|  5> %pal
|  6> nprocs 4
|  7> end
|  8>
|  9> *xyzfile 0 1 B6.xyz
| 10>
| 11>                          ****END OF INPUT****

CARTESIAN COORDINATES (ANGSTROEM)
---------------------------------
  C      1.398890   -0.051902    0.578874
  H      0.847483   -0.488257    1.410002
  O      1.425370   -1.079354   -0.419635
  C      0.721991    1.227465    0.100633
  H      0.626390    1.888500    0.966428
  H      1.377791    1.741483   -0.608366
  C     -0.657736    1.024448   -0.542881
  H     -0.555442    0.584578   -1.537038
  H     -1.113192    2.007037   -0.682955
  H      1.869050   -0.728859   -1.197578
  H      2.411397    0.164223    0.927947
  C     -1.612850    0.146872    0.265340
  H     -1.527577    0.398114    1.330342
  H     -2.640388    0.356194   -0.033161
  O     -1.412462   -1.248012    0.072650
  H     -0.500543   -1.385385   -0.211537

 Total Charge           Charge          ....    0
 Multiplicity           Mult            ....    1
 Number of Electrons    NEL             ....   50
 Basis Dimension        Dim             ....  110

ORBITAL ENERGIES
----------------

  NO   OCC          E(Eh)            E(eV)
   0   2.0000     -19.510466      -530.9068
   1   2.0000     -19.459314      -529.5149
   2   2.0000     -10.493722      -285.5487
   3   2.0000     -10.471302      -284.9386
   4   2.0000     -10.447027      -284.2780
   5   2.0000     -10.438949      -284.0582
   6   2.0000      -1.143726       -31.1224
   7   2.0000      -1.098229       -29.8843
   8   2.0000      -0.886908       -24.1340
   9   2.0000      -0.799746       -21.7622
  10   2.0000      -0.723086       -19.6762
  11   2.0000      -0.664067       -18.0702
  12   2.0000      -0.577594       -15.7171
  13   2.0000      -0.552983       -15.0474
  14   2.0000      -0.538277       -14.6473
  15   2.0000      -0.508089       -13.8258
  16   2.0000      -0.493287       -13.4230
  17   2.0000      -0.470119       -12.7926
  18   2.0000      -0.460088       -12.5196
  19   2.0000      -0.411123       -11.1872
  20   2.0000      -0.400668       -10.9027
  21   2.0000      -0.392499       -10.6804
  22   2.0000      -0.361855        -9.8466
  23   2.0000      -0.341207        -9.2847
  24   2.0000      -0.304639        -8.2896
  25   0.0000       0.103271         2.8101
  26   0.0000       0.155280         4.2254
  27   0.0000       0.167994         4.5714
  28   0.0000       0.177761         4.8371
  29   0.0000       0.186698         5.0803

MULLIKEN ATOMIC CHARGES
-----------------------
   0 C :   -0.198478
   1 H :    0.235667
   2 O :   -0.634804
   3 C :   -0.473089
   4 H :    0.222921
   5 H :    0.213326
   6 C :   -0.478017
   7 H :    0.221456
   8 H :    0.224635
   9 H :    0.421720
  10 H :    0.214823
  11 C :   -0.130844
  12 H :    0.169970
  13 H :    0.205315
  14 O :   -0.656842
  15 H :    0.442242
Sum of atomic charges:    0.0000000

LOEWDIN ATOMIC CHARGES
----------------------
   0 C :   -0.107091
   1 H :    0.128508
   2 O :   -0.408618
   3 C :   -0.270372
   4 H :    0.132694
   5 H :    0.121590
   6 C :   -0.271513
   7 H :    0.127112
   8 H :    0.132772
   9 H :    0.312789
  10 H :    0.111492
  11 C :   -0.090466
  12 H :    0.092641
  13 H :    0.113782
  14 O :   -0.429058
  15 H :    0.303735

  Mayer bond orders larger than 0.100000
B(  0-C ,  1-H ) :   0.9047 B(  0-C ,  2-O ) :   0.9702 B(  0-C ,  3-C ) :   0.9707
B(  0-C , 10-H ) :   0.9116 B(  2-O ,  9-H ) :   0.7858 B(  3-C ,  4-H ) :   0.9098
B(  3-C ,  5-H ) :   0.9214 B(  3-C ,  6-C ) :   0.9740 B(  6-C ,  7-H ) :   0.9118
B(  6-C ,  8-H ) :   0.9149 B(  6-C , 11-C ) :   0.9685 B( 11-C , 12-H ) :   0.9061
B( 11-C , 13-H ) :   0.9166 B( 11-C , 14-O ) :   1.0353 B( 14-O , 15-H ) :   0.7233

Dispersion correction           -0.007108868
FINAL SINGLE POINT ENERGY      -308.208260444563

DIPOLE MOMENT
-------------
                                X             Y             Z
Electronic contribution:      0.10347      -3.54693      -0.64381
Nuclear contribution   :      0.82854       4.68981       0.37366
                        -----------------------------------------
Total Dipole Moment    :      0.93201       1.14287      -0.27015
                        -----------------------------------------
Magnitude (a.u.)       :      1.49926
Magnitude (Debye)      :      3.81082

Rotational constants in cm-1:     0.153066     0.095785     0.069474
Rotational constants in MHz :  4588.793579  2871.556976  2082.774939

                             ****ORCA TERMINATED NORMALLY****
TOTAL RUN TIME: 0 days 0 hours 1 minutes 40 seconds 666 msec
