                         Program Version 5.0.3 -  RELEASE  -
|  1> ! PBEh-3c def2/J TightSCF DefGrid3
|  2>
|  3> %maxcore 60000
|  4>
|  5> %pal
|  6> nprocs 4
|  7> end
|  8>
|  9> *xyzfile 0 1 ILE_xae.xyz
| 10>
| 11>                          ****END OF INPUT****

CARTESIAN COORDINATES (ANGSTROEM)
---------------------------------
  N     -0.108839    0.998755   -0.591237
  C     -0.256516   -0.317871    0.012211
  C      1.031744   -1.107663   -0.247497
  O      1.148506   -1.902290   -1.174888
  C     -1.488760   -1.038802   -0.516487
  C     -2.743127   -0.161680   -0.435243
  C     -1.666445   -2.354430    0.236520
  C     -3.049181    0.382577    0.956363
  H     -0.337886    1.108511   -1.565044
  H     -0.352448   -0.147083    1.084994
  H     -1.297128   -1.280290   -1.565415
  H     -2.652692    0.676144   -1.128659
  H     -3.587448   -0.757551   -0.788104
  H     -0.816425   -3.011611    0.068166
  H     -1.763603   -2.185199    1.309162
  H     -2.564537   -2.868529   -0.104639
  H     -3.163126   -0.418512    1.684918
  H     -3.977595    0.951512    0.947968
  H     -2.260458    1.047539    1.307162
  N      2.022092   -0.805896    0.624489
  H      1.873851    0.008529    1.206897
  C      3.361326   -1.318671    0.427092
  H      3.923307   -0.727805   -0.297171
  H      3.890599   -1.317531    1.375527
  H      3.289811   -2.335165    0.052606
  C      0.512245    2.014252    0.059636
  O      0.957343    1.889117    1.200683
  C      0.603116    3.317860   -0.691550
  H      1.648616    3.609297   -0.756172
  H      0.082114    4.081322   -0.118500
  H      0.178270    3.267962   -1.690963

 Total Charge           Charge          ....    0
 Multiplicity           Mult            ....    1
 Number of Electrons    NEL             ....  102
 Basis Dimension        Dim             ....  231

ORBITAL ENERGIES
----------------

  NO   OCC          E(Eh)            E(eV)
   0   2.0000     -19.470335      -529.8147
   1   2.0000     -19.453132      -529.3466
   2   2.0000     -14.677595      -399.3977
   3   2.0000     -14.649763      -398.6403
   4   2.0000     -10.562688      -287.4253
   5   2.0000     -10.537550      -286.7413
   6   2.0000     -10.485635      -285.3286
   7   2.0000     -10.458883      -284.6007
   8   2.0000     -10.452449      -284.4256
   9   2.0000     -10.446813      -284.2722
  10   2.0000     -10.436726      -283.9978
  11   2.0000     -10.424081      -283.6537
  12   2.0000     -10.420329      -283.5516
  13   2.0000      -1.156415       -31.4677
  14   2.0000      -1.134981       -30.8844
  15   2.0000      -1.039161       -28.2770
  16   2.0000      -1.011817       -27.5329
  17   2.0000      -0.912926       -24.8420
  18   2.0000      -0.853202       -23.2168
  19   2.0000      -0.822175       -22.3725
  20   2.0000      -0.799249       -21.7487
  21   2.0000      -0.759363       -20.6633
  22   2.0000      -0.720030       -19.5930
  23   2.0000      -0.671844       -18.2818
  24   2.0000      -0.645625       -17.5684
  25   2.0000      -0.632961       -17.2237
  26   2.0000      -0.600121       -16.3301
  27   2.0000      -0.566803       -15.4235
  28   2.0000      -0.557165       -15.1612
  29   2.0000      -0.529751       -14.4153
  30   2.0000      -0.519239       -14.1292
  31   2.0000      -0.511691       -13.9238
  32   2.0000      -0.505653       -13.7595
  33   2.0000      -0.492983       -13.4147
  34   2.0000      -0.480095       -13.0640
  35   2.0000      -0.473026       -12.8717
  36   2.0000      -0.461898       -12.5689
  37   2.0000      -0.457204       -12.4411
  38   2.0000      -0.442273       -12.0349
  39   2.0000      -0.440744       -11.9932
  40   2.0000      -0.438603       -11.9350
  41   2.0000      -0.426383       -11.6025
  42   2.0000      -0.415795       -11.3144
  43   2.0000      -0.410877       -11.1805
  44   2.0000      -0.379210       -10.3188
  45   2.0000      -0.374321       -10.1858
  46   2.0000      -0.371978       -10.1220
  47   2.0000      -0.335912        -9.1406
  48   2.0000      -0.322661        -8.7801
  49   2.0000      -0.297818        -8.1040
  50   2.0000      -0.288737        -7.8569
  51   0.0000       0.040606         1.1050
  52   0.0000       0.065792         1.7903
  53   0.0000       0.108431         2.9506
  54   0.0000       0.134248         3.6531
  55   0.0000       0.157173         4.2769

MULLIKEN ATOMIC CHARGES
-----------------------
   0 N :   -0.624009
   1 C :   -0.206820
   2 C :    0.571206
   3 O :   -0.437255
   4 C :   -0.259951
   5 C :   -0.403099
   6 C :   -0.652638
   7 C :   -0.664177
   8 H :    0.364203
   9 H :    0.267817
  10 H :    0.242103
  11 H :    0.200377
  12 H :    0.220426
  13 H :    0.258920
  14 H :    0.204895
  15 H :    0.220340
  16 H :    0.218007
  17 H :    0.225423
  18 H :    0.227110
  19 N :   -0.643811
  20 H :    0.398223
  21 C :   -0.492243
  22 H :    0.218143
  23 H :    0.220601
  24 H :    0.251702
  25 C :    0.538837
  26 O :   -0.460782
  27 C :   -0.744187
  28 H :    0.260374
  29 H :    0.263981
  30 H :    0.216285
Sum of atomic charges:    0.0000000

LOEWDIN ATOMIC CHARGES
----------------------
   0 N :   -0.207235
   1 C :   -0.091933
   2 C :    0.103622
   3 O :   -0.283441
   4 C :   -0.156941
   5 C :   -0.238771
   6 C :   -0.352538
   7 C :   -0.366385
   8 H :    0.260732
   9 H :    0.146820
  10 H :    0.136802
  11 H :    0.115235
  12 H :    0.126090
  13 H :    0.144649
  14 H :    0.122392
  15 H :    0.129252
  16 H :    0.125607
  17 H :    0.129344
  18 H :    0.128659
  19 N :   -0.246470
  20 H :    0.266331
  21 C :   -0.254970
  22 H :    0.119345
  23 H :    0.125812
  24 H :    0.144608
  25 C :    0.111171
  26 O :   -0.301905
  27 C :   -0.384125
  28 H :    0.158108
  29 H :    0.160739
  30 H :    0.129394

  Mayer bond orders larger than 0.100000
B(  0-N ,  1-C ) :   0.9089 B(  0-N ,  8-H ) :   0.8185 B(  0-N , 25-C ) :   1.1681
B(  1-C ,  2-C ) :   0.8790 B(  1-C ,  4-C ) :   0.9700 B(  1-C ,  9-H ) :   0.8728
B(  2-C ,  3-O ) :   1.9614 B(  2-C , 19-N ) :   1.1717 B(  4-C ,  5-C ) :   0.9766
B(  4-C ,  6-C ) :   0.9930 B(  4-C , 10-H ) :   0.8927 B(  5-C ,  7-C ) :   0.9860
B(  5-C , 11-H ) :   0.9247 B(  5-C , 12-H ) :   0.9211 B(  6-C , 13-H ) :   0.9066
B(  6-C , 14-H ) :   0.9232 B(  6-C , 15-H ) :   0.9297 B(  7-C , 16-H ) :   0.9248
B(  7-C , 17-H ) :   0.9291 B(  7-C , 18-H ) :   0.9185 B( 19-N , 20-H ) :   0.7557
B( 19-N , 21-C ) :   0.9623 B( 21-C , 22-H ) :   0.9185 B( 21-C , 23-H ) :   0.9255
B( 21-C , 24-H ) :   0.9091 B( 25-C , 26-O ) :   1.8956 B( 25-C , 27-C ) :   0.9321
B( 27-C , 28-H ) :   0.9079 B( 27-C , 29-H ) :   0.9065 B( 27-C , 30-H ) :   0.9214

Dispersion correction           -0.018917895
FINAL SINGLE POINT ENERGY      -612.479814012158

DIPOLE MOMENT
-------------
                                X             Y             Z
Electronic contribution:      7.76679       0.73975      -1.33626
Nuclear contribution   :     -8.09847       0.15982       1.00372
                        -----------------------------------------
Total Dipole Moment    :     -0.33168       0.89957      -0.33254
                        -----------------------------------------
Magnitude (a.u.)       :      1.01480
Magnitude (Debye)      :      2.57941

Rotational constants in cm-1:     0.027293     0.023224     0.014805
Rotational constants in MHz :   818.219476   696.237506   443.854489

                             ****ORCA TERMINATED NORMALLY****
TOTAL RUN TIME: 0 days 0 hours 3 minutes 51 seconds 412 msec
