                         Program Version 5.0.3 -  RELEASE  -
|  1> ! PBEh-3c def2/J TightSCF DefGrid3
|  2>
|  3> %maxcore 60000
|  4>
|  5> %pal
|  6> nprocs 4
|  7> end
|  8>
|  9> *xyzfile 0 1 20B.xyz
| 10>
| 11>                          ****END OF INPUT****

CARTESIAN COORDINATES (ANGSTROEM)
---------------------------------
  C     -0.554409   -0.158519    0.000000
  O     -1.258056   -1.160912    0.000000
  O     -1.026826    1.077873    0.000000
  H     -2.020634    1.042529    0.000000
  C      0.942329   -0.203621    0.000000
  H      1.279913   -1.232725    0.000000
  H      1.318842    0.317688   -0.876950
  H      1.318842    0.317688    0.876950

 Total Charge           Charge          ....    0
 Multiplicity           Mult            ....    1
 Number of Electrons    NEL             ....   32
 Basis Dimension        Dim             ....   68

ORBITAL ENERGIES
----------------

  NO   OCC          E(Eh)            E(eV)
   0   2.0000     -19.551964      -532.0360
   1   2.0000     -19.478867      -530.0469
   2   2.0000     -10.583624      -287.9951
   3   2.0000     -10.447054      -284.2788
   4   2.0000      -1.225062       -33.3356
   5   2.0000      -1.116382       -30.3783
   6   2.0000      -0.848645       -23.0928
   7   2.0000      -0.693701       -18.8766
   8   2.0000      -0.557814       -15.1789
   9   2.0000      -0.549821       -14.9614
  10   2.0000      -0.536347       -14.5948
  11   2.0000      -0.471042       -12.8177
  12   2.0000      -0.453401       -12.3377
  13   2.0000      -0.450206       -12.2507
  14   2.0000      -0.372515       -10.1367
  15   2.0000      -0.330887        -9.0039
  16   0.0000       0.047304         1.2872
  17   0.0000       0.114106         3.1050
  18   0.0000       0.167058         4.5459
  19   0.0000       0.207514         5.6467
  20   0.0000       0.220704         6.0057

MULLIKEN ATOMIC CHARGES
-----------------------
   0 C :    0.506698
   1 O :   -0.410803
   2 O :   -0.566212
   3 H :    0.445887
   4 C :   -0.738225
   5 H :    0.261675
   6 H :    0.250490
   7 H :    0.250490
Sum of atomic charges:   -0.0000000

LOEWDIN ATOMIC CHARGES
----------------------
   0 C :    0.121648
   1 O :   -0.254704
   2 O :   -0.282334
   3 H :    0.341093
   4 C :   -0.389534
   5 H :    0.154197
   6 H :    0.154817
   7 H :    0.154817

  Mayer bond orders larger than 0.100000
B(  0-C ,  1-O ) :   2.0472 B(  0-C ,  2-O ) :   1.1702 B(  0-C ,  4-C ) :   0.9379
B(  2-O ,  3-H ) :   0.7543 B(  4-C ,  5-H ) :   0.9173 B(  4-C ,  6-H ) :   0.9059
B(  4-C ,  7-H ) :   0.9059

Dispersion correction           -0.002313427
FINAL SINGLE POINT ENERGY      -228.600409866404

DIPOLE MOMENT
-------------
                                X             Y             Z
Electronic contribution:     -3.36456      -0.04954      -0.00000
Nuclear contribution   :      3.63442       0.74580       0.00000
                        -----------------------------------------
Total Dipole Moment    :      0.26985       0.69625      -0.00000
                        -----------------------------------------
Magnitude (a.u.)       :      0.74672
Magnitude (Debye)      :      1.89801

Rotational constants in cm-1:     0.376907     0.320794     0.179003
Rotational constants in MHz : 11299.400641  9617.176259  5366.380205

                             ****ORCA TERMINATED NORMALLY****
TOTAL RUN TIME: 0 days 0 hours 1 minutes 17 seconds 185 msec
