                         Program Version 5.0.3 -  RELEASE  -
|  1> ! PBEh-3c def2/J TightSCF DefGrid3
|  2>
|  3> %maxcore 60000
|  4>
|  5> %pal
|  6> nprocs 4
|  7> end
|  8>
|  9> *xyzfile 0 1 40.xyz
| 10>
| 11>                          ****END OF INPUT****

CARTESIAN COORDINATES (ANGSTROEM)
---------------------------------
  N      1.722138   -2.957496    0.020129
  C      0.377197   -3.018610    0.317221
  C     -0.152220   -1.748845    0.364976
  C      0.932834   -0.851436    0.078933
  C      1.032806    0.550458   -0.008407
  C      2.262401    1.109479   -0.309422
  C      3.405227    0.307183   -0.524476
  C      3.334778   -1.074017   -0.435357
  C      2.091318   -1.640920   -0.129845
  H      2.334833   -3.748256   -0.058186
  H     -0.105971   -3.968281    0.481650
  H      0.179983    1.199499    0.141386
  H      4.337721    0.792032   -0.780156
  H      4.210901   -1.686144   -0.606440
  O      2.363520    2.482652   -0.445157
  C      2.972975    3.099465    0.686363
  H      3.985716    2.722950    0.845750
  H      2.381865    2.922952    1.588186
  H      3.011973    4.165370    0.477960
  C     -1.579379   -1.373143    0.611413
  C     -2.273072   -0.906375   -0.679289
  N     -3.654353   -0.506800   -0.486510
  C     -4.113206    0.732300   -0.126012
  C     -3.105692    1.864625   -0.161563
  H     -1.640014   -0.573750    1.354580
  H     -2.126977   -2.225491    1.019840
  H     -2.248231   -1.716893   -1.409117
  H     -1.718854   -0.078843   -1.117791
  H     -4.347675   -1.231878   -0.387123
  O     -5.282752    0.912524    0.180864
  H     -2.691335    1.990676   -1.161648
  H     -2.279244    1.680999    0.524816
  H     -3.619208    2.774012    0.132427

 Total Charge           Charge          ....    0
 Multiplicity           Mult            ....    1
 Number of Electrons    NEL             ....  124
 Basis Dimension        Dim             ....  287

ORBITAL ENERGIES
----------------

  NO   OCC          E(Eh)            E(eV)
   0   2.0000     -19.507799      -530.8342
   1   2.0000     -19.445444      -529.1374
   2   2.0000     -14.692030      -399.7905
   3   2.0000     -14.652154      -398.7054
   4   2.0000     -10.541038      -286.8362
   5   2.0000     -10.497685      -285.6565
   6   2.0000     -10.486345      -285.3480
   7   2.0000     -10.485800      -285.3331
   8   2.0000     -10.482791      -285.2513
   9   2.0000     -10.481183      -285.2075
  10   2.0000     -10.458360      -284.5865
  11   2.0000     -10.452173      -284.4181
  12   2.0000     -10.451462      -284.3987
  13   2.0000     -10.449084      -284.3340
  14   2.0000     -10.448799      -284.3263
  15   2.0000     -10.448060      -284.3062
  16   2.0000     -10.436267      -283.9853
  17   2.0000      -1.156177       -31.4612
  18   2.0000      -1.131549       -30.7910
  19   2.0000      -1.094454       -29.7816
  20   2.0000      -1.016719       -27.6663
  21   2.0000      -0.942876       -25.6570
  22   2.0000      -0.905347       -24.6357
  23   2.0000      -0.846337       -23.0300
  24   2.0000      -0.833404       -22.6781
  25   2.0000      -0.822434       -22.3796
  26   2.0000      -0.808287       -21.9946
  27   2.0000      -0.769289       -20.9334
  28   2.0000      -0.732170       -19.9234
  29   2.0000      -0.704426       -19.1684
  30   2.0000      -0.672326       -18.2949
  31   2.0000      -0.645304       -17.5596
  32   2.0000      -0.636951       -17.3323
  33   2.0000      -0.617244       -16.7961
  34   2.0000      -0.573430       -15.6038
  35   2.0000      -0.561369       -15.2756
  36   2.0000      -0.558257       -15.1909
  37   2.0000      -0.546052       -14.8588
  38   2.0000      -0.526541       -14.3279
  39   2.0000      -0.519498       -14.1363
  40   2.0000      -0.511326       -13.9139
  41   2.0000      -0.508478       -13.8364
  42   2.0000      -0.500582       -13.6215
  43   2.0000      -0.491247       -13.3675
  44   2.0000      -0.481851       -13.1118
  45   2.0000      -0.473203       -12.8765
  46   2.0000      -0.461199       -12.5499
  47   2.0000      -0.459078       -12.4921
  48   2.0000      -0.454623       -12.3709
  49   2.0000      -0.450239       -12.2516
  50   2.0000      -0.438351       -11.9281
  51   2.0000      -0.417392       -11.3578
  52   2.0000      -0.407949       -11.1009
  53   2.0000      -0.407644       -11.0926
  54   2.0000      -0.395431       -10.7602
  55   2.0000      -0.379778       -10.3343
  56   2.0000      -0.330237        -8.9862
  57   2.0000      -0.328559        -8.9405
  58   2.0000      -0.299487        -8.1495
  59   2.0000      -0.292777        -7.9669
  60   2.0000      -0.259999        -7.0749
  61   2.0000      -0.247156        -6.7255
  62   0.0000      -0.000917        -0.0249
  63   0.0000       0.044505         1.2111
  64   0.0000       0.066292         1.8039
  65   0.0000       0.084780         2.3070
  66   0.0000       0.111263         3.0276

MULLIKEN ATOMIC CHARGES
-----------------------
   0 N :   -0.701359
   1 C :   -0.057909
   2 C :    0.024196
   3 C :    0.072055
   4 C :   -0.437442
   5 C :    0.362075
   6 C :   -0.312528
   7 C :   -0.261962
   8 C :    0.368007
   9 H :    0.360372
  10 H :    0.240322
  11 H :    0.217137
  12 H :    0.229362
  13 H :    0.216109
  14 O :   -0.485680
  15 C :   -0.377487
  16 H :    0.198501
  17 H :    0.203361
  18 H :    0.221524
  19 C :   -0.534200
  20 C :   -0.275689
  21 N :   -0.610675
  22 C :    0.498084
  23 C :   -0.787625
  24 H :    0.230892
  25 H :    0.226526
  26 H :    0.242018
  27 H :    0.243468
  28 H :    0.356710
  29 O :   -0.419328
  30 H :    0.244195
  31 H :    0.232761
  32 H :    0.274207
Sum of atomic charges:    0.0000000

LOEWDIN ATOMIC CHARGES
----------------------
   0 N :   -0.156724
   1 C :   -0.081202
   2 C :   -0.106188
   3 C :   -0.055184
   4 C :   -0.154503
   5 C :    0.043742
   6 C :   -0.158226
   7 C :   -0.151864
   8 C :    0.013749
   9 H :    0.262701
  10 H :    0.136041
  11 H :    0.140936
  12 H :    0.142895
  13 H :    0.137701
  14 O :   -0.220391
  15 C :   -0.172291
  16 H :    0.108035
  17 H :    0.110937
  18 H :    0.124763
  19 C :   -0.236457
  20 C :   -0.147164
  21 N :   -0.246195
  22 C :    0.106556
  23 C :   -0.397947
  24 H :    0.133300
  25 H :    0.133223
  26 H :    0.130458
  27 H :    0.133903
  28 H :    0.257201
  29 O :   -0.274820
  30 H :    0.147465
  31 H :    0.138593
  32 H :    0.156954

  Mayer bond orders larger than 0.100000
B(  0-N ,  1-C ) :   1.1352 B(  0-N ,  8-C ) :   1.0134 B(  0-N ,  9-H ) :   0.8324
B(  1-C ,  2-C ) :   1.5593 B(  1-C , 10-H ) :   0.9107 B(  2-C ,  3-C ) :   1.2323
B(  2-C , 19-C ) :   0.9461 B(  3-C ,  4-C ) :   1.2395 B(  3-C ,  8-C ) :   1.2434
B(  4-C ,  5-C ) :   1.4871 B(  4-C , 11-H ) :   0.9231 B(  5-C ,  6-C ) :   1.3179
B(  5-C , 14-O ) :   0.9561 B(  6-C ,  7-C ) :   1.4848 B(  6-C , 12-H ) :   0.9118
B(  7-C ,  8-C ) :   1.2890 B(  7-C , 13-H ) :   0.9203 B( 14-O , 15-C ) :   0.9504
B( 15-C , 16-H ) :   0.9118 B( 15-C , 17-H ) :   0.9123 B( 15-C , 18-H ) :   0.9281
B( 19-C , 20-C ) :   0.9454 B( 19-C , 24-H ) :   0.9147 B( 19-C , 25-H ) :   0.9290
B( 20-C , 21-N ) :   0.9539 B( 20-C , 26-H ) :   0.9135 B( 20-C , 27-H ) :   0.9023
B( 21-N , 22-C ) :   1.1510 B( 21-N , 28-H ) :   0.8242 B( 22-C , 23-C ) :   0.9253
B( 22-C , 29-O ) :   2.0320 B( 23-C , 30-H ) :   0.9076 B( 23-C , 31-H ) :   0.9042
B( 23-C , 32-H ) :   0.9150

Dispersion correction           -0.021465993
FINAL SINGLE POINT ENERGY      -763.321455561597

DIPOLE MOMENT
-------------
                                X             Y             Z
Electronic contribution:      1.56704      -6.14651      -1.65096
Nuclear contribution   :      0.39812       4.58657       1.84946
                        -----------------------------------------
Total Dipole Moment    :      1.96517      -1.55994       0.19850
                        -----------------------------------------
Magnitude (a.u.)       :      2.51688
Magnitude (Debye)      :      6.39741

Rotational constants in cm-1:     0.021353     0.009007     0.006556
Rotational constants in MHz :   640.157187   270.016321   196.536810

                             ****ORCA TERMINATED NORMALLY****
TOTAL RUN TIME: 0 days 0 hours 4 minutes 24 seconds 355 msec
