                         Program Version 5.0.3 -  RELEASE  -
|  1> ! PBEh-3c def2/J TightSCF DefGrid3
|  2>
|  3> %maxcore 60000
|  4>
|  5> %pal
|  6> nprocs 4
|  7> end
|  8>
|  9> *xyzfile 0 1 B5.xyz
| 10>
| 11>                          ****END OF INPUT****

CARTESIAN COORDINATES (ANGSTROEM)
---------------------------------
  C      1.392021   -0.005714    0.572548
  H      0.871641   -0.532025    1.374976
  O      1.488209   -0.851062   -0.584548
  C      0.625963    1.246932    0.175258
  H      0.439793    1.823253    1.085205
  H      1.261437    1.858656   -0.467823
  C     -0.700902    0.985430   -0.548887
  H      2.050690   -1.596932   -0.357590
  H      2.389444    0.268884    0.923502
  C     -1.672301    0.064726    0.181897
  O     -1.272107   -1.304104    0.186824
  H     -0.469827   -1.371151   -0.343681
  H     -2.654916    0.136101   -0.290904
  H     -1.784973    0.391577    1.220694
  H     -1.196857    1.945578   -0.708420
  H     -0.503934    0.569140   -1.539066

 Total Charge           Charge          ....    0
 Multiplicity           Mult            ....    1
 Number of Electrons    NEL             ....   50
 Basis Dimension        Dim             ....  110

ORBITAL ENERGIES
----------------

  NO   OCC          E(Eh)            E(eV)
   0   2.0000     -19.505221      -530.7641
   1   2.0000     -19.461776      -529.5819
   2   2.0000     -10.488406      -285.4040
   3   2.0000     -10.469291      -284.8839
   4   2.0000     -10.438839      -284.0552
   5   2.0000     -10.433715      -283.9158
   6   2.0000      -1.137855       -30.9626
   7   2.0000      -1.099563       -29.9206
   8   2.0000      -0.882188       -24.0055
   9   2.0000      -0.797516       -21.7015
  10   2.0000      -0.712821       -19.3968
  11   2.0000      -0.650523       -17.7016
  12   2.0000      -0.591593       -16.0981
  13   2.0000      -0.555303       -15.1106
  14   2.0000      -0.519369       -14.1328
  15   2.0000      -0.510643       -13.8953
  16   2.0000      -0.486176       -13.2295
  17   2.0000      -0.455433       -12.3930
  18   2.0000      -0.453833       -12.3494
  19   2.0000      -0.421074       -11.4580
  20   2.0000      -0.390113       -10.6155
  21   2.0000      -0.387987       -10.5577
  22   2.0000      -0.353348        -9.6151
  23   2.0000      -0.343123        -9.3368
  24   2.0000      -0.304457        -8.2847
  25   0.0000       0.111832         3.0431
  26   0.0000       0.154715         4.2100
  27   0.0000       0.181866         4.9488
  28   0.0000       0.184674         5.0252
  29   0.0000       0.192276         5.2321

MULLIKEN ATOMIC CHARGES
-----------------------
   0 C :   -0.196352
   1 H :    0.216077
   2 O :   -0.644381
   3 C :   -0.436048
   4 H :    0.213506
   5 H :    0.228183
   6 C :   -0.501316
   7 H :    0.427289
   8 H :    0.204850
   9 C :   -0.120871
  10 O :   -0.656360
  11 H :    0.432582
  12 H :    0.194633
  13 H :    0.177428
  14 H :    0.223702
  15 H :    0.237078
Sum of atomic charges:   -0.0000000

LOEWDIN ATOMIC CHARGES
----------------------
   0 C :   -0.104267
   1 H :    0.111933
   2 O :   -0.418903
   3 C :   -0.251969
   4 H :    0.127754
   5 H :    0.130762
   6 C :   -0.270942
   7 H :    0.314419
   8 H :    0.107781
   9 C :   -0.089732
  10 O :   -0.431621
  11 H :    0.302871
  12 H :    0.106102
  13 H :    0.100220
  14 H :    0.132725
  15 H :    0.132868

  Mayer bond orders larger than 0.100000
B(  0-C ,  1-H ) :   0.8963 B(  0-C ,  2-O ) :   0.9613 B(  0-C ,  3-C ) :   0.9834
B(  0-C ,  8-H ) :   0.9107 B(  2-O ,  7-H ) :   0.7857 B(  3-C ,  4-H ) :   0.9183
B(  3-C ,  5-H ) :   0.9173 B(  3-C ,  6-C ) :   0.9815 B(  6-C ,  9-C ) :   0.9816
B(  6-C , 14-H ) :   0.9134 B(  6-C , 15-H ) :   0.9036 B(  9-C , 10-O ) :   1.0206
B(  9-C , 12-H ) :   0.9120 B(  9-C , 13-H ) :   0.9108 B( 10-O , 11-H ) :   0.7336

Dispersion correction           -0.007029089
FINAL SINGLE POINT ENERGY      -308.208003582040

DIPOLE MOMENT
-------------
                                X             Y             Z
Electronic contribution:      0.43644      -3.18502      -0.75226
Nuclear contribution   :      0.42294       3.60426       0.92800
                        -----------------------------------------
Total Dipole Moment    :      0.85938       0.41924       0.17574
                        -----------------------------------------
Magnitude (a.u.)       :      0.97220
Magnitude (Debye)      :      2.47113

Rotational constants in cm-1:     0.155976     0.095264     0.070627
Rotational constants in MHz :  4676.042903  2855.945266  2117.353551

                             ****ORCA TERMINATED NORMALLY****
TOTAL RUN TIME: 0 days 0 hours 1 minutes 35 seconds 76 msec
