                         Program Version 5.0.3 -  RELEASE  -
|  1> ! PBEh-3c def2/J TightSCF DefGrid3
|  2>
|  3> %maxcore 60000
|  4>
|  5> %pal
|  6> nprocs 4
|  7> end
|  8>
|  9> *xyzfile 0 1 C3H7CO2H.xyz
| 10>
| 11>                          ****END OF INPUT****

CARTESIAN COORDINATES (ANGSTROEM)
---------------------------------
  C      1.294122    1.100553   -0.744773
  O      2.487007    1.194110   -0.536415
  C      0.460293   -0.150461   -0.599784
  H     -0.177531   -0.259869   -1.490646
  H      1.153191   -1.001395   -0.561532
  C     -0.424994   -0.123384    0.662388
  H     -1.097870    0.745799    0.610868
  H      0.215376    0.024655    1.546226
  C     -1.239408   -1.408739    0.821237
  H     -1.862506   -1.371506    1.725757
  H     -1.907259   -1.566998   -0.038838
  H     -0.585028   -2.289360    0.902331
  O      0.534066    2.172784   -1.128581
  H      1.150540    2.933810   -1.168238

 Total Charge           Charge          ....    0
 Multiplicity           Mult            ....    1
 Number of Electrons    NEL             ....   48
 Basis Dimension        Dim             ....  106

ORBITAL ENERGIES
----------------

  NO   OCC          E(Eh)            E(eV)
   0   2.0000     -19.541211      -531.7434
   1   2.0000     -19.486300      -530.2492
   2   2.0000     -10.583538      -287.9927
   3   2.0000     -10.456442      -284.5342
   4   2.0000     -10.452705      -284.4326
   5   2.0000     -10.436925      -284.0032
   6   2.0000      -1.211451       -32.9653
   7   2.0000      -1.118683       -30.4409
   8   2.0000      -0.896680       -24.3999
   9   2.0000      -0.805817       -21.9274
  10   2.0000      -0.695298       -18.9200
  11   2.0000      -0.662103       -18.0167
  12   2.0000      -0.563861       -15.3434
  13   2.0000      -0.548902       -14.9364
  14   2.0000      -0.524734       -14.2787
  15   2.0000      -0.512402       -13.9432
  16   2.0000      -0.476826       -12.9751
  17   2.0000      -0.455417       -12.3925
  18   2.0000      -0.448431       -12.2024
  19   2.0000      -0.419748       -11.4219
  20   2.0000      -0.402114       -10.9421
  21   2.0000      -0.391978       -10.6663
  22   2.0000      -0.372458       -10.1351
  23   2.0000      -0.331716        -9.0265
  24   0.0000       0.039556         1.0764
  25   0.0000       0.122425         3.3313
  26   0.0000       0.147160         4.0044
  27   0.0000       0.176497         4.8027
  28   0.0000       0.184656         5.0248

MULLIKEN ATOMIC CHARGES
-----------------------
   0 C :    0.519364
   1 O :   -0.390636
   2 C :   -0.512258
   3 H :    0.241467
   4 H :    0.250160
   5 C :   -0.428855
   6 H :    0.232831
   7 H :    0.227050
   8 C :   -0.637918
   9 H :    0.226615
  10 H :    0.212938
  11 H :    0.214925
  12 O :   -0.595654
  13 H :    0.439972
Sum of atomic charges:    0.0000000

LOEWDIN ATOMIC CHARGES
----------------------
   0 C :    0.146230
   1 O :   -0.233194
   2 C :   -0.266557
   3 H :    0.145774
   4 H :    0.146292
   5 C :   -0.238152
   6 H :    0.131868
   7 H :    0.129302
   8 C :   -0.360855
   9 H :    0.131489
  10 H :    0.125855
  11 H :    0.126649
  12 O :   -0.317287
  13 H :    0.332586

  Mayer bond orders larger than 0.100000
B(  0-C ,  1-O ) :   2.0670 B(  0-C ,  2-C ) :   0.9286 B(  0-C , 12-O ) :   1.1189
B(  2-C ,  3-H ) :   0.8993 B(  2-C ,  4-H ) :   0.9108 B(  2-C ,  5-C ) :   0.9602
B(  5-C ,  6-H ) :   0.9110 B(  5-C ,  7-H ) :   0.9143 B(  5-C ,  8-C ) :   0.9913
B(  8-C ,  9-H ) :   0.9288 B(  8-C , 10-H ) :   0.9276 B(  8-C , 11-H ) :   0.9270
B( 12-O , 13-H ) :   0.7626

Dispersion correction           -0.005603196
FINAL SINGLE POINT ENERGY      -307.055909424997

DIPOLE MOMENT
-------------
                                X             Y             Z
Electronic contribution:      6.13404       6.31246      -3.41481
Nuclear contribution   :     -6.83196      -6.33177       3.41073
                        -----------------------------------------
Total Dipole Moment    :     -0.69793      -0.01931      -0.00409
                        -----------------------------------------
Magnitude (a.u.)       :      0.69821
Magnitude (Debye)      :      1.77470

Rotational constants in cm-1:     0.270045     0.061239     0.054777
Rotational constants in MHz :  8095.751125  1835.889180  1642.163881

                             ****ORCA TERMINATED NORMALLY****
TOTAL RUN TIME: 0 days 0 hours 1 minutes 33 seconds 683 msec
