                         Program Version 5.0.3 -  RELEASE  -
|  1> ! PBEh-3c def2/J TightSCF DefGrid3
|  2>
|  3> %maxcore 60000
|  4>
|  5> %pal
|  6> nprocs 4
|  7> end
|  8>
|  9> *xyzfile 0 1 33B.xyz
| 10>
| 11>                          ****END OF INPUT****

CARTESIAN COORDINATES (ANGSTROEM)
---------------------------------
  C      0.666346    0.000000    0.000000
  H      1.225819   -0.923632    0.000000
  H      1.225819    0.923632    0.000000
  C     -0.666346    0.000000    0.000000
  H     -1.225819   -0.923632    0.000000
  H     -1.225819    0.923632    0.000000

 Total Charge           Charge          ....    0
 Multiplicity           Mult            ....    1
 Number of Electrons    NEL             ....   16
 Basis Dimension        Dim             ....   38

ORBITAL ENERGIES
----------------

  NO   OCC          E(Eh)            E(eV)
   0   2.0000     -10.440427      -284.0985
   1   2.0000     -10.439482      -284.0728
   2   2.0000      -0.849353       -23.1121
   3   2.0000      -0.652043       -17.7430
   4   2.0000      -0.532787       -14.4979
   5   2.0000      -0.476392       -12.9633
   6   2.0000      -0.410331       -11.1657
   7   2.0000      -0.315956        -8.5976
   8   0.0000       0.039560         1.0765
   9   0.0000       0.169047         4.6000
  10   0.0000       0.198463         5.4005
  11   0.0000       0.211446         5.7537
  12   0.0000       0.316924         8.6240

MULLIKEN ATOMIC CHARGES
-----------------------
   0 C :   -0.430846
   1 H :    0.215423
   2 H :    0.215423
   3 C :   -0.430845
   4 H :    0.215423
   5 H :    0.215423
Sum of atomic charges:   -0.0000000

LOEWDIN ATOMIC CHARGES
----------------------
   0 C :   -0.260695
   1 H :    0.130348
   2 H :    0.130348
   3 C :   -0.260695
   4 H :    0.130348
   5 H :    0.130348

  Mayer bond orders larger than 0.100000
B(  0-C ,  1-H ) :   0.9301 B(  0-C ,  2-H ) :   0.9301 B(  0-C ,  3-C ) :   1.9828
B(  3-C ,  4-H ) :   0.9301 B(  3-C ,  5-H ) :   0.9301

Dispersion correction           -0.001302651
FINAL SINGLE POINT ENERGY       -78.405268787579

DIPOLE MOMENT
-------------
                                X             Y             Z
Electronic contribution:     -0.00000      -0.00000      -0.00000
Nuclear contribution   :     -0.00000       0.00000       0.00000
                        -----------------------------------------
Total Dipole Moment    :     -0.00000      -0.00000      -0.00000
                        -----------------------------------------
Magnitude (a.u.)       :      0.00000
Magnitude (Debye)      :      0.00000

Rotational constants in cm-1:     4.900934     1.007943     0.836007
Rotational constants in MHz : 146926.290746 30217.376164 25062.860408

                             ****ORCA TERMINATED NORMALLY****
TOTAL RUN TIME: 0 days 0 hours 0 minutes 38 seconds 639 msec
