                         Program Version 5.0.3 -  RELEASE  -
|  1> ! PBEh-3c def2/J TightSCF DefGrid3
|  2>
|  3> %maxcore 60000
|  4>
|  5> %pal
|  6> nprocs 4
|  7> end
|  8>
|  9> *xyzfile 0 2 asme2.xyz
| 10>
| 11>                          ****END OF INPUT****

CARTESIAN COORDINATES (ANGSTROEM)
---------------------------------
  As     0.000000    0.000000   -1.337961
  C     -0.000000    1.459287   -0.021413
  C     -0.000000   -1.459287   -0.021413
  H     -0.000000    2.420020   -0.535882
  H      0.886769    1.394192    0.613138
  H     -0.886769    1.394192    0.613138
  H     -0.000000   -2.420020   -0.535882
  H      0.886769   -1.394192    0.613138
  H     -0.886769   -1.394192    0.613138

 Total Charge           Charge          ....    0
 Multiplicity           Mult            ....    2
 Number of Electrons    NEL             ....   51
 Basis Dimension        Dim             ....   74

ORBITAL ENERGIES
----------------
                 SPIN UP ORBITALS
  NO   OCC          E(Eh)            E(eV)
   0   1.0000    -427.407343    -11630.3451
   1   1.0000     -54.461324     -1481.9680
   2   1.0000     -48.642129     -1323.6196
   3   1.0000     -48.640119     -1323.5649
   4   1.0000     -48.639798     -1323.5562
   5   1.0000     -10.436997      -284.0051
   6   1.0000     -10.436959      -284.0041
   7   1.0000      -7.269600      -197.8159
   8   1.0000      -5.276952      -143.5932
   9   1.0000      -5.273042      -143.4868
  10   1.0000      -5.269209      -143.3825
  11   1.0000      -1.766808       -48.0773
  12   1.0000      -1.766197       -48.0607
  13   1.0000      -1.762932       -47.9718
  14   1.0000      -1.762920       -47.9715
  15   1.0000      -1.760732       -47.9120
  16   1.0000      -0.818158       -22.2632
  17   1.0000      -0.766810       -20.8660
  18   1.0000      -0.606834       -16.5128
  19   1.0000      -0.481332       -13.0977
  20   1.0000      -0.478776       -13.0282
  21   1.0000      -0.457437       -12.4475
  22   1.0000      -0.455293       -12.3892
  23   1.0000      -0.366165        -9.9639
  24   1.0000      -0.307375        -8.3641
  25   1.0000      -0.242908        -6.6099
  26   0.0000       0.068278         1.8579
  27   0.0000       0.108391         2.9495
  28   0.0000       0.145279         3.9532
  29   0.0000       0.176944         4.8149
  30   0.0000       0.197032         5.3615

                 SPIN DOWN ORBITALS
  NO   OCC          E(Eh)            E(eV)
   0   1.0000    -427.405350    -11630.2908
   1   1.0000     -54.460499     -1481.9455
   2   1.0000     -48.639496     -1323.5480
   3   1.0000     -48.639258     -1323.5415
   4   1.0000     -48.637896     -1323.5044
   5   1.0000     -10.437558      -284.0204
   6   1.0000     -10.437520      -284.0194
   7   1.0000      -7.266423      -197.7294
   8   1.0000      -5.271850      -143.4543
   9   1.0000      -5.268242      -143.3562
  10   1.0000      -5.266949      -143.3210
  11   1.0000      -1.762495       -47.9599
  12   1.0000      -1.762361       -47.9563
  13   1.0000      -1.761517       -47.9333
  14   1.0000      -1.758453       -47.8499
  15   1.0000      -1.758374       -47.8478
  16   1.0000      -0.809725       -22.0337
  17   1.0000      -0.765798       -20.8384
  18   1.0000      -0.575176       -15.6513
  19   1.0000      -0.477834       -13.0025
  20   1.0000      -0.471598       -12.8328
  21   1.0000      -0.455641       -12.3986
  22   1.0000      -0.450512       -12.2590
  23   1.0000      -0.362513        -9.8645
  24   1.0000      -0.293776        -7.9940
  25   0.0000      -0.058648        -1.5959
  26   0.0000       0.076587         2.0840
  27   0.0000       0.125415         3.4127
  28   0.0000       0.152808         4.1581
  29   0.0000       0.178140         4.8474

MULLIKEN ATOMIC CHARGES AND SPIN POPULATIONS
--------------------------------------------
   0 As:    0.296948    1.024929
   1 C :   -0.870756   -0.050324
   2 C :   -0.870756   -0.050325
   3 H :    0.242806    0.000539
   4 H :    0.239738    0.018661
   5 H :    0.239738    0.018661
   6 H :    0.242806    0.000539
   7 H :    0.239738    0.018661
   8 H :    0.239738    0.018661
Sum of atomic charges         :    0.0000000

LOEWDIN ATOMIC CHARGES AND SPIN POPULATIONS
-------------------------------------------
   0 As:    0.197864    0.960589
   1 C :   -0.519021   -0.016529
   2 C :   -0.519021   -0.016529
   3 H :    0.140280    0.000443
   4 H :    0.139904    0.017896
   5 H :    0.139904    0.017896
   6 H :    0.140280    0.000443
   7 H :    0.139904    0.017896
   8 H :    0.139904    0.017896

  Mayer bond orders larger than 0.100000
B(  0-As,  1-C ) :   0.9749 B(  0-As,  2-C ) :   0.9749 B(  1-C ,  3-H ) :   0.9149
B(  1-C ,  4-H ) :   0.9061 B(  1-C ,  5-H ) :   0.9061 B(  2-C ,  6-H ) :   0.9149
B(  2-C ,  7-H ) :   0.9061 B(  2-C ,  8-H ) :   0.9061

Dispersion correction           -0.003091392
FINAL SINGLE POINT ENERGY     -2314.443440518243

DIPOLE MOMENT
-------------
                                X             Y             Z
Electronic contribution:      0.00000      -0.00000      -9.40490
Nuclear contribution   :      0.00000       0.00000       9.89753
                        -----------------------------------------
Total Dipole Moment    :      0.00000      -0.00000       0.49262
                        -----------------------------------------
Magnitude (a.u.)       :      0.49262
Magnitude (Debye)      :      1.25215

Rotational constants in cm-1:     0.371667     0.227899     0.149202
Rotational constants in MHz : 11142.310450  6832.232614  4472.959391

                             ****ORCA TERMINATED NORMALLY****
TOTAL RUN TIME: 0 days 0 hours 2 minutes 1 seconds 380 msec
