                         Program Version 5.0.3 -  RELEASE  -
|  1> ! PBEh-3c def2/J TightSCF DefGrid3
|  2>
|  3> %maxcore 60000
|  4>
|  5> %pal
|  6> nprocs 4
|  7> end
|  8>
|  9> *xyzfile 1 1 sugar3.xyz
| 10>
| 11>                          ****END OF INPUT****

CARTESIAN COORDINATES (ANGSTROEM)
---------------------------------
  C     -2.772068   -0.855191   -0.070616
  C     -1.416976   -0.890043    0.636312
  C     -0.273444   -0.658614   -0.347996
  C      1.093705   -0.262123    0.222325
  C      1.154263    1.277924    0.062762
  O      0.588842    1.998660    1.102469
  C      0.435999    1.488362   -1.258955
  O     -2.954101    0.422419   -0.694167
  O      2.033936   -0.895241   -0.581833
  O     -1.378943    0.088666    1.648976
  O     -0.614617    0.456557   -1.258701
  C      3.340802   -0.953773   -0.050904
  H     -2.825900   -1.610966   -0.857842
  H     -3.585161   -1.055677    0.631329
  H     -1.261568   -1.898664    1.041785
  H     -0.170838   -1.541095   -0.983592
  H      1.192748   -0.551479    1.280015
  H      2.194283    1.602592   -0.040223
  H     -0.128950    1.512296    1.522167
  H     -0.045663    2.460387   -1.354559
  H      1.060137    1.285198   -2.127493
  H     -1.615694    0.722588   -1.123989
  H     -3.391915    1.045529   -0.104048
  H      3.794029    0.036234    0.066133
  H      3.356723   -1.459491    0.921014
  H      3.945211   -1.525307   -0.751157
  H     -1.754839   -0.239750    2.470789

 Total Charge           Charge          ....    1
 Multiplicity           Mult            ....    1
 Number of Electrons    NEL             ....   96
 Basis Dimension        Dim             ....  210

ORBITAL ENERGIES
----------------

  NO   OCC          E(Eh)            E(eV)
   0   2.0000     -19.762358      -537.7611
   1   2.0000     -19.711266      -536.3708
   2   2.0000     -19.685879      -535.6800
   3   2.0000     -19.644566      -534.5558
   4   2.0000     -19.621527      -533.9289
   5   2.0000     -10.689768      -290.8834
   6   2.0000     -10.686532      -290.7953
   7   2.0000     -10.672402      -290.4108
   8   2.0000     -10.661549      -290.1155
   9   2.0000     -10.658635      -290.0362
  10   2.0000     -10.645557      -289.6803
  11   2.0000     -10.600650      -288.4584
  12   2.0000      -1.407980       -38.3131
  13   2.0000      -1.344213       -36.5779
  14   2.0000      -1.323683       -36.0192
  15   2.0000      -1.300516       -35.3888
  16   2.0000      -1.273168       -34.6447
  17   2.0000      -1.067902       -29.0591
  18   2.0000      -1.033227       -28.1155
  19   2.0000      -0.990613       -26.9559
  20   2.0000      -0.914564       -24.8865
  21   2.0000      -0.886989       -24.1362
  22   2.0000      -0.882828       -24.0230
  23   2.0000      -0.837878       -22.7998
  24   2.0000      -0.817167       -22.2362
  25   2.0000      -0.801743       -21.8165
  26   2.0000      -0.747476       -20.3399
  27   2.0000      -0.743927       -20.2433
  28   2.0000      -0.741006       -20.1638
  29   2.0000      -0.716144       -19.4873
  30   2.0000      -0.704581       -19.1726
  31   2.0000      -0.687979       -18.7209
  32   2.0000      -0.680258       -18.5108
  33   2.0000      -0.673651       -18.3310
  34   2.0000      -0.644618       -17.5410
  35   2.0000      -0.637680       -17.3521
  36   2.0000      -0.621327       -16.9072
  37   2.0000      -0.605456       -16.4753
  38   2.0000      -0.594194       -16.1688
  39   2.0000      -0.592700       -16.1282
  40   2.0000      -0.576349       -15.6833
  41   2.0000      -0.564393       -15.3579
  42   2.0000      -0.555174       -15.1070
  43   2.0000      -0.542973       -14.7751
  44   2.0000      -0.514122       -13.9900
  45   2.0000      -0.508167       -13.8279
  46   2.0000      -0.476650       -12.9703
  47   2.0000      -0.448516       -12.2047
  48   0.0000      -0.081669        -2.2223
  49   0.0000      -0.052383        -1.4254
  50   0.0000      -0.037344        -1.0162
  51   0.0000      -0.017893        -0.4869
  52   0.0000      -0.009733        -0.2649

MULLIKEN ATOMIC CHARGES
-----------------------
   0 C :   -0.213032
   1 C :   -0.046760
   2 C :    0.007958
   3 C :   -0.040435
   4 C :   -0.007382
   5 O :   -0.619503
   6 C :   -0.213133
   7 O :   -0.653725
   8 O :   -0.466681
   9 O :   -0.657306
  10 O :   -0.582392
  11 C :   -0.402936
  12 H :    0.276242
  13 H :    0.275028
  14 H :    0.275303
  15 H :    0.322259
  16 H :    0.267509
  17 H :    0.281053
  18 H :    0.444795
  19 H :    0.297727
  20 H :    0.294069
  21 H :    0.528241
  22 H :    0.479459
  23 H :    0.212172
  24 H :    0.214891
  25 H :    0.262228
  26 H :    0.464350
Sum of atomic charges:    1.0000000

LOEWDIN ATOMIC CHARGES
----------------------
   0 C :   -0.095388
   1 C :   -0.055999
   2 C :    0.009461
   3 C :   -0.030534
   4 C :   -0.044608
   5 O :   -0.371377
   6 C :   -0.064784
   7 O :   -0.365487
   8 O :   -0.232831
   9 O :   -0.383314
  10 O :   -0.169100
  11 C :   -0.185767
  12 H :    0.152579
  13 H :    0.147979
  14 H :    0.150188
  15 H :    0.172796
  16 H :    0.138731
  17 H :    0.150501
  18 H :    0.308787
  19 H :    0.162820
  20 H :    0.160403
  21 H :    0.373955
  22 H :    0.351122
  23 H :    0.113794
  24 H :    0.117957
  25 H :    0.145613
  26 H :    0.342502

  Mayer bond orders larger than 0.100000
B(  0-C ,  1-C ) :   0.9281 B(  0-C ,  7-O ) :   0.8960 B(  0-C , 12-H ) :   0.8854
B(  0-C , 13-H ) :   0.9002 B(  1-C ,  2-C ) :   0.9412 B(  1-C ,  9-O ) :   0.9636
B(  1-C , 14-H ) :   0.8689 B(  2-C ,  3-C ) :   0.9357 B(  2-C , 10-O ) :   0.7476
B(  2-C , 15-H ) :   0.8659 B(  3-C ,  4-C ) :   0.9052 B(  3-C ,  8-O ) :   0.9596
B(  3-C , 16-H ) :   0.8778 B(  4-C ,  5-O ) :   1.0759 B(  4-C ,  6-C ) :   0.9012
B(  4-C , 17-H ) :   0.8815 B(  5-O , 18-H ) :   0.7135 B(  6-C , 10-O ) :   0.7533
B(  6-C , 19-H ) :   0.8950 B(  6-C , 20-H ) :   0.8818 B(  7-O , 21-H ) :   0.2375
B(  7-O , 22-H ) :   0.7407 B(  8-O , 11-C ) :   0.9282 B(  9-O , 26-H ) :   0.7535
B( 10-O , 21-H ) :   0.4878 B( 11-C , 23-H ) :   0.9050 B( 11-C , 24-H ) :   0.9097
B( 11-C , 25-H ) :   0.9154

Dispersion correction           -0.015726279
FINAL SINGLE POINT ENERGY      -650.196073146878

DIPOLE MOMENT
-------------
                                X             Y             Z
Electronic contribution:     -3.72991       2.08795      -0.57022
Nuclear contribution   :      2.07547      -2.82142       1.00159
                        -----------------------------------------
Total Dipole Moment    :     -1.65444      -0.73347       0.43137
                        -----------------------------------------
Magnitude (a.u.)       :      1.86044
Magnitude (Debye)      :      4.72887

Rotational constants in cm-1:     0.049579     0.021925     0.020799
Rotational constants in MHz :  1486.342308   657.290689   623.534699

                             ****ORCA TERMINATED NORMALLY****
TOTAL RUN TIME: 0 days 0 hours 2 minutes 37 seconds 628 msec
