                         Program Version 5.0.3 -  RELEASE  -
|  1> ! PBEh-3c def2/J TightSCF DefGrid3
|  2>
|  3> %maxcore 60000
|  4>
|  5> %pal
|  6> nprocs 4
|  7> end
|  8>
|  9> *xyzfile 0 1 ts4.xyz
| 10>
| 11>                          ****END OF INPUT****

CARTESIAN COORDINATES (ANGSTROEM)
---------------------------------
  C      0.000000    0.000000    0.523306
  H      0.000000    0.000000    1.609625
  N      0.000000    1.054818   -0.264887
  H     -0.314690    1.964618    0.041770
  H      0.000000    0.000000   -1.124591
  N      0.000000   -1.054818   -0.264887
  H      0.314690   -1.964618    0.041770

 Total Charge           Charge          ....    0
 Multiplicity           Mult            ....    1
 Number of Electrons    NEL             ....   24
 Basis Dimension        Dim             ....   53

ORBITAL ENERGIES
----------------

  NO   OCC          E(Eh)            E(eV)
   0   2.0000     -14.611520      -397.5997
   1   2.0000     -14.611518      -397.5996
   2   2.0000     -10.516791      -286.1764
   3   2.0000      -1.058124       -28.7930
   4   2.0000      -0.901136       -24.5211
   5   2.0000      -0.664214       -18.0742
   6   2.0000      -0.643543       -17.5117
   7   2.0000      -0.516061       -14.0427
   8   2.0000      -0.425846       -11.5879
   9   2.0000      -0.410381       -11.1670
  10   2.0000      -0.335440        -9.1278
  11   2.0000      -0.264963        -7.2100
  12   0.0000       0.056547         1.5387
  13   0.0000       0.122017         3.3202
  14   0.0000       0.172600         4.6967
  15   0.0000       0.193286         5.2596
  16   0.0000       0.218447         5.9443

MULLIKEN ATOMIC CHARGES
-----------------------
   0 C :    0.241040
   1 H :    0.217551
   2 N :   -0.752607
   3 H :    0.327469
   4 H :    0.391686
   5 N :   -0.752607
   6 H :    0.327469
Sum of atomic charges:    0.0000000

LOEWDIN ATOMIC CHARGES
----------------------
   0 C :    0.023610
   1 H :    0.112270
   2 N :   -0.473336
   3 H :    0.230343
   4 H :    0.350105
   5 N :   -0.473336
   6 H :    0.230343

  Mayer bond orders larger than 0.100000
B(  0-C ,  1-H ) :   0.8893 B(  0-C ,  2-N ) :   1.4617 B(  0-C ,  5-N ) :   1.4617
B(  2-N ,  3-H ) :   0.8422 B(  2-N ,  4-H ) :   0.4120 B(  2-N ,  5-N ) :   0.1698
B(  4-H ,  5-N ) :   0.4120 B(  5-N ,  6-H ) :   0.8422

Dispersion correction           -0.001868443
FINAL SINGLE POINT ENERGY      -149.590770150134

DIPOLE MOMENT
-------------
                                X             Y             Z
Electronic contribution:     -0.00000       0.00000       0.19107
Nuclear contribution   :      0.00000       0.00000       0.57852
                        -----------------------------------------
Total Dipole Moment    :     -0.00000       0.00000       0.76959
                        -----------------------------------------
Magnitude (a.u.)       :      0.76959
Magnitude (Debye)      :      1.95614

Rotational constants in cm-1:     1.813197     0.430587     0.350264
Rotational constants in MHz : 54358.268686 12908.676061 10500.655422

                             ****ORCA TERMINATED NORMALLY****
TOTAL RUN TIME: 0 days 0 hours 0 minutes 54 seconds 983 msec
