                         Program Version 5.0.3 -  RELEASE  -
|  1> ! PBEh-3c def2/J TightSCF DefGrid3
|  2>
|  3> %maxcore 60000
|  4>
|  5> %pal
|  6> nprocs 4
|  7> end
|  8>
|  9> *xyzfile -1 1 21.xyz
| 10>
| 11>                          ****END OF INPUT****

CARTESIAN COORDINATES (ANGSTROEM)
---------------------------------
  O      1.370886   -0.639512    0.009559
  O      0.926847    1.606759   -0.181823
  C      0.621936    0.362899   -0.061809
  H     -0.487818    0.181464   -0.017419
  F      3.222183    2.482674   -0.316454
  H      2.318630    2.049610   -0.255573

 Total Charge           Charge          ....   -1
 Multiplicity           Mult            ....    1
 Number of Electrons    NEL             ....   34
 Basis Dimension        Dim             ....   64

ORBITAL ENERGIES
----------------

  NO   OCC          E(Eh)            E(eV)
   0   2.0000     -24.796489      -674.7468
   1   2.0000     -19.257469      -524.0224
   2   2.0000     -19.245410      -523.6942
   3   2.0000     -10.346711      -281.5483
   4   2.0000      -1.021570       -27.7983
   5   2.0000      -0.934482       -25.4286
   6   2.0000      -0.850029       -23.1305
   7   2.0000      -0.446526       -12.1506
   8   2.0000      -0.348208        -9.4752
   9   2.0000      -0.311948        -8.4885
  10   2.0000      -0.265041        -7.2121
  11   2.0000      -0.255041        -6.9400
  12   2.0000      -0.207873        -5.6565
  13   2.0000      -0.207134        -5.6364
  14   2.0000      -0.120806        -3.2873
  15   2.0000      -0.114590        -3.1182
  16   2.0000      -0.102097        -2.7782
  17   0.0000       0.276382         7.5207
  18   0.0000       0.382347        10.4042
  19   0.0000       0.472818        12.8660
  20   0.0000       0.525989        14.3129
  21   0.0000       0.588025        16.0010

MULLIKEN ATOMIC CHARGES
-----------------------
   0 O :   -0.538694
   1 O :   -0.626835
   2 C :    0.280016
   3 H :    0.027379
   4 F :   -0.645735
   5 H :    0.503869
Sum of atomic charges:   -1.0000000

LOEWDIN ATOMIC CHARGES
----------------------
   0 O :   -0.401733
   1 O :   -0.435796
   2 C :    0.014361
   3 H :    0.002940
   4 F :   -0.529998
   5 H :    0.350225

  Mayer bond orders larger than 0.100000
B(  0-O ,  1-O ) :   0.1373 B(  0-O ,  2-C ) :   1.8547 B(  1-O ,  2-C ) :   1.5551
B(  1-O ,  5-H ) :   0.2304 B(  2-C ,  3-H ) :   0.8754 B(  4-F ,  5-H ) :   0.5275

Dispersion correction           -0.001315132
FINAL SINGLE POINT ENERGY      -289.073670649110

DIPOLE MOMENT
-------------
                                X             Y             Z
Electronic contribution:      2.24018       1.29924      -0.17224
Nuclear contribution   :     -2.84992      -1.23588       0.18194
                        -----------------------------------------
Total Dipole Moment    :     -0.60974       0.06336       0.00970
                        -----------------------------------------
Magnitude (a.u.)       :      0.61310
Magnitude (Debye)      :      1.55838

Rotational constants in cm-1:     0.568753     0.118049     0.097759
Rotational constants in MHz : 17050.791184  3539.024920  2930.729343

                             ****ORCA TERMINATED NORMALLY****
TOTAL RUN TIME: 0 days 0 hours 0 minutes 33 seconds 200 msec
