                         Program Version 5.0.3 -  RELEASE  -
|  1> ! PBEh-3c def2/J TightSCF DefGrid3
|  2>
|  3> %maxcore 60000
|  4>
|  5> %pal
|  6> nprocs 4
|  7> end
|  8>
|  9> *xyzfile -1 1 OHmH2O6.xyz
| 10>
| 11>                          ****END OF INPUT****

CARTESIAN COORDINATES (ANGSTROEM)
---------------------------------
  O      0.230997   -1.750160   -1.613732
  H      0.354770   -1.426865   -2.509520
  H     -0.486360   -1.151187   -1.224768
  O     -0.818728   -1.809626    1.525733
  H     -0.324774   -2.462329    1.021286
  H     -1.169489   -1.190873    0.817622
  O     -0.935631    2.063122    1.055917
  H     -1.282617    1.254229    0.597357
  H     -0.440295    2.478749    0.337299
  O      1.034639    0.306236    2.188866
  H      0.472362   -0.488129    2.122018
  H      0.423287    1.022688    1.928364
  O      0.265654    1.737437   -1.682382
  H      1.071558    1.317186   -1.335804
  H     -0.437302    1.116799   -1.396060
  O      2.270374   -0.020326   -0.400179
  H      1.957444    0.107063    0.517322
  H      1.691980   -0.718575   -0.753980
  O     -1.485429   -0.144592   -0.447820
  H     -2.392441   -0.240848   -0.747539

 Total Charge           Charge          ....   -1
 Multiplicity           Mult            ....    1
 Number of Electrons    NEL             ....   70
 Basis Dimension        Dim             ....  131

ORBITAL ENERGIES
----------------

  NO   OCC          E(Eh)            E(eV)
   0   2.0000     -19.325752      -525.8804
   1   2.0000     -19.318986      -525.6963
   2   2.0000     -19.311093      -525.4815
   3   2.0000     -19.308850      -525.4205
   4   2.0000     -19.307914      -525.3951
   5   2.0000     -19.300858      -525.2030
   6   2.0000     -19.276008      -524.5269
   7   2.0000      -0.950863       -25.8743
   8   2.0000      -0.942954       -25.6591
   9   2.0000      -0.937707       -25.5163
  10   2.0000      -0.931104       -25.3366
  11   2.0000      -0.925870       -25.1942
  12   2.0000      -0.917267       -24.9601
  13   2.0000      -0.855144       -23.2696
  14   2.0000      -0.432325       -11.7642
  15   2.0000      -0.421083       -11.4583
  16   2.0000      -0.412316       -11.2197
  17   2.0000      -0.409777       -11.1506
  18   2.0000      -0.406650       -11.0655
  19   2.0000      -0.399906       -10.8820
  20   2.0000      -0.323367        -8.7993
  21   2.0000      -0.305398        -8.3103
  22   2.0000      -0.294523        -8.0144
  23   2.0000      -0.287417        -7.8210
  24   2.0000      -0.282583        -7.6895
  25   2.0000      -0.273617        -7.4455
  26   2.0000      -0.262692        -7.1482
  27   2.0000      -0.212000        -5.7688
  28   2.0000      -0.205137        -5.5821
  29   2.0000      -0.199409        -5.4262
  30   2.0000      -0.194741        -5.2992
  31   2.0000      -0.191721        -5.2170
  32   2.0000      -0.188245        -5.1224
  33   2.0000      -0.161981        -4.4077
  34   2.0000      -0.160496        -4.3673
  35   0.0000       0.242876         6.6090
  36   0.0000       0.301372         8.2008
  37   0.0000       0.311473         8.4756
  38   0.0000       0.323193         8.7945
  39   0.0000       0.363622         9.8947

MULLIKEN ATOMIC CHARGES
-----------------------
   0 O :   -0.898147
   1 H :    0.390572
   2 H :    0.434009
   3 O :   -0.893981
   4 H :    0.398743
   5 H :    0.437357
   6 O :   -0.901182
   7 H :    0.431521
   8 H :    0.407326
   9 O :   -0.910336
  10 H :    0.424008
  11 H :    0.426432
  12 O :   -0.926095
  13 H :    0.411819
  14 H :    0.410792
  15 O :   -0.913581
  16 H :    0.425777
  17 H :    0.414145
  18 O :   -0.927729
  19 H :    0.358551
Sum of atomic charges:   -1.0000000

LOEWDIN ATOMIC CHARGES
----------------------
   0 O :   -0.661219
   1 H :    0.285737
   2 H :    0.293381
   3 O :   -0.648654
   4 H :    0.290264
   5 H :    0.294306
   6 O :   -0.646091
   7 H :    0.290754
   8 H :    0.289863
   9 O :   -0.643470
  10 H :    0.290674
  11 H :    0.292296
  12 O :   -0.668599
  13 H :    0.286179
  14 H :    0.281599
  15 O :   -0.650563
  16 H :    0.291497
  17 H :    0.285644
  18 O :   -0.804511
  19 H :    0.250912

  Mayer bond orders larger than 0.100000
B(  0-O ,  1-H ) :   0.8240 B(  0-O ,  2-H ) :   0.6043 B(  0-O , 17-H ) :   0.1185
B(  2-H , 18-O ) :   0.2270 B(  3-O ,  4-H ) :   0.8171 B(  3-O ,  5-H ) :   0.6266
B(  3-O , 10-H ) :   0.1242 B(  5-H , 18-O ) :   0.2099 B(  6-O ,  7-H ) :   0.6640
B(  6-O ,  8-H ) :   0.7758 B(  6-O , 11-H ) :   0.1333 B(  7-H , 18-O ) :   0.1750
B(  9-O , 10-H ) :   0.7206 B(  9-O , 11-H ) :   0.7121 B(  9-O , 16-H ) :   0.1374
B( 12-O , 13-H ) :   0.7411 B( 12-O , 14-H ) :   0.7089 B( 13-H , 15-O ) :   0.1155
B( 14-H , 18-O ) :   0.1401 B( 15-O , 16-H ) :   0.7101 B( 15-O , 17-H ) :   0.7309
B( 18-O , 19-H ) :   0.8332

Dispersion correction           -0.007840719
FINAL SINGLE POINT ENERGY      -533.361130414161

DIPOLE MOMENT
-------------
                                X             Y             Z
Electronic contribution:      0.65672       0.15582       0.58325
Nuclear contribution   :     -1.34701      -0.91600      -1.50170
                        -----------------------------------------
Total Dipole Moment    :     -0.69029      -0.76018      -0.91845
                        -----------------------------------------
Magnitude (a.u.)       :      1.37765
Magnitude (Debye)      :      3.50170

Rotational constants in cm-1:     0.040369     0.039520     0.034100
Rotational constants in MHz :  1210.240074  1184.767516  1022.286561

                             ****ORCA TERMINATED NORMALLY****
TOTAL RUN TIME: 0 days 0 hours 1 minutes 43 seconds 655 msec
