                         Program Version 5.0.3 -  RELEASE  -
|  1> ! PBEh-3c def2/J TightSCF DefGrid3
|  2>
|  3> %maxcore 60000
|  4>
|  5> %pal
|  6> nprocs 4
|  7> end
|  8>
|  9> *xyzfile 0 2 P24.xyz
| 10>
| 11>                          ****END OF INPUT****

CARTESIAN COORDINATES (ANGSTROEM)
---------------------------------
  C     -1.249623   -0.033588    0.000000
  N      0.036076    0.456818    0.000000
  H      0.178318    1.459404    0.000000
  C      1.192711   -0.282432    0.000000
  H     -2.067541    0.664637    0.000000
  H     -1.397757   -1.100675    0.000000
  O      2.305377    0.204424    0.000000
  H      1.002438   -1.368588    0.000000

 Total Charge           Charge          ....    0
 Multiplicity           Mult            ....    2
 Number of Electrons    NEL             ....   31
 Basis Dimension        Dim             ....   68

ORBITAL ENERGIES
----------------
                 SPIN UP ORBITALS
  NO   OCC          E(Eh)            E(eV)
   0   1.0000     -19.476957      -529.9949
   1   1.0000     -14.697290      -399.9336
   2   1.0000     -10.553241      -287.1683
   3   1.0000     -10.486108      -285.3415
   4   1.0000      -1.159682       -31.5566
   5   1.0000      -1.054885       -28.7049
   6   1.0000      -0.793842       -21.6015
   7   1.0000      -0.715019       -19.4567
   8   1.0000      -0.584649       -15.9091
   9   1.0000      -0.570403       -15.5215
  10   1.0000      -0.499185       -13.5835
  11   1.0000      -0.489746       -13.3267
  12   1.0000      -0.486890       -13.2489
  13   1.0000      -0.399452       -10.8696
  14   1.0000      -0.328452        -8.9376
  15   1.0000      -0.222895        -6.0653
  16   0.0000       0.049960         1.3595
  17   0.0000       0.128422         3.4946
  18   0.0000       0.152852         4.1593
  19   0.0000       0.195666         5.3244
  20   0.0000       0.214708         5.8425

                 SPIN DOWN ORBITALS
  NO   OCC          E(Eh)            E(eV)
   0   1.0000     -19.472917      -529.8850
   1   1.0000     -14.695545      -399.8861
   2   1.0000     -10.553212      -287.1675
   3   1.0000     -10.471794      -284.9520
   4   1.0000      -1.152286       -31.3553
   5   1.0000      -1.044116       -28.4118
   6   1.0000      -0.764490       -20.8028
   7   1.0000      -0.708844       -19.2886
   8   1.0000      -0.574485       -15.6325
   9   1.0000      -0.565601       -15.3908
  10   1.0000      -0.485133       -13.2011
  11   1.0000      -0.479241       -13.0408
  12   1.0000      -0.474251       -12.9050
  13   1.0000      -0.354896        -9.6572
  14   1.0000      -0.324335        -8.8256
  15   0.0000      -0.018136        -0.4935
  16   0.0000       0.078162         2.1269
  17   0.0000       0.130708         3.5567
  18   0.0000       0.163477         4.4484
  19   0.0000       0.204119         5.5544

MULLIKEN ATOMIC CHARGES AND SPIN POPULATIONS
--------------------------------------------
   0 C :   -0.353525    0.951306
   1 N :   -0.536897    0.036528
   2 H :    0.378845   -0.004487
   3 C :    0.271881    0.002359
   4 H :    0.237145   -0.056938
   5 H :    0.231435   -0.054463
   6 O :   -0.385211    0.128328
   7 H :    0.156327   -0.002634
Sum of atomic charges         :   -0.0000000

LOEWDIN ATOMIC CHARGES AND SPIN POPULATIONS
-------------------------------------------
   0 C :   -0.255351    0.836982
   1 N :   -0.188284    0.082600
   2 H :    0.268918   -0.002558
   3 C :    0.060238    0.017513
   4 H :    0.136985   -0.027338
   5 H :    0.135318   -0.026812
   6 O :   -0.244856    0.121067
   7 H :    0.087032   -0.001453

  Mayer bond orders larger than 0.100000
B(  0-C ,  1-N ) :   1.1504 B(  0-C ,  4-H ) :   0.9193 B(  0-C ,  5-H ) :   0.9174
B(  1-N ,  2-H ) :   0.8092 B(  1-N ,  3-C ) :   1.1247 B(  3-C ,  6-O ) :   2.0175
B(  3-C ,  7-H ) :   0.8751

Dispersion correction           -0.002493833
FINAL SINGLE POINT ENERGY      -208.089747613141

DIPOLE MOMENT
-------------
                                X             Y             Z
Electronic contribution:      3.05280       0.67590       0.00000
Nuclear contribution   :     -4.34465      -0.67741       0.00000
                        -----------------------------------------
Total Dipole Moment    :     -1.29185      -0.00152       0.00000
                        -----------------------------------------
Magnitude (a.u.)       :      1.29185
Magnitude (Debye)      :      3.28363

Rotational constants in cm-1:     1.730985     0.156336     0.143386
Rotational constants in MHz : 51893.620706  4686.825738  4298.593815

                             ****ORCA TERMINATED NORMALLY****
TOTAL RUN TIME: 0 days 0 hours 2 minutes 43 seconds 373 msec
