                         Program Version 5.0.3 -  RELEASE  -
|  1> ! PBEh-3c def2/J TightSCF DefGrid3
|  2>
|  3> %maxcore 60000
|  4>
|  5> %pal
|  6> nprocs 4
|  7> end
|  8>
|  9> *xyzfile 1 1 arg2.xyz
| 10>
| 11>                          ****END OF INPUT****

CARTESIAN COORDINATES (ANGSTROEM)
---------------------------------
  N      2.987246    0.049415    1.448554
  C      1.736909   -0.025542    0.710783
  C      1.840947   -1.210534   -0.256336
  O      3.037517   -1.670571   -0.438979
  H      3.623027   -1.159457    0.169910
  O      0.877892   -1.686625   -0.822029
  H      2.942553   -0.411189    2.347287
  H      0.878920   -0.218946    1.367999
  C      1.507629    1.298733   -0.038464
  H      2.429860    1.546320   -0.574222
  H      1.383754    2.071764    0.727397
  C      0.355789    1.416728   -1.037364
  H      0.523301    0.790664   -1.917353
  H      0.381362    2.443301   -1.409602
  C     -1.054997    1.177012   -0.505087
  H     -1.180047    1.674615    0.464418
  H     -1.762594    1.633336   -1.205386
  N     -2.615074   -2.105932   -0.066925
  H     -3.494927   -2.560115    0.103817
  H     -1.845126   -2.695873   -0.339393
  H     -0.534444   -0.883442   -0.599192
  N     -1.328837   -0.244914   -0.392616
  C     -2.494477   -0.776902   -0.097672
  N     -3.554091   -0.017993    0.182998
  H     -4.451070   -0.416333    0.399637
  H     -3.497870    0.985734    0.180794
  H      3.306849    0.996745    1.597025

 Total Charge           Charge          ....    1
 Multiplicity           Mult            ....    1
 Number of Electrons    NEL             ....   94
 Basis Dimension        Dim             ....  210

ORBITAL ENERGIES
----------------

  NO   OCC          E(Eh)            E(eV)
   0   2.0000     -19.654899      -534.8370
   1   2.0000     -19.614603      -533.7405
   2   2.0000     -14.834045      -403.6549
   3   2.0000     -14.826291      -403.4439
   4   2.0000     -14.815930      -403.1620
   5   2.0000     -14.767424      -401.8420
   6   2.0000     -10.752121      -292.5801
   7   2.0000     -10.705751      -291.3183
   8   2.0000     -10.629561      -289.2451
   9   2.0000     -10.624702      -289.1128
  10   2.0000     -10.585958      -288.0586
  11   2.0000     -10.582838      -287.9737
  12   2.0000      -1.352160       -36.7941
  13   2.0000      -1.290126       -35.1061
  14   2.0000      -1.259669       -34.2773
  15   2.0000      -1.170022       -31.8379
  16   2.0000      -1.161071       -31.5944
  17   2.0000      -1.138868       -30.9902
  18   2.0000      -1.029224       -28.0066
  19   2.0000      -0.960560       -26.1382
  20   2.0000      -0.901654       -24.5352
  21   2.0000      -0.874138       -23.7865
  22   2.0000      -0.834017       -22.6948
  23   2.0000      -0.820413       -22.3246
  24   2.0000      -0.800534       -21.7836
  25   2.0000      -0.786837       -21.4109
  26   2.0000      -0.728158       -19.8142
  27   2.0000      -0.724143       -19.7049
  28   2.0000      -0.720235       -19.5986
  29   2.0000      -0.707479       -19.2515
  30   2.0000      -0.690700       -18.7949
  31   2.0000      -0.685681       -18.6583
  32   2.0000      -0.670186       -18.2367
  33   2.0000      -0.649413       -17.6714
  34   2.0000      -0.636352       -17.3160
  35   2.0000      -0.628263       -17.0959
  36   2.0000      -0.609813       -16.5939
  37   2.0000      -0.598898       -16.2969
  38   2.0000      -0.558608       -15.2005
  39   2.0000      -0.544417       -14.8143
  40   2.0000      -0.536175       -14.5901
  41   2.0000      -0.529718       -14.4144
  42   2.0000      -0.498685       -13.5699
  43   2.0000      -0.496350       -13.5064
  44   2.0000      -0.481024       -13.0893
  45   2.0000      -0.464735       -12.6461
  46   2.0000      -0.440297       -11.9811
  47   0.0000      -0.089073        -2.4238
  48   0.0000      -0.083662        -2.2766
  49   0.0000      -0.043178        -1.1749
  50   0.0000      -0.011550        -0.3143
  51   0.0000      -0.001190        -0.0324

MULLIKEN ATOMIC CHARGES
-----------------------
   0 N :   -0.812762
   1 C :   -0.238321
   2 C :    0.601211
   3 O :   -0.514444
   4 H :    0.476581
   5 O :   -0.451306
   6 H :    0.367504
   7 H :    0.254206
   8 C :   -0.463564
   9 H :    0.266026
  10 H :    0.250633
  11 C :   -0.494762
  12 H :    0.271573
  13 H :    0.277569
  14 C :   -0.311094
  15 H :    0.242879
  16 H :    0.258839
  17 N :   -0.818733
  18 H :    0.401699
  19 H :    0.421391
  20 H :    0.453949
  21 N :   -0.656257
  22 C :    0.831944
  23 N :   -0.812902
  24 H :    0.405497
  25 H :    0.420906
  26 H :    0.371737
Sum of atomic charges:    1.0000000

LOEWDIN ATOMIC CHARGES
----------------------
   0 N :   -0.450064
   1 C :   -0.131172
   2 C :    0.133022
   3 O :   -0.225165
   4 H :    0.343660
   5 O :   -0.258948
   6 H :    0.251680
   7 H :    0.134937
   8 C :   -0.237567
   9 H :    0.149507
  10 H :    0.139860
  11 C :   -0.246767
  12 H :    0.149990
  13 H :    0.158111
  14 C :   -0.151105
  15 H :    0.128273
  16 H :    0.137657
  17 N :   -0.330869
  18 H :    0.279432
  19 H :    0.290269
  20 H :    0.288793
  21 N :   -0.222249
  22 C :    0.182813
  23 N :   -0.329393
  24 H :    0.281414
  25 H :    0.283336
  26 H :    0.250544

  Mayer bond orders larger than 0.100000
B(  0-N ,  1-C ) :   0.9797 B(  0-N ,  4-H ) :   0.1164 B(  0-N ,  6-H ) :   0.8376
B(  0-N , 26-H ) :   0.8321 B(  1-C ,  2-C ) :   0.9073 B(  1-C ,  7-H ) :   0.8843
B(  1-C ,  8-C ) :   0.9608 B(  2-C ,  3-O ) :   1.3104 B(  2-C ,  5-O ) :   1.8141
B(  3-O ,  4-H ) :   0.6597 B(  5-O , 20-H ) :   0.1935 B(  8-C ,  9-H ) :   0.8959
B(  8-C , 10-H ) :   0.9017 B(  8-C , 11-C ) :   0.9932 B( 11-C , 12-H ) :   0.8911
B( 11-C , 13-H ) :   0.8979 B( 11-C , 14-C ) :   0.9729 B( 14-C , 15-H ) :   0.8947
B( 14-C , 16-H ) :   0.8987 B( 14-C , 21-N ) :   0.9130 B( 17-N , 18-H ) :   0.8123
B( 17-N , 19-H ) :   0.7949 B( 17-N , 22-C ) :   1.2059 B( 20-H , 21-N ) :   0.6038
B( 21-N , 22-C ) :   1.3393 B( 22-C , 23-N ) :   1.2137 B( 23-N , 24-H ) :   0.8090
B( 23-N , 25-H ) :   0.7933

Dispersion correction           -0.015981937
FINAL SINGLE POINT ENERGY      -605.664315312811

DIPOLE MOMENT
-------------
                                X             Y             Z
Electronic contribution:      0.12707      -7.37720      -1.20589
Nuclear contribution   :     -2.86610       8.32039       2.60129
                        -----------------------------------------
Total Dipole Moment    :     -2.73903       0.94319       1.39540
                        -----------------------------------------
Magnitude (a.u.)       :      3.21544
Magnitude (Debye)      :      8.17300

Rotational constants in cm-1:     0.049866     0.017653     0.014933
Rotational constants in MHz :  1494.956342   529.215516   447.694456

                             ****ORCA TERMINATED NORMALLY****
TOTAL RUN TIME: 0 days 0 hours 2 minutes 47 seconds 76 msec
