                         Program Version 5.0.3 -  RELEASE  -
|  1> ! PBEh-3c def2/J TightSCF DefGrid3
|  2>
|  3> %maxcore 60000
|  4>
|  5> %pal
|  6> nprocs 4
|  7> end
|  8>
|  9> *xyzfile 1 1 152A.xyz
| 10>
| 11>                          ****END OF INPUT****

CARTESIAN COORDINATES (ANGSTROEM)
---------------------------------
  C      1.291370    0.239580   -0.372580
  N      0.064410   -0.211030    0.110860
  C      0.127910   -0.334170    1.447690
  N      1.374490    0.017810    1.815270
  C      2.121750    0.389250    0.702220
  C     -1.142520   -0.486230   -0.696570
  H      1.692190    0.017810    2.781600
  H     -0.695970   -0.655580    2.117270
  H      3.144630    0.728600    0.770210
  H      1.458320    0.422260   -1.424410
  H     -1.065640   -1.487040   -1.133860
  H     -2.013110   -0.399770   -0.041220
  H     -1.211920    0.267940   -1.486220

 Total Charge           Charge          ....    1
 Multiplicity           Mult            ....    1
 Number of Electrons    NEL             ....   44
 Basis Dimension        Dim             ....  104

ORBITAL ENERGIES
----------------

  NO   OCC          E(Eh)            E(eV)
   0   2.0000     -14.924936      -406.1281
   1   2.0000     -14.918291      -405.9473
   2   2.0000     -10.742326      -292.3135
   3   2.0000     -10.685640      -290.7710
   4   2.0000     -10.681407      -290.6559
   5   2.0000     -10.660093      -290.0759
   6   2.0000      -1.360853       -37.0307
   7   2.0000      -1.226874       -33.3850
   8   2.0000      -1.065784       -29.0015
   9   2.0000      -1.010110       -27.4865
  10   2.0000      -0.910995       -24.7894
  11   2.0000      -0.874998       -23.8099
  12   2.0000      -0.843815       -22.9614
  13   2.0000      -0.739224       -20.1153
  14   2.0000      -0.738966       -20.1083
  15   2.0000      -0.714090       -19.4314
  16   2.0000      -0.706909       -19.2360
  17   2.0000      -0.687550       -18.7092
  18   2.0000      -0.662294       -18.0219
  19   2.0000      -0.639543       -17.4029
  20   2.0000      -0.551275       -15.0010
  21   2.0000      -0.489873       -13.3301
  22   0.0000      -0.174251        -4.7416
  23   0.0000      -0.132106        -3.5948
  24   0.0000      -0.064090        -1.7440
  25   0.0000      -0.032998        -0.8979
  26   0.0000      -0.022674        -0.6170

MULLIKEN ATOMIC CHARGES
-----------------------
   0 C :   -0.044343
   1 N :   -0.410791
   2 C :    0.267267
   3 N :   -0.578017
   4 C :   -0.028138
   5 C :   -0.507765
   6 H :    0.435230
   7 H :    0.344822
   8 H :    0.330978
   9 H :    0.327737
  10 H :    0.297444
  11 H :    0.275862
  12 H :    0.289713
Sum of atomic charges:    1.0000000

LOEWDIN ATOMIC CHARGES
----------------------
   0 C :   -0.060146
   1 N :    0.010037
   2 C :    0.053327
   3 N :   -0.080056
   4 C :   -0.053960
   5 C :   -0.227516
   6 H :    0.306747
   7 H :    0.190809
   8 H :    0.184903
   9 H :    0.182156
  10 H :    0.166184
  11 H :    0.161526
  12 H :    0.165988

  Mayer bond orders larger than 0.100000
B(  0-C ,  1-N ) :   1.1375 B(  0-C ,  4-C ) :   1.6426 B(  0-C ,  9-H ) :   0.8668
B(  1-N ,  2-C ) :   1.3161 B(  1-N ,  5-C ) :   0.8611 B(  2-C ,  3-N ) :   1.2760
B(  2-C ,  7-H ) :   0.8581 B(  3-N ,  4-C ) :   1.1139 B(  3-N ,  6-H ) :   0.7803
B(  4-C ,  8-H ) :   0.8682 B(  5-C , 10-H ) :   0.8843 B(  5-C , 11-H ) :   0.9025
B(  5-C , 12-H ) :   0.8941

Dispersion correction           -0.005761140
FINAL SINGLE POINT ENERGY      -265.321066390441

DIPOLE MOMENT
-------------
                                X             Y             Z
Electronic contribution:      2.61011       0.48349       2.36909
Nuclear contribution   :     -2.74417      -0.55394      -1.79299
                        -----------------------------------------
Total Dipole Moment    :     -0.13405      -0.07045       0.57611
                        -----------------------------------------
Magnitude (a.u.)       :      0.59568
Magnitude (Debye)      :      1.51410

Rotational constants in cm-1:     0.288800     0.116536     0.084403
Rotational constants in MHz :  8658.001590  3493.670427  2530.325424

                             ****ORCA TERMINATED NORMALLY****
TOTAL RUN TIME: 0 days 0 hours 1 minutes 17 seconds 296 msec
