                         Program Version 5.0.3 -  RELEASE  -
|  1> ! PBEh-3c def2/J TightSCF DefGrid3
|  2>
|  3> %maxcore 60000
|  4>
|  5> %pal
|  6> nprocs 4
|  7> end
|  8>
|  9> *xyzfile 0 1 B_G.xyz
| 10>
| 11>                          ****END OF INPUT****

CARTESIAN COORDINATES (ANGSTROEM)
---------------------------------
  C      0.590548    1.437715   -0.512024
  H     -0.344397    1.997358   -0.555829
  H      0.703646    0.905509   -1.454723
  H      1.405786    2.155942   -0.440925
  C      0.590548    0.483546    0.676489
  H      1.520768   -0.089762    0.686161
  H      0.575510    1.063339    1.600852
  C     -0.590548   -0.483546    0.676489
  H     -1.520768    0.089762    0.686161
  H     -0.575510   -1.063339    1.600852
  C     -0.590548   -1.437715   -0.512024
  H      0.344397   -1.997358   -0.555829
  H     -1.405786   -2.155942   -0.440925
  H     -0.703646   -0.905509   -1.454723

 Total Charge           Charge          ....    0
 Multiplicity           Mult            ....    1
 Number of Electrons    NEL             ....   34
 Basis Dimension        Dim             ....   80

ORBITAL ENERGIES
----------------

  NO   OCC          E(Eh)            E(eV)
   0   2.0000     -10.427026      -283.7338
   1   2.0000     -10.426801      -283.7277
   2   2.0000     -10.418369      -283.4982
   3   2.0000     -10.418355      -283.4979
   4   2.0000      -0.884912       -24.0797
   5   2.0000      -0.802369       -21.8336
   6   2.0000      -0.716485       -19.4965
   7   2.0000      -0.635157       -17.2835
   8   2.0000      -0.516320       -14.0498
   9   2.0000      -0.513853       -13.9827
  10   2.0000      -0.471117       -12.8198
  11   2.0000      -0.436092       -11.8667
  12   2.0000      -0.433233       -11.7889
  13   2.0000      -0.408871       -11.1259
  14   2.0000      -0.370907       -10.0929
  15   2.0000      -0.368801       -10.0356
  16   2.0000      -0.368719       -10.0334
  17   0.0000       0.139009         3.7826
  18   0.0000       0.180304         4.9063
  19   0.0000       0.188289         5.1236
  20   0.0000       0.203407         5.5350
  21   0.0000       0.203748         5.5443

MULLIKEN ATOMIC CHARGES
-----------------------
   0 C :   -0.645478
   1 H :    0.207846
   2 H :    0.213489
   3 H :    0.220359
   4 C :   -0.413617
   5 H :    0.203864
   6 H :    0.213538
   7 C :   -0.413617
   8 H :    0.203864
   9 H :    0.213538
  10 C :   -0.645478
  11 H :    0.207846
  12 H :    0.220359
  13 H :    0.213489
Sum of atomic charges:   -0.0000000

LOEWDIN ATOMIC CHARGES
----------------------
   0 C :   -0.365316
   1 H :    0.122917
   2 H :    0.123428
   3 H :    0.126782
   4 C :   -0.248079
   5 H :    0.118627
   6 H :    0.121640
   7 C :   -0.248079
   8 H :    0.118627
   9 H :    0.121640
  10 C :   -0.365316
  11 H :    0.122917
  12 H :    0.126782
  13 H :    0.123428

  Mayer bond orders larger than 0.100000
B(  0-C ,  1-H ) :   0.9295 B(  0-C ,  2-H ) :   0.9272 B(  0-C ,  3-H ) :   0.9314
B(  0-C ,  4-C ) :   0.9903 B(  4-C ,  5-H ) :   0.9204 B(  4-C ,  6-H ) :   0.9255
B(  4-C ,  7-C ) :   0.9908 B(  7-C ,  8-H ) :   0.9204 B(  7-C ,  9-H ) :   0.9255
B(  7-C , 10-C ) :   0.9903 B( 10-C , 11-H ) :   0.9295 B( 10-C , 12-H ) :   0.9314
B( 10-C , 13-H ) :   0.9272

Dispersion correction           -0.005297705
FINAL SINGLE POINT ENERGY      -158.105609208102

DIPOLE MOMENT
-------------
                                X             Y             Z
Electronic contribution:     -0.00000      -0.00000       0.92317
Nuclear contribution   :     -0.00000      -0.00000      -0.89277
                        -----------------------------------------
Total Dipole Moment    :     -0.00000      -0.00000       0.03040
                        -----------------------------------------
Magnitude (a.u.)       :      0.03040
Magnitude (Debye)      :      0.07728

Rotational constants in cm-1:     0.440728     0.162187     0.137484
Rotational constants in MHz : 13212.689599  4862.245274  4121.676848

                             ****ORCA TERMINATED NORMALLY****
TOTAL RUN TIME: 0 days 0 hours 0 minutes 40 seconds 113 msec
