                         Program Version 5.0.3 -  RELEASE  -
|  1> ! PBEh-3c def2/J TightSCF DefGrid3
|  2>
|  3> %maxcore 60000
|  4>
|  5> %pal
|  6> nprocs 4
|  7> end
|  8>
|  9> *xyzfile 0 1 E12.xyz
| 10>
| 11>                          ****END OF INPUT****

CARTESIAN COORDINATES (ANGSTROEM)
---------------------------------
  C     -0.594623    0.261916    0.000000
  C      0.791652   -0.318468    0.000000
  O      1.808778    0.328450    0.000000
  H     -0.560413    1.350447    0.000000
  H     -1.141444   -0.096647    0.878040
  H     -1.141444   -0.096647   -0.878040
  H      0.837494   -1.429051    0.000000

 Total Charge           Charge          ....    0
 Multiplicity           Mult            ....    1
 Number of Electrons    NEL             ....   24
 Basis Dimension        Dim             ....   53

ORBITAL ENERGIES
----------------

  NO   OCC          E(Eh)            E(eV)
   0   2.0000     -19.497687      -530.5590
   1   2.0000     -10.539414      -286.7920
   2   2.0000     -10.449097      -284.3344
   3   2.0000      -1.160695       -31.5841
   4   2.0000      -0.844086       -22.9687
   5   2.0000      -0.655144       -17.8274
   6   2.0000      -0.546733       -14.8774
   7   2.0000      -0.505000       -13.7417
   8   2.0000      -0.502282       -13.6678
   9   2.0000      -0.457113       -12.4387
  10   2.0000      -0.418789       -11.3958
  11   2.0000      -0.314029        -8.5452
  12   0.0000       0.012655         0.3444
  13   0.0000       0.159543         4.3414
  14   0.0000       0.180239         4.9045
  15   0.0000       0.189150         5.1470
  16   0.0000       0.199837         5.4378

MULLIKEN ATOMIC CHARGES
-----------------------
   0 C :   -0.742937
   1 C :    0.171517
   2 O :   -0.311635
   3 H :    0.255464
   4 H :    0.240066
   5 H :    0.240066
   6 H :    0.147459
Sum of atomic charges:   -0.0000000

LOEWDIN ATOMIC CHARGES
----------------------
   0 C :   -0.409075
   1 C :    0.058769
   2 O :   -0.180270
   3 H :    0.149856
   4 H :    0.150224
   5 H :    0.150224
   6 H :    0.080270

  Mayer bond orders larger than 0.100000
B(  0-C ,  1-C ) :   0.9299 B(  0-C ,  3-H ) :   0.9123 B(  0-C ,  4-H ) :   0.9069
B(  0-C ,  5-H ) :   0.9069 B(  1-C ,  2-O ) :   2.1416 B(  1-C ,  6-H ) :   0.8692

Dispersion correction           -0.001780140
FINAL SINGLE POINT ENERGY      -153.495700788556

DIPOLE MOMENT
-------------
                                X             Y             Z
Electronic contribution:      3.35273       0.19323       0.00000
Nuclear contribution   :     -4.35941      -0.61811       0.00000
                        -----------------------------------------
Total Dipole Moment    :     -1.00668      -0.42488       0.00000
                        -----------------------------------------
Magnitude (a.u.)       :      1.09267
Magnitude (Debye)      :      2.77734

Rotational constants in cm-1:     1.911739     0.338121     0.303379
Rotational constants in MHz : 57312.488666 10136.618154  9095.073600

                             ****ORCA TERMINATED NORMALLY****
TOTAL RUN TIME: 0 days 0 hours 0 minutes 37 seconds 302 msec
