                         Program Version 5.0.3 -  RELEASE  -
|  1> ! PBEh-3c def2/J TightSCF DefGrid3
|  2>
|  3> %maxcore 60000
|  4>
|  5> %pal
|  6> nprocs 4
|  7> end
|  8>
|  9> *xyzfile 0 1 c4.xyz
| 10>
| 11>                          ****END OF INPUT****

CARTESIAN COORDINATES (ANGSTROEM)
---------------------------------
  C     -0.893958   -0.893958   -0.893958
  C      0.893958    0.893958   -0.893958
  C     -0.893958    0.893958    0.893958
  C      0.893958   -0.893958    0.893958
  C     -1.756281    0.000000    0.000000
  C      0.000000    0.000000   -1.756281
  C      0.000000    1.756281    0.000000
  C      0.000000   -1.756281    0.000000
  C      1.756281    0.000000    0.000000
  C      0.000000    0.000000    1.756281
  H     -2.406936   -0.623881    0.623881
  H      0.623881   -0.623881   -2.406936
  H      0.623881    2.406936    0.623881
  H     -0.623881   -2.406936    0.623881
  H      2.406936   -0.623881   -0.623881
  H      0.623881    0.623881    2.406936
  H     -0.623881   -0.623881    2.406936
  H      0.623881   -2.406936   -0.623881
  H      2.406936    0.623881    0.623881
  H     -2.406936    0.623881   -0.623881
  H     -0.623881    0.623881   -2.406936
  H     -0.623881    2.406936   -0.623881
  C     -1.771950   -1.771950   -1.771950
  C      1.771950    1.771950   -1.771950
  C     -1.771950    1.771950    1.771950
  C      1.771950   -1.771950    1.771950
  H      1.162538    2.412367   -2.412367
  H     -2.412367    2.412367    1.162538
  H     -2.412367   -1.162538   -2.412367
  H      2.412367    1.162538   -2.412367
  H     -1.162538    2.412367    2.412367
  H     -2.412367   -2.412367   -1.162538
  H      2.412367    2.412367   -1.162538
  H     -2.412367    1.162538    2.412367
  H     -1.162538   -2.412367   -2.412367
  H      1.162538   -2.412367    2.412367
  H      2.412367   -2.412367    1.162538
  H      2.412367   -1.162538    2.412367

 Total Charge           Charge          ....    0
 Multiplicity           Mult            ....    1
 Number of Electrons    NEL             ....  108
 Basis Dimension        Dim             ....  258

ORBITAL ENERGIES
----------------

  NO   OCC          E(Eh)            E(eV)
   0   2.0000     -10.439320      -284.0684
   1   2.0000     -10.439320      -284.0684
   2   2.0000     -10.439320      -284.0684
   3   2.0000     -10.439239      -284.0661
   4   2.0000     -10.421489      -283.5831
   5   2.0000     -10.421489      -283.5831
   6   2.0000     -10.421412      -283.5810
   7   2.0000     -10.421412      -283.5810
   8   2.0000     -10.421412      -283.5810
   9   2.0000     -10.421318      -283.5785
  10   2.0000     -10.416621      -283.4507
  11   2.0000     -10.416621      -283.4507
  12   2.0000     -10.416621      -283.4507
  13   2.0000     -10.416604      -283.4502
  14   2.0000      -0.977325       -26.5944
  15   2.0000      -0.884240       -24.0614
  16   2.0000      -0.884240       -24.0614
  17   2.0000      -0.884239       -24.0614
  18   2.0000      -0.766257       -20.8509
  19   2.0000      -0.755322       -20.5533
  20   2.0000      -0.755321       -20.5533
  21   2.0000      -0.755321       -20.5533
  22   2.0000      -0.745629       -20.2896
  23   2.0000      -0.745629       -20.2896
  24   2.0000      -0.620165       -16.8756
  25   2.0000      -0.620165       -16.8755
  26   2.0000      -0.620165       -16.8755
  27   2.0000      -0.572445       -15.5770
  28   2.0000      -0.506728       -13.7888
  29   2.0000      -0.506728       -13.7888
  30   2.0000      -0.506728       -13.7888
  31   2.0000      -0.505662       -13.7598
  32   2.0000      -0.505662       -13.7598
  33   2.0000      -0.505662       -13.7598
  34   2.0000      -0.472226       -12.8499
  35   2.0000      -0.442185       -12.0325
  36   2.0000      -0.442185       -12.0325
  37   2.0000      -0.440351       -11.9825
  38   2.0000      -0.440350       -11.9825
  39   2.0000      -0.440350       -11.9825
  40   2.0000      -0.416912       -11.3447
  41   2.0000      -0.416912       -11.3447
  42   2.0000      -0.416912       -11.3447
  43   2.0000      -0.409942       -11.1551
  44   2.0000      -0.409942       -11.1551
  45   2.0000      -0.409942       -11.1551
  46   2.0000      -0.366242        -9.9659
  47   2.0000      -0.366242        -9.9659
  48   2.0000      -0.352720        -9.5980
  49   2.0000      -0.352720        -9.5980
  50   2.0000      -0.352720        -9.5980
  51   2.0000      -0.319131        -8.6840
  52   2.0000      -0.319130        -8.6840
  53   2.0000      -0.319130        -8.6840
  54   0.0000       0.106528         2.8988
  55   0.0000       0.151564         4.1243
  56   0.0000       0.151564         4.1243
  57   0.0000       0.151564         4.1243
  58   0.0000       0.169827         4.6212

MULLIKEN ATOMIC CHARGES
-----------------------
   0 C :   -0.104907
   1 C :   -0.104907
   2 C :   -0.104908
   3 C :   -0.104908
   4 C :   -0.352927
   5 C :   -0.352927
   6 C :   -0.352927
   7 C :   -0.352926
   8 C :   -0.352927
   9 C :   -0.352926
  10 H :    0.205199
  11 H :    0.205199
  12 H :    0.205199
  13 H :    0.205199
  14 H :    0.205199
  15 H :    0.205199
  16 H :    0.205199
  17 H :    0.205199
  18 H :    0.205199
  19 H :    0.205199
  20 H :    0.205199
  21 H :    0.205199
  22 C :   -0.614021
  23 C :   -0.614020
  24 C :   -0.614020
  25 C :   -0.614021
  26 H :    0.210907
  27 H :    0.210907
  28 H :    0.210907
  29 H :    0.210907
  30 H :    0.210907
  31 H :    0.210907
  32 H :    0.210907
  33 H :    0.210907
  34 H :    0.210907
  35 H :    0.210907
  36 H :    0.210907
  37 H :    0.210907
Sum of atomic charges:    0.0000000

LOEWDIN ATOMIC CHARGES
----------------------
   0 C :   -0.096769
   1 C :   -0.096769
   2 C :   -0.096770
   3 C :   -0.096770
   4 C :   -0.201571
   5 C :   -0.201571
   6 C :   -0.201571
   7 C :   -0.201571
   8 C :   -0.201571
   9 C :   -0.201571
  10 H :    0.120721
  11 H :    0.120721
  12 H :    0.120721
  13 H :    0.120721
  14 H :    0.120721
  15 H :    0.120721
  16 H :    0.120721
  17 H :    0.120721
  18 H :    0.120721
  19 H :    0.120721
  20 H :    0.120721
  21 H :    0.120721
  22 C :   -0.336825
  23 C :   -0.336825
  24 C :   -0.336825
  25 C :   -0.336825
  26 H :    0.124596
  27 H :    0.124596
  28 H :    0.124596
  29 H :    0.124596
  30 H :    0.124596
  31 H :    0.124596
  32 H :    0.124596
  33 H :    0.124596
  34 H :    0.124596
  35 H :    0.124596
  36 H :    0.124596
  37 H :    0.124596

  Mayer bond orders larger than 0.100000
B(  0-C ,  4-C ) :   0.9676 B(  0-C ,  5-C ) :   0.9676 B(  0-C ,  7-C ) :   0.9676
B(  0-C , 22-C ) :   1.0030 B(  1-C ,  5-C ) :   0.9676 B(  1-C ,  6-C ) :   0.9676
B(  1-C ,  8-C ) :   0.9676 B(  1-C , 23-C ) :   1.0030 B(  2-C ,  4-C ) :   0.9676
B(  2-C ,  6-C ) :   0.9676 B(  2-C ,  9-C ) :   0.9676 B(  2-C , 24-C ) :   1.0030
B(  3-C ,  7-C ) :   0.9676 B(  3-C ,  8-C ) :   0.9676 B(  3-C ,  9-C ) :   0.9676
B(  3-C , 25-C ) :   1.0030 B(  4-C , 10-H ) :   0.9214 B(  4-C , 19-H ) :   0.9214
B(  5-C , 11-H ) :   0.9214 B(  5-C , 20-H ) :   0.9214 B(  6-C , 12-H ) :   0.9214
B(  6-C , 21-H ) :   0.9214 B(  7-C , 13-H ) :   0.9214 B(  7-C , 17-H ) :   0.9214
B(  8-C , 14-H ) :   0.9214 B(  8-C , 18-H ) :   0.9214 B(  9-C , 15-H ) :   0.9214
B(  9-C , 16-H ) :   0.9214 B( 22-C , 28-H ) :   0.9288 B( 22-C , 31-H ) :   0.9288
B( 22-C , 34-H ) :   0.9288 B( 23-C , 26-H ) :   0.9288 B( 23-C , 29-H ) :   0.9288
B( 23-C , 32-H ) :   0.9288 B( 24-C , 27-H ) :   0.9288 B( 24-C , 30-H ) :   0.9288
B( 24-C , 33-H ) :   0.9288 B( 25-C , 35-H ) :   0.9288 B( 25-C , 36-H ) :   0.9288
B( 25-C , 37-H ) :   0.9288

Dispersion correction           -0.028387240
FINAL SINGLE POINT ENERGY      -546.824366495754

DIPOLE MOMENT
-------------
                                X             Y             Z
Electronic contribution:      0.00000       0.00000       0.00000
Nuclear contribution   :      0.00000       0.00000      -0.00000
                        -----------------------------------------
Total Dipole Moment    :      0.00000       0.00000       0.00000
                        -----------------------------------------
Magnitude (a.u.)       :      0.00000
Magnitude (Debye)      :      0.00000

Rotational constants in cm-1:     0.024630     0.024630     0.024630
Rotational constants in MHz :   738.393764   738.393764   738.393764

                             ****ORCA TERMINATED NORMALLY****
TOTAL RUN TIME: 0 days 0 hours 4 minutes 5 seconds 951 msec
