                         Program Version 5.0.3 -  RELEASE  -
|  1> ! PBEh-3c def2/J TightSCF DefGrid3
|  2>
|  3> %maxcore 60000
|  4>
|  5> %pal
|  6> nprocs 4
|  7> end
|  8>
|  9> *xyzfile 0 1 366.xyz
| 10>
| 11>                          ****END OF INPUT****

CARTESIAN COORDINATES (ANGSTROEM)
---------------------------------
  O     -2.289838    1.623243    0.372595
  C     -3.419838    1.883243    0.026595
  O     -3.999838    3.083243    0.224595
  H     -3.340838    3.629243    0.678595
  C     -4.363838    0.940243   -0.692405
  H     -4.576838    1.352243   -1.676405
  H     -5.295838    0.908243   -0.132405
  N     -3.816838   -0.380757   -0.806405
  H     -3.059838   -0.525757   -1.468405
  C     -3.732838   -1.125757    0.337595
  O     -4.375838   -0.882757    1.349595
  C     -2.693838   -2.233757    0.260595
  H     -2.728838   -2.745757   -0.699405
  H     -2.865838   -2.936757    1.068595
  N     -1.383838   -1.628757    0.411595
  H     -1.049838   -1.353757    1.327595
  C     -0.790838   -0.982757   -0.613405
  O     -1.192838   -1.026757   -1.779405
  C      0.464162   -0.218757   -0.232405
  N      0.412162    0.170243    1.172595
  H      1.322162    0.513243    1.459595
  H     -0.247838    0.934243    1.280595
  H      0.516162    0.625243   -0.925405
  C      1.678162   -1.124757   -0.481405
  H      1.597162   -1.994757    0.171595
  H      1.634162   -1.467757   -1.516405
  C      2.963162   -0.394757   -0.220405
  C      3.646162   -0.548757    0.988595
  H      3.265162   -1.245757    1.725595
  C      4.809162    0.174243    1.249595
  H      5.328162    0.039243    2.189595
  C      5.305162    1.063243    0.299595
  H      6.209162    1.622243    0.497595
  C      4.633162    1.224243   -0.912405
  H      5.017162    1.907243   -1.657405
  C      3.471162    0.501243   -1.167405
  H      2.954162    0.624243   -2.111405

 Total Charge           Charge          ....    0
 Multiplicity           Mult            ....    1
 Number of Electrons    NEL             ....  148
 Basis Dimension        Dim             ....  334

ORBITAL ENERGIES
----------------

  NO   OCC          E(Eh)            E(eV)
   0   2.0000     -19.558739      -532.2204
   1   2.0000     -19.506393      -530.7959
   2   2.0000     -19.464987      -529.6692
   3   2.0000     -19.462373      -529.5981
   4   2.0000     -14.663745      -399.0208
   5   2.0000     -14.654125      -398.7590
   6   2.0000     -14.621644      -397.8752
   7   2.0000     -10.598335      -288.3954
   8   2.0000     -10.547296      -287.0065
   9   2.0000     -10.545891      -286.9683
  10   2.0000     -10.492666      -285.5200
  11   2.0000     -10.482134      -285.2334
  12   2.0000     -10.480113      -285.1784
  13   2.0000     -10.464336      -284.7491
  14   2.0000     -10.455652      -284.5128
  15   2.0000     -10.455450      -284.5073
  16   2.0000     -10.453893      -284.4649
  17   2.0000     -10.453492      -284.4540
  18   2.0000     -10.453258      -284.4476
  19   2.0000     -10.450232      -284.3653
  20   2.0000      -1.237799       -33.6822
  21   2.0000      -1.153253       -31.3816
  22   2.0000      -1.143716       -31.1221
  23   2.0000      -1.139532       -31.0083
  24   2.0000      -1.034308       -28.1449
  25   2.0000      -1.024839       -27.8873
  26   2.0000      -0.994649       -27.0658
  27   2.0000      -0.961591       -26.1662
  28   2.0000      -0.878303       -23.8998
  29   2.0000      -0.856976       -23.3195
  30   2.0000      -0.842696       -22.9309
  31   2.0000      -0.821814       -22.3627
  32   2.0000      -0.798298       -21.7228
  33   2.0000      -0.728710       -19.8292
  34   2.0000      -0.704556       -19.1720
  35   2.0000      -0.690497       -18.7894
  36   2.0000      -0.662303       -18.0222
  37   2.0000      -0.649918       -17.6852
  38   2.0000      -0.644836       -17.5469
  39   2.0000      -0.605596       -16.4791
  40   2.0000      -0.591876       -16.1058
  41   2.0000      -0.588342       -16.0096
  42   2.0000      -0.581057       -15.8114
  43   2.0000      -0.571911       -15.5625
  44   2.0000      -0.559869       -15.2348
  45   2.0000      -0.543028       -14.7765
  46   2.0000      -0.535833       -14.5808
  47   2.0000      -0.533650       -14.5213
  48   2.0000      -0.529801       -14.4166
  49   2.0000      -0.520340       -14.1592
  50   2.0000      -0.502393       -13.6708
  51   2.0000      -0.489397       -13.3172
  52   2.0000      -0.486652       -13.2425
  53   2.0000      -0.484746       -13.1906
  54   2.0000      -0.475777       -12.9466
  55   2.0000      -0.460614       -12.5340
  56   2.0000      -0.459554       -12.5051
  57   2.0000      -0.452052       -12.3010
  58   2.0000      -0.444566       -12.0972
  59   2.0000      -0.438138       -11.9223
  60   2.0000      -0.432992       -11.7823
  61   2.0000      -0.424215       -11.5435
  62   2.0000      -0.409326       -11.1383
  63   2.0000      -0.398471       -10.8429
  64   2.0000      -0.397764       -10.8237
  65   2.0000      -0.393826       -10.7165
  66   2.0000      -0.359806        -9.7908
  67   2.0000      -0.333654        -9.0792
  68   2.0000      -0.323917        -8.8142
  69   2.0000      -0.312476        -8.5029
  70   2.0000      -0.304343        -8.2816
  71   2.0000      -0.298551        -8.1240
  72   2.0000      -0.293683        -7.9915
  73   2.0000      -0.288618        -7.8537
  74   0.0000       0.007164         0.1949
  75   0.0000       0.011023         0.3000
  76   0.0000       0.031050         0.8449
  77   0.0000       0.041058         1.1172
  78   0.0000       0.065700         1.7878

MULLIKEN ATOMIC CHARGES
-----------------------
   0 O :   -0.414858
   1 C :    0.547782
   2 O :   -0.578270
   3 H :    0.444799
   4 C :   -0.416448
   5 H :    0.276062
   6 H :    0.294277
   7 N :   -0.625742
   8 H :    0.409378
   9 C :    0.523154
  10 O :   -0.420048
  11 C :   -0.421479
  12 H :    0.265037
  13 H :    0.267851
  14 N :   -0.611422
  15 H :    0.397230
  16 C :    0.544941
  17 O :   -0.477783
  18 C :   -0.171975
  19 N :   -0.805544
  20 H :    0.352925
  21 H :    0.360240
  22 H :    0.241719
  23 C :   -0.505954
  24 H :    0.243569
  25 H :    0.263318
  26 C :    0.119719
  27 C :   -0.294412
  28 H :    0.227069
  29 C :   -0.208444
  30 H :    0.222362
  31 C :   -0.234131
  32 H :    0.222095
  33 C :   -0.205542
  34 H :    0.222054
  35 C :   -0.273933
  36 H :    0.220401
Sum of atomic charges:   -0.0000000

LOEWDIN ATOMIC CHARGES
----------------------
   0 O :   -0.241482
   1 C :    0.141428
   2 O :   -0.289491
   3 H :    0.335896
   4 C :   -0.186959
   5 H :    0.155914
   6 H :    0.170164
   7 N :   -0.246689
   8 H :    0.271268
   9 C :    0.103939
  10 O :   -0.266634
  11 C :   -0.168912
  12 H :    0.149682
  13 H :    0.147727
  14 N :   -0.215716
  15 H :    0.273397
  16 C :    0.111845
  17 O :   -0.309436
  18 C :   -0.094286
  19 N :   -0.472479
  20 H :    0.237025
  21 H :    0.240122
  22 H :    0.126645
  23 C :   -0.216182
  24 H :    0.139387
  25 H :    0.149978
  26 C :   -0.054556
  27 C :   -0.146645
  28 H :    0.138290
  29 C :   -0.131805
  30 H :    0.137574
  31 C :   -0.139248
  32 H :    0.136909
  33 C :   -0.129186
  34 H :    0.137467
  35 C :   -0.132887
  36 H :    0.137934

  Mayer bond orders larger than 0.100000
B(  0-O ,  1-C ) :   2.0041 B(  1-C ,  2-O ) :   1.1559 B(  1-C ,  4-C ) :   0.8975
B(  2-O ,  3-H ) :   0.7572 B(  4-C ,  5-H ) :   0.8938 B(  4-C ,  6-H ) :   0.8752
B(  4-C ,  7-N ) :   1.0019 B(  7-N ,  8-H ) :   0.7313 B(  7-N ,  9-C ) :   1.1338
B(  9-C , 10-O ) :   2.0031 B(  9-C , 11-C ) :   0.8876 B( 11-C , 12-H ) :   0.8907
B( 11-C , 13-H ) :   0.9103 B( 11-C , 14-N ) :   0.9560 B( 14-N , 15-H ) :   0.7632
B( 14-N , 16-C ) :   1.1781 B( 16-C , 17-O ) :   1.8657 B( 16-C , 18-C ) :   0.9182
B( 18-C , 19-N ) :   1.0172 B( 18-C , 22-H ) :   0.8885 B( 18-C , 23-C ) :   0.9294
B( 19-N , 20-H ) :   0.8289 B( 19-N , 21-H ) :   0.8236 B( 23-C , 24-H ) :   0.9095
B( 23-C , 25-H ) :   0.9044 B( 23-C , 26-C ) :   0.9685 B( 26-C , 27-C ) :   1.4064
B( 26-C , 35-C ) :   1.3790 B( 27-C , 28-H ) :   0.9157 B( 27-C , 29-C ) :   1.4169
B( 29-C , 30-H ) :   0.9191 B( 29-C , 31-C ) :   1.4308 B( 31-C , 32-H ) :   0.9189
B( 31-C , 33-C ) :   1.4147 B( 33-C , 34-H ) :   0.9191 B( 33-C , 35-C ) :   1.4361
B( 35-C , 36-H ) :   0.9214

Dispersion correction           -0.025899994
FINAL SINGLE POINT ENERGY      -968.747506753486

DIPOLE MOMENT
-------------
                                X             Y             Z
Electronic contribution:     -9.52051       1.59404      -0.15104
Nuclear contribution   :     10.40161      -0.57839       0.21229
                        -----------------------------------------
Total Dipole Moment    :      0.88110       1.01565       0.06125
                        -----------------------------------------
Magnitude (a.u.)       :      1.34597
Magnitude (Debye)      :      3.42118

Rotational constants in cm-1:     0.023133     0.005207     0.004779
Rotational constants in MHz :   693.512439   156.107945   143.265330

                             ****ORCA TERMINATED NORMALLY****
TOTAL RUN TIME: 0 days 0 hours 5 minutes 39 seconds 791 msec
