                         Program Version 5.0.3 -  RELEASE  -
|  1> ! PBEh-3c def2/J TightSCF DefGrid3
|  2>
|  3> %maxcore 60000
|  4>
|  5> %pal
|  6> nprocs 4
|  7> end
|  8>
|  9> *xyzfile 0 1 alcl3.xyz
| 10>
| 11>                          ****END OF INPUT****

CARTESIAN COORDINATES (ANGSTROEM)
---------------------------------
  Al    -0.000000    0.000000    0.000000
  Cl     2.070971   -0.000008    0.000000
  Cl    -1.035492   -1.793509    0.000000
  Cl    -1.035478    1.793517    0.000000

 Total Charge           Charge          ....    0
 Multiplicity           Mult            ....    1
 Number of Electrons    NEL             ....   64
 Basis Dimension        Dim             ....   72

ORBITAL ENERGIES
----------------

  NO   OCC          E(Eh)            E(eV)
   0   2.0000    -102.312551     -2784.0660
   1   2.0000    -102.312544     -2784.0659
   2   2.0000    -102.312534     -2784.0656
   3   2.0000     -56.712555     -1543.2271
   4   2.0000      -9.780409      -266.1384
   5   2.0000      -9.780406      -266.1384
   6   2.0000      -9.780397      -266.1381
   7   2.0000      -7.465363      -203.1428
   8   2.0000      -7.465361      -203.1428
   9   2.0000      -7.465345      -203.1424
  10   2.0000      -7.461435      -203.0360
  11   2.0000      -7.461420      -203.0356
  12   2.0000      -7.461420      -203.0356
  13   2.0000      -7.460871      -203.0206
  14   2.0000      -7.460866      -203.0205
  15   2.0000      -7.460854      -203.0202
  16   2.0000      -4.445092      -120.9571
  17   2.0000      -2.938054       -79.9485
  18   2.0000      -2.932470       -79.7966
  19   2.0000      -2.932470       -79.7966
  20   2.0000      -0.932489       -25.3743
  21   2.0000      -0.914792       -24.8928
  22   2.0000      -0.914789       -24.8927
  23   2.0000      -0.522395       -14.2151
  24   2.0000      -0.457837       -12.4584
  25   2.0000      -0.457836       -12.4583
  26   2.0000      -0.423099       -11.5131
  27   2.0000      -0.405272       -11.0280
  28   2.0000      -0.405272       -11.0280
  29   2.0000      -0.398034       -10.8310
  30   2.0000      -0.398033       -10.8310
  31   2.0000      -0.380384       -10.3508
  32   0.0000      -0.024167        -0.6576
  33   0.0000      -0.021848        -0.5945
  34   0.0000       0.100064         2.7229
  35   0.0000       0.100065         2.7229
  36   0.0000       0.110986         3.0201

MULLIKEN ATOMIC CHARGES
-----------------------
   0 Al:    0.805923
   1 Cl:   -0.268627
   2 Cl:   -0.268648
   3 Cl:   -0.268648
Sum of atomic charges:    0.0000000

LOEWDIN ATOMIC CHARGES
----------------------
   0 Al:    0.080928
   1 Cl:   -0.026973
   2 Cl:   -0.026977
   3 Cl:   -0.026977

  Mayer bond orders larger than 0.100000
B(  0-Al,  1-Cl) :   1.1331 B(  0-Al,  2-Cl) :   1.1331 B(  0-Al,  3-Cl) :   1.1331

Dispersion correction           -0.001909674
FINAL SINGLE POINT ENERGY     -1621.439174172104

DIPOLE MOMENT
-------------
                                X             Y             Z
Electronic contribution:      0.00000       0.00000       0.00000
Nuclear contribution   :     -0.00000       0.00000       0.00000
                        -----------------------------------------
Total Dipole Moment    :      0.00000       0.00000       0.00000
                        -----------------------------------------
Magnitude (a.u.)       :      0.00000
Magnitude (Debye)      :      0.00000

Rotational constants in cm-1:     0.073910     0.073910     0.036955
Rotational constants in MHz :  2215.774752  2215.774264  1107.887254

                             ****ORCA TERMINATED NORMALLY****
TOTAL RUN TIME: 0 days 0 hours 0 minutes 26 seconds 266 msec
