                         Program Version 5.0.3 -  RELEASE  -
|  1> ! PBEh-3c def2/J TightSCF DefGrid3
|  2>
|  3> %maxcore 60000
|  4>
|  5> %pal
|  6> nprocs 4
|  7> end
|  8>
|  9> *xyzfile 0 1 B58.xyz
| 10>
| 11>                          ****END OF INPUT****

CARTESIAN COORDINATES (ANGSTROEM)
---------------------------------
  C      1.551158   -0.405860   -0.309878
  H      1.510926   -0.413951   -1.399052
  O      2.932465   -0.287909    0.019515
  C      0.724857    0.757426    0.227262
  H      0.752642    0.744417    1.321953
  H      1.208286    1.682648   -0.089499
  C     -0.729842    0.745051   -0.250571
  H     -0.768201    0.720206   -1.341864
  H     -1.212539    1.676131    0.060250
  H      3.004004   -0.328147    0.976968
  H      1.154591   -1.362741    0.041370
  C     -1.543407   -0.421918    0.297669
  H     -1.156740   -1.371391   -0.067611
  H     -1.476089   -0.437118    1.391718
  O     -2.901791   -0.386888   -0.127735
  H     -3.278866    0.440139    0.184631

 Total Charge           Charge          ....    0
 Multiplicity           Mult            ....    1
 Number of Electrons    NEL             ....   50
 Basis Dimension        Dim             ....  110

ORBITAL ENERGIES
----------------

  NO   OCC          E(Eh)            E(eV)
   0   2.0000     -19.487031      -530.2691
   1   2.0000     -19.486222      -530.2471
   2   2.0000     -10.483917      -285.2819
   3   2.0000     -10.482877      -285.2536
   4   2.0000     -10.441317      -284.1227
   5   2.0000     -10.440673      -284.1051
   6   2.0000      -1.124080       -30.5878
   7   2.0000      -1.122828       -30.5537
   8   2.0000      -0.890364       -24.2280
   9   2.0000      -0.792642       -21.5689
  10   2.0000      -0.722014       -19.6470
  11   2.0000      -0.665293       -18.1035
  12   2.0000      -0.578732       -15.7481
  13   2.0000      -0.570293       -15.5185
  14   2.0000      -0.524692       -14.2776
  15   2.0000      -0.502739       -13.6802
  16   2.0000      -0.498694       -13.5702
  17   2.0000      -0.466460       -12.6930
  18   2.0000      -0.441840       -12.0231
  19   2.0000      -0.427859       -11.6426
  20   2.0000      -0.404817       -11.0156
  21   2.0000      -0.381384       -10.3780
  22   2.0000      -0.371983       -10.1222
  23   2.0000      -0.327288        -8.9060
  24   2.0000      -0.323757        -8.8099
  25   0.0000       0.117732         3.2036
  26   0.0000       0.129020         3.5108
  27   0.0000       0.140505         3.8233
  28   0.0000       0.167677         4.5627
  29   0.0000       0.179569         4.8863

MULLIKEN ATOMIC CHARGES
-----------------------
   0 C :   -0.136748
   1 H :    0.211216
   2 O :   -0.621517
   3 C :   -0.473953
   4 H :    0.194749
   5 H :    0.239558
   6 C :   -0.473845
   7 H :    0.227942
   8 H :    0.206692
   9 H :    0.408431
  10 H :    0.179339
  11 C :   -0.132193
  12 H :    0.209725
  13 H :    0.173869
  14 O :   -0.621099
  15 H :    0.407832
Sum of atomic charges:   -0.0000000

LOEWDIN ATOMIC CHARGES
----------------------
   0 C :   -0.096229
   1 H :    0.120568
   2 O :   -0.409370
   3 C :   -0.267729
   4 H :    0.115625
   5 H :    0.135247
   6 C :   -0.266259
   7 H :    0.130855
   8 H :    0.121021
   9 H :    0.305890
  10 H :    0.097187
  11 C :   -0.097151
  12 H :    0.118457
  13 H :    0.095313
  14 O :   -0.408794
  15 H :    0.305371

  Mayer bond orders larger than 0.100000
B(  0-C ,  1-H ) :   0.9116 B(  0-C ,  2-O ) :   1.0194 B(  0-C ,  3-C ) :   0.9764
B(  0-C , 10-H ) :   0.9098 B(  2-O ,  9-H ) :   0.7955 B(  3-C ,  4-H ) :   0.9185
B(  3-C ,  5-H ) :   0.9105 B(  3-C ,  6-C ) :   0.9579 B(  6-C ,  7-H ) :   0.9094
B(  6-C ,  8-H ) :   0.9225 B(  6-C , 11-C ) :   0.9748 B( 11-C , 12-H ) :   0.9116
B( 11-C , 13-H ) :   0.9090 B( 11-C , 14-O ) :   1.0201 B( 14-O , 15-H ) :   0.7948

Dispersion correction           -0.006571989
FINAL SINGLE POINT ENERGY      -308.205629279184

DIPOLE MOMENT
-------------
                                X             Y             Z
Electronic contribution:      0.09126      -0.88960      -0.35346
Nuclear contribution   :     -0.27248       1.39576       1.12236
                        -----------------------------------------
Total Dipole Moment    :     -0.18122       0.50617       0.76890
                        -----------------------------------------
Magnitude (a.u.)       :      0.93822
Magnitude (Debye)      :      2.38476

Rotational constants in cm-1:     0.375228     0.043657     0.041486
Rotational constants in MHz : 11249.066718  1308.809159  1243.724869

                             ****ORCA TERMINATED NORMALLY****
TOTAL RUN TIME: 0 days 0 hours 1 minutes 37 seconds 382 msec
