                         Program Version 5.0.3 -  RELEASE  -
|  1> ! PBEh-3c def2/J TightSCF DefGrid3
|  2>
|  3> %maxcore 60000
|  4>
|  5> %pal
|  6> nprocs 4
|  7> end
|  8>
|  9> *xyzfile 0 1 C6H12O.xyz
| 10>
| 11>                          ****END OF INPUT****

CARTESIAN COORDINATES (ANGSTROEM)
---------------------------------
  C     -0.957315   -2.076905    0.827018
  O      0.476857   -2.161206    0.683083
  C      0.970275   -0.942985    0.104998
  C     -0.130852    0.110638    0.285755
  C     -1.388229   -0.768708    0.158548
  H     -1.413580   -2.966848    0.365400
  H     -1.204805   -2.083212    1.903515
  H      1.914397   -0.687864    0.608736
  H      1.182188   -1.093210   -0.973681
  H     -0.074514    0.499626    1.318405
  H     -2.274599   -0.323403    0.630450
  H     -1.617353   -0.931541   -0.906996
  C     -0.070045    1.285502   -0.693731
  H     -0.971349    1.906235   -0.561326
  H     -0.119620    0.890001   -1.723477
  C      1.176470    2.162953   -0.537645
  H      2.098583    1.596612   -0.733199
  H      1.155504    3.011054   -1.236808
  H      1.247990    2.573261    0.480957

 Total Charge           Charge          ....    0
 Multiplicity           Mult            ....    1
 Number of Electrons    NEL             ....   56
 Basis Dimension        Dim             ....  129

ORBITAL ENERGIES
----------------

  NO   OCC          E(Eh)            E(eV)
   0   2.0000     -19.482331      -530.1412
   1   2.0000     -10.479705      -285.1673
   2   2.0000     -10.477927      -285.1189
   3   2.0000     -10.447556      -284.2925
   4   2.0000     -10.442311      -284.1497
   5   2.0000     -10.440430      -284.0985
   6   2.0000     -10.431597      -283.8582
   7   2.0000      -1.125351       -30.6224
   8   2.0000      -0.901641       -24.5349
   9   2.0000      -0.836704       -22.7679
  10   2.0000      -0.802077       -21.8256
  11   2.0000      -0.704610       -19.1734
  12   2.0000      -0.662437       -18.0258
  13   2.0000      -0.637218       -17.3396
  14   2.0000      -0.564799       -15.3690
  15   2.0000      -0.536648       -14.6029
  16   2.0000      -0.507972       -13.8226
  17   2.0000      -0.480576       -13.0771
  18   2.0000      -0.472641       -12.8612
  19   2.0000      -0.466009       -12.6807
  20   2.0000      -0.454029       -12.3548
  21   2.0000      -0.425070       -11.5667
  22   2.0000      -0.400286       -10.8923
  23   2.0000      -0.390470       -10.6252
  24   2.0000      -0.376754       -10.2520
  25   2.0000      -0.371858       -10.1188
  26   2.0000      -0.353128        -9.6091
  27   2.0000      -0.295748        -8.0477
  28   0.0000       0.126560         3.4439
  29   0.0000       0.140235         3.8160
  30   0.0000       0.157450         4.2844
  31   0.0000       0.171035         4.6541
  32   0.0000       0.177107         4.8193

MULLIKEN ATOMIC CHARGES
-----------------------
   0 C :   -0.124998
   1 O :   -0.477012
   2 C :   -0.101029
   3 C :   -0.278968
   4 C :   -0.476799
   5 H :    0.202748
   6 H :    0.190601
   7 H :    0.207645
   8 H :    0.175764
   9 H :    0.218906
  10 H :    0.229747
  11 H :    0.217276
  12 C :   -0.411180
  13 H :    0.217229
  14 H :    0.203571
  15 C :   -0.642113
  16 H :    0.215105
  17 H :    0.222288
  18 H :    0.211218
Sum of atomic charges:   -0.0000000

LOEWDIN ATOMIC CHARGES
----------------------
   0 C :   -0.074066
   1 O :   -0.280258
   2 C :   -0.073118
   3 C :   -0.169322
   4 C :   -0.252081
   5 H :    0.113992
   6 H :    0.107054
   7 H :    0.117614
   8 H :    0.100377
   9 H :    0.125292
  10 H :    0.132676
  11 H :    0.126351
  12 C :   -0.237679
  13 H :    0.125137
  14 H :    0.120931
  15 C :   -0.361600
  16 H :    0.124881
  17 H :    0.128755
  18 H :    0.125064

  Mayer bond orders larger than 0.100000
B(  0-C ,  1-O ) :   0.9765 B(  0-C ,  4-C ) :   0.9739 B(  0-C ,  5-H ) :   0.9156
B(  0-C ,  6-H ) :   0.9112 B(  1-O ,  2-C ) :   0.9852 B(  2-C ,  3-C ) :   0.9642
B(  2-C ,  7-H ) :   0.9142 B(  2-C ,  8-H ) :   0.9054 B(  3-C ,  4-C ) :   0.9666
B(  3-C ,  9-H ) :   0.9038 B(  3-C , 12-C ) :   0.9762 B(  4-C , 10-H ) :   0.9222
B(  4-C , 11-H ) :   0.9176 B( 12-C , 13-H ) :   0.9214 B( 12-C , 14-H ) :   0.9168
B( 12-C , 15-C ) :   0.9912 B( 15-C , 16-H ) :   0.9269 B( 15-C , 17-H ) :   0.9300
B( 15-C , 18-H ) :   0.9280

Dispersion correction           -0.009060850
FINAL SINGLE POINT ENERGY      -310.401709054264

DIPOLE MOMENT
-------------
                                X             Y             Z
Electronic contribution:     -0.04193      -5.50230       1.92635
Nuclear contribution   :     -0.37492       6.14155      -2.09872
                        -----------------------------------------
Total Dipole Moment    :     -0.41685       0.63925      -0.17238
                        -----------------------------------------
Magnitude (a.u.)       :      0.78238
Magnitude (Debye)      :      1.98865

Rotational constants in cm-1:     0.191687     0.055754     0.046433
Rotational constants in MHz :  5746.629922  1671.455179  1392.015291

                             ****ORCA TERMINATED NORMALLY****
TOTAL RUN TIME: 0 days 0 hours 1 minutes 37 seconds 623 msec
