                         Program Version 5.0.3 -  RELEASE  -
|  1> ! PBEh-3c def2/J TightSCF DefGrid3
|  2>
|  3> %maxcore 60000
|  4>
|  5> %pal
|  6> nprocs 4
|  7> end
|  8>
|  9> *xyzfile 0 1 ALA_xak.xyz
| 10>
| 11>                          ****END OF INPUT****

CARTESIAN COORDINATES (ANGSTROEM)
---------------------------------
  N      1.076051    0.502052   -0.568608
  H      1.304982    0.925920   -1.455977
  C      0.012306    1.090018    0.219013
  H      0.355851    1.288883    1.233979
  C     -0.423357    2.404340   -0.416344
  C     -1.224907    0.201393    0.373211
  H     -1.240046    2.831395    0.158639
  H      0.405783    3.109001   -0.441184
  H     -0.770994    2.232208   -1.435508
  O     -2.078666    0.479248    1.206695
  C      2.021738   -0.391803   -0.122703
  C      1.821792   -0.915924    1.277218
  H      2.032997   -0.131196    2.003425
  H      2.514990   -1.734866    1.432782
  H      0.800850   -1.255142    1.441412
  O      2.954944   -0.729678   -0.834541
  N     -1.296772   -0.842883   -0.482675
  H     -0.521195   -0.971932   -1.110395
  C     -2.421279   -1.752099   -0.495845
  H     -2.086888   -2.780931   -0.381236
  H     -3.061810   -1.486306    0.339487
  H     -2.990020   -1.664284   -1.420005

 Total Charge           Charge          ....    0
 Multiplicity           Mult            ....    1
 Number of Electrons    NEL             ....   78
 Basis Dimension        Dim             ....  174

ORBITAL ENERGIES
----------------

  NO   OCC          E(Eh)            E(eV)
   0   2.0000     -19.464451      -529.6546
   1   2.0000     -19.460758      -529.5542
   2   2.0000     -14.672596      -399.2616
   3   2.0000     -14.669777      -399.1849
   4   2.0000     -10.558454      -287.3101
   5   2.0000     -10.550153      -287.0843
   6   2.0000     -10.504423      -285.8399
   7   2.0000     -10.471846      -284.9534
   8   2.0000     -10.451572      -284.4017
   9   2.0000     -10.446278      -284.2577
  10   2.0000      -1.152538       -31.3622
  11   2.0000      -1.145700       -31.1761
  12   2.0000      -1.045708       -28.4552
  13   2.0000      -1.021939       -27.8084
  14   2.0000      -0.876522       -23.8514
  15   2.0000      -0.834820       -22.7166
  16   2.0000      -0.804407       -21.8890
  17   2.0000      -0.735019       -20.0009
  18   2.0000      -0.670000       -18.2316
  19   2.0000      -0.658923       -17.9302
  20   2.0000      -0.607809       -16.5393
  21   2.0000      -0.577764       -15.7218
  22   2.0000      -0.551227       -14.9996
  23   2.0000      -0.525236       -14.2924
  24   2.0000      -0.520417       -14.1613
  25   2.0000      -0.507277       -13.8037
  26   2.0000      -0.495586       -13.4856
  27   2.0000      -0.478161       -13.0114
  28   2.0000      -0.468868       -12.7585
  29   2.0000      -0.466766       -12.7013
  30   2.0000      -0.453260       -12.3338
  31   2.0000      -0.449705       -12.2371
  32   2.0000      -0.440357       -11.9827
  33   2.0000      -0.424988       -11.5645
  34   2.0000      -0.413786       -11.2597
  35   2.0000      -0.338987        -9.2243
  36   2.0000      -0.316262        -8.6059
  37   2.0000      -0.309157        -8.4126
  38   2.0000      -0.296943        -8.0802
  39   0.0000       0.049362         1.3432
  40   0.0000       0.054156         1.4737
  41   0.0000       0.115748         3.1497
  42   0.0000       0.138033         3.7561
  43   0.0000       0.146112         3.9759

MULLIKEN ATOMIC CHARGES
-----------------------
   0 N :   -0.647882
   1 H :    0.369007
   2 C :   -0.167066
   3 H :    0.262919
   4 C :   -0.665509
   5 C :    0.518308
   6 H :    0.270942
   7 H :    0.238036
   8 H :    0.219479
   9 O :   -0.430051
  10 C :    0.486600
  11 C :   -0.785461
  12 H :    0.247937
  13 H :    0.275250
  14 H :    0.250206
  15 O :   -0.405467
  16 N :   -0.632450
  17 H :    0.375938
  18 C :   -0.493471
  19 H :    0.222997
  20 H :    0.266479
  21 H :    0.223258
Sum of atomic charges:    0.0000000

LOEWDIN ATOMIC CHARGES
----------------------
   0 N :   -0.252507
   1 H :    0.261856
   2 C :   -0.101490
   3 H :    0.144637
   4 C :   -0.348663
   5 C :    0.091950
   6 H :    0.156251
   7 H :    0.135475
   8 H :    0.130636
   9 O :   -0.283331
  10 C :    0.105651
  11 C :   -0.397690
  12 H :    0.151782
  13 H :    0.158391
  14 H :    0.148885
  15 O :   -0.263083
  16 N :   -0.244109
  17 H :    0.259354
  18 C :   -0.256840
  19 H :    0.124736
  20 H :    0.154554
  21 H :    0.123556

  Mayer bond orders larger than 0.100000
B(  0-N ,  1-H ) :   0.8160 B(  0-N ,  2-C ) :   0.9041 B(  0-N , 10-C ) :   1.1216
B(  2-C ,  3-H ) :   0.8846 B(  2-C ,  4-C ) :   0.9849 B(  2-C ,  5-C ) :   0.8949
B(  4-C ,  6-H ) :   0.9051 B(  4-C ,  7-H ) :   0.9188 B(  4-C ,  8-H ) :   0.9193
B(  5-C ,  9-O ) :   1.9782 B(  5-C , 16-N ) :   1.1490 B(  9-O , 16-N ) :   0.1019
B( 10-C , 11-C ) :   0.9357 B( 10-C , 15-O ) :   2.0542 B( 11-C , 12-H ) :   0.9036
B( 11-C , 13-H ) :   0.9142 B( 11-C , 14-H ) :   0.8966 B( 16-N , 17-H ) :   0.7954
B( 16-N , 18-C ) :   0.9482 B( 18-C , 19-H ) :   0.9219 B( 18-C , 20-H ) :   0.8979
B( 18-C , 21-H ) :   0.9201

Dispersion correction           -0.012100880
FINAL SINGLE POINT ENERGY      -494.790121941304

DIPOLE MOMENT
-------------
                                X             Y             Z
Electronic contribution:      3.06748      -0.25736      -0.65668
Nuclear contribution   :     -3.44057       0.39563       0.21552
                        -----------------------------------------
Total Dipole Moment    :     -0.37309       0.13826      -0.44117
                        -----------------------------------------
Magnitude (a.u.)       :      0.59409
Magnitude (Debye)      :      1.51005

Rotational constants in cm-1:     0.058883     0.030429     0.025106
Rotational constants in MHz :  1765.253181   912.248425   752.646213

                             ****ORCA TERMINATED NORMALLY****
TOTAL RUN TIME: 0 days 0 hours 2 minutes 45 seconds 736 msec
