                         Program Version 5.0.3 -  RELEASE  -
|  1> ! PBEh-3c def2/J TightSCF DefGrid3
|  2>
|  3> %maxcore 60000
|  4>
|  5> %pal
|  6> nprocs 4
|  7> end
|  8>
|  9> *xyzfile 0 1 16.xyz
| 10>
| 11>                          ****END OF INPUT****

CARTESIAN COORDINATES (ANGSTROEM)
---------------------------------
  N     -2.382807   -2.501796   -0.309113
  C     -1.115474   -2.937338    0.006764
  C     -0.323663   -1.867608    0.364048
  C     -1.159353   -0.698739    0.267106
  C     -0.949703    0.671860    0.520199
  C     -2.007948    1.549670    0.337168
  C     -3.276038    1.093590   -0.085074
  C     -3.511916   -0.250244   -0.326917
  C     -2.442513   -1.135850   -0.151158
  H     -3.152032   -3.093101   -0.565279
  H     -0.868533   -3.986277   -0.034959
  H      0.006956    1.047600    0.856657
  H     -4.063829    1.824467   -0.204618
  H     -4.488141   -0.595117   -0.642991
  O     -1.882149    2.896044    0.604495
  C     -0.955602    3.565216   -0.257522
  H     -1.293943    3.505520   -1.295070
  H      0.046943    3.146186   -0.183970
  H     -0.943687    4.604789    0.059386
  C      1.123941   -1.942268    0.745966
  C      2.070888   -1.588650   -0.412973
  N      1.931706   -0.218547   -0.873461
  C      2.579557    0.870847   -0.360840
  C      3.805104    0.604839    0.491187
  H      1.357698   -2.956767    1.079973
  H      1.326679   -1.273485    1.586799
  H      1.867535   -2.252402   -1.254781
  H      3.104934   -1.753653   -0.115187
  H      1.072078    0.018086   -1.347556
  O      2.201837    2.010931   -0.604888
  H      4.544325    0.018624   -0.054220
  H      3.544405    0.059168    1.398321
  H      4.232742    1.564403    0.762512

 Total Charge           Charge          ....    0
 Multiplicity           Mult            ....    1
 Number of Electrons    NEL             ....  124
 Basis Dimension        Dim             ....  287

ORBITAL ENERGIES
----------------

  NO   OCC          E(Eh)            E(eV)
   0   2.0000     -19.493839      -530.4543
   1   2.0000     -19.453940      -529.3686
   2   2.0000     -14.687575      -399.6692
   3   2.0000     -14.655000      -398.7828
   4   2.0000     -10.547466      -287.0112
   5   2.0000     -10.488779      -285.4142
   6   2.0000     -10.484931      -285.3095
   7   2.0000     -10.482597      -285.2460
   8   2.0000     -10.479237      -285.1545
   9   2.0000     -10.460654      -284.6489
  10   2.0000     -10.453538      -284.4552
  11   2.0000     -10.450069      -284.3608
  12   2.0000     -10.447768      -284.2982
  13   2.0000     -10.446308      -284.2585
  14   2.0000     -10.441501      -284.1277
  15   2.0000     -10.438450      -284.0447
  16   2.0000     -10.438294      -284.0404
  17   2.0000      -1.141672       -31.0665
  18   2.0000      -1.137988       -30.9662
  19   2.0000      -1.089856       -29.6565
  20   2.0000      -1.021612       -27.7995
  21   2.0000      -0.934434       -25.4272
  22   2.0000      -0.900567       -24.5057
  23   2.0000      -0.845154       -22.9978
  24   2.0000      -0.827159       -22.5081
  25   2.0000      -0.823477       -22.4079
  26   2.0000      -0.803447       -21.8629
  27   2.0000      -0.756831       -20.5944
  28   2.0000      -0.734109       -19.9761
  29   2.0000      -0.692007       -18.8305
  30   2.0000      -0.667779       -18.1712
  31   2.0000      -0.650767       -17.7083
  32   2.0000      -0.626751       -17.0548
  33   2.0000      -0.611156       -16.6304
  34   2.0000      -0.567829       -15.4514
  35   2.0000      -0.557364       -15.1666
  36   2.0000      -0.552229       -15.0269
  37   2.0000      -0.547221       -14.8906
  38   2.0000      -0.518253       -14.1024
  39   2.0000      -0.516282       -14.0487
  40   2.0000      -0.504198       -13.7199
  41   2.0000      -0.501130       -13.6364
  42   2.0000      -0.494884       -13.4665
  43   2.0000      -0.487617       -13.2687
  44   2.0000      -0.480627       -13.0785
  45   2.0000      -0.468691       -12.7537
  46   2.0000      -0.462232       -12.5780
  47   2.0000      -0.456828       -12.4309
  48   2.0000      -0.452517       -12.3136
  49   2.0000      -0.450131       -12.2487
  50   2.0000      -0.430474       -11.7138
  51   2.0000      -0.417582       -11.3630
  52   2.0000      -0.411794       -11.2055
  53   2.0000      -0.397015       -10.8033
  54   2.0000      -0.391850       -10.6628
  55   2.0000      -0.369153       -10.0452
  56   2.0000      -0.325520        -8.8579
  57   2.0000      -0.316703        -8.6179
  58   2.0000      -0.307973        -8.3804
  59   2.0000      -0.297049        -8.0831
  60   2.0000      -0.250273        -6.8103
  61   2.0000      -0.239517        -6.5176
  62   0.0000       0.005235         0.1424
  63   0.0000       0.051730         1.4076
  64   0.0000       0.060970         1.6591
  65   0.0000       0.083448         2.2707
  66   0.0000       0.121060         3.2942

MULLIKEN ATOMIC CHARGES
-----------------------
   0 N :   -0.699160
   1 C :   -0.053652
   2 C :    0.014805
   3 C :    0.050728
   4 C :   -0.438610
   5 C :    0.374438
   6 C :   -0.322979
   7 C :   -0.263827
   8 C :    0.363027
   9 H :    0.359303
  10 H :    0.237314
  11 H :    0.240881
  12 H :    0.232505
  13 H :    0.212707
  14 O :   -0.491386
  15 C :   -0.407396
  16 H :    0.195021
  17 H :    0.249143
  18 H :    0.214424
  19 C :   -0.530618
  20 C :   -0.289244
  21 N :   -0.600187
  22 C :    0.501777
  23 C :   -0.778973
  24 H :    0.227368
  25 H :    0.232332
  26 H :    0.240260
  27 H :    0.231800
  28 H :    0.379649
  29 O :   -0.431728
  30 H :    0.240513
  31 H :    0.235634
  32 H :    0.274133
Sum of atomic charges:    0.0000000

LOEWDIN ATOMIC CHARGES
----------------------
   0 N :   -0.156808
   1 C :   -0.084643
   2 C :   -0.113888
   3 C :   -0.062936
   4 C :   -0.162091
   5 C :    0.049132
   6 C :   -0.153715
   7 C :   -0.155499
   8 C :    0.009956
   9 H :    0.262150
  10 H :    0.134308
  11 H :    0.148976
  12 H :    0.145318
  13 H :    0.136500
  14 O :   -0.219942
  15 C :   -0.179792
  16 H :    0.108492
  17 H :    0.127624
  18 H :    0.121785
  19 C :   -0.236360
  20 C :   -0.145412
  21 N :   -0.238541
  22 C :    0.105924
  23 C :   -0.397425
  24 H :    0.136089
  25 H :    0.133717
  26 H :    0.129240
  27 H :    0.128278
  28 H :    0.266637
  29 O :   -0.282363
  30 H :    0.145223
  31 H :    0.142860
  32 H :    0.157206

  Mayer bond orders larger than 0.100000
B(  0-N ,  1-C ) :   1.1414 B(  0-N ,  8-C ) :   1.0090 B(  0-N ,  9-H ) :   0.8329
B(  1-C ,  2-C ) :   1.5541 B(  1-C , 10-H ) :   0.9121 B(  2-C ,  3-C ) :   1.2378
B(  2-C , 19-C ) :   0.9536 B(  3-C ,  4-C ) :   1.2537 B(  3-C ,  8-C ) :   1.2434
B(  4-C ,  5-C ) :   1.4614 B(  4-C , 11-H ) :   0.9071 B(  5-C ,  6-C ) :   1.3361
B(  5-C , 14-O ) :   0.9727 B(  6-C ,  7-C ) :   1.4810 B(  6-C , 12-H ) :   0.9116
B(  7-C ,  8-C ) :   1.2904 B(  7-C , 13-H ) :   0.9213 B( 14-O , 15-C ) :   0.9315
B( 15-C , 16-H ) :   0.9175 B( 15-C , 17-H ) :   0.8785 B( 15-C , 18-H ) :   0.9304
B( 19-C , 20-C ) :   0.9493 B( 19-C , 24-H ) :   0.9216 B( 19-C , 25-H ) :   0.9161
B( 20-C , 21-N ) :   0.9716 B( 20-C , 26-H ) :   0.9121 B( 20-C , 27-H ) :   0.9062
B( 21-N , 22-C ) :   1.1663 B( 21-N , 28-H ) :   0.8042 B( 22-C , 23-C ) :   0.9268
B( 22-C , 29-O ) :   1.9810 B( 23-C , 30-H ) :   0.9085 B( 23-C , 31-H ) :   0.9081
B( 23-C , 32-H ) :   0.9146

Dispersion correction           -0.022618030
FINAL SINGLE POINT ENERGY      -763.324367943861

DIPOLE MOMENT
-------------
                                X             Y             Z
Electronic contribution:    -10.29188      -1.19141      -0.56512
Nuclear contribution   :     10.37050      -1.05997       0.22086
                        -----------------------------------------
Total Dipole Moment    :      0.07862      -2.25138      -0.34426
                        -----------------------------------------
Magnitude (a.u.)       :      2.27891
Magnitude (Debye)      :      5.79252

Rotational constants in cm-1:     0.018783     0.014076     0.008525
Rotational constants in MHz :   563.108588   421.991308   255.583220

                             ****ORCA TERMINATED NORMALLY****
TOTAL RUN TIME: 0 days 0 hours 4 minutes 31 seconds 392 msec
