                         Program Version 5.0.3 -  RELEASE  -
|  1> ! PBEh-3c def2/J TightSCF DefGrid3
|  2>
|  3> %maxcore 60000
|  4>
|  5> %pal
|  6> nprocs 4
|  7> end
|  8>
|  9> *xyzfile 0 1 07.xyz
| 10>
| 11>                          ****END OF INPUT****

CARTESIAN COORDINATES (ANGSTROEM)
---------------------------------
  O     -2.345834   -0.595898   -1.098670
  H     -1.425931   -0.765919   -0.840227
  C     -3.159230   -1.120199   -0.071719
  H     -4.194548   -0.917735   -0.334862
  H     -3.044800   -2.200854    0.042273
  H     -2.961688   -0.654522    0.898381
  C     -0.163566    1.524196    0.366037
  H      0.342827    2.485645    0.331166
  H     -0.574111    1.378061    1.363913
  H     -0.993214    1.514683   -0.335469
  C      0.752064    0.369258    0.050121
  O      0.327869   -0.750653   -0.234961
  N      2.078201    0.630982    0.109320
  H      2.376213    1.541410    0.407007
  C      3.060607   -0.409129   -0.113424
  H      2.704049   -1.060066   -0.905601
  H      4.000976    0.044395   -0.411938
  H      3.220117   -1.013656    0.778652

 Total Charge           Charge          ....    0
 Multiplicity           Mult            ....    1
 Number of Electrons    NEL             ....   58
 Basis Dimension        Dim             ....  127

ORBITAL ENERGIES
----------------

  NO   OCC          E(Eh)            E(eV)
   0   2.0000     -19.470858      -529.8290
   1   2.0000     -19.445365      -529.1353
   2   2.0000     -14.676025      -399.3550
   3   2.0000     -10.559885      -287.3491
   4   2.0000     -10.475492      -285.0526
   5   2.0000     -10.448679      -284.3230
   6   2.0000     -10.445820      -284.2452
   7   2.0000      -1.154776       -31.4230
   8   2.0000      -1.083670       -29.4882
   9   2.0000      -1.033637       -28.1267
  10   2.0000      -0.851383       -23.1673
  11   2.0000      -0.779833       -21.2203
  12   2.0000      -0.732468       -19.9315
  13   2.0000      -0.670941       -18.2572
  14   2.0000      -0.580422       -15.7941
  15   2.0000      -0.547404       -14.8956
  16   2.0000      -0.539645       -14.6845
  17   2.0000      -0.532464       -14.4891
  18   2.0000      -0.489729       -13.3262
  19   2.0000      -0.477088       -12.9822
  20   2.0000      -0.472948       -12.8696
  21   2.0000      -0.463623       -12.6158
  22   2.0000      -0.454996       -12.3811
  23   2.0000      -0.450823       -12.2675
  24   2.0000      -0.416833       -11.3426
  25   2.0000      -0.361630        -9.8405
  26   2.0000      -0.323110        -8.7923
  27   2.0000      -0.315103        -8.5744
  28   2.0000      -0.293262        -7.9801
  29   0.0000       0.051519         1.4019
  30   0.0000       0.107208         2.9173
  31   0.0000       0.162375         4.4185
  32   0.0000       0.171660         4.6711
  33   0.0000       0.181084         4.9276

MULLIKEN ATOMIC CHARGES
-----------------------
   0 O :   -0.671127
   1 H :    0.452926
   2 C :   -0.364166
   3 H :    0.199606
   4 H :    0.179383
   5 H :    0.163882
   6 C :   -0.767368
   7 H :    0.213941
   8 H :    0.254724
   9 H :    0.289917
  10 C :    0.549984
  11 O :   -0.466716
  12 N :   -0.615999
  13 H :    0.360653
  14 C :   -0.490468
  15 H :    0.261152
  16 H :    0.219226
  17 H :    0.230449
Sum of atomic charges:    0.0000000

LOEWDIN ATOMIC CHARGES
----------------------
   0 O :   -0.448483
   1 H :    0.301712
   2 C :   -0.196593
   3 H :    0.111516
   4 H :    0.094078
   5 H :    0.086773
   6 C :   -0.395541
   7 H :    0.129094
   8 H :    0.156865
   9 H :    0.169911
  10 C :    0.118681
  11 O :   -0.291090
  12 N :   -0.238502
  13 H :    0.255147
  14 C :   -0.254866
  15 H :    0.148810
  16 H :    0.126697
  17 H :    0.125791

  Mayer bond orders larger than 0.100000
B(  0-O ,  1-H ) :   0.6905 B(  0-O ,  2-C ) :   1.0457 B(  1-H , 11-O ) :   0.1010
B(  2-C ,  3-H ) :   0.9292 B(  2-C ,  4-H ) :   0.9189 B(  2-C ,  5-H ) :   0.9200
B(  6-C ,  7-H ) :   0.9185 B(  6-C ,  8-H ) :   0.9057 B(  6-C ,  9-H ) :   0.8843
B(  6-C , 10-C ) :   0.9435 B( 10-C , 11-O ) :   1.8628 B( 10-C , 12-N ) :   1.1777
B( 12-N , 13-H ) :   0.8272 B( 12-N , 14-C ) :   0.9447 B( 14-C , 15-H ) :   0.9050
B( 14-C , 16-H ) :   0.9252 B( 14-C , 17-H ) :   0.9159

Dispersion correction           -0.007012563
FINAL SINGLE POINT ENERGY      -363.469197658623

DIPOLE MOMENT
-------------
                                X             Y             Z
Electronic contribution:      2.25390      -0.09202      -1.52115
Nuclear contribution   :     -0.74658       1.09899       2.49153
                        -----------------------------------------
Total Dipole Moment    :      1.50732       1.00697       0.97038
                        -----------------------------------------
Magnitude (a.u.)       :      2.05612
Magnitude (Debye)      :      5.22624

Rotational constants in cm-1:     0.177587     0.033489     0.029785
Rotational constants in MHz :  5323.936530  1003.971289   892.942972

                             ****ORCA TERMINATED NORMALLY****
TOTAL RUN TIME: 0 days 0 hours 1 minutes 29 seconds 651 msec
