                         Program Version 5.0.3 -  RELEASE  -
|  1> ! PBEh-3c def2/J TightSCF DefGrid3
|  2>
|  3> %maxcore 60000
|  4>
|  5> %pal
|  6> nprocs 4
|  7> end
|  8>
|  9> *xyzfile 0 1 ne6.xyz
| 10>
| 11>                          ****END OF INPUT****

CARTESIAN COORDINATES (ANGSTROEM)
---------------------------------
  Ne    -2.213864    0.000000   -0.000000
  Ne     2.213864   -0.000000    0.000000
  Ne     0.000000   -0.000000   -2.213864
  Ne    -0.000000   -0.000000    2.213864
  Ne     0.000000    2.213864    0.000000
  Ne    -0.000000   -2.213864    0.000000

 Total Charge           Charge          ....    0
 Multiplicity           Mult            ....    1
 Number of Electrons    NEL             ....   60
 Basis Dimension        Dim             ....   90

ORBITAL ENERGIES
----------------

  NO   OCC          E(Eh)            E(eV)
   0   2.0000     -31.402402      -854.5028
   1   2.0000     -31.402402      -854.5028
   2   2.0000     -31.402401      -854.5028
   3   2.0000     -31.402401      -854.5028
   4   2.0000     -31.402401      -854.5028
   5   2.0000     -31.402400      -854.5027
   6   2.0000      -1.570027       -42.7226
   7   2.0000      -1.569585       -42.7106
   8   2.0000      -1.569585       -42.7106
   9   2.0000      -1.569585       -42.7106
  10   2.0000      -1.569363       -42.7045
  11   2.0000      -1.569363       -42.7045
  12   2.0000      -0.635050       -17.2806
  13   2.0000      -0.633083       -17.2271
  14   2.0000      -0.633083       -17.2271
  15   2.0000      -0.633083       -17.2271
  16   2.0000      -0.632367       -17.2076
  17   2.0000      -0.632367       -17.2076
  18   2.0000      -0.632367       -17.2076
  19   2.0000      -0.629283       -17.1237
  20   2.0000      -0.629283       -17.1237
  21   2.0000      -0.629283       -17.1237
  22   2.0000      -0.627066       -17.0633
  23   2.0000      -0.627066       -17.0633
  24   2.0000      -0.627066       -17.0633
  25   2.0000      -0.627065       -17.0633
  26   2.0000      -0.627065       -17.0633
  27   2.0000      -0.626767       -17.0552
  28   2.0000      -0.626767       -17.0552
  29   2.0000      -0.626767       -17.0552
  30   0.0000       1.399006        38.0689
  31   0.0000       1.418577        38.6014
  32   0.0000       1.418577        38.6014
  33   0.0000       1.418577        38.6014
  34   0.0000       1.426179        38.8083

MULLIKEN ATOMIC CHARGES
-----------------------
   0 Ne:   -0.000000
   1 Ne:    0.000000
   2 Ne:    0.000000
   3 Ne:    0.000000
   4 Ne:   -0.000000
   5 Ne:   -0.000000
Sum of atomic charges:   -0.0000000

LOEWDIN ATOMIC CHARGES
----------------------
   0 Ne:   -0.000000
   1 Ne:    0.000000
   2 Ne:    0.000000
   3 Ne:    0.000000
   4 Ne:   -0.000000
   5 Ne:   -0.000000

Dispersion correction           -0.000721546
FINAL SINGLE POINT ENERGY      -772.173787854249

DIPOLE MOMENT
-------------
                                X             Y             Z
Electronic contribution:      0.00000       0.00000      -0.00000
Nuclear contribution   :      0.00000       0.00000       0.00000
                        -----------------------------------------
Total Dipole Moment    :      0.00000       0.00000      -0.00000
                        -----------------------------------------
Magnitude (a.u.)       :      0.00000
Magnitude (Debye)      :      0.00000

Rotational constants in cm-1:     0.042612     0.042612     0.042612
Rotational constants in MHz :  1277.485727  1277.485727  1277.485727

                             ****ORCA TERMINATED NORMALLY****
TOTAL RUN TIME: 0 days 0 hours 0 minutes 24 seconds 12 msec
