                         Program Version 5.0.3 -  RELEASE  -
|  1> ! PBEh-3c def2/J TightSCF DefGrid3
|  2>
|  3> %maxcore 60000
|  4>
|  5> %pal
|  6> nprocs 4
|  7> end
|  8>
|  9> *xyzfile 0 1 25B.xyz
| 10>
| 11>                          ****END OF INPUT****

CARTESIAN COORDINATES (ANGSTROEM)
---------------------------------
  C      0.127834    1.521671   -0.710209
  C     -1.116189    0.851567   -0.633982
  C     -1.154785   -0.559238   -0.531142
  C      0.050647   -1.299957   -0.504487
  C      1.294679   -0.629853   -0.580606
  C      1.333272    0.780958   -0.683473
  H      2.226155   -1.202579   -0.564279
  H      2.294571    1.298493   -0.746639
  H      0.157561    2.611623   -0.794159
  H     -2.047854    1.423668   -0.658987
  H     -2.116273   -1.077411   -0.476711
  H      0.020727   -2.390553   -0.429451

 Total Charge           Charge          ....    0
 Multiplicity           Mult            ....    1
 Number of Electrons    NEL             ....   42
 Basis Dimension        Dim             ....  102

ORBITAL ENERGIES
----------------

  NO   OCC          E(Eh)            E(eV)
   0   2.0000     -10.456234      -284.5286
   1   2.0000     -10.456063      -284.5239
   2   2.0000     -10.456061      -284.5239
   3   2.0000     -10.455537      -284.5096
   4   2.0000     -10.455535      -284.5096
   5   2.0000     -10.455348      -284.5045
   6   2.0000      -0.941373       -25.6161
   7   2.0000      -0.829553       -22.5733
   8   2.0000      -0.829552       -22.5732
   9   2.0000      -0.675335       -18.3768
  10   2.0000      -0.675334       -18.3768
  11   2.0000      -0.584614       -15.9082
  12   2.0000      -0.527559       -14.3556
  13   2.0000      -0.502626       -13.6772
  14   2.0000      -0.478796       -13.0287
  15   2.0000      -0.478791       -13.0286
  16   2.0000      -0.413925       -11.2635
  17   2.0000      -0.398342       -10.8394
  18   2.0000      -0.398340       -10.8394
  19   2.0000      -0.289856        -7.8874
  20   2.0000      -0.289853        -7.8873
  21   0.0000       0.014207         0.3866
  22   0.0000       0.014209         0.3866
  23   0.0000       0.136964         3.7270
  24   0.0000       0.185328         5.0430
  25   0.0000       0.197936         5.3861

MULLIKEN ATOMIC CHARGES
-----------------------
   0 C :   -0.221404
   1 C :   -0.221383
   2 C :   -0.221390
   3 C :   -0.221406
   4 C :   -0.221382
   5 C :   -0.221394
   6 H :    0.221387
   7 H :    0.221394
   8 H :    0.221398
   9 H :    0.221387
  10 H :    0.221394
  11 H :    0.221398
Sum of atomic charges:   -0.0000000

LOEWDIN ATOMIC CHARGES
----------------------
   0 C :   -0.136812
   1 C :   -0.136802
   2 C :   -0.136807
   3 C :   -0.136811
   4 C :   -0.136802
   5 C :   -0.136807
   6 H :    0.136806
   7 H :    0.136808
   8 H :    0.136807
   9 H :    0.136806
  10 H :    0.136808
  11 H :    0.136806

  Mayer bond orders larger than 0.100000
B(  0-C ,  1-C ) :   1.4209 B(  0-C ,  5-C ) :   1.4209 B(  0-C ,  8-H ) :   0.9193
B(  1-C ,  2-C ) :   1.4209 B(  1-C ,  9-H ) :   0.9193 B(  2-C ,  3-C ) :   1.4209
B(  2-C , 10-H ) :   0.9193 B(  3-C ,  4-C ) :   1.4209 B(  3-C , 11-H ) :   0.9193
B(  4-C ,  5-C ) :   1.4209 B(  4-C ,  6-H ) :   0.9193 B(  5-C ,  7-H ) :   0.9193

Dispersion correction           -0.005829818
FINAL SINGLE POINT ENERGY      -231.721209089449

DIPOLE MOMENT
-------------
                                X             Y             Z
Electronic contribution:      0.00034       0.00112       0.01552
Nuclear contribution   :     -0.00049      -0.00165      -0.02279
                        -----------------------------------------
Total Dipole Moment    :     -0.00016      -0.00053      -0.00727
                        -----------------------------------------
Magnitude (a.u.)       :      0.00729
Magnitude (Debye)      :      0.01853

Rotational constants in cm-1:     0.184873     0.184871     0.092436
Rotational constants in MHz :  5542.361978  5542.302898  2771.169505

                             ****ORCA TERMINATED NORMALLY****
TOTAL RUN TIME: 0 days 0 hours 0 minutes 40 seconds 1 msec
