                         Program Version 5.0.3 -  RELEASE  -
|  1> ! PBEh-3c def2/J TightSCF DefGrid3
|  2>
|  3> %maxcore 60000
|  4>
|  5> %pal
|  6> nprocs 4
|  7> end
|  8>
|  9> *xyzfile 0 1 ethylthiourea_TS2.xyz
| 10>
| 11>                          ****END OF INPUT****

CARTESIAN COORDINATES (ANGSTROEM)
---------------------------------
  S      0.666776    2.054374    0.149777
  N     -1.620814    0.802924   -0.025546
  N      0.244957   -0.524249   -0.471331
  C     -0.280336    0.752251   -0.120486
  H     -2.184175   -0.020328   -0.116859
  H     -2.054729    1.657710    0.266220
  H     -0.028187   -0.763603   -1.415235
  C     -0.078667   -1.599278    0.459003
  C      0.512605   -2.909209   -0.010057
  H      0.345555   -1.321709    1.421796
  H     -1.157689   -1.730077    0.616587
  H      1.594764   -2.850601   -0.071805
  H      0.244481   -3.708709    0.674428
  H      0.127650   -3.177685   -0.993000

 Total Charge           Charge          ....    0
 Multiplicity           Mult            ....    1
 Number of Electrons    NEL             ....   56
 Basis Dimension        Dim             ....  109

ORBITAL ENERGIES
----------------

  NO   OCC          E(Eh)            E(eV)
   0   2.0000     -89.522689     -2436.0362
   1   2.0000     -14.675893      -399.3514
   2   2.0000     -14.638479      -398.3333
   3   2.0000     -10.560364      -287.3621
   4   2.0000     -10.477984      -285.1204
   5   2.0000     -10.436048      -283.9793
   6   2.0000      -8.164195      -222.1590
   7   2.0000      -6.055028      -164.7657
   8   2.0000      -6.052004      -164.6834
   9   2.0000      -6.046775      -164.5411
  10   2.0000      -1.083892       -29.4942
  11   2.0000      -0.993016       -27.0213
  12   2.0000      -0.856193       -23.2982
  13   2.0000      -0.807711       -21.9789
  14   2.0000      -0.704365       -19.1667
  15   2.0000      -0.667783       -18.1713
  16   2.0000      -0.624536       -16.9945
  17   2.0000      -0.581151       -15.8139
  18   2.0000      -0.544597       -14.8192
  19   2.0000      -0.512337       -13.9414
  20   2.0000      -0.461748       -12.5648
  21   2.0000      -0.436710       -11.8835
  22   2.0000      -0.423839       -11.5332
  23   2.0000      -0.415492       -11.3061
  24   2.0000      -0.407191       -11.0802
  25   2.0000      -0.301939        -8.2162
  26   2.0000      -0.271384        -7.3847
  27   2.0000      -0.245424        -6.6783
  28   0.0000       0.001324         0.0360
  29   0.0000       0.100864         2.7446
  30   0.0000       0.147557         4.0152
  31   0.0000       0.154995         4.2176
  32   0.0000       0.166775         4.5382

MULLIKEN ATOMIC CHARGES
-----------------------
   0 S :   -0.183072
   1 N :   -0.721664
   2 N :   -0.576125
   3 C :    0.251015
   4 H :    0.367984
   5 H :    0.382924
   6 H :    0.333858
   7 C :   -0.278872
   8 C :   -0.655768
   9 H :    0.243430
  10 H :    0.162999
  11 H :    0.244757
  12 H :    0.223752
  13 H :    0.204784
Sum of atomic charges:    0.0000000

LOEWDIN ATOMIC CHARGES
----------------------
   0 S :   -0.118837
   1 N :   -0.343584
   2 N :   -0.321442
   3 C :   -0.062702
   4 H :    0.250407
   5 H :    0.263859
   6 H :    0.243259
   7 C :   -0.156027
   8 C :   -0.366190
   9 H :    0.132341
  10 H :    0.082807
  11 H :    0.140527
  12 H :    0.133188
  13 H :    0.122394

  Mayer bond orders larger than 0.100000
B(  0-S ,  1-N ) :   0.1207 B(  0-S ,  3-C ) :   1.7124 B(  1-N ,  3-C ) :   1.1927
B(  1-N ,  4-H ) :   0.8182 B(  1-N ,  5-H ) :   0.8160 B(  2-N ,  3-C ) :   1.0259
B(  2-N ,  6-H ) :   0.8298 B(  2-N ,  7-C ) :   0.9809 B(  7-C ,  8-C ) :   0.9982
B(  7-C ,  9-H ) :   0.8987 B(  7-C , 10-H ) :   0.9026 B(  8-C , 11-H ) :   0.9168
B(  8-C , 12-H ) :   0.9250 B(  8-C , 13-H ) :   0.9288

Dispersion correction           -0.006676059
FINAL SINGLE POINT ENERGY      -625.869019501056

DIPOLE MOMENT
-------------
                                X             Y             Z
Electronic contribution:      1.35083      10.84635      -0.33676
Nuclear contribution   :     -3.00522     -12.14484       0.19529
                        -----------------------------------------
Total Dipole Moment    :     -1.65439      -1.29850      -0.14147
                        -----------------------------------------
Magnitude (a.u.)       :      2.10787
Magnitude (Debye)      :      5.35777

Rotational constants in cm-1:     0.206423     0.049776     0.042624
Rotational constants in MHz :  6188.418344  1492.247510  1277.839129

                             ****ORCA TERMINATED NORMALLY****
TOTAL RUN TIME: 0 days 0 hours 1 minutes 22 seconds 572 msec
