                         Program Version 5.0.3 -  RELEASE  -
|  1> ! PBEh-3c def2/J TightSCF DefGrid3
|  2>
|  3> %maxcore 60000
|  4>
|  5> %pal
|  6> nprocs 4
|  7> end
|  8>
|  9> *xyzfile 0 2 oh.xyz
| 10>
| 11>                          ****END OF INPUT****

CARTESIAN COORDINATES (ANGSTROEM)
---------------------------------
  O      0.057524    0.000000    0.000000
  H     -0.913136    0.000000    0.000000

 Total Charge           Charge          ....    0
 Multiplicity           Mult            ....    2
 Number of Electrons    NEL             ....    9
 Basis Dimension        Dim             ....   17

ORBITAL ENERGIES
----------------
                 SPIN UP ORBITALS
  NO   OCC          E(Eh)            E(eV)
   0   1.0000     -19.550499      -531.9961
   1   1.0000      -1.118939       -30.4479
   2   1.0000      -0.532611       -14.4931
   3   1.0000      -0.477825       -13.0023
   4   1.0000      -0.397351       -10.8125
   5   0.0000       0.132649         3.6096
   6   0.0000       0.886982        24.1360
   7   0.0000       0.910777        24.7835
   8   0.0000       0.963007        26.2048
   9   0.0000       1.026700        27.9379

                 SPIN DOWN ORBITALS
  NO   OCC          E(Eh)            E(eV)
   0   1.0000     -19.522531      -531.2351
   1   1.0000      -1.027953       -27.9720
   2   1.0000      -0.501381       -13.6433
   3   1.0000      -0.365422        -9.9436
   4   0.0000      -0.082526        -2.2457
   5   0.0000       0.144171         3.9231
   6   0.0000       0.898112        24.4389
   7   0.0000       0.982366        26.7315
   8   0.0000       1.037048        28.2195

MULLIKEN ATOMIC CHARGES AND SPIN POPULATIONS
--------------------------------------------
   0 O :   -0.420212    1.035703
   1 H :    0.420212   -0.035703
Sum of atomic charges         :    0.0000000

LOEWDIN ATOMIC CHARGES AND SPIN POPULATIONS
-------------------------------------------
   0 O :   -0.290928    1.026227
   1 H :    0.290928   -0.026227

  Mayer bond orders larger than 0.100000
B(  0-O ,  1-H ) :   0.8031

Dispersion correction           -0.000087280
FINAL SINGLE POINT ENERGY       -75.573094519944

DIPOLE MOMENT
-------------
                                X             Y             Z
Electronic contribution:      0.13433       0.00000       0.00000
Nuclear contribution   :     -0.85583       0.00000       0.00000
                        -----------------------------------------
Total Dipole Moment    :     -0.72149       0.00000       0.00000
                        -----------------------------------------
Magnitude (a.u.)       :      0.72149
Magnitude (Debye)      :      1.83389

Rotational constants in cm-1:     0.000000    18.868487    18.868487
Rotational constants in MHz :     0.000000 565662.994677 565662.994677

                             ****ORCA TERMINATED NORMALLY****
TOTAL RUN TIME: 0 days 0 hours 0 minutes 52 seconds 124 msec
