                         Program Version 5.0.3 -  RELEASE  -
|  1> ! PBEh-3c def2/J TightSCF DefGrid3
|  2>
|  3> %maxcore 60000
|  4>
|  5> %pal
|  6> nprocs 4
|  7> end
|  8>
|  9> *xyzfile 0 2 sif.xyz
| 10>
| 11>                          ****END OF INPUT****

CARTESIAN COORDINATES (ANGSTROEM)
---------------------------------
  F     -0.959009    0.000000    0.000000
  Si     0.648721    0.000000    0.000000

 Total Charge           Charge          ....    0
 Multiplicity           Mult            ....    2
 Number of Electrons    NEL             ....   23
 Basis Dimension        Dim             ....   33

ORBITAL ENERGIES
----------------
                 SPIN UP ORBITALS
  NO   OCC          E(Eh)            E(eV)
   0   1.0000     -66.799567     -1817.7086
   1   1.0000     -25.097511      -682.9380
   2   1.0000      -5.569413      -151.5514
   3   1.0000      -3.860524      -105.0502
   4   1.0000      -3.860442      -105.0480
   5   1.0000      -3.857424      -104.9659
   6   1.0000      -1.313642       -35.7460
   7   1.0000      -0.608244       -16.5512
   8   1.0000      -0.523202       -14.2370
   9   1.0000      -0.512349       -13.9417
  10   1.0000      -0.407574       -11.0906
  11   1.0000      -0.205528        -5.5927
  12   0.0000      -0.075526        -2.0552
  13   0.0000       0.049870         1.3570
  14   0.0000       0.198420         5.3993
  15   0.0000       0.412982        11.2378
  16   0.0000       0.426054        11.5935

                 SPIN DOWN ORBITALS
  NO   OCC          E(Eh)            E(eV)
   0   1.0000     -66.796144     -1817.6155
   1   1.0000     -25.094523      -682.8567
   2   1.0000      -5.565560      -151.4466
   3   1.0000      -3.858562      -104.9968
   4   1.0000      -3.855719      -104.9195
   5   1.0000      -3.845997      -104.6549
   6   1.0000      -1.307064       -35.5670
   7   1.0000      -0.596425       -16.2295
   8   1.0000      -0.510399       -13.8887
   9   1.0000      -0.500588       -13.6217
  10   1.0000      -0.372010       -10.1229
  11   0.0000      -0.063591        -1.7304
  12   0.0000      -0.028422        -0.7734
  13   0.0000       0.063988         1.7412
  14   0.0000       0.213291         5.8039
  15   0.0000       0.433300        11.7907

MULLIKEN ATOMIC CHARGES AND SPIN POPULATIONS
--------------------------------------------
   0 F :   -0.458392    0.037457
   1 Si:    0.458392    0.962543
Sum of atomic charges         :    0.0000000

LOEWDIN ATOMIC CHARGES AND SPIN POPULATIONS
-------------------------------------------
   0 F :   -0.249083    0.064222
   1 Si:    0.249083    0.935778

  Mayer bond orders larger than 0.100000
B(  0-F ,  1-Si) :   0.9502

Dispersion correction           -0.000218217
FINAL SINGLE POINT ENERGY      -388.753533649201

DIPOLE MOMENT
-------------
                                X             Y             Z
Electronic contribution:     -0.50973       0.00000      -0.00000
Nuclear contribution   :      0.85162       0.00000       0.00000
                        -----------------------------------------
Total Dipole Moment    :      0.34189       0.00000      -0.00000
                        -----------------------------------------
Magnitude (a.u.)       :      0.34189
Magnitude (Debye)      :      0.86902

Rotational constants in cm-1:     0.000000     0.575501     0.575501
Rotational constants in MHz :     0.000000 17253.094566 17253.094566

                             ****ORCA TERMINATED NORMALLY****
TOTAL RUN TIME: 0 days 0 hours 0 minutes 35 seconds 904 msec
