                         Program Version 5.0.3 -  RELEASE  -
|  1> ! PBEh-3c def2/J TightSCF DefGrid3
|  2>
|  3> %maxcore 60000
|  4>
|  5> %pal
|  6> nprocs 4
|  7> end
|  8>
|  9> *xyzfile 0 2 pme2.xyz
| 10>
| 11>                          ****END OF INPUT****

CARTESIAN COORDINATES (ANGSTROEM)
---------------------------------
  P      0.000000    0.000000   -1.237282
  C     -0.000000    1.391101   -0.033668
  C     -0.000000   -1.391101   -0.033668
  H     -0.000000    2.343693   -0.564770
  H      0.885573    1.351461    0.608026
  H     -0.885573    1.351461    0.608026
  H     -0.000000   -2.343693   -0.564770
  H      0.885573   -1.351461    0.608026
  H     -0.885573   -1.351461    0.608026

 Total Charge           Charge          ....    0
 Multiplicity           Mult            ....    2
 Number of Electrons    NEL             ....   33
 Basis Dimension        Dim             ....   60

ORBITAL ENERGIES
----------------
                 SPIN UP ORBITALS
  NO   OCC          E(Eh)            E(eV)
   0   1.0000     -77.731074     -2115.1701
   1   1.0000     -10.436753      -283.9985
   2   1.0000     -10.436708      -283.9973
   3   1.0000      -6.805425      -185.1850
   4   1.0000      -4.902148      -133.3942
   5   1.0000      -4.894506      -133.1863
   6   1.0000      -4.892609      -133.1347
   7   1.0000      -0.836522       -22.7629
   8   1.0000      -0.774520       -21.0758
   9   1.0000      -0.605864       -16.4864
  10   1.0000      -0.491215       -13.3666
  11   1.0000      -0.486995       -13.2518
  12   1.0000      -0.462240       -12.5782
  13   1.0000      -0.457536       -12.4502
  14   1.0000      -0.385737       -10.4964
  15   1.0000      -0.310097        -8.4382
  16   1.0000      -0.248450        -6.7607
  17   0.0000       0.092454         2.5158
  18   0.0000       0.124933         3.3996
  19   0.0000       0.161541         4.3957
  20   0.0000       0.171772         4.6741
  21   0.0000       0.192882         5.2486

                 SPIN DOWN ORBITALS
  NO   OCC          E(Eh)            E(eV)
   0   1.0000     -77.726226     -2115.0381
   1   1.0000     -10.437320      -284.0139
   2   1.0000     -10.437275      -284.0127
   3   1.0000      -6.800181      -185.0423
   4   1.0000      -4.891295      -133.0989
   5   1.0000      -4.889873      -133.0602
   6   1.0000      -4.883632      -132.8904
   7   1.0000      -0.826427       -22.4882
   8   1.0000      -0.772963       -21.0334
   9   1.0000      -0.575175       -15.6513
  10   1.0000      -0.485667       -13.2157
  11   1.0000      -0.478313       -13.0156
  12   1.0000      -0.459370       -12.5001
  13   1.0000      -0.451639       -12.2897
  14   1.0000      -0.382340       -10.4040
  15   1.0000      -0.294070        -8.0021
  16   0.0000      -0.052246        -1.4217
  17   0.0000       0.100527         2.7355
  18   0.0000       0.136280         3.7084
  19   0.0000       0.172258         4.6874
  20   0.0000       0.182208         4.9581

MULLIKEN ATOMIC CHARGES AND SPIN POPULATIONS
--------------------------------------------
   0 P :    0.275780    1.011616
   1 C :   -0.872709   -0.055874
   2 C :   -0.872709   -0.055874
   3 H :    0.249764    0.000012
   4 H :    0.242528    0.025027
   5 H :    0.242528    0.025027
   6 H :    0.249764    0.000012
   7 H :    0.242527    0.025027
   8 H :    0.242528    0.025027
Sum of atomic charges         :   -0.0000000

LOEWDIN ATOMIC CHARGES AND SPIN POPULATIONS
-------------------------------------------
   0 P :    0.251059    0.937538
   1 C :   -0.543563   -0.015285
   2 C :   -0.543563   -0.015285
   3 H :    0.140378    0.000264
   4 H :    0.138827    0.023126
   5 H :    0.138827    0.023126
   6 H :    0.140378    0.000264
   7 H :    0.138827    0.023126
   8 H :    0.138827    0.023126

  Mayer bond orders larger than 0.100000
B(  0-P ,  1-C ) :   0.9793 B(  0-P ,  2-C ) :   0.9793 B(  1-C ,  3-H ) :   0.9124
B(  1-C ,  4-H ) :   0.9009 B(  1-C ,  5-H ) :   0.9009 B(  2-C ,  6-H ) :   0.9124
B(  2-C ,  7-H ) :   0.9009 B(  2-C ,  8-H ) :   0.9009

Dispersion correction           -0.003184474
FINAL SINGLE POINT ENERGY      -420.568696484307

DIPOLE MOMENT
-------------
                                X             Y             Z
Electronic contribution:      0.00000      -0.00000      -4.65420
Nuclear contribution   :      0.00000       0.00000       5.26142
                        -----------------------------------------
Total Dipole Moment    :      0.00000      -0.00000       0.60723
                        -----------------------------------------
Magnitude (a.u.)       :      0.60723
Magnitude (Debye)      :      1.54345

Rotational constants in cm-1:     0.575164     0.247592     0.185103
Rotational constants in MHz : 17242.984387  7422.615104  5549.253429

                             ****ORCA TERMINATED NORMALLY****
TOTAL RUN TIME: 0 days 0 hours 1 minutes 56 seconds 523 msec
