                         Program Version 5.0.3 -  RELEASE  -
|  1> ! PBEh-3c def2/J TightSCF DefGrid3
|  2>
|  3> %maxcore 60000
|  4>
|  5> %pal
|  6> nprocs 4
|  7> end
|  8>
|  9> *xyzfile 0 1 P2.xyz
| 10>
| 11>                          ****END OF INPUT****

CARTESIAN COORDINATES (ANGSTROEM)
---------------------------------
  C      0.000000    0.643952    0.599883
  C      0.000000    0.000000   -0.762408
  C      0.000000   -0.643952    0.599883
  H      0.000000    1.573930    1.140664
  H     -0.911879    0.000000   -1.359343
  H      0.911879    0.000000   -1.359343
  H      0.000000   -1.573930    1.140664

 Total Charge           Charge          ....    0
 Multiplicity           Mult            ....    1
 Number of Electrons    NEL             ....   22
 Basis Dimension        Dim             ....   53

ORBITAL ENERGIES
----------------

  NO   OCC          E(Eh)            E(eV)
   0   2.0000     -10.459151      -284.6080
   1   2.0000     -10.457776      -284.5706
   2   2.0000     -10.449599      -284.3480
   3   2.0000      -0.966553       -26.3012
   4   2.0000      -0.675410       -18.3788
   5   2.0000      -0.634138       -17.2558
   6   2.0000      -0.567124       -15.4322
   7   2.0000      -0.493607       -13.4317
   8   2.0000      -0.402690       -10.9578
   9   2.0000      -0.343059        -9.3351
  10   2.0000      -0.296689        -8.0733
  11   0.0000       0.039645         1.0788
  12   0.0000       0.162333         4.4173
  13   0.0000       0.170993         4.6530
  14   0.0000       0.202851         5.5199
  15   0.0000       0.220968         6.0128

MULLIKEN ATOMIC CHARGES
-----------------------
   0 C :   -0.196576
   1 C :   -0.442104
   2 C :   -0.196576
   3 H :    0.212584
   4 H :    0.205044
   5 H :    0.205044
   6 H :    0.212584
Sum of atomic charges:   -0.0000000

LOEWDIN ATOMIC CHARGES
----------------------
   0 C :   -0.127920
   1 C :   -0.247275
   2 C :   -0.127920
   3 H :    0.142381
   4 H :    0.109177
   5 H :    0.109177
   6 H :    0.142381

  Mayer bond orders larger than 0.100000
B(  0-C ,  1-C ) :   0.9462 B(  0-C ,  2-C ) :   1.8744 B(  0-C ,  3-H ) :   0.9211
B(  1-C ,  2-C ) :   0.9462 B(  1-C ,  4-H ) :   0.9149 B(  1-C ,  5-H ) :   0.9149
B(  2-C ,  6-H ) :   0.9211

Dispersion correction           -0.001897417
FINAL SINGLE POINT ENERGY      -116.353195731578

DIPOLE MOMENT
-------------
                                X             Y             Z
Electronic contribution:      0.00000      -0.00000       1.05414
Nuclear contribution   :      0.00000       0.00000      -0.86106
                        -----------------------------------------
Total Dipole Moment    :      0.00000      -0.00000       0.19308
                        -----------------------------------------
Magnitude (a.u.)       :      0.19308
Magnitude (Debye)      :      0.49077

Rotational constants in cm-1:     1.013579     0.730631     0.463736
Rotational constants in MHz : 30386.334139 21903.777959 13902.457927

                             ****ORCA TERMINATED NORMALLY****
TOTAL RUN TIME: 0 days 0 hours 0 minutes 47 seconds 605 msec
