                         Program Version 5.0.3 -  RELEASE  -
|  1> ! PBEh-3c def2/J TightSCF DefGrid3
|  2>
|  3> %maxcore 60000
|  4>
|  5> %pal
|  6> nprocs 4
|  7> end
|  8>
|  9> *xyzfile -1 1 2p.xyz
| 10>
| 11>                          ****END OF INPUT****

CARTESIAN COORDINATES (ANGSTROEM)
---------------------------------
  H     -2.800459   -1.439761    2.793686
  O     -2.665814   -1.108114    1.891541
  C     -2.579461   -2.239220    1.004954
  H     -3.469475   -2.873539    1.098748
  H     -1.688070   -2.841662    1.226037
  C     -2.471054   -1.727348   -0.417349
  H     -2.264387   -2.575618   -1.076172
  O     -3.736848   -1.131824   -0.841384
  C     -3.545733    0.231646   -1.204317
  H     -3.542275    0.362112   -2.289424
  N     -4.692894    0.998884   -0.706946
  C     -4.998619    0.942444    0.633233
  H     -4.342104    0.302664    1.217953
  C     -6.043294    1.611640    1.174766
  H     -6.257242    1.542943    2.232785
  C     -6.891770    2.419737    0.333698
  O     -7.869611    3.084475    0.695675
  N     -6.527160    2.396116   -1.020754
  H     -7.101353    2.941687   -1.658645
  C     -5.473776    1.724665   -1.607654
  O     -5.254296    1.767134   -2.816341
  C     -1.399452   -0.650215   -0.618696
  H     -0.620809   -0.682035    0.146215
  C     -2.196614    0.660421   -0.590571
  H     -2.340244    0.972373    0.446099
  O     -1.581480    1.736389   -1.276683
  H     -1.173347    1.343864   -2.072997
  O     -0.820103   -0.754752   -1.935606
  P      0.635738   -1.525335   -2.058111
  O      0.918602   -1.568871   -3.528648
  O      0.630459   -2.742879   -1.186082
  O      1.656997   -0.489625   -1.310816
  C      1.953624    0.797269   -1.893592
  H      1.244474    1.538037   -1.509855
  H      1.876331    0.740645   -2.984865
  C      3.370333    1.175306   -1.505947
  H      3.627382    2.130436   -1.975034
  O      3.467210    1.352181   -0.058486
  C      4.364106    0.386593    0.494597
  H      5.315281    0.853878    0.760192
  N      3.805556   -0.103754    1.757294
  C      2.649622   -0.852657    1.751723
  H      2.230088   -1.032192    0.767044
  C      2.066070   -1.310480    2.884054
  H      1.161809   -1.903588    2.846498
  C      2.644887   -0.995913    4.167221
  O      2.218970   -1.347437    5.273182
  N      3.785948   -0.183643    4.085983
  H      4.214397    0.092424    4.966474
  C      4.407828    0.299866    2.953468
  O      5.392320    1.033744    3.004925
  C      4.406658    0.106707   -1.878326
  H      4.070278   -0.521646   -2.705196
  C      4.583566   -0.696315   -0.579163
  H      3.814410   -1.467939   -0.517754
  O      5.847144   -1.329653   -0.479561
  H      6.459675   -0.748345   -0.977367
  O      5.683052    0.700428   -2.187460
  H      5.844932    0.597650   -3.138245

 Total Charge           Charge          ....   -1
 Multiplicity           Mult            ....    1
 Number of Electrons    NEL             ....  286
 Basis Dimension        Dim             ....  602

ORBITAL ENERGIES
----------------

  NO   OCC          E(Eh)            E(eV)
   0   2.0000     -77.730159     -2115.1452
   1   2.0000     -19.448571      -529.2225
   2   2.0000     -19.439037      -528.9631
   3   2.0000     -19.430350      -528.7267
   4   2.0000     -19.429826      -528.7124
   5   2.0000     -19.416750      -528.3566
   6   2.0000     -19.412216      -528.2333
   7   2.0000     -19.405442      -528.0489
   8   2.0000     -19.403121      -527.9858
   9   2.0000     -19.402705      -527.9744
  10   2.0000     -19.399711      -527.8930
  11   2.0000     -19.398438      -527.8583
  12   2.0000     -19.390958      -527.6548
  13   2.0000     -19.290382      -524.9180
  14   2.0000     -19.285672      -524.7898
  15   2.0000     -14.636069      -398.2677
  16   2.0000     -14.630981      -398.1292
  17   2.0000     -14.622900      -397.9093
  18   2.0000     -14.617319      -397.7575
  19   2.0000     -10.529403      -286.5196
  20   2.0000     -10.525265      -286.4070
  21   2.0000     -10.496967      -285.6370
  22   2.0000     -10.488748      -285.4134
  23   2.0000     -10.457363      -284.5593
  24   2.0000     -10.456970      -284.5486
  25   2.0000     -10.446907      -284.2748
  26   2.0000     -10.433993      -283.9234
  27   2.0000     -10.433631      -283.9135
  28   2.0000     -10.424544      -283.6663
  29   2.0000     -10.422238      -283.6035
  30   2.0000     -10.420732      -283.5625
  31   2.0000     -10.417859      -283.4844
  32   2.0000     -10.416629      -283.4509
  33   2.0000     -10.414238      -283.3858
  34   2.0000     -10.405480      -283.1475
  35   2.0000     -10.384666      -282.5811
  36   2.0000     -10.372819      -282.2588
  37   2.0000      -6.774638      -184.3473
  38   2.0000      -4.869821      -132.5146
  39   2.0000      -4.868432      -132.4768
  40   2.0000      -4.866075      -132.4126
  41   2.0000      -1.114264       -30.3207
  42   2.0000      -1.110584       -30.2205
  43   2.0000      -1.093664       -29.7601
  44   2.0000      -1.088189       -29.6111
  45   2.0000      -1.071443       -29.1554
  46   2.0000      -1.070508       -29.1300
  47   2.0000      -1.065234       -28.9865
  48   2.0000      -1.063856       -28.9490
  49   2.0000      -1.058745       -28.8099
  50   2.0000      -1.045691       -28.4547
  51   2.0000      -1.043975       -28.4080
  52   2.0000      -1.015622       -27.6365
  53   2.0000      -1.003058       -27.2946
  54   2.0000      -0.998179       -27.1618
  55   2.0000      -0.955450       -25.9991
  56   2.0000      -0.950047       -25.8521
  57   2.0000      -0.919365       -25.0172
  58   2.0000      -0.878278       -23.8992
  59   2.0000      -0.820741       -22.3335
  60   2.0000      -0.811671       -22.0867
  61   2.0000      -0.795161       -21.6374
  62   2.0000      -0.787888       -21.4395
  63   2.0000      -0.767218       -20.8771
  64   2.0000      -0.766820       -20.8662
  65   2.0000      -0.698046       -18.9948
  66   2.0000      -0.696031       -18.9400
  67   2.0000      -0.693412       -18.8687
  68   2.0000      -0.688328       -18.7303
  69   2.0000      -0.647436       -17.6176
  70   2.0000      -0.644200       -17.5296
  71   2.0000      -0.612851       -16.6765
  72   2.0000      -0.611178       -16.6310
  73   2.0000      -0.593230       -16.1426
  74   2.0000      -0.587491       -15.9864
  75   2.0000      -0.560120       -15.2416
  76   2.0000      -0.558139       -15.1877
  77   2.0000      -0.554105       -15.0780
  78   2.0000      -0.552961       -15.0468
  79   2.0000      -0.537329       -14.6215
  80   2.0000      -0.532459       -14.4890
  81   2.0000      -0.524334       -14.2679
  82   2.0000      -0.517085       -14.0706
  83   2.0000      -0.504146       -13.7185
  84   2.0000      -0.497494       -13.5375
  85   2.0000      -0.492619       -13.4048
  86   2.0000      -0.480695       -13.0804
  87   2.0000      -0.475901       -12.9499
  88   2.0000      -0.471863       -12.8400
  89   2.0000      -0.461752       -12.5649
  90   2.0000      -0.460195       -12.5225
  91   2.0000      -0.449945       -12.2436
  92   2.0000      -0.447636       -12.1808
  93   2.0000      -0.440020       -11.9736
  94   2.0000      -0.436410       -11.8753
  95   2.0000      -0.433885       -11.8066
  96   2.0000      -0.432423       -11.7668
  97   2.0000      -0.424909       -11.5624
  98   2.0000      -0.422538       -11.4978
  99   2.0000      -0.415757       -11.3133
 100   2.0000      -0.410367       -11.1667
 101   2.0000      -0.408809       -11.1243
 102   2.0000      -0.405471       -11.0334
 103   2.0000      -0.402737       -10.9590
 104   2.0000      -0.398700       -10.8492
 105   2.0000      -0.397256       -10.8099
 106   2.0000      -0.393652       -10.7118
 107   2.0000      -0.381289       -10.3754
 108   2.0000      -0.379488       -10.3264
 109   2.0000      -0.376542       -10.2462
 110   2.0000      -0.374146       -10.1810
 111   2.0000      -0.359005        -9.7690
 112   2.0000      -0.351877        -9.5751
 113   2.0000      -0.349507        -9.5106
 114   2.0000      -0.338701        -9.2165
 115   2.0000      -0.337613        -9.1869
 116   2.0000      -0.335063        -9.1175
 117   2.0000      -0.332132        -9.0378
 118   2.0000      -0.323763        -8.8100
 119   2.0000      -0.313643        -8.5346
 120   2.0000      -0.311681        -8.4813
 121   2.0000      -0.302783        -8.2391
 122   2.0000      -0.286947        -7.8082
 123   2.0000      -0.283786        -7.7222
 124   2.0000      -0.279775        -7.6131
 125   2.0000      -0.275629        -7.5002
 126   2.0000      -0.274929        -7.4812
 127   2.0000      -0.264840        -7.2067
 128   2.0000      -0.262519        -7.1435
 129   2.0000      -0.261608        -7.1187
 130   2.0000      -0.257392        -7.0040
 131   2.0000      -0.253665        -6.9026
 132   2.0000      -0.246934        -6.7194
 133   2.0000      -0.246383        -6.7044
 134   2.0000      -0.244808        -6.6616
 135   2.0000      -0.239491        -6.5169
 136   2.0000      -0.237126        -6.4525
 137   2.0000      -0.217005        -5.9050
 138   2.0000      -0.208854        -5.6832
 139   2.0000      -0.203042        -5.5251
 140   2.0000      -0.200479        -5.4553
 141   2.0000      -0.182204        -4.9580
 142   2.0000      -0.168663        -4.5896
 143   0.0000       0.056907         1.5485
 144   0.0000       0.066950         1.8218
 145   0.0000       0.114783         3.1234
 146   0.0000       0.119399         3.2490
 147   0.0000       0.160571         4.3694

MULLIKEN ATOMIC CHARGES
-----------------------
   0 H :    0.425488
   1 O :   -0.644997
   2 C :   -0.193402
   3 H :    0.201502
   4 H :    0.226776
   5 C :    0.014949
   6 H :    0.275959
   7 O :   -0.494672
   8 C :    0.184192
   9 H :    0.277635
  10 N :   -0.567139
  11 C :    0.094431
  12 H :    0.316198
  13 C :   -0.489326
  14 H :    0.243914
  15 C :    0.563949
  16 O :   -0.431786
  17 N :   -0.736466
  18 H :    0.388230
  19 C :    0.727447
  20 O :   -0.441345
  21 C :   -0.052337
  22 H :    0.259636
  23 C :   -0.011503
  24 H :    0.250206
  25 O :   -0.636620
  26 H :    0.434592
  27 O :   -0.640180
  28 P :    1.390960
  29 O :   -0.724596
  30 O :   -0.743487
  31 O :   -0.636397
  32 C :   -0.177839
  33 H :    0.226283
  34 H :    0.220011
  35 C :    0.012860
  36 H :    0.222630
  37 O :   -0.481016
  38 C :    0.195869
  39 H :    0.263393
  40 N :   -0.575996
  41 C :    0.083211
  42 H :    0.357047
  43 C :   -0.487344
  44 H :    0.254770
  45 C :    0.561598
  46 O :   -0.434323
  47 N :   -0.736456
  48 H :    0.385362
  49 C :    0.730952
  50 O :   -0.450479
  51 C :   -0.085896
  52 H :    0.272373
  53 C :   -0.024517
  54 H :    0.288303
  55 O :   -0.636136
  56 H :    0.417627
  57 O :   -0.661369
  58 H :    0.427270
Sum of atomic charges:   -1.0000000

LOEWDIN ATOMIC CHARGES
----------------------
   0 H :    0.313902
   1 O :   -0.421790
   2 C :   -0.099721
   3 H :    0.110589
   4 H :    0.124863
   5 C :   -0.014186
   6 H :    0.150594
   7 O :   -0.253506
   8 C :    0.064661
   9 H :    0.148114
  10 N :   -0.083399
  11 C :    0.004491
  12 H :    0.165097
  13 C :   -0.256768
  14 H :    0.155308
  15 C :    0.127184
  16 O :   -0.283184
  17 N :   -0.202082
  18 H :    0.282319
  19 C :    0.167123
  20 O :   -0.281817
  21 C :   -0.027853
  22 H :    0.136523
  23 C :   -0.040242
  24 H :    0.135387
  25 O :   -0.387573
  26 H :    0.317000
  27 O :   -0.352488
  28 P :    0.803350
  29 O :   -0.602822
  30 O :   -0.611037
  31 O :   -0.360564
  32 C :   -0.097708
  33 H :    0.123754
  34 H :    0.128961
  35 C :   -0.018506
  36 H :    0.125951
  37 O :   -0.251656
  38 C :    0.063964
  39 H :    0.142994
  40 N :   -0.085283
  41 C :    0.010569
  42 H :    0.178474
  43 C :   -0.250547
  44 H :    0.160426
  45 C :    0.126384
  46 O :   -0.285037
  47 N :   -0.202117
  48 H :    0.280832
  49 C :    0.168472
  50 O :   -0.288796
  51 C :   -0.035811
  52 H :    0.139419
  53 C :   -0.044228
  54 H :    0.151795
  55 O :   -0.390834
  56 H :    0.308435
  57 O :   -0.406766
  58 H :    0.319387

  Mayer bond orders larger than 0.100000
B(  0-H ,  1-O ) :   0.7867 B(  1-O ,  2-C ) :   0.9680 B(  2-C ,  3-H ) :   0.9056
B(  2-C ,  4-H ) :   0.8893 B(  2-C ,  5-C ) :   0.9475 B(  5-C ,  6-H ) :   0.8842
B(  5-C ,  7-O ) :   0.9201 B(  5-C , 21-C ) :   0.9261 B(  7-O ,  8-C ) :   0.9923
B(  8-C ,  9-H ) :   0.8636 B(  8-C , 10-N ) :   0.8865 B(  8-C , 23-C ) :   0.8907
B( 10-N , 11-C ) :   1.0763 B( 10-N , 19-C ) :   1.0231 B( 11-C , 12-H ) :   0.8331
B( 11-C , 13-C ) :   1.5960 B( 13-C , 14-H ) :   0.9206 B( 13-C , 15-C ) :   1.0782
B( 15-C , 16-O ) :   1.9971 B( 15-C , 17-N ) :   0.9915 B( 17-N , 18-H ) :   0.8047
B( 17-N , 19-C ) :   1.0542 B( 19-C , 20-O ) :   1.9756 B( 21-C , 22-H ) :   0.8825
B( 21-C , 23-C ) :   0.9368 B( 21-C , 27-O ) :   0.8962 B( 23-C , 24-H ) :   0.8906
B( 23-C , 25-O ) :   1.0535 B( 25-O , 26-H ) :   0.7441 B( 27-O , 28-P ) :   0.8364
B( 28-P , 29-O ) :   1.7586 B( 28-P , 30-O ) :   1.7044 B( 28-P , 31-O ) :   0.8275
B( 31-O , 32-C ) :   0.9217 B( 32-C , 33-H ) :   0.8928 B( 32-C , 34-H ) :   0.8806
B( 32-C , 35-C ) :   0.9456 B( 35-C , 36-H ) :   0.9029 B( 35-C , 37-O ) :   0.9405
B( 35-C , 51-C ) :   0.9269 B( 37-O , 38-C ) :   0.9983 B( 38-C , 39-H ) :   0.8674
B( 38-C , 40-N ) :   0.9022 B( 38-C , 53-C ) :   0.8899 B( 40-N , 41-C ) :   1.0575
B( 40-N , 49-C ) :   1.0225 B( 41-C , 42-H ) :   0.8096 B( 41-C , 43-C ) :   1.6093
B( 43-C , 44-H ) :   0.9159 B( 43-C , 45-C ) :   1.0768 B( 45-C , 46-O ) :   1.9950
B( 45-C , 47-N ) :   0.9847 B( 47-N , 48-H ) :   0.8063 B( 47-N , 49-C ) :   1.0625
B( 49-C , 50-O ) :   1.9642 B( 51-C , 52-H ) :   0.8874 B( 51-C , 53-C ) :   0.9440
B( 51-C , 57-O ) :   0.9519 B( 53-C , 54-H ) :   0.8689 B( 53-C , 55-O ) :   1.0439
B( 55-O , 56-H ) :   0.7535 B( 57-O , 58-H ) :   0.7874

Dispersion correction           -0.046974773
FINAL SINGLE POINT ENERGY     -2308.316606788155

DIPOLE MOMENT
-------------
                                X             Y             Z
Electronic contribution:     -3.86627       2.14253       0.35969
Nuclear contribution   :      4.43091      -1.25974       0.38433
                        -----------------------------------------
Total Dipole Moment    :      0.56464       0.88279       0.74402
                        -----------------------------------------
Magnitude (a.u.)       :      1.28519
Magnitude (Debye)      :      3.26669

Rotational constants in cm-1:     0.005231     0.001687     0.001488
Rotational constants in MHz :   156.824455    50.589243    44.597942

                             ****ORCA TERMINATED NORMALLY****
TOTAL RUN TIME: 0 days 0 hours 14 minutes 36 seconds 611 msec
