                         Program Version 5.0.3 -  RELEASE  -
|  1> ! PBEh-3c def2/J TightSCF DefGrid3
|  2>
|  3> %maxcore 60000
|  4>
|  5> %pal
|  6> nprocs 4
|  7> end
|  8>
|  9> *xyzfile 0 1 ethanol.xyz
| 10>
| 11>                          ****END OF INPUT****

CARTESIAN COORDINATES (ANGSTROEM)
---------------------------------
  H      1.919060   -0.190021    0.000000
  O      1.110487    0.324314    0.000000
  C      0.008089   -0.577326    0.000000
  C     -1.258418    0.250569    0.000000
  H      0.037606   -1.221238    0.885595
  H      0.037606   -1.221238   -0.885595
  H     -2.136964   -0.395969    0.000000
  H     -1.292590    0.887111   -0.884130
  H     -1.292590    0.887111    0.884130

 Total Charge           Charge          ....    0
 Multiplicity           Mult            ....    1
 Number of Electrons    NEL             ....   26
 Basis Dimension        Dim             ....   57

ORBITAL ENERGIES
----------------

  NO   OCC          E(Eh)            E(eV)
   0   2.0000     -19.479862      -530.0740
   1   2.0000     -10.479568      -285.1635
   2   2.0000     -10.420339      -283.5518
   3   2.0000      -1.117856       -30.4184
   4   2.0000      -0.833394       -22.6778
   5   2.0000      -0.682100       -18.5609
   6   2.0000      -0.576776       -15.6949
   7   2.0000      -0.524724       -14.2785
   8   2.0000      -0.456058       -12.4100
   9   2.0000      -0.433048       -11.7838
  10   2.0000      -0.416724       -11.3396
  11   2.0000      -0.381658       -10.3854
  12   2.0000      -0.321551        -8.7499
  13   0.0000       0.133096         3.6217
  14   0.0000       0.169378         4.6090
  15   0.0000       0.213648         5.8137
  16   0.0000       0.216311         5.8861
  17   0.0000       0.230285         6.2664

MULLIKEN ATOMIC CHARGES
-----------------------
   0 H :    0.414719
   1 O :   -0.628740
   2 C :   -0.147469
   3 C :   -0.653435
   4 H :    0.177382
   5 H :    0.177382
   6 H :    0.205573
   7 H :    0.227294
   8 H :    0.227294
Sum of atomic charges:   -0.0000000

LOEWDIN ATOMIC CHARGES
----------------------
   0 H :    0.306639
   1 O :   -0.421168
   2 C :   -0.096081
   3 C :   -0.372980
   4 H :    0.095021
   5 H :    0.095021
   6 H :    0.126804
   7 H :    0.133372
   8 H :    0.133372

  Mayer bond orders larger than 0.100000
B(  0-H ,  1-O ) :   0.7950 B(  1-O ,  2-C ) :   1.0141 B(  2-C ,  3-C ) :   0.9938
B(  2-C ,  4-H ) :   0.9090 B(  2-C ,  5-H ) :   0.9090 B(  3-C ,  6-H ) :   0.9276
B(  3-C ,  7-H ) :   0.9231 B(  3-C ,  8-H ) :   0.9231

Dispersion correction           -0.002418187
FINAL SINGLE POINT ENERGY      -154.700555597175

DIPOLE MOMENT
-------------
                                X             Y             Z
Electronic contribution:      2.62513       0.53688       0.00000
Nuclear contribution   :     -2.54271      -1.17188       0.00000
                        -----------------------------------------
Total Dipole Moment    :      0.08242      -0.63499       0.00000
                        -----------------------------------------
Magnitude (a.u.)       :      0.64032
Magnitude (Debye)      :      1.62757

Rotational constants in cm-1:     1.171901     0.314539     0.273371
Rotational constants in MHz : 35132.702648  9429.637027  8195.470952

                             ****ORCA TERMINATED NORMALLY****
TOTAL RUN TIME: 0 days 0 hours 0 minutes 56 seconds 12 msec
