                         Program Version 5.0.3 -  RELEASE  -
|  1> ! PBEh-3c def2/J TightSCF DefGrid3
|  2>
|  3> %maxcore 60000
|  4>
|  5> %pal
|  6> nprocs 4
|  7> end
|  8>
|  9> *xyzfile 0 2 P31.xyz
| 10>
| 11>                          ****END OF INPUT****

CARTESIAN COORDINATES (ANGSTROEM)
---------------------------------
  C     -1.607571    0.544822    0.000000
  O     -0.442992    1.244815    0.000000
  C      0.810029    0.665626    0.000000
  O      1.759839    1.395799    0.000000
  C      0.879591   -0.839704    0.000000
  H     -1.615575   -0.532218    0.000000
  H     -2.489116    1.161956    0.000000
  H      0.389417   -1.256430    0.882816
  H      0.389417   -1.256430   -0.882816
  H      1.926961   -1.128236    0.000000

 Total Charge           Charge          ....    0
 Multiplicity           Mult            ....    2
 Number of Electrons    NEL             ....   39
 Basis Dimension        Dim             ....   85

ORBITAL ENERGIES
----------------
                 SPIN UP ORBITALS
  NO   OCC          E(Eh)            E(eV)
   0   1.0000     -19.564888      -532.3877
   1   1.0000     -19.492932      -530.4297
   2   1.0000     -10.592958      -288.2490
   3   1.0000     -10.509896      -285.9888
   4   1.0000     -10.465150      -284.7712
   5   1.0000      -1.234026       -33.5795
   6   1.0000      -1.148949       -31.2645
   7   1.0000      -0.857476       -23.3331
   8   1.0000      -0.808881       -22.0108
   9   1.0000      -0.654474       -17.8091
  10   1.0000      -0.585686       -15.9373
  11   1.0000      -0.568246       -15.4628
  12   1.0000      -0.556721       -15.1491
  13   1.0000      -0.500298       -13.6138
  14   1.0000      -0.482863       -13.1394
  15   1.0000      -0.482206       -13.1215
  16   1.0000      -0.425749       -11.5852
  17   1.0000      -0.420003       -11.4289
  18   1.0000      -0.344092        -9.3632
  19   1.0000      -0.249053        -6.7771
  20   0.0000       0.034565         0.9406
  21   0.0000       0.130429         3.5491
  22   0.0000       0.162402         4.4192
  23   0.0000       0.167437         4.5562
  24   0.0000       0.201235         5.4759

                 SPIN DOWN ORBITALS
  NO   OCC          E(Eh)            E(eV)
   0   1.0000     -19.561592      -532.2980
   1   1.0000     -19.490815      -530.3720
   2   1.0000     -10.593206      -288.2558
   3   1.0000     -10.494200      -285.5617
   4   1.0000     -10.465171      -284.7718
   5   1.0000      -1.225809       -33.3560
   6   1.0000      -1.142461       -31.0879
   7   1.0000      -0.856104       -23.2958
   8   1.0000      -0.780638       -21.2422
   9   1.0000      -0.638581       -17.3767
  10   1.0000      -0.583268       -15.8715
  11   1.0000      -0.560821       -15.2607
  12   1.0000      -0.541665       -14.7395
  13   1.0000      -0.495435       -13.4815
  14   1.0000      -0.480619       -13.0783
  15   1.0000      -0.467313       -12.7162
  16   1.0000      -0.421452       -11.4683
  17   1.0000      -0.392421       -10.6783
  18   1.0000      -0.341929        -9.3044
  19   0.0000      -0.023452        -0.6381
  20   0.0000       0.056190         1.5290
  21   0.0000       0.134955         3.6723
  22   0.0000       0.168446         4.5837
  23   0.0000       0.185410         5.0453

MULLIKEN ATOMIC CHARGES AND SPIN POPULATIONS
--------------------------------------------
   0 C :   -0.250126    1.012068
   1 O :   -0.386210    0.057031
   2 C :    0.550281   -0.014985
   3 O :   -0.342711    0.068625
   4 C :   -0.810292   -0.001018
   5 H :    0.211860   -0.058238
   6 H :    0.236824   -0.061681
   7 H :    0.253166   -0.000627
   8 H :    0.253166   -0.000627
   9 H :    0.284042   -0.000547
Sum of atomic charges         :    0.0000000

LOEWDIN ATOMIC CHARGES AND SPIN POPULATIONS
-------------------------------------------
   0 C :   -0.172687    0.901508
   1 O :   -0.124139    0.099045
   2 C :    0.153443   -0.002623
   3 O :   -0.177616    0.063301
   4 C :   -0.405813   -0.000609
   5 H :    0.119003   -0.028966
   6 H :    0.136166   -0.029892
   7 H :    0.153992   -0.000679
   8 H :    0.153992   -0.000679
   9 H :    0.163660   -0.000406

  Mayer bond orders larger than 0.100000
B(  0-C ,  1-O ) :   1.0928 B(  0-C ,  5-H ) :   0.8930 B(  0-C ,  6-H ) :   0.9111
B(  1-O ,  2-C ) :   1.0224 B(  2-C ,  3-O ) :   2.1087 B(  2-C ,  4-C ) :   0.9463
B(  4-C ,  7-H ) :   0.8998 B(  4-C ,  8-H ) :   0.8998 B(  4-C ,  9-H ) :   0.9056

Dispersion correction           -0.003558579
FINAL SINGLE POINT ENERGY      -267.140490122811

DIPOLE MOMENT
-------------
                                X             Y             Z
Electronic contribution:      1.77646       4.31527       0.00000
Nuclear contribution   :     -2.62653      -5.60692       0.00000
                        -----------------------------------------
Total Dipole Moment    :     -0.85008      -1.29165       0.00000
                        -----------------------------------------
Magnitude (a.u.)       :      1.54628
Magnitude (Debye)      :      3.93033

Rotational constants in cm-1:     0.307016     0.153858     0.104490
Rotational constants in MHz :  9204.095642  4612.536044  3132.539052

                             ****ORCA TERMINATED NORMALLY****
TOTAL RUN TIME: 0 days 0 hours 3 minutes 1 seconds 187 msec
