                         Program Version 5.0.3 -  RELEASE  -
|  1> ! PBEh-3c def2/J TightSCF DefGrid3
|  2>
|  3> %maxcore 60000
|  4>
|  5> %pal
|  6> nprocs 4
|  7> end
|  8>
|  9> *xyzfile 0 1 i15e.xyz
| 10>
| 11>                          ****END OF INPUT****

CARTESIAN COORDINATES (ANGSTROEM)
---------------------------------
  C      0.299125    1.237197   -0.814044
  C     -0.283311   -0.064415   -1.414534
  C      0.007955   -1.421042   -0.748008
  C      0.087554   -1.215689    0.833483
  C     -0.179121    0.217185    1.446154
  C     -0.319526    1.537722    0.556655
  C     -0.068551    1.921628   -2.171235
  C      0.021117    0.498920   -2.835246
  C     -1.801928   -0.463770   -1.329239
  C     -1.326064   -1.943325   -1.312331
  C      1.365849   -2.154322   -0.724428
  C      1.483326   -1.898167    0.807988
  C     -1.006638   -1.780737    1.778541
  C     -1.424233   -0.341307    2.183038
  C      0.874577    0.950561    2.317726
  C      0.506802    2.300568    1.638889
  O     -1.633600    2.054086    0.343406
  C      1.839560    1.180163   -0.719661
  H      0.615279    2.699328   -2.535497
  H     -1.096677    2.295709   -2.170302
  H     -0.713228    0.260431   -3.613470
  H      1.025321    0.275400   -3.211835
  H     -2.435807   -0.131344   -2.159419
  H     -2.267799   -0.175048   -0.387711
  H     -1.896174   -2.673742   -0.724989
  H     -1.188888   -2.333079   -2.330197
  H      2.143708   -1.684478   -1.338311
  H      1.297162   -3.215239   -0.996285
  H      1.521044   -2.807303    1.422136
  H      2.319405   -1.255705    1.108326
  H     -0.560253   -2.341542    2.609691
  H     -1.786657   -2.400809    1.322571
  H     -2.371196   -0.026121    1.727820
  H     -1.462617   -0.131612    3.260101
  H      1.903654    0.633401    2.120959
  H      0.696587    0.891857    3.399014
  H     -0.162120    2.909232    2.260994
  H      1.330952    2.935363    1.295437
  H     -2.055527    2.125170    1.210783
  H      2.188090    0.525213    0.078638
  H      2.282597    0.821900   -1.652909
  H      2.230252    2.187762   -0.532698

 Total Charge           Charge          ....    0
 Multiplicity           Mult            ....    1
 Number of Electrons    NEL             ....  134
 Basis Dimension        Dim             ....  318

ORBITAL ENERGIES
----------------

  NO   OCC          E(Eh)            E(eV)
   0   2.0000     -19.488197      -530.3008
   1   2.0000     -10.492976      -285.5284
   2   2.0000     -10.446570      -284.2656
   3   2.0000     -10.446433      -284.2619
   4   2.0000     -10.443677      -284.1869
   5   2.0000     -10.441829      -284.1366
   6   2.0000     -10.439546      -284.0745
   7   2.0000     -10.434784      -283.9449
   8   2.0000     -10.434516      -283.9376
   9   2.0000     -10.433176      -283.9012
  10   2.0000     -10.431562      -283.8572
  11   2.0000     -10.430584      -283.8306
  12   2.0000     -10.430363      -283.8246
  13   2.0000     -10.428341      -283.7696
  14   2.0000     -10.426327      -283.7148
  15   2.0000     -10.426113      -283.7090
  16   2.0000     -10.423681      -283.6428
  17   2.0000     -10.423394      -283.6350
  18   2.0000      -1.122937       -30.5567
  19   2.0000      -0.981833       -26.7170
  20   2.0000      -0.938446       -25.5364
  21   2.0000      -0.920512       -25.0484
  22   2.0000      -0.870369       -23.6839
  23   2.0000      -0.863976       -23.5100
  24   2.0000      -0.796481       -21.6734
  25   2.0000      -0.745891       -20.2967
  26   2.0000      -0.729840       -19.8599
  27   2.0000      -0.725214       -19.7341
  28   2.0000      -0.710330       -19.3291
  29   2.0000      -0.702950       -19.1282
  30   2.0000      -0.678555       -18.4644
  31   2.0000      -0.658443       -17.9172
  32   2.0000      -0.649114       -17.6633
  33   2.0000      -0.607477       -16.5303
  34   2.0000      -0.594200       -16.1690
  35   2.0000      -0.580834       -15.8053
  36   2.0000      -0.554206       -15.0807
  37   2.0000      -0.538403       -14.6507
  38   2.0000      -0.531167       -14.4538
  39   2.0000      -0.519826       -14.1452
  40   2.0000      -0.493265       -13.4224
  41   2.0000      -0.488603       -13.2956
  42   2.0000      -0.475966       -12.9517
  43   2.0000      -0.470563       -12.8047
  44   2.0000      -0.457180       -12.4405
  45   2.0000      -0.455926       -12.4064
  46   2.0000      -0.438569       -11.9341
  47   2.0000      -0.437156       -11.8956
  48   2.0000      -0.431192       -11.7333
  49   2.0000      -0.426226       -11.5982
  50   2.0000      -0.420512       -11.4427
  51   2.0000      -0.417081       -11.3494
  52   2.0000      -0.413627       -11.2554
  53   2.0000      -0.397766       -10.8238
  54   2.0000      -0.392882       -10.6909
  55   2.0000      -0.386419       -10.5150
  56   2.0000      -0.383705       -10.4412
  57   2.0000      -0.373512       -10.1638
  58   2.0000      -0.365169        -9.9367
  59   2.0000      -0.348570        -9.4851
  60   2.0000      -0.346692        -9.4340
  61   2.0000      -0.334715        -9.1080
  62   2.0000      -0.330417        -8.9911
  63   2.0000      -0.316158        -8.6031
  64   2.0000      -0.305861        -8.3229
  65   2.0000      -0.293503        -7.9866
  66   2.0000      -0.276196        -7.5157
  67   0.0000       0.105346         2.8666
  68   0.0000       0.112029         3.0485
  69   0.0000       0.121055         3.2941
  70   0.0000       0.123437         3.3589
  71   0.0000       0.124055         3.3757

MULLIKEN ATOMIC CHARGES
-----------------------
   0 C :   -0.065039
   1 C :    0.063416
   2 C :   -0.004113
   3 C :    0.014286
   4 C :   -0.036987
   5 C :    0.250019
   6 C :   -0.406626
   7 C :   -0.460403
   8 C :   -0.433027
   9 C :   -0.442629
  10 C :   -0.456811
  11 C :   -0.455393
  12 C :   -0.427856
  13 C :   -0.452500
  14 C :   -0.441487
  15 C :   -0.450526
  16 O :   -0.636335
  17 C :   -0.666317
  18 H :    0.209002
  19 H :    0.248622
  20 H :    0.218161
  21 H :    0.214819
  22 H :    0.215149
  23 H :    0.243171
  24 H :    0.207754
  25 H :    0.222448
  26 H :    0.216654
  27 H :    0.223051
  28 H :    0.222291
  29 H :    0.214266
  30 H :    0.221433
  31 H :    0.221270
  32 H :    0.214789
  33 H :    0.218651
  34 H :    0.221525
  35 H :    0.219985
  36 H :    0.216099
  37 H :    0.224590
  38 H :    0.411252
  39 H :    0.227855
  40 H :    0.229568
  41 H :    0.225919
Sum of atomic charges:   -0.0000000

LOEWDIN ATOMIC CHARGES
----------------------
   0 C :   -0.070755
   1 C :   -0.049471
   2 C :   -0.052055
   3 C :   -0.045050
   4 C :   -0.069302
   5 C :    0.055758
   6 C :   -0.209089
   7 C :   -0.220356
   8 C :   -0.211545
   9 C :   -0.220781
  10 C :   -0.229848
  11 C :   -0.223384
  12 C :   -0.216372
  13 C :   -0.229598
  14 C :   -0.223514
  15 C :   -0.237214
  16 O :   -0.373947
  17 C :   -0.335059
  18 H :    0.117273
  19 H :    0.140094
  20 H :    0.120010
  21 H :    0.120234
  22 H :    0.119146
  23 H :    0.131300
  24 H :    0.113423
  25 H :    0.127808
  26 H :    0.124439
  27 H :    0.127102
  28 H :    0.124436
  29 H :    0.119053
  30 H :    0.126875
  31 H :    0.122595
  32 H :    0.120574
  33 H :    0.119509
  34 H :    0.123079
  35 H :    0.121486
  36 H :    0.125763
  37 H :    0.125897
  38 H :    0.307403
  39 H :    0.125973
  40 H :    0.129784
  41 H :    0.128326

  Mayer bond orders larger than 0.100000
B(  0-C ,  1-C ) :   0.9350 B(  0-C ,  5-C ) :   0.9394 B(  0-C ,  6-C ) :   0.9477
B(  0-C , 17-C ) :   0.9804 B(  1-C ,  2-C ) :   0.9250 B(  1-C ,  7-C ) :   0.9301
B(  1-C ,  8-C ) :   0.9298 B(  2-C ,  3-C ) :   0.9311 B(  2-C ,  9-C ) :   0.9652
B(  2-C , 10-C ) :   0.9637 B(  3-C ,  4-C ) :   0.9392 B(  3-C , 11-C ) :   0.9532
B(  3-C , 12-C ) :   0.9620 B(  4-C ,  5-C ) :   0.8998 B(  4-C , 13-C ) :   0.9542
B(  4-C , 14-C ) :   0.9413 B(  5-C , 15-C ) :   0.9554 B(  5-C , 16-O ) :   1.0189
B(  6-C ,  7-C ) :   0.9524 B(  6-C , 18-H ) :   0.9322 B(  6-C , 19-H ) :   0.9098
B(  7-C , 20-H ) :   0.9297 B(  7-C , 21-H ) :   0.9169 B(  8-C ,  9-C ) :   0.9489
B(  8-C , 22-H ) :   0.9326 B(  8-C , 23-H ) :   0.8935 B(  9-C , 24-H ) :   0.9251
B(  9-C , 25-H ) :   0.9162 B( 10-C , 11-C ) :   0.9692 B( 10-C , 26-H ) :   0.9272
B( 10-C , 27-H ) :   0.9258 B( 11-C , 28-H ) :   0.9243 B( 11-C , 29-H ) :   0.9164
B( 12-C , 13-C ) :   0.9737 B( 12-C , 30-H ) :   0.9209 B( 12-C , 31-H ) :   0.9191
B( 13-C , 32-H ) :   0.9116 B( 13-C , 33-H ) :   0.9247 B( 14-C , 15-C ) :   0.9586
B( 14-C , 34-H ) :   0.9113 B( 14-C , 35-H ) :   0.9271 B( 15-C , 36-H ) :   0.9204
B( 15-C , 37-H ) :   0.9242 B( 16-O , 38-H ) :   0.7854 B( 17-C , 39-H ) :   0.9008
B( 17-C , 40-H ) :   0.9173 B( 17-C , 41-H ) :   0.9189

Dispersion correction           -0.034019343
FINAL SINGLE POINT ENERGY      -735.765396509951

DIPOLE MOMENT
-------------
                                X             Y             Z
Electronic contribution:     -3.48307       1.82243       0.32125
Nuclear contribution   :      3.61694      -1.92624       0.19679
                        -----------------------------------------
Total Dipole Moment    :      0.13387      -0.10381       0.51804
                        -----------------------------------------
Magnitude (a.u.)       :      0.54504
Magnitude (Debye)      :      1.38538

Rotational constants in cm-1:     0.019110     0.018739     0.014579
Rotational constants in MHz :   572.892648   561.772141   437.072774

                             ****ORCA TERMINATED NORMALLY****
TOTAL RUN TIME: 0 days 0 hours 6 minutes 46 seconds 386 msec
