                         Program Version 5.0.3 -  RELEASE  -
|  1> ! PBEh-3c def2/J TightSCF DefGrid3
|  2>
|  3> %maxcore 60000
|  4>
|  5> %pal
|  6> nprocs 4
|  7> end
|  8>
|  9> *xyzfile 0 1 cf4.xyz
| 10>
| 11>                          ****END OF INPUT****

CARTESIAN COORDINATES (ANGSTROEM)
---------------------------------
  F     -0.340657   -0.060077   -1.271717
  C      0.000000    0.000000    0.000000
  F      1.285182   -0.264528    0.123501
  F     -0.246331    1.208635    0.464157
  F     -0.698194   -0.884030    0.684058

 Total Charge           Charge          ....    0
 Multiplicity           Mult            ....    1
 Number of Electrons    NEL             ....   42
 Basis Dimension        Dim             ....   75

ORBITAL ENERGIES
----------------

  NO   OCC          E(Eh)            E(eV)
   0   2.0000     -25.164124      -684.7506
   1   2.0000     -25.163993      -684.7471
   2   2.0000     -25.163991      -684.7470
   3   2.0000     -25.163990      -684.7470
   4   2.0000     -10.794010      -293.7199
   5   2.0000      -1.515285       -41.2330
   6   2.0000      -1.392651       -37.8960
   7   2.0000      -1.392651       -37.8959
   8   2.0000      -1.392649       -37.8959
   9   2.0000      -0.821163       -22.3450
  10   2.0000      -0.723789       -19.6953
  11   2.0000      -0.723789       -19.6953
  12   2.0000      -0.723789       -19.6953
  13   2.0000      -0.589023       -16.0281
  14   2.0000      -0.589021       -16.0281
  15   2.0000      -0.554877       -15.0990
  16   2.0000      -0.554876       -15.0989
  17   2.0000      -0.554874       -15.0989
  18   2.0000      -0.513330       -13.9684
  19   2.0000      -0.513329       -13.9684
  20   2.0000      -0.513325       -13.9683
  21   0.0000       0.237955         6.4751
  22   0.0000       0.237956         6.4751
  23   0.0000       0.237958         6.4752
  24   0.0000       0.238076         6.4784
  25   0.0000       0.440410        11.9842

MULLIKEN ATOMIC CHARGES
-----------------------
   0 F :   -0.267972
   1 C :    1.071895
   2 F :   -0.267976
   3 F :   -0.267972
   4 F :   -0.267975
Sum of atomic charges:    0.0000000

LOEWDIN ATOMIC CHARGES
----------------------
   0 F :   -0.084768
   1 C :    0.339078
   2 F :   -0.084771
   3 F :   -0.084768
   4 F :   -0.084771

  Mayer bond orders larger than 0.100000
B(  0-F ,  1-C ) :   1.0643 B(  1-C ,  2-F ) :   1.0642 B(  1-C ,  3-F ) :   1.0643
B(  1-C ,  4-F ) :   1.0642

Dispersion correction           -0.000978232
FINAL SINGLE POINT ENERGY      -436.656163711502

DIPOLE MOMENT
-------------
                                X             Y             Z
Electronic contribution:     -0.00001       0.00001      -0.00001
Nuclear contribution   :     -0.00000       0.00000      -0.00000
                        -----------------------------------------
Total Dipole Moment    :     -0.00001       0.00001      -0.00001
                        -----------------------------------------
Magnitude (a.u.)       :      0.00001
Magnitude (Debye)      :      0.00003

Rotational constants in cm-1:     0.191576     0.191576     0.191576
Rotational constants in MHz :  5743.296316  5743.296199  5743.295913

                             ****ORCA TERMINATED NORMALLY****
TOTAL RUN TIME: 0 days 0 hours 0 minutes 28 seconds 889 msec
