                         Program Version 5.0.3 -  RELEASE  -
|  1> ! PBEh-3c def2/J TightSCF DefGrid3
|  2>
|  3> %maxcore 60000
|  4>
|  5> %pal
|  6> nprocs 4
|  7> end
|  8>
|  9> *xyzfile 0 1 21.xyz
| 10>
| 11>                          ****END OF INPUT****

CARTESIAN COORDINATES (ANGSTROEM)
---------------------------------
  N      2.962583   -0.202885    0.000000
  H      3.324416    0.277473    0.813414
  H      3.324416    0.277473   -0.813414
  H      3.358772   -1.133640    0.000000
  P      0.000000    0.259570    0.000000
  H      0.247605   -0.660083   -1.041782
  H      0.247605   -0.660083    1.041782
  C     -1.784996   -0.008789    0.000000
  N     -2.932988   -0.074536    0.000000

 Total Charge           Charge          ....    0
 Multiplicity           Mult            ....    1
 Number of Electrons    NEL             ....   40
 Basis Dimension        Dim             ....   73

ORBITAL ENERGIES
----------------

  NO   OCC          E(Eh)            E(eV)
   0   2.0000     -77.766566     -2116.1358
   1   2.0000     -14.633689      -398.2029
   2   2.0000     -14.633301      -398.1924
   3   2.0000     -10.470697      -284.9222
   4   2.0000      -6.842065      -186.1821
   5   2.0000      -4.933077      -134.2359
   6   2.0000      -4.931797      -134.2010
   7   2.0000      -4.930244      -134.1588
   8   2.0000      -0.996500       -27.1161
   9   2.0000      -0.968963       -26.3668
  10   2.0000      -0.764882       -20.8135
  11   2.0000      -0.545659       -14.8481
  12   2.0000      -0.545126       -14.8336
  13   2.0000      -0.527660       -14.3584
  14   2.0000      -0.469034       -12.7631
  15   2.0000      -0.419010       -11.4018
  16   2.0000      -0.402450       -10.9512
  17   2.0000      -0.377889       -10.2829
  18   2.0000      -0.345655        -9.4057
  19   2.0000      -0.317148        -8.6300
  20   0.0000       0.030978         0.8429
  21   0.0000       0.050474         1.3735
  22   0.0000       0.098622         2.6836
  23   0.0000       0.117327         3.1926
  24   0.0000       0.118861         3.2344

MULLIKEN ATOMIC CHARGES
-----------------------
   0 N :   -0.955887
   1 H :    0.334992
   2 H :    0.334992
   3 H :    0.333102
   4 P :    0.059735
   5 H :    0.117487
   6 H :    0.117487
   7 C :   -0.163280
   8 N :   -0.178628
Sum of atomic charges:   -0.0000000

LOEWDIN ATOMIC CHARGES
----------------------
   0 N :   -0.631713
   1 H :    0.227468
   2 H :    0.227468
   3 H :    0.225775
   4 P :    0.140638
   5 H :    0.057158
   6 H :    0.057158
   7 C :   -0.217344
   8 N :   -0.086607

  Mayer bond orders larger than 0.100000
B(  0-N ,  1-H ) :   0.8681 B(  0-N ,  2-H ) :   0.8681 B(  0-N ,  3-H ) :   0.8684
B(  4-P ,  5-H ) :   0.9465 B(  4-P ,  6-H ) :   0.9465 B(  4-P ,  7-C ) :   0.9129
B(  7-C ,  8-N ) :   3.0833

Dispersion correction           -0.002999744
FINAL SINGLE POINT ENERGY      -491.201732958898

DIPOLE MOMENT
-------------
                                X             Y             Z
Electronic contribution:     -7.77919       1.85905       0.00000
Nuclear contribution   :     10.37645      -2.12182       0.00000
                        -----------------------------------------
Total Dipole Moment    :      2.59726      -0.26278       0.00000
                        -----------------------------------------
Magnitude (a.u.)       :      2.61052
Magnitude (Debye)      :      6.63541

Rotational constants in cm-1:     2.014946     0.053056     0.052836
Rotational constants in MHz : 60406.555413  1590.579030  1583.985553

                             ****ORCA TERMINATED NORMALLY****
TOTAL RUN TIME: 0 days 0 hours 1 minutes 3 seconds 151 msec
