                         Program Version 5.0.3 -  RELEASE  -
|  1> ! PBEh-3c def2/J TightSCF DefGrid3
|  2>
|  3> %maxcore 60000
|  4>
|  5> %pal
|  6> nprocs 4
|  7> end
|  8>
|  9> *xyzfile 0 1 H2S2O7_2.xyz
| 10>
| 11>                          ****END OF INPUT****

CARTESIAN COORDINATES (ANGSTROEM)
---------------------------------
  O     -2.192952    0.626845   -0.928508
  S     -1.262106   -0.308552   -0.044500
  O     -1.037952    0.299592    1.250825
  O     -1.756261   -1.632960   -0.194722
  O      0.116544   -0.107896   -0.913187
  S      1.600097   -0.366557   -0.139811
  O      1.616860    0.866352    0.855426
  O      1.493456   -1.603236    0.572403
  O      2.554388   -0.101503   -1.161067
  H     -1.972356    1.564196   -0.757634
  H      0.840282    0.763719    1.460777

 Total Charge           Charge          ....    0
 Multiplicity           Mult            ....    1
 Number of Electrons    NEL             ....   90
 Basis Dimension        Dim             ....  145

ORBITAL ENERGIES
----------------

  NO   OCC          E(Eh)            E(eV)
   0   2.0000     -89.936170     -2447.2876
   1   2.0000     -89.923289     -2446.9371
   2   2.0000     -19.619137      -533.8639
   3   2.0000     -19.615690      -533.7701
   4   2.0000     -19.601471      -533.3831
   5   2.0000     -19.566720      -532.4375
   6   2.0000     -19.553641      -532.0816
   7   2.0000     -19.550717      -532.0021
   8   2.0000     -19.548025      -531.9288
   9   2.0000      -8.531777      -232.1614
  10   2.0000      -8.519498      -231.8273
  11   2.0000      -6.425300      -174.8413
  12   2.0000      -6.424016      -174.8064
  13   2.0000      -6.421083      -174.7265
  14   2.0000      -6.413688      -174.5253
  15   2.0000      -6.411194      -174.4575
  16   2.0000      -6.408414      -174.3818
  17   2.0000      -1.364340       -37.1256
  18   2.0000      -1.327168       -36.1141
  19   2.0000      -1.220544       -33.2127
  20   2.0000      -1.211829       -32.9755
  21   2.0000      -1.197918       -32.5970
  22   2.0000      -1.191570       -32.4243
  23   2.0000      -1.185193       -32.2507
  24   2.0000      -0.842702       -22.9311
  25   2.0000      -0.775012       -21.0892
  26   2.0000      -0.728294       -19.8179
  27   2.0000      -0.669698       -18.2234
  28   2.0000      -0.644420       -17.5356
  29   2.0000      -0.621092       -16.9008
  30   2.0000      -0.617250       -16.7962
  31   2.0000      -0.580646       -15.8002
  32   2.0000      -0.557729       -15.1766
  33   2.0000      -0.556251       -15.1364
  34   2.0000      -0.515706       -14.0331
  35   2.0000      -0.511279       -13.9126
  36   2.0000      -0.482051       -13.1173
  37   2.0000      -0.478739       -13.0272
  38   2.0000      -0.465500       -12.6669
  39   2.0000      -0.455501       -12.3948
  40   2.0000      -0.445413       -12.1203
  41   2.0000      -0.439626       -11.9628
  42   2.0000      -0.428499       -11.6601
  43   2.0000      -0.416916       -11.3449
  44   2.0000      -0.412793       -11.2327
  45   0.0000       0.002980         0.0811
  46   0.0000       0.049333         1.3424
  47   0.0000       0.055665         1.5147
  48   0.0000       0.069678         1.8960
  49   0.0000       0.093078         2.5328

MULLIKEN ATOMIC CHARGES
-----------------------
   0 O :   -0.650998
   1 S :    1.629806
   2 O :   -0.625135
   3 O :   -0.512794
   4 O :   -0.666097
   5 S :    1.610958
   6 O :   -0.676619
   7 O :   -0.546431
   8 O :   -0.526303
   9 H :    0.475455
  10 H :    0.488157
Sum of atomic charges:    0.0000000

LOEWDIN ATOMIC CHARGES
----------------------
   0 O :   -0.443304
   1 S :    1.314595
   2 O :   -0.535728
   3 O :   -0.447767
   4 O :   -0.492810
   5 S :    1.314122
   6 O :   -0.460870
   7 O :   -0.479055
   8 O :   -0.455145
   9 H :    0.348281
  10 H :    0.337683

  Mayer bond orders larger than 0.100000
B(  0-O ,  1-S ) :   1.0362 B(  0-O ,  9-H ) :   0.7287 B(  1-S ,  2-O ) :   1.6678
B(  1-S ,  3-O ) :   1.8679 B(  1-S ,  4-O ) :   0.8776 B(  4-O ,  5-S ) :   0.7640
B(  5-S ,  6-O ) :   1.0560 B(  5-S ,  7-O ) :   1.8054 B(  5-S ,  8-O ) :   1.8414
B(  6-O , 10-H ) :   0.6684

Dispersion correction           -0.006566616
FINAL SINGLE POINT ENERGY     -1322.034270898603

DIPOLE MOMENT
-------------
                                X             Y             Z
Electronic contribution:      0.57342      -1.13643      -0.54282
Nuclear contribution   :     -1.30181       2.67263       0.80301
                        -----------------------------------------
Total Dipole Moment    :     -0.72839       1.53620       0.26019
                        -----------------------------------------
Magnitude (a.u.)       :      1.71993
Magnitude (Debye)      :      4.37172

Rotational constants in cm-1:     0.085945     0.030416     0.029928
Rotational constants in MHz :  2576.554806   911.839740   897.205253

                             ****ORCA TERMINATED NORMALLY****
TOTAL RUN TIME: 0 days 0 hours 2 minutes 10 seconds 238 msec
