                         Program Version 5.0.3 -  RELEASE  -
|  1> ! PBEh-3c def2/J TightSCF DefGrid3
|  2>
|  3> %maxcore 60000
|  4>
|  5> %pal
|  6> nprocs 4
|  7> end
|  8>
|  9> *xyzfile 0 1 Ethylene.xyz
| 10>
| 11>                          ****END OF INPUT****

CARTESIAN COORDINATES (ANGSTROEM)
---------------------------------
  C      0.665524    0.000000    0.000000
  C     -0.665524    0.000000    0.000000
  H      1.239453   -0.923558    0.000000
  H      1.239453    0.923558    0.000000
  H     -1.239453   -0.923558    0.000000
  H     -1.239453    0.923558    0.000000

 Total Charge           Charge          ....    0
 Multiplicity           Mult            ....    1
 Number of Electrons    NEL             ....   16
 Basis Dimension        Dim             ....   38

ORBITAL ENERGIES
----------------

  NO   OCC          E(Eh)            E(eV)
   0   2.0000     -10.442306      -284.1496
   1   2.0000     -10.441351      -284.1236
   2   2.0000      -0.848456       -23.0877
   3   2.0000      -0.651120       -17.7179
   4   2.0000      -0.528940       -14.3932
   5   2.0000      -0.478760       -13.0277
   6   2.0000      -0.407064       -11.0768
   7   2.0000      -0.316493        -8.6122
   8   0.0000       0.039626         1.0783
   9   0.0000       0.169060         4.6004
  10   0.0000       0.193487         5.2650
  11   0.0000       0.207854         5.6560
  12   0.0000       0.318979         8.6799

MULLIKEN ATOMIC CHARGES
-----------------------
   0 C :   -0.429277
   1 C :   -0.429277
   2 H :    0.214639
   3 H :    0.214639
   4 H :    0.214639
   5 H :    0.214639
Sum of atomic charges:   -0.0000000

LOEWDIN ATOMIC CHARGES
----------------------
   0 C :   -0.260451
   1 C :   -0.260451
   2 H :    0.130225
   3 H :    0.130225
   4 H :    0.130225
   5 H :    0.130225

  Mayer bond orders larger than 0.100000
B(  0-C ,  1-C ) :   1.9817 B(  0-C ,  2-H ) :   0.9297 B(  0-C ,  3-H ) :   0.9297
B(  1-C ,  4-H ) :   0.9297 B(  1-C ,  5-H ) :   0.9297

Dispersion correction           -0.001300169
FINAL SINGLE POINT ENERGY       -78.405278166394

DIPOLE MOMENT
-------------
                                X             Y             Z
Electronic contribution:     -0.00000       0.00000      -0.00000
Nuclear contribution   :      0.00000       0.00000       0.00000
                        -----------------------------------------
Total Dipole Moment    :     -0.00000       0.00000      -0.00000
                        -----------------------------------------
Magnitude (a.u.)       :      0.00000
Magnitude (Debye)      :      0.00000

Rotational constants in cm-1:     4.901711     1.001403     0.831525
Rotational constants in MHz : 146949.613852 30021.314957 24928.504755

                             ****ORCA TERMINATED NORMALLY****
TOTAL RUN TIME: 0 days 0 hours 1 minutes 7 seconds 313 msec
