                         Program Version 5.0.3 -  RELEASE  -
|  1> ! PBEh-3c def2/J TightSCF DefGrid3
|  2>
|  3> %maxcore 60000
|  4>
|  5> %pal
|  6> nprocs 4
|  7> end
|  8>
|  9> *xyzfile 0 1 34.xyz
| 10>
| 11>                          ****END OF INPUT****

CARTESIAN COORDINATES (ANGSTROEM)
---------------------------------
  N     -1.293124    3.037444   -0.376908
  C      0.026521    3.082900    0.014444
  C      0.458020    1.825756    0.376351
  C     -0.671142    0.948350    0.204871
  C     -0.870540   -0.425453    0.416503
  C     -2.125336   -0.969313    0.167335
  C     -3.187457   -0.164481   -0.304311
  C     -3.007029    1.196416   -0.523870
  C     -1.750101    1.742688   -0.263391
  H     -1.843657    3.829134   -0.653463
  H      0.565766    4.016821    0.017073
  H     -0.080568   -1.080808    0.756610
  H     -4.156730   -0.596082   -0.500006
  H     -3.827017    1.804339   -0.884000
  O     -2.247365   -2.310845    0.414051
  C     -3.485133   -2.917743    0.087873
  H     -4.303126   -2.510797    0.686962
  H     -3.719924   -2.801618   -0.972513
  H     -3.366426   -3.972853    0.315064
  C      1.841626    1.467078    0.826403
  C      2.722873    0.937691   -0.317328
  N      2.229975   -0.291110   -0.909968
  C      2.521961   -1.564839   -0.498698
  C      3.702131   -1.727102    0.440576
  H      2.327318    2.349663    1.251376
  H      1.794168    0.714392    1.617565
  H      2.778160    1.695528   -1.100786
  H      3.737732    0.771103    0.039671
  H      1.376567   -0.234117   -1.446073
  O      1.877387   -2.525406   -0.895390
  H      4.617026   -1.339207   -0.007111
  H      3.537419   -1.200511    1.380798
  H      3.820022   -2.787014    0.640287

 Total Charge           Charge          ....    0
 Multiplicity           Mult            ....    1
 Number of Electrons    NEL             ....  124
 Basis Dimension        Dim             ....  287

ORBITAL ENERGIES
----------------

  NO   OCC          E(Eh)            E(eV)
   0   2.0000     -19.511781      -530.9425
   1   2.0000     -19.441501      -529.0301
   2   2.0000     -14.684673      -399.5903
   3   2.0000     -14.645510      -398.5246
   4   2.0000     -10.536517      -286.7132
   5   2.0000     -10.496140      -285.6145
   6   2.0000     -10.480929      -285.2006
   7   2.0000     -10.480577      -285.1910
   8   2.0000     -10.478959      -285.1470
   9   2.0000     -10.475985      -285.0660
  10   2.0000     -10.450924      -284.3841
  11   2.0000     -10.448764      -284.3253
  12   2.0000     -10.445711      -284.2423
  13   2.0000     -10.442969      -284.1676
  14   2.0000     -10.442274      -284.1487
  15   2.0000     -10.433848      -283.9194
  16   2.0000     -10.433049      -283.8977
  17   2.0000      -1.160765       -31.5860
  18   2.0000      -1.126983       -30.6668
  19   2.0000      -1.087061       -29.5804
  20   2.0000      -1.012354       -27.5475
  21   2.0000      -0.935232       -25.4490
  22   2.0000      -0.897387       -24.4191
  23   2.0000      -0.843024       -22.9398
  24   2.0000      -0.831470       -22.6254
  25   2.0000      -0.818907       -22.2836
  26   2.0000      -0.801971       -21.8228
  27   2.0000      -0.767252       -20.8780
  28   2.0000      -0.728899       -19.8344
  29   2.0000      -0.700474       -19.0609
  30   2.0000      -0.663773       -18.0622
  31   2.0000      -0.644147       -17.5281
  32   2.0000      -0.624428       -16.9916
  33   2.0000      -0.610077       -16.6011
  34   2.0000      -0.573568       -15.6076
  35   2.0000      -0.559094       -15.2137
  36   2.0000      -0.552339       -15.0299
  37   2.0000      -0.538985       -14.6665
  38   2.0000      -0.523806       -14.2535
  39   2.0000      -0.522331       -14.2133
  40   2.0000      -0.510398       -13.8886
  41   2.0000      -0.495488       -13.4829
  42   2.0000      -0.491997       -13.3879
  43   2.0000      -0.487740       -13.2721
  44   2.0000      -0.478761       -13.0277
  45   2.0000      -0.465225       -12.6594
  46   2.0000      -0.456788       -12.4298
  47   2.0000      -0.449675       -12.2363
  48   2.0000      -0.447231       -12.1698
  49   2.0000      -0.444515       -12.0959
  50   2.0000      -0.431066       -11.7299
  51   2.0000      -0.413123       -11.2416
  52   2.0000      -0.409385       -11.1399
  53   2.0000      -0.401649       -10.9294
  54   2.0000      -0.398096       -10.8327
  55   2.0000      -0.372425       -10.1342
  56   2.0000      -0.348650        -9.4873
  57   2.0000      -0.319405        -8.6914
  58   2.0000      -0.296355        -8.0642
  59   2.0000      -0.287407        -7.8207
  60   2.0000      -0.247062        -6.7229
  61   2.0000      -0.230946        -6.2844
  62   0.0000       0.005630         0.1532
  63   0.0000       0.060487         1.6459
  64   0.0000       0.071871         1.9557
  65   0.0000       0.086890         2.3644
  66   0.0000       0.123302         3.3552

MULLIKEN ATOMIC CHARGES
-----------------------
   0 N :   -0.701709
   1 C :   -0.051597
   2 C :    0.012083
   3 C :    0.061322
   4 C :   -0.445039
   5 C :    0.403170
   6 C :   -0.364694
   7 C :   -0.258580
   8 C :    0.361889
   9 H :    0.357848
  10 H :    0.236640
  11 H :    0.241176
  12 H :    0.231057
  13 H :    0.212790
  14 O :   -0.461432
  15 C :   -0.402785
  16 H :    0.198915
  17 H :    0.204420
  18 H :    0.241989
  19 C :   -0.527693
  20 C :   -0.285121
  21 N :   -0.604636
  22 C :    0.493850
  23 C :   -0.780344
  24 H :    0.225011
  25 H :    0.232203
  26 H :    0.236030
  27 H :    0.229973
  28 H :    0.378038
  29 O :   -0.416641
  30 H :    0.237451
  31 H :    0.231669
  32 H :    0.272749
Sum of atomic charges:   -0.0000000

LOEWDIN ATOMIC CHARGES
----------------------
   0 N :   -0.160431
   1 C :   -0.081720
   2 C :   -0.114462
   3 C :   -0.056817
   4 C :   -0.158841
   5 C :    0.062017
   6 C :   -0.190492
   7 C :   -0.151876
   8 C :    0.004482
   9 H :    0.261315
  10 H :    0.134044
  11 H :    0.153612
  12 H :    0.140328
  13 H :    0.135945
  14 O :   -0.187409
  15 C :   -0.179788
  16 H :    0.109323
  17 H :    0.112712
  18 H :    0.131405
  19 C :   -0.236741
  20 C :   -0.145442
  21 N :   -0.243540
  22 C :    0.102291
  23 C :   -0.399093
  24 H :    0.134916
  25 H :    0.133922
  26 H :    0.127071
  27 H :    0.127522
  28 H :    0.266273
  29 O :   -0.270794
  30 H :    0.143617
  31 H :    0.140302
  32 H :    0.156349

  Mayer bond orders larger than 0.100000
B(  0-N ,  1-C ) :   1.1411 B(  0-N ,  8-C ) :   1.0002 B(  0-N ,  9-H ) :   0.8339
B(  1-C ,  2-C ) :   1.5561 B(  1-C , 10-H ) :   0.9125 B(  2-C ,  3-C ) :   1.2360
B(  2-C , 19-C ) :   0.9543 B(  3-C ,  4-C ) :   1.2811 B(  3-C ,  8-C ) :   1.2309
B(  4-C ,  5-C ) :   1.4471 B(  4-C ,  7-C ) :   0.1023 B(  4-C , 11-H ) :   0.9125
B(  5-C ,  6-C ) :   1.2810 B(  5-C , 14-O ) :   1.0201 B(  6-C ,  7-C ) :   1.4736
B(  6-C , 12-H ) :   0.9054 B(  7-C ,  8-C ) :   1.3156 B(  7-C , 13-H ) :   0.9211
B( 14-O , 15-C ) :   0.9585 B( 15-C , 16-H ) :   0.9082 B( 15-C , 17-H ) :   0.9077
B( 15-C , 18-H ) :   0.9230 B( 19-C , 20-C ) :   0.9494 B( 19-C , 24-H ) :   0.9218
B( 19-C , 25-H ) :   0.9168 B( 20-C , 21-N ) :   0.9761 B( 20-C , 26-H ) :   0.9132
B( 20-C , 27-H ) :   0.9067 B( 21-N , 22-C ) :   1.1514 B( 21-N , 28-H ) :   0.8066
B( 22-C , 23-C ) :   0.9250 B( 22-C , 29-O ) :   2.0235 B( 23-C , 30-H ) :   0.9098
B( 23-C , 31-H ) :   0.9096 B( 23-C , 32-H ) :   0.9156

Dispersion correction           -0.022128804
FINAL SINGLE POINT ENERGY      -763.323261672102

DIPOLE MOMENT
-------------
                                X             Y             Z
Electronic contribution:     -5.65712       3.42580      -2.07139
Nuclear contribution   :      5.35146      -1.37774       2.16133
                        -----------------------------------------
Total Dipole Moment    :     -0.30566       2.04807       0.08994
                        -----------------------------------------
Magnitude (a.u.)       :      2.07270
Magnitude (Debye)      :      5.26839

Rotational constants in cm-1:     0.018606     0.012884     0.008094
Rotational constants in MHz :   557.785326   386.266277   242.649969

                             ****ORCA TERMINATED NORMALLY****
TOTAL RUN TIME: 0 days 0 hours 4 minutes 33 seconds 499 msec
