                         Program Version 5.0.3 -  RELEASE  -
|  1> ! PBEh-3c def2/J TightSCF DefGrid3
|  2>
|  3> %maxcore 60000
|  4>
|  5> %pal
|  6> nprocs 4
|  7> end
|  8>
|  9> *xyzfile 0 1 E42.xyz
| 10>
| 11>                          ****END OF INPUT****

CARTESIAN COORDINATES (ANGSTROEM)
---------------------------------
  N      0.276612    0.272457    1.557083
  C     -0.520424   -0.069112    0.390752
  C      0.303877    0.068826   -0.868328
  O      1.507070    0.043255   -0.916315
  O     -0.476499    0.179959   -1.968489
  H      1.220367   -0.083924    1.456171
  H     -0.128225   -0.105257    2.403783
  H      0.112823    0.209876   -2.738944
  H     -0.905313   -1.102875    0.374156
  H     -1.390288    0.586796    0.310132

 Total Charge           Charge          ....    0
 Multiplicity           Mult            ....    1
 Number of Electrons    NEL             ....   40
 Basis Dimension        Dim             ....   85

ORBITAL ENERGIES
----------------

  NO   OCC          E(Eh)            E(eV)
   0   2.0000     -19.547581      -531.9167
   1   2.0000     -19.493116      -530.4347
   2   2.0000     -14.614219      -397.6731
   3   2.0000     -10.587668      -288.1051
   4   2.0000     -10.481552      -285.2175
   5   2.0000      -1.225676       -33.3523
   6   2.0000      -1.132381       -30.8136
   7   2.0000      -0.983927       -26.7740
   8   2.0000      -0.809177       -22.0188
   9   2.0000      -0.675096       -18.3703
  10   2.0000      -0.591853       -16.1051
  11   2.0000      -0.561499       -15.2792
  12   2.0000      -0.549776       -14.9602
  13   2.0000      -0.507444       -13.8082
  14   2.0000      -0.487603       -13.2684
  15   2.0000      -0.463080       -12.6011
  16   2.0000      -0.448212       -12.1965
  17   2.0000      -0.383201       -10.4274
  18   2.0000      -0.344266        -9.3680
  19   2.0000      -0.292274        -7.9532
  20   0.0000       0.043050         1.1714
  21   0.0000       0.126538         3.4433
  22   0.0000       0.140988         3.8365
  23   0.0000       0.182450         4.9647
  24   0.0000       0.215275         5.8579

MULLIKEN ATOMIC CHARGES
-----------------------
   0 N :   -0.752432
   1 C :   -0.365457
   2 C :    0.516471
   3 O :   -0.390080
   4 O :   -0.589065
   5 H :    0.340817
   6 H :    0.325964
   7 H :    0.443634
   8 H :    0.220718
   9 H :    0.249429
Sum of atomic charges:    0.0000000

LOEWDIN ATOMIC CHARGES
----------------------
   0 N :   -0.473342
   1 C :   -0.193230
   2 C :    0.133582
   3 O :   -0.226580
   4 O :   -0.302278
   5 H :    0.235870
   6 H :    0.226833
   7 H :    0.334650
   8 H :    0.123811
   9 H :    0.140684

  Mayer bond orders larger than 0.100000
B(  0-N ,  1-C ) :   1.0429 B(  0-N ,  5-H ) :   0.8364 B(  0-N ,  6-H ) :   0.8591
B(  1-C ,  2-C ) :   0.9242 B(  1-C ,  8-H ) :   0.8840 B(  1-C ,  9-H ) :   0.8885
B(  2-C ,  3-O ) :   2.0578 B(  2-C ,  4-O ) :   1.1430 B(  4-O ,  7-H ) :   0.7584

Dispersion correction           -0.003490207
FINAL SINGLE POINT ENERGY      -283.823416114292

DIPOLE MOMENT
-------------
                                X             Y             Z
Electronic contribution:      1.50200       0.32598      -3.50922
Nuclear contribution   :     -2.05545      -0.89340       3.43878
                        -----------------------------------------
Total Dipole Moment    :     -0.55345      -0.56742      -0.07044
                        -----------------------------------------
Magnitude (a.u.)       :      0.79576
Magnitude (Debye)      :      2.02266

Rotational constants in cm-1:     0.346028     0.131589     0.098345
Rotational constants in MHz : 10373.654439  3944.950945  2948.323035

                             ****ORCA TERMINATED NORMALLY****
TOTAL RUN TIME: 0 days 0 hours 1 minutes 26 seconds 992 msec
