                         Program Version 5.0.3 -  RELEASE  -
|  1> ! PBEh-3c def2/J TightSCF DefGrid3
|  2>
|  3> %maxcore 60000
|  4>
|  5> %pal
|  6> nprocs 4
|  7> end
|  8>
|  9> *xyzfile 1 2 9p1.xyz
| 10>
| 11>                          ****END OF INPUT****

CARTESIAN COORDINATES (ANGSTROEM)
---------------------------------
  C     -0.000000    1.153661    0.207727
  C     -0.000000    0.700062   -1.110097
  C     -0.000000   -0.700062   -1.110097
  C     -0.000000   -1.153661    0.207727
  C     -0.000000    0.000000    1.135800
  H     -0.000000    2.192074    0.516922
  H     -0.000000    1.330904   -1.989451
  H     -0.000000   -1.330904   -1.989451
  H     -0.000000   -2.192074    0.516922
  H     -0.871790    0.000000    1.806998
  H      0.871790    0.000000    1.806998

 Total Charge           Charge          ....    1
 Multiplicity           Mult            ....    2
 Number of Electrons    NEL             ....   35
 Basis Dimension        Dim             ....   87

ORBITAL ENERGIES
----------------
                 SPIN UP ORBITALS
  NO   OCC          E(Eh)            E(eV)
   0   1.0000     -10.722150      -291.7645
   1   1.0000     -10.722126      -291.7639
   2   1.0000     -10.697599      -291.0965
   3   1.0000     -10.697075      -291.0822
   4   1.0000     -10.671653      -290.3905
   5   1.0000      -1.222108       -33.2553
   6   1.0000      -1.047419       -28.5017
   7   1.0000      -1.040728       -28.3197
   8   1.0000      -0.869624       -23.6637
   9   1.0000      -0.842708       -22.9313
  10   1.0000      -0.822894       -22.3921
  11   1.0000      -0.735081       -20.0026
  12   1.0000      -0.690146       -18.7798
  13   1.0000      -0.680149       -18.5078
  14   1.0000      -0.667668       -18.1682
  15   1.0000      -0.660441       -17.9715
  16   1.0000      -0.594109       -16.1665
  17   1.0000      -0.527663       -14.3585
  18   0.0000      -0.266231        -7.2445
  19   0.0000      -0.137993        -3.7550
  20   0.0000      -0.036539        -0.9943
  21   0.0000      -0.005374        -0.1462
  22   0.0000      -0.000808        -0.0220

                 SPIN DOWN ORBITALS
  NO   OCC          E(Eh)            E(eV)
   0   1.0000     -10.714006      -291.5429
   1   1.0000     -10.714005      -291.5429
   2   1.0000     -10.697100      -291.0829
   3   1.0000     -10.696531      -291.0674
   4   1.0000     -10.672691      -290.4187
   5   1.0000      -1.207240       -32.8507
   6   1.0000      -1.039051       -28.2740
   7   1.0000      -1.018320       -27.7099
   8   1.0000      -0.859539       -23.3893
   9   1.0000      -0.834327       -22.7032
  10   1.0000      -0.818761       -22.2796
  11   1.0000      -0.712969       -19.4009
  12   1.0000      -0.683663       -18.6034
  13   1.0000      -0.676487       -18.4082
  14   1.0000      -0.665790       -18.1171
  15   1.0000      -0.655487       -17.8367
  16   1.0000      -0.573033       -15.5930
  17   0.0000      -0.349449        -9.5090
  18   0.0000      -0.214696        -5.8422
  19   0.0000      -0.106065        -2.8862
  20   0.0000      -0.034041        -0.9263
  21   0.0000      -0.000740        -0.0201

MULLIKEN ATOMIC CHARGES AND SPIN POPULATIONS
--------------------------------------------
   0 C :   -0.101245    0.542574
   1 C :   -0.144919    0.025437
   2 C :   -0.144919    0.025437
   3 C :   -0.101245    0.542574
   4 C :   -0.548807   -0.074580
   5 H :    0.338776   -0.029225
   6 H :    0.332713   -0.003663
   7 H :    0.332713   -0.003663
   8 H :    0.338776   -0.029225
   9 H :    0.349078    0.002167
  10 H :    0.349078    0.002167
Sum of atomic charges         :    1.0000000

LOEWDIN ATOMIC CHARGES AND SPIN POPULATIONS
-------------------------------------------
   0 C :    0.072668    0.471445
   1 C :   -0.039190    0.054448
   2 C :   -0.039190    0.054448
   3 C :    0.072668    0.471445
   4 C :   -0.246744   -0.021428
   5 H :    0.188974   -0.014682
   6 H :    0.188913   -0.002157
   7 H :    0.188913   -0.002157
   8 H :    0.188974   -0.014682
   9 H :    0.212007    0.001660
  10 H :    0.212007    0.001660

  Mayer bond orders larger than 0.100000
B(  0-C ,  1-C ) :   1.3799 B(  0-C ,  4-C ) :   1.0128 B(  0-C ,  5-H ) :   0.8712
B(  1-C ,  2-C ) :   1.3680 B(  1-C ,  6-H ) :   0.8744 B(  2-C ,  3-C ) :   1.3799
B(  2-C ,  7-H ) :   0.8744 B(  3-C ,  4-C ) :   1.0128 B(  3-C ,  8-H ) :   0.8712
B(  4-C ,  9-H ) :   0.8273 B(  4-C , 10-H ) :   0.8273

Dispersion correction           -0.004679127
FINAL SINGLE POINT ENERGY      -193.361394536802

DIPOLE MOMENT
-------------
                                X             Y             Z
Electronic contribution:      0.00000       0.00000      -1.06022
Nuclear contribution   :      0.00000       0.00000       1.25436
                        -----------------------------------------
Total Dipole Moment    :      0.00000       0.00000       0.19414
                        -----------------------------------------
Magnitude (a.u.)       :      0.19414
Magnitude (Debye)      :      0.49346

Rotational constants in cm-1:     0.287993     0.272129     0.143570
Rotational constants in MHz :  8633.808111  8158.232780  4304.115750

                             ****ORCA TERMINATED NORMALLY****
TOTAL RUN TIME: 0 days 0 hours 2 minutes 23 seconds 700 msec
