                         Program Version 5.0.3 -  RELEASE  -
|  1> ! PBEh-3c def2/J TightSCF DefGrid3
|  2>
|  3> %maxcore 60000
|  4>
|  5> %pal
|  6> nprocs 4
|  7> end
|  8>
|  9> *xyzfile 0 1 008.xyz
| 10>
| 11>                          ****END OF INPUT****

CARTESIAN COORDINATES (ANGSTROEM)
---------------------------------
  C      0.025550    0.030260    0.091820
  N      0.025550    0.030260    1.474120
  C      1.302270    0.030260    1.904800
  N      2.112150   -0.117010    0.838030
  C      1.344510   -0.062760   -0.310280
  C     -1.090660    0.438170    2.330270
  C      3.556990    0.111390    0.913180
  H      1.618640    0.037540    2.940750
  H      1.782390   -0.109900   -1.302790
  H     -0.891480    0.078610   -0.487630
  H     -2.030360    0.200550    1.816460
  H     -1.038330   -0.115050    3.276770
  H     -0.984090    1.518930    2.512250
  H      3.968550   -0.464490    1.752010
  H      4.013760   -0.227100   -0.025070
  H      3.708630    1.189430    1.078440
  Cl     1.577660    2.650050    2.203010

 Total Charge           Charge          ....    0
 Multiplicity           Mult            ....    1
 Number of Electrons    NEL             ....   70
 Basis Dimension        Dim             ....  141

ORBITAL ENERGIES
----------------

  NO   OCC          E(Eh)            E(eV)
   0   2.0000    -102.118073     -2778.7740
   1   2.0000     -14.732771      -400.8991
   2   2.0000     -14.732728      -400.8979
   3   2.0000     -10.560752      -287.3727
   4   2.0000     -10.511936      -286.0443
   5   2.0000     -10.511255      -286.0258
   6   2.0000     -10.497117      -285.6411
   7   2.0000     -10.497100      -285.6406
   8   2.0000      -9.581679      -260.7307
   9   2.0000      -7.265581      -197.7065
  10   2.0000      -7.264079      -197.6656
  11   2.0000      -7.263799      -197.6580
  12   2.0000      -1.180345       -32.1188
  13   2.0000      -1.059642       -28.8343
  14   2.0000      -0.895861       -24.3776
  15   2.0000      -0.855277       -23.2733
  16   2.0000      -0.798851       -21.7378
  17   2.0000      -0.721079       -19.6216
  18   2.0000      -0.715041       -19.4572
  19   2.0000      -0.689085       -18.7510
  20   2.0000      -0.633810       -17.2468
  21   2.0000      -0.571122       -15.5410
  22   2.0000      -0.552340       -15.0299
  23   2.0000      -0.541144       -14.7253
  24   2.0000      -0.530188       -14.4271
  25   2.0000      -0.525240       -14.2925
  26   2.0000      -0.519842       -14.1456
  27   2.0000      -0.477981       -13.0065
  28   2.0000      -0.476139       -12.9564
  29   2.0000      -0.458776       -12.4839
  30   2.0000      -0.359602        -9.7853
  31   2.0000      -0.315740        -8.5917
  32   2.0000      -0.220332        -5.9955
  33   2.0000      -0.217102        -5.9076
  34   2.0000      -0.213753        -5.8165
  35   0.0000       0.015022         0.4088
  36   0.0000       0.032464         0.8834
  37   0.0000       0.116457         3.1690
  38   0.0000       0.129753         3.5308
  39   0.0000       0.148471         4.0401

MULLIKEN ATOMIC CHARGES
-----------------------
   0 C :   -0.066344
   1 N :   -0.403830
   2 C :    0.267875
   3 N :   -0.403872
   4 C :   -0.066423
   5 C :   -0.502066
   6 C :   -0.502042
   7 H :    0.316836
   8 H :    0.269562
   9 H :    0.269542
  10 H :    0.229234
  11 H :    0.236109
  12 H :    0.300946
  13 H :    0.236127
  14 H :    0.229186
  15 H :    0.300954
  16 Cl:   -0.711794
Sum of atomic charges:    0.0000000

LOEWDIN ATOMIC CHARGES
----------------------
   0 C :   -0.089597
   1 N :   -0.019536
   2 C :    0.039837
   3 N :   -0.019582
   4 C :   -0.089650
   5 C :   -0.241635
   6 C :   -0.241618
   7 H :    0.172247
   8 H :    0.154347
   9 H :    0.154340
  10 H :    0.135322
  11 H :    0.138372
  12 H :    0.166501
  13 H :    0.138407
  14 H :    0.135279
  15 H :    0.166495
  16 Cl:   -0.699530

  Mayer bond orders larger than 0.100000
B(  0-C ,  1-N ) :   1.1248 B(  0-C ,  4-C ) :   1.6737 B(  0-C ,  9-H ) :   0.8965
B(  1-N ,  2-C ) :   1.2304 B(  1-N ,  5-C ) :   0.9051 B(  2-C ,  3-N ) :   1.2303
B(  2-C ,  7-H ) :   0.8707 B(  2-C , 16-Cl) :   0.2931 B(  3-N ,  4-C ) :   1.1248
B(  3-N ,  6-C ) :   0.9051 B(  4-C ,  8-H ) :   0.8965 B(  5-C , 10-H ) :   0.9188
B(  5-C , 11-H ) :   0.9172 B(  5-C , 12-H ) :   0.8532 B(  6-C , 13-H ) :   0.9173
B(  6-C , 14-H ) :   0.9188 B(  6-C , 15-H ) :   0.8532

Dispersion correction           -0.009485732
FINAL SINGLE POINT ENERGY      -764.463164243847

DIPOLE MOMENT
-------------
                                X             Y             Z
Electronic contribution:      0.54177       4.04930       0.84183
Nuclear contribution   :     -1.05122      -7.02032      -1.82568
                        -----------------------------------------
Total Dipole Moment    :     -0.50945      -2.97102      -0.98385
                        -----------------------------------------
Magnitude (a.u.)       :      3.17088
Magnitude (Debye)      :      8.05973

Rotational constants in cm-1:     0.058601     0.058034     0.035266
Rotational constants in MHz :  1756.814268  1739.820198  1057.259467

                             ****ORCA TERMINATED NORMALLY****
TOTAL RUN TIME: 0 days 0 hours 1 minutes 33 seconds 399 msec
