                         Program Version 5.0.3 -  RELEASE  -
|  1> ! PBEh-3c def2/J TightSCF DefGrid3
|  2>
|  3> %maxcore 60000
|  4>
|  5> %pal
|  6> nprocs 4
|  7> end
|  8>
|  9> *xyzfile 0 1 43A.xyz
| 10>
| 11>                          ****END OF INPUT****

CARTESIAN COORDINATES (ANGSTROEM)
---------------------------------
  N     -0.289881   -1.271395    0.000000
  H     -0.509136   -2.257958    0.000000
  C     -1.385630   -0.397857    0.000000
  O     -2.523857   -0.833828    0.000000
  C     -1.004208    1.003704    0.000000
  H     -1.778392    1.751291    0.000000
  C      0.301619    1.341004    0.000000
  H      0.635636    2.367897    0.000000
  N      1.293576    0.397557    0.000000
  H      2.264339    0.661452    0.000000
  C      1.054009   -0.966266    0.000000
  O      1.941926   -1.795601    0.000000

 Total Charge           Charge          ....    0
 Multiplicity           Mult            ....    1
 Number of Electrons    NEL             ....   58
 Basis Dimension        Dim             ....  128

ORBITAL ENERGIES
----------------

  NO   OCC          E(Eh)            E(eV)
   0   2.0000     -19.483831      -530.1820
   1   2.0000     -19.477068      -529.9980
   2   2.0000     -14.718212      -400.5029
   3   2.0000     -14.697743      -399.9459
   4   2.0000     -10.610073      -288.7148
   5   2.0000     -10.574354      -287.7428
   6   2.0000     -10.538890      -286.7778
   7   2.0000     -10.467675      -284.8399
   8   2.0000      -1.197853       -32.5952
   9   2.0000      -1.158913       -31.5356
  10   2.0000      -1.094371       -29.7793
  11   2.0000      -1.035595       -28.1800
  12   2.0000      -0.900127       -24.4937
  13   2.0000      -0.780611       -21.2415
  14   2.0000      -0.751295       -20.4438
  15   2.0000      -0.678714       -18.4688
  16   2.0000      -0.637251       -17.3405
  17   2.0000      -0.594411       -16.1748
  18   2.0000      -0.553493       -15.0613
  19   2.0000      -0.544991       -14.8300
  20   2.0000      -0.522922       -14.2294
  21   2.0000      -0.491449       -13.3730
  22   2.0000      -0.486361       -13.2346
  23   2.0000      -0.469335       -12.7713
  24   2.0000      -0.431288       -11.7359
  25   2.0000      -0.362196        -9.8558
  26   2.0000      -0.341834        -9.3018
  27   2.0000      -0.329223        -8.9586
  28   2.0000      -0.300689        -8.1822
  29   0.0000      -0.022659        -0.6166
  30   0.0000       0.038891         1.0583
  31   0.0000       0.096238         2.6188
  32   0.0000       0.153175         4.1681
  33   0.0000       0.160727         4.3736

MULLIKEN ATOMIC CHARGES
-----------------------
   0 N :   -0.722923
   1 H :    0.399172
   2 C :    0.566999
   3 O :   -0.391405
   4 C :   -0.453062
   5 H :    0.266743
   6 C :    0.084931
   7 H :    0.272770
   8 N :   -0.679754
   9 H :    0.393155
  10 C :    0.677614
  11 O :   -0.414240
Sum of atomic charges:   -0.0000000

LOEWDIN ATOMIC CHARGES
----------------------
   0 N :   -0.204163
   1 H :    0.286561
   2 C :    0.123369
   3 O :   -0.241592
   4 C :   -0.240623
   5 H :    0.163841
   6 C :   -0.013351
   7 H :    0.150028
   8 N :   -0.189811
   9 H :    0.281975
  10 C :    0.145687
  11 O :   -0.261922

  Mayer bond orders larger than 0.100000
B(  0-N ,  1-H ) :   0.7984 B(  0-N ,  2-C ) :   0.9795 B(  0-N , 10-C ) :   1.0655
B(  2-C ,  3-O ) :   2.0399 B(  2-C ,  4-C ) :   1.0564 B(  4-C ,  5-H ) :   0.9064
B(  4-C ,  6-C ) :   1.6439 B(  6-C ,  7-H ) :   0.8991 B(  6-C ,  8-N ) :   1.0763
B(  8-N ,  9-H ) :   0.8081 B(  8-N , 10-C ) :   1.0238 B( 10-C , 11-O ) :   2.0472

Dispersion correction           -0.006238456
FINAL SINGLE POINT ENERGY      -413.938419093254

DIPOLE MOMENT
-------------
                                X             Y             Z
Electronic contribution:      0.07687      -2.15051      -0.00000
Nuclear contribution   :      0.81030       3.67628       0.00000
                        -----------------------------------------
Total Dipole Moment    :      0.88716       1.52577      -0.00000
                        -----------------------------------------
Magnitude (a.u.)       :      1.76495
Magnitude (Debye)      :      4.48614

Rotational constants in cm-1:     0.130255     0.067413     0.044422
Rotational constants in MHz :  3904.959492  2020.986320  1331.748545

                             ****ORCA TERMINATED NORMALLY****
TOTAL RUN TIME: 0 days 0 hours 1 minutes 31 seconds 900 msec
