                         Program Version 5.0.3 -  RELEASE  -
|  1> ! PBEh-3c def2/J TightSCF DefGrid3
|  2>
|  3> %maxcore 60000
|  4>
|  5> %pal
|  6> nprocs 4
|  7> end
|  8>
|  9> *xyzfile 0 1 mgs.xyz
| 10>
| 11>                          ****END OF INPUT****

CARTESIAN COORDINATES (ANGSTROEM)
---------------------------------
  Mg     0.000000    0.000000   -1.066236
  S      0.000000    0.000000    1.066236

 Total Charge           Charge          ....    0
 Multiplicity           Mult            ....    1
 Number of Electrons    NEL             ....   28
 Basis Dimension        Dim             ....   36

ORBITAL ENERGIES
----------------

  NO   OCC          E(Eh)            E(eV)
   0   2.0000     -89.511193     -2435.7234
   1   2.0000     -47.421579     -1290.4068
   2   2.0000      -8.147439      -221.7031
   3   2.0000      -6.038878      -164.3262
   4   2.0000      -6.032480      -164.1521
   5   2.0000      -6.032480      -164.1521
   6   2.0000      -3.371450       -91.7418
   7   2.0000      -2.054123       -55.8955
   8   2.0000      -2.052043       -55.8389
   9   2.0000      -2.052043       -55.8389
  10   2.0000      -0.667303       -18.1582
  11   2.0000      -0.293171        -7.9776
  12   2.0000      -0.240405        -6.5418
  13   2.0000      -0.240405        -6.5418
  14   0.0000      -0.125210        -3.4071
  15   0.0000      -0.011700        -0.3184
  16   0.0000      -0.011700        -0.3184
  17   0.0000       0.054183         1.4744
  18   0.0000       0.076415         2.0794

MULLIKEN ATOMIC CHARGES
-----------------------
   0 Mg:    0.398716
   1 S :   -0.398716
Sum of atomic charges:    0.0000000

LOEWDIN ATOMIC CHARGES
----------------------
   0 Mg:    0.005570
   1 S :   -0.005570

  Mayer bond orders larger than 0.100000
B(  0-Mg,  1-S ) :   2.2430

Dispersion correction           -0.000585887
FINAL SINGLE POINT ENERGY      -597.496133224487

DIPOLE MOMENT
-------------
                                X             Y             Z
Electronic contribution:      0.00000      -0.00000      -3.44193
Nuclear contribution   :      0.00000       0.00000       0.29742
                        -----------------------------------------
Total Dipole Moment    :      0.00000      -0.00000      -3.14452
                        -----------------------------------------
Magnitude (a.u.)       :      3.14452
Magnitude (Debye)      :      7.99273

Rotational constants in cm-1:     0.000000     0.268152     0.268152
Rotational constants in MHz :     0.000000  8038.984948  8038.984948

                             ****ORCA TERMINATED NORMALLY****
TOTAL RUN TIME: 0 days 0 hours 0 minutes 30 seconds 336 msec
