                         Program Version 5.0.3 -  RELEASE  -
|  1> ! PBEh-3c def2/J TightSCF DefGrid3
|  2>
|  3> %maxcore 60000
|  4>
|  5> %pal
|  6> nprocs 4
|  7> end
|  8>
|  9> *xyzfile 0 1 ts8.xyz
| 10>
| 11>                          ****END OF INPUT****

CARTESIAN COORDINATES (ANGSTROEM)
---------------------------------
  C      0.000000    0.795941    0.000000
  H     -0.540816    1.737347    0.000000
  H      1.895243    1.494019    0.000000
  H      0.964887   -0.685634    0.000000
  N      1.289621    0.676359    0.000000
  S     -0.709166   -0.753493    0.000000

 Total Charge           Charge          ....    0
 Multiplicity           Mult            ....    1
 Number of Electrons    NEL             ....   32
 Basis Dimension        Dim             ....   54

ORBITAL ENERGIES
----------------

  NO   OCC          E(Eh)            E(eV)
   0   2.0000     -89.563588     -2437.1491
   1   2.0000     -14.665452      -399.0672
   2   2.0000     -10.542463      -286.8750
   3   2.0000      -8.205004      -223.2695
   4   2.0000      -6.095662      -165.8714
   5   2.0000      -6.091090      -165.7470
   6   2.0000      -6.089112      -165.6932
   7   2.0000      -1.051576       -28.6148
   8   2.0000      -0.826236       -22.4830
   9   2.0000      -0.670958       -18.2577
  10   2.0000      -0.625411       -17.0183
  11   2.0000      -0.465925       -12.6785
  12   2.0000      -0.437300       -11.8995
  13   2.0000      -0.416369       -11.3300
  14   2.0000      -0.306103        -8.3295
  15   2.0000      -0.276519        -7.5245
  16   0.0000      -0.003021        -0.0822
  17   0.0000       0.042108         1.1458
  18   0.0000       0.137551         3.7430
  19   0.0000       0.155576         4.2335
  20   0.0000       0.225456         6.1350

MULLIKEN ATOMIC CHARGES
-----------------------
   0 C :   -0.051239
   1 H :    0.257393
   2 H :    0.345446
   3 H :    0.316652
   4 N :   -0.632489
   5 S :   -0.235762
Sum of atomic charges:   -0.0000000

LOEWDIN ATOMIC CHARGES
----------------------
   0 C :   -0.141056
   1 H :    0.132099
   2 H :    0.241357
   3 H :    0.274167
   4 N :   -0.398720
   5 S :   -0.107848

  Mayer bond orders larger than 0.100000
B(  0-C ,  1-H ) :   0.8788 B(  0-C ,  4-N ) :   1.6432 B(  0-C ,  5-S ) :   1.2759
B(  2-H ,  4-N ) :   0.8199 B(  3-H ,  4-N ) :   0.3495 B(  3-H ,  5-S ) :   0.5249
B(  4-N ,  5-S ) :   0.1929

Dispersion correction           -0.001960495
FINAL SINGLE POINT ENERGY      -492.115199656658

DIPOLE MOMENT
-------------
                                X             Y             Z
Electronic contribution:     -1.78926      -1.45603      -0.00000
Nuclear contribution   :      2.31018       2.53069       0.00000
                        -----------------------------------------
Total Dipole Moment    :      0.52093       1.07466      -0.00000
                        -----------------------------------------
Magnitude (a.u.)       :      1.19426
Magnitude (Debye)      :      3.03557

Rotational constants in cm-1:     1.624517     0.235163     0.205426
Rotational constants in MHz : 48701.794816  7050.008359  6158.510416

                             ****ORCA TERMINATED NORMALLY****
TOTAL RUN TIME: 0 days 0 hours 1 minutes 23 seconds 724 msec
