                         Program Version 5.0.3 -  RELEASE  -
|  1> ! PBEh-3c def2/J TightSCF DefGrid3
|  2>
|  3> %maxcore 60000
|  4>
|  5> %pal
|  6> nprocs 4
|  7> end
|  8>
|  9> *xyzfile 0 1 Tetrabenzopyracylene_TS.xyz
| 10>
| 11>                          ****END OF INPUT****

CARTESIAN COORDINATES (ANGSTROEM)
---------------------------------
  C      1.619097    0.490606   -0.659451
  C      2.341223    1.636418   -0.232294
  C      1.473412    2.297982    0.872294
  C      0.312167    1.488574    0.989875
  C      0.454993    0.461856    0.079744
  C     -2.340620   -1.639824    0.231532
  C     -1.618561   -0.493933    0.658589
  C     -0.454474   -0.465149   -0.080640
  C     -0.311618   -1.491908   -0.990733
  C     -1.472828   -2.301347   -0.873101
  C      1.882199   -0.496532   -1.628255
  C      0.835357   -1.580729   -1.802572
  C     -0.834808    1.577394    1.801700
  C     -1.881612    0.493185    1.627438
  C     -1.470961   -3.386919   -1.734149
  C     -0.350495   -3.554724   -2.592701
  C      0.766965   -2.712611   -2.646779
  C      3.119313   -0.255436   -2.268560
  C      3.887275    0.857034   -1.902508
  C      3.539260    1.809914   -0.906337
  C     -3.538556   -1.813425    0.905724
  C     -3.886516   -0.860564    1.901928
  C     -3.118604    0.251957    2.267913
  C     -0.766404    2.709256    2.645942
  C      0.351083    3.551328    2.591909
  C      1.471581    3.383507    1.733388
  H     -2.278031   -4.106001   -1.783403
  H     -0.362588   -4.407942   -3.257960
  H      1.561086   -2.953432   -3.341472
  H      3.494387   -0.909539   -3.044856
  H      4.825020    1.008658   -2.421214
  H      4.215984    2.630951   -0.708761
  H     -4.215229   -2.634529    0.708252
  H     -4.824195   -1.012253    2.420736
  H     -3.493641    0.906000    3.044278
  H     -1.560543    2.950102    3.340605
  H      0.363194    4.404534    3.257184
  H      2.278687    4.102542    1.782713

 Total Charge           Charge          ....    0
 Multiplicity           Mult            ....    1
 Number of Electrons    NEL             ....  168
 Basis Dimension        Dim             ....  414

ORBITAL ENERGIES
----------------

  NO   OCC          E(Eh)            E(eV)
   0   2.0000     -10.481279      -285.2101
   1   2.0000     -10.481272      -285.2099
   2   2.0000     -10.481046      -285.2038
   3   2.0000     -10.481044      -285.2037
   4   2.0000     -10.477901      -285.1182
   5   2.0000     -10.477893      -285.1180
   6   2.0000     -10.477762      -285.1144
   7   2.0000     -10.477734      -285.1136
   8   2.0000     -10.467275      -284.8290
   9   2.0000     -10.467259      -284.8286
  10   2.0000     -10.467190      -284.8267
  11   2.0000     -10.467183      -284.8265
  12   2.0000     -10.465553      -284.7822
  13   2.0000     -10.465539      -284.7818
  14   2.0000     -10.465462      -284.7797
  15   2.0000     -10.465459      -284.7796
  16   2.0000     -10.459989      -284.6308
  17   2.0000     -10.459986      -284.6307
  18   2.0000     -10.459887      -284.6280
  19   2.0000     -10.459884      -284.6279
  20   2.0000     -10.449494      -284.3452
  21   2.0000     -10.449442      -284.3438
  22   2.0000     -10.449357      -284.3414
  23   2.0000     -10.449314      -284.3403
  24   2.0000     -10.432174      -283.8739
  25   2.0000     -10.430995      -283.8418
  26   2.0000      -1.035285       -28.1715
  27   2.0000      -0.994510       -27.0620
  28   2.0000      -0.972895       -26.4738
  29   2.0000      -0.946094       -25.7445
  30   2.0000      -0.927288       -25.2328
  31   2.0000      -0.901580       -24.5332
  32   2.0000      -0.895722       -24.3738
  33   2.0000      -0.877637       -23.8817
  34   2.0000      -0.841416       -22.8961
  35   2.0000      -0.828359       -22.5408
  36   2.0000      -0.824385       -22.4327
  37   2.0000      -0.808459       -21.9993
  38   2.0000      -0.808300       -21.9950
  39   2.0000      -0.750523       -20.4228
  40   2.0000      -0.729643       -19.8546
  41   2.0000      -0.702451       -19.1147
  42   2.0000      -0.696298       -18.9472
  43   2.0000      -0.690876       -18.7997
  44   2.0000      -0.669273       -18.2119
  45   2.0000      -0.656357       -17.8604
  46   2.0000      -0.629314       -17.1245
  47   2.0000      -0.613354       -16.6902
  48   2.0000      -0.604263       -16.4428
  49   2.0000      -0.590905       -16.0793
  50   2.0000      -0.570713       -15.5299
  51   2.0000      -0.562096       -15.2954
  52   2.0000      -0.540231       -14.7004
  53   2.0000      -0.534421       -14.5423
  54   2.0000      -0.524691       -14.2776
  55   2.0000      -0.518002       -14.0955
  56   2.0000      -0.514015       -13.9871
  57   2.0000      -0.503451       -13.6996
  58   2.0000      -0.503401       -13.6982
  59   2.0000      -0.486035       -13.2257
  60   2.0000      -0.484373       -13.1805
  61   2.0000      -0.484051       -13.1717
  62   2.0000      -0.466755       -12.7011
  63   2.0000      -0.461920       -12.5695
  64   2.0000      -0.454777       -12.3751
  65   2.0000      -0.442144       -12.0314
  66   2.0000      -0.440229       -11.9792
  67   2.0000      -0.433173       -11.7872
  68   2.0000      -0.428468       -11.6592
  69   2.0000      -0.420444       -11.4409
  70   2.0000      -0.406596       -11.0640
  71   2.0000      -0.402485       -10.9522
  72   2.0000      -0.399361       -10.8672
  73   2.0000      -0.385023       -10.4770
  74   2.0000      -0.378987       -10.3128
  75   2.0000      -0.376383       -10.2419
  76   2.0000      -0.362368        -9.8605
  77   2.0000      -0.337207        -9.1759
  78   2.0000      -0.330532        -8.9942
  79   2.0000      -0.295545        -8.0422
  80   2.0000      -0.272309        -7.4099
  81   2.0000      -0.267849        -7.2886
  82   2.0000      -0.262753        -7.1499
  83   2.0000      -0.249544        -6.7904
  84   0.0000      -0.062822        -1.7095
  85   0.0000      -0.047364        -1.2888
  86   0.0000      -0.019030        -0.5178
  87   0.0000       0.017321         0.4713
  88   0.0000       0.029459         0.8016

MULLIKEN ATOMIC CHARGES
-----------------------
   0 C :   -0.089949
   1 C :    0.175093
   2 C :    0.176865
   3 C :   -0.091023
   4 C :    0.151160
   5 C :    0.175114
   6 C :   -0.089982
   7 C :    0.151125
   8 C :   -0.091026
   9 C :    0.176847
  10 C :    0.198894
  11 C :    0.199537
  12 C :    0.199542
  13 C :    0.198907
  14 C :   -0.436013
  15 C :   -0.160897
  16 C :   -0.416898
  17 C :   -0.416570
  18 C :   -0.161447
  19 C :   -0.435493
  20 C :   -0.435500
  21 C :   -0.161441
  22 C :   -0.416569
  23 C :   -0.416889
  24 C :   -0.160902
  25 C :   -0.436021
  26 H :    0.216666
  27 H :    0.223245
  28 H :    0.213512
  29 H :    0.213448
  30 H :    0.223148
  31 H :    0.216751
  32 H :    0.216751
  33 H :    0.223144
  34 H :    0.213446
  35 H :    0.213514
  36 H :    0.223247
  37 H :    0.216663
Sum of atomic charges:   -0.0000000

LOEWDIN ATOMIC CHARGES
----------------------
   0 C :   -0.010406
   1 C :   -0.015103
   2 C :   -0.015048
   3 C :   -0.010356
   4 C :   -0.016622
   5 C :   -0.015101
   6 C :   -0.010406
   7 C :   -0.016620
   8 C :   -0.010356
   9 C :   -0.015050
  10 C :   -0.017048
  11 C :   -0.017042
  12 C :   -0.017043
  13 C :   -0.017049
  14 C :   -0.114626
  15 C :   -0.136067
  16 C :   -0.114866
  17 C :   -0.114825
  18 C :   -0.136011
  19 C :   -0.114632
  20 C :   -0.114632
  21 C :   -0.136011
  22 C :   -0.114825
  23 C :   -0.114865
  24 C :   -0.136065
  25 C :   -0.114626
  26 H :    0.139418
  27 H :    0.138874
  28 H :    0.138012
  29 H :    0.138035
  30 H :    0.138875
  31 H :    0.139437
  32 H :    0.139437
  33 H :    0.138874
  34 H :    0.138034
  35 H :    0.138013
  36 H :    0.138874
  37 H :    0.139418

  Mayer bond orders larger than 0.100000
B(  0-C ,  1-C ) :   1.1752 B(  0-C ,  4-C ) :   1.1523 B(  0-C ,  7-C ) :  -0.1233
B(  0-C , 10-C ) :   1.2143 B(  1-C ,  2-C ) :   0.9345 B(  1-C , 19-C ) :   1.3403
B(  2-C ,  3-C ) :   1.1750 B(  2-C , 25-C ) :   1.3394 B(  3-C ,  4-C ) :   1.1524
B(  3-C ,  7-C ) :  -0.1233 B(  3-C , 12-C ) :   1.2142 B(  4-C ,  6-C ) :  -0.1233
B(  4-C ,  7-C ) :   1.2742 B(  4-C ,  8-C ) :  -0.1233 B(  5-C ,  6-C ) :   1.1753
B(  5-C ,  9-C ) :   0.9345 B(  5-C , 20-C ) :   1.3402 B(  6-C ,  7-C ) :   1.1523
B(  6-C , 13-C ) :   1.2142 B(  7-C ,  8-C ) :   1.1524 B(  8-C ,  9-C ) :   1.1751
B(  8-C , 11-C ) :   1.2142 B(  9-C , 14-C ) :   1.3394 B( 10-C , 11-C ) :   0.9586
B( 10-C , 17-C ) :   1.2302 B( 11-C , 16-C ) :   1.2298 B( 12-C , 13-C ) :   0.9586
B( 12-C , 23-C ) :   1.2298 B( 13-C , 22-C ) :   1.2302 B( 14-C , 15-C ) :   1.3602
B( 14-C , 26-H ) :   0.9318 B( 15-C , 16-C ) :   1.4857 B( 15-C , 27-H ) :   0.9186
B( 16-C , 28-H ) :   0.9313 B( 17-C , 18-C ) :   1.4854 B( 17-C , 29-H ) :   0.9313
B( 18-C , 19-C ) :   1.3602 B( 18-C , 30-H ) :   0.9187 B( 19-C , 31-H ) :   0.9318
B( 20-C , 21-C ) :   1.3602 B( 20-C , 32-H ) :   0.9318 B( 21-C , 22-C ) :   1.4854
B( 21-C , 33-H ) :   0.9187 B( 22-C , 34-H ) :   0.9313 B( 23-C , 24-C ) :   1.4857
B( 23-C , 35-H ) :   0.9313 B( 24-C , 25-C ) :   1.3602 B( 24-C , 36-H ) :   0.9186
B( 25-C , 37-H ) :   0.9318

Dispersion correction           -0.034299848
FINAL SINGLE POINT ENERGY      -995.790991484188

DIPOLE MOMENT
-------------
                                X             Y             Z
Electronic contribution:     -0.00039       0.00044      -0.00059
Nuclear contribution   :      0.00045      -0.00051       0.00069
                        -----------------------------------------
Total Dipole Moment    :      0.00006      -0.00007       0.00010
                        -----------------------------------------
Magnitude (a.u.)       :      0.00013
Magnitude (Debye)      :      0.00034

Rotational constants in cm-1:     0.009601     0.008957     0.004634
Rotational constants in MHz :   287.825214   268.526831   138.922729

                             ****ORCA TERMINATED NORMALLY****
TOTAL RUN TIME: 0 days 0 hours 7 minutes 19 seconds 121 msec
