                         Program Version 5.0.3 -  RELEASE  -
|  1> ! PBEh-3c def2/J TightSCF DefGrid3
|  2>
|  3> %maxcore 60000
|  4>
|  5> %pal
|  6> nprocs 4
|  7> end
|  8>
|  9> *xyzfile 0 1 K_F.xyz
| 10>
| 11>                          ****END OF INPUT****

CARTESIAN COORDINATES (ANGSTROEM)
---------------------------------
  P      1.279526   -0.011440   -0.146531
  B     -2.007136    0.024653   -0.472341
  C      1.583904    1.742597    0.114212
  C      0.855242   -0.850286    1.380118
  C      2.794875   -0.756151   -0.801787
  H      2.391036    1.870699    0.837700
  H      1.869206    2.204919   -0.831929
  H      0.661804    2.191485    0.479305
  H      3.610541   -0.642806   -0.085913
  H      2.625524   -1.818171   -0.985408
  H      3.070893   -0.272916   -1.740089
  H      1.708529   -0.806160    2.060167
  H      0.595558   -1.882665    1.148553
  H     -0.023348   -0.365033    1.798730
  F     -1.261293    0.954813    0.380913
  F     -1.569604   -1.282137   -0.081309
  F     -3.357728    0.181894   -0.245903
  H      0.297325   -0.176445   -1.119355
  H     -1.670784    0.237331   -1.640648

 Total Charge           Charge          ....    0
 Multiplicity           Mult            ....    1
 Number of Electrons    NEL             ....   76
 Basis Dimension        Dim             ....  145

ORBITAL ENERGIES
----------------

  NO   OCC          E(Eh)            E(eV)
   0   2.0000     -77.852189     -2118.4658
   1   2.0000     -24.997593      -680.2191
   2   2.0000     -24.984521      -679.8634
   3   2.0000     -24.975701      -679.6234
   4   2.0000     -10.504851      -285.8515
   5   2.0000     -10.493994      -285.5561
   6   2.0000     -10.483067      -285.2588
   7   2.0000      -6.967840      -189.6046
   8   2.0000      -6.924027      -188.4124
   9   2.0000      -5.015189      -136.4702
  10   2.0000      -5.014990      -136.4648
  11   2.0000      -5.014737      -136.4579
  12   2.0000      -1.235452       -33.6183
  13   2.0000      -1.194305       -32.4987
  14   2.0000      -1.189866       -32.3779
  15   2.0000      -0.937252       -25.5039
  16   2.0000      -0.848108       -23.0782
  17   2.0000      -0.838781       -22.8244
  18   2.0000      -0.694351       -18.8942
  19   2.0000      -0.580045       -15.7838
  20   2.0000      -0.563098       -15.3227
  21   2.0000      -0.554790       -15.0966
  22   2.0000      -0.547432       -14.8964
  23   2.0000      -0.527122       -14.3437
  24   2.0000      -0.522246       -14.2110
  25   2.0000      -0.502768       -13.6810
  26   2.0000      -0.492250       -13.3948
  27   2.0000      -0.481730       -13.1085
  28   2.0000      -0.475791       -12.9469
  29   2.0000      -0.460933       -12.5426
  30   2.0000      -0.459427       -12.5016
  31   2.0000      -0.451715       -12.2918
  32   2.0000      -0.407369       -11.0851
  33   2.0000      -0.403903       -10.9908
  34   2.0000      -0.378355       -10.2956
  35   2.0000      -0.373325       -10.1587
  36   2.0000      -0.360527        -9.8104
  37   2.0000      -0.292758        -7.9664
  38   0.0000       0.049224         1.3394
  39   0.0000       0.052723         1.4347
  40   0.0000       0.060945         1.6584
  41   0.0000       0.091352         2.4858
  42   0.0000       0.110511         3.0072

MULLIKEN ATOMIC CHARGES
-----------------------
   0 P :    0.607861
   1 B :    0.628306
   2 C :   -0.854113
   3 C :   -0.848264
   4 C :   -0.851313
   5 H :    0.254259
   6 H :    0.268792
   7 H :    0.339913
   8 H :    0.265489
   9 H :    0.286198
  10 H :    0.276906
  11 H :    0.242328
  12 H :    0.296822
  13 H :    0.343322
  14 F :   -0.462730
  15 F :   -0.446240
  16 F :   -0.365380
  17 H :    0.209556
  18 H :   -0.191710
Sum of atomic charges:    0.0000000

LOEWDIN ATOMIC CHARGES
----------------------
   0 P :    0.803885
   1 B :    0.062025
   2 C :   -0.511064
   3 C :   -0.504546
   4 C :   -0.520018
   5 H :    0.154218
   6 H :    0.162312
   7 H :    0.192867
   8 H :    0.157579
   9 H :    0.167076
  10 H :    0.162428
  11 H :    0.145617
  12 H :    0.178591
  13 H :    0.197676
  14 F :   -0.326924
  15 F :   -0.301941
  16 F :   -0.223855
  17 H :    0.121830
  18 H :   -0.117759

  Mayer bond orders larger than 0.100000
B(  0-P ,  2-C ) :   1.0073 B(  0-P ,  3-C ) :   1.0276 B(  0-P ,  4-C ) :   0.9895
B(  0-P , 14-F ) :   0.1007 B(  0-P , 17-H ) :   0.8770 B(  1-B , 14-F ) :   0.7337
B(  1-B , 15-F ) :   0.8378 B(  1-B , 16-F ) :   1.0151 B(  1-B , 18-H ) :   0.8656
B(  2-C ,  5-H ) :   0.8913 B(  2-C ,  6-H ) :   0.8924 B(  2-C ,  7-H ) :   0.8474
B(  3-C , 11-H ) :   0.8843 B(  3-C , 12-H ) :   0.8770 B(  3-C , 13-H ) :   0.8437
B(  4-C ,  8-H ) :   0.8932 B(  4-C ,  9-H ) :   0.8892 B(  4-C , 10-H ) :   0.8931

Dispersion correction           -0.009317372
FINAL SINGLE POINT ENERGY      -785.523891021060

DIPOLE MOMENT
-------------
                                X             Y             Z
Electronic contribution:    -16.26238      -0.59683      -0.14606
Nuclear contribution   :     21.17722       0.66025       0.37982
                        -----------------------------------------
Total Dipole Moment    :      4.91484       0.06342       0.23376
                        -----------------------------------------
Magnitude (a.u.)       :      4.92081
Magnitude (Debye)      :     12.50770

Rotational constants in cm-1:     0.094109     0.027327     0.024668
Rotational constants in MHz :  2821.331715   819.230350   739.521203

                             ****ORCA TERMINATED NORMALLY****
TOTAL RUN TIME: 0 days 0 hours 1 minutes 15 seconds 271 msec
