                         Program Version 5.0.3 -  RELEASE  -
|  1> ! PBEh-3c def2/J TightSCF DefGrid3
|  2>
|  3> %maxcore 60000
|  4>
|  5> %pal
|  6> nprocs 4
|  7> end
|  8>
|  9> *xyzfile 0 1 18.xyz
| 10>
| 11>                          ****END OF INPUT****

CARTESIAN COORDINATES (ANGSTROEM)
---------------------------------
  N      0.000000    1.322577    0.000000
  P      0.029829   -1.919883    0.000000
  F     -0.006578    2.737428    0.000000
  H      0.309774   -3.308635    0.000000
  H      0.580573    1.107075    0.807904
  H     -0.929576   -2.001083    1.037458
  H      0.580573    1.107075   -0.807904
  H     -0.929576   -2.001083   -1.037458

 Total Charge           Charge          ....    0
 Multiplicity           Mult            ....    1
 Number of Electrons    NEL             ....   36
 Basis Dimension        Dim             ....   58

ORBITAL ENERGIES
----------------

  NO   OCC          E(Eh)            E(eV)
   0   2.0000     -77.736679     -2115.3226
   1   2.0000     -25.080444      -682.4736
   2   2.0000     -14.699784      -400.0014
   3   2.0000      -6.816885      -185.4969
   4   2.0000      -4.907132      -133.5299
   5   2.0000      -4.907087      -133.5286
   6   2.0000      -4.905244      -133.4785
   7   2.0000      -1.310746       -35.6672
   8   2.0000      -0.923463       -25.1287
   9   2.0000      -0.725042       -19.7294
  10   2.0000      -0.591210       -16.0876
  11   2.0000      -0.563130       -15.3235
  12   2.0000      -0.498433       -13.5630
  13   2.0000      -0.443970       -12.0810
  14   2.0000      -0.443585       -12.0706
  15   2.0000      -0.426570       -11.6076
  16   2.0000      -0.329794        -8.9742
  17   2.0000      -0.320978        -8.7343
  18   0.0000       0.054160         1.4738
  19   0.0000       0.062975         1.7136
  20   0.0000       0.121872         3.3163
  21   0.0000       0.138209         3.7609
  22   0.0000       0.173798         4.7293

MULLIKEN ATOMIC CHARGES
-----------------------
   0 N :   -0.342827
   1 P :   -0.293525
   2 F :   -0.331759
   3 H :    0.090945
   4 H :    0.338740
   5 H :    0.099843
   6 H :    0.338740
   7 H :    0.099843
Sum of atomic charges:   -0.0000000

LOEWDIN ATOMIC CHARGES
----------------------
   0 N :   -0.190682
   1 P :   -0.104639
   2 F :   -0.262188
   3 H :    0.032275
   4 H :    0.222865
   5 H :    0.039752
   6 H :    0.222865
   7 H :    0.039752

  Mayer bond orders larger than 0.100000
B(  0-N ,  2-F ) :   0.9183 B(  0-N ,  4-H ) :   0.8476 B(  0-N ,  6-H ) :   0.8476
B(  1-P ,  3-H ) :   0.9592 B(  1-P ,  5-H ) :   0.9618 B(  1-P ,  7-H ) :   0.9618

Dispersion correction           -0.001932942
FINAL SINGLE POINT ENERGY      -498.132071435955

DIPOLE MOMENT
-------------
                                X             Y             Z
Electronic contribution:      0.82469       4.93277      -0.00000
Nuclear contribution   :     -0.40177      -5.84220       0.00000
                        -----------------------------------------
Total Dipole Moment    :      0.42291      -0.90943      -0.00000
                        -----------------------------------------
Magnitude (a.u.)       :      1.00295
Magnitude (Debye)      :      2.54931

Rotational constants in cm-1:     2.801007     0.055335     0.055163
Rotational constants in MHz : 83972.069827  1658.912466  1653.739095

                             ****ORCA TERMINATED NORMALLY****
TOTAL RUN TIME: 0 days 0 hours 0 minutes 33 seconds 78 msec
