                         Program Version 5.0.3 -  RELEASE  -
|  1> ! PBEh-3c def2/J TightSCF DefGrid3
|  2>
|  3> %maxcore 60000
|  4>
|  5> %pal
|  6> nprocs 4
|  7> end
|  8>
|  9> *xyzfile 1 1 aminocoohbz3.xyz
| 10>
| 11>                          ****END OF INPUT****

CARTESIAN COORDINATES (ANGSTROEM)
---------------------------------
  C     -1.665975    0.108123   -0.162940
  C     -0.933932   -0.027540   -1.364105
  C      0.419819   -0.120483   -1.320632
  C      1.176533   -0.091125   -0.095628
  C      0.530526    0.035272    1.072777
  C     -0.945816    0.146524    1.140770
  N     -2.970274    0.201588   -0.168531
  H     -3.496966    0.179646   -1.031288
  H     -3.510225    0.299394    0.679988
  H     -1.452177   -0.056304   -2.315023
  H      0.970925   -0.223043   -2.249562
  C      2.660955   -0.202171   -0.213230
  H      1.062128    0.061850    2.016793
  H     -1.327393   -0.654337    1.789931
  O      3.259238   -0.181282    0.964761
  O      3.207810   -0.297656   -1.271115
  H      4.217610   -0.253475    0.856884
  H     -1.202787    1.075017    1.670150

 Total Charge           Charge          ....    1
 Multiplicity           Mult            ....    1
 Number of Electrons    NEL             ....   72
 Basis Dimension        Dim             ....  166

ORBITAL ENERGIES
----------------

  NO   OCC          E(Eh)            E(eV)
   0   2.0000     -19.678480      -535.4787
   1   2.0000     -19.622795      -533.9634
   2   2.0000     -14.886872      -405.0924
   3   2.0000     -10.739358      -292.2328
   4   2.0000     -10.724351      -291.8244
   5   2.0000     -10.663551      -290.1700
   6   2.0000     -10.657916      -290.0166
   7   2.0000     -10.657183      -289.9967
   8   2.0000     -10.638605      -289.4911
   9   2.0000     -10.637268      -289.4548
  10   2.0000      -1.366449       -37.1830
  11   2.0000      -1.271753       -34.6062
  12   2.0000      -1.271160       -34.5900
  13   2.0000      -1.144454       -31.1422
  14   2.0000      -1.051309       -28.6076
  15   2.0000      -1.036673       -28.2093
  16   2.0000      -0.922935       -25.1143
  17   2.0000      -0.901675       -24.5358
  18   2.0000      -0.855594       -23.2819
  19   2.0000      -0.811165       -22.0729
  20   2.0000      -0.806024       -21.9330
  21   2.0000      -0.754409       -20.5285
  22   2.0000      -0.716418       -19.4947
  23   2.0000      -0.706959       -19.2373
  24   2.0000      -0.700343       -19.0573
  25   2.0000      -0.676780       -18.4161
  26   2.0000      -0.669863       -18.2279
  27   2.0000      -0.660161       -17.9639
  28   2.0000      -0.640426       -17.4269
  29   2.0000      -0.616832       -16.7849
  30   2.0000      -0.594514       -16.1776
  31   2.0000      -0.588359       -16.0101
  32   2.0000      -0.556304       -15.1378
  33   2.0000      -0.512330       -13.9412
  34   2.0000      -0.479061       -13.0359
  35   2.0000      -0.465084       -12.6556
  36   0.0000      -0.250727        -6.8226
  37   0.0000      -0.172253        -4.6872
  38   0.0000      -0.091922        -2.5013
  39   0.0000      -0.058993        -1.6053
  40   0.0000      -0.025986        -0.7071

MULLIKEN ATOMIC CHARGES
-----------------------
   0 C :    0.463881
   1 C :   -0.273681
   2 C :   -0.180075
   3 C :   -0.037002
   4 C :   -0.204681
   5 C :   -0.590773
   6 N :   -0.753061
   7 H :    0.426442
   8 H :    0.422097
   9 H :    0.291493
  10 H :    0.329736
  11 C :    0.560879
  12 H :    0.318237
  13 H :    0.335052
  14 O :   -0.577791
  15 O :   -0.344267
  16 H :    0.478466
  17 H :    0.335048
Sum of atomic charges:    1.0000000

LOEWDIN ATOMIC CHARGES
----------------------
   0 C :    0.141077
   1 C :   -0.174458
   2 C :    0.033821
   3 C :   -0.109989
   4 C :   -0.015912
   5 C :   -0.240353
   6 N :   -0.222889
   7 H :    0.293369
   8 H :    0.289857
   9 H :    0.170687
  10 H :    0.192949
  11 C :    0.131083
  12 H :    0.184021
  13 H :    0.206466
  14 O :   -0.261720
  15 O :   -0.182053
  16 H :    0.357583
  17 H :    0.206462

  Mayer bond orders larger than 0.100000
B(  0-C ,  1-C ) :   1.2034 B(  0-C ,  5-C ) :   0.9818 B(  0-C ,  6-N ) :   1.3299
B(  1-C ,  2-C ) :   1.5693 B(  1-C ,  9-H ) :   0.8917 B(  2-C ,  3-C ) :   1.1259
B(  2-C , 10-H ) :   0.8625 B(  3-C ,  4-C ) :   1.6279 B(  3-C , 11-C ) :   0.9335
B(  4-C ,  5-C ) :   1.0147 B(  4-C , 12-H ) :   0.8793 B(  5-C , 13-H ) :   0.8402
B(  5-C , 17-H ) :   0.8402 B(  6-N ,  7-H ) :   0.7964 B(  6-N ,  8-H ) :   0.8000
B( 11-C , 14-O ) :   1.2002 B( 11-C , 15-O ) :   2.0688 B( 14-O , 16-H ) :   0.7295

Dispersion correction           -0.010212674
FINAL SINGLE POINT ENERGY      -475.490947136756

DIPOLE MOMENT
-------------
                                X             Y             Z
Electronic contribution:      4.81563      -0.43062      -1.31926
Nuclear contribution   :     -8.29685       0.73606       2.26135
                        -----------------------------------------
Total Dipole Moment    :     -3.48122       0.30544       0.94210
                        -----------------------------------------
Magnitude (a.u.)       :      3.61936
Magnitude (Debye)      :      9.19967

Rotational constants in cm-1:     0.122398     0.026456     0.021840
Rotational constants in MHz :  3669.393346   793.126543   654.747103

                             ****ORCA TERMINATED NORMALLY****
TOTAL RUN TIME: 0 days 0 hours 2 minutes 17 seconds 949 msec
