                         Program Version 5.0.3 -  RELEASE  -
|  1> ! PBEh-3c def2/J TightSCF DefGrid3
|  2>
|  3> %maxcore 60000
|  4>
|  5> %pal
|  6> nprocs 4
|  7> end
|  8>
|  9> *xyzfile -1 1 5.xyz
| 10>
| 11>                          ****END OF INPUT****

CARTESIAN COORDINATES (ANGSTROEM)
---------------------------------
  Cl    -1.351043    0.035294    0.000000
  O      1.741354   -0.086572    0.000000
  H      1.829090    0.870130    0.000000
  H      0.754930   -0.179400    0.000000

 Total Charge           Charge          ....   -1
 Multiplicity           Mult            ....    1
 Number of Electrons    NEL             ....   28
 Basis Dimension        Dim             ....   37

ORBITAL ENERGIES
----------------

  NO   OCC          E(Eh)            E(eV)
   0   2.0000    -101.935743     -2773.8126
   1   2.0000     -19.267746      -524.3020
   2   2.0000      -9.399908      -255.7845
   3   2.0000      -7.083663      -192.7563
   4   2.0000      -7.082465      -192.7237
   5   2.0000      -7.082425      -192.7226
   6   2.0000      -0.892384       -24.2830
   7   2.0000      -0.534700       -14.5499
   8   2.0000      -0.363131        -9.8813
   9   2.0000      -0.244301        -6.6478
  10   2.0000      -0.156669        -4.2632
  11   2.0000      -0.052670        -1.4332
  12   2.0000      -0.045967        -1.2508
  13   2.0000      -0.045249        -1.2313
  14   0.0000       0.330688         8.9985
  15   0.0000       0.471312        12.8251
  16   0.0000       0.831255        22.6196
  17   0.0000       1.055191        28.7132
  18   0.0000       1.160664        31.5833

MULLIKEN ATOMIC CHARGES
-----------------------
   0 Cl:   -0.875903
   1 O :   -0.896028
   2 H :    0.364600
   3 H :    0.407332
Sum of atomic charges:   -1.0000000

LOEWDIN ATOMIC CHARGES
----------------------
   0 Cl:   -0.864089
   1 O :   -0.674925
   2 H :    0.271391
   3 H :    0.267623

  Mayer bond orders larger than 0.100000
B(  0-Cl,  3-H ) :   0.2205 B(  1-O ,  2-H ) :   0.8462 B(  1-O ,  3-H ) :   0.6684

Dispersion correction           -0.000656557
FINAL SINGLE POINT ENERGY      -536.028010213466

DIPOLE MOMENT
-------------
                                X             Y             Z
Electronic contribution:     -3.83336      -0.05603       0.00000
Nuclear contribution   :      4.44239       0.59360       0.00000
                        -----------------------------------------
Total Dipole Moment    :      0.60902       0.53757       0.00000
                        -----------------------------------------
Magnitude (a.u.)       :      0.81234
Magnitude (Debye)      :      2.06479

Rotational constants in cm-1:    18.742266     0.151131     0.149922
Rotational constants in MHz : 561879.010367  4530.781993  4494.539707

                             ****ORCA TERMINATED NORMALLY****
TOTAL RUN TIME: 0 days 0 hours 0 minutes 11 seconds 596 msec
