                         Program Version 5.0.3 -  RELEASE  -
|  1> ! PBEh-3c def2/J TightSCF DefGrid3
|  2>
|  3> %maxcore 60000
|  4>
|  5> %pal
|  6> nprocs 4
|  7> end
|  8>
|  9> *xyzfile 0 1 FI_OPH3.xyz
| 10>
| 11>                          ****END OF INPUT****

CARTESIAN COORDINATES (ANGSTROEM)
---------------------------------
  F      2.600113   -0.502565   -0.000426
  I      0.738756    0.098266    0.000129
  O     -1.664934    0.795815   -0.000421
  P     -2.667642   -0.318631   -0.000006
  H     -2.609951   -1.193002    1.101657
  H     -2.607104   -1.196492   -1.098734
  H     -4.003942    0.117416   -0.002460

 Total Charge           Charge          ....    0
 Multiplicity           Mult            ....    1
 Number of Electrons    NEL             ....   60
 Basis Dimension        Dim             ....   80

ORBITAL ENERGIES
----------------

  NO   OCC          E(Eh)            E(eV)
   0   2.0000     -77.865922     -2118.8395
   1   2.0000     -25.026545      -681.0069
   2   2.0000     -19.506766      -530.8061
   3   2.0000      -7.107248      -193.3980
   4   2.0000      -6.935981      -188.7377
   5   2.0000      -5.097830      -138.7190
   6   2.0000      -5.070330      -137.9707
   7   2.0000      -5.069687      -137.9532
   8   2.0000      -5.027490      -136.8050
   9   2.0000      -5.027348      -136.8011
  10   2.0000      -5.026965      -136.7907
  11   2.0000      -2.050288       -55.7912
  12   2.0000      -2.041898       -55.5629
  13   2.0000      -2.041356       -55.5481
  14   2.0000      -2.018348       -54.9220
  15   2.0000      -2.018334       -54.9216
  16   2.0000      -1.218894       -33.1678
  17   2.0000      -1.126983       -30.6668
  18   2.0000      -0.771200       -20.9854
  19   2.0000      -0.743838       -20.2409
  20   2.0000      -0.554002       -15.0752
  21   2.0000      -0.547338       -14.8938
  22   2.0000      -0.513551       -13.9744
  23   2.0000      -0.457686       -12.4543
  24   2.0000      -0.437878       -11.9153
  25   2.0000      -0.437563       -11.9067
  26   2.0000      -0.391373       -10.6498
  27   2.0000      -0.382603       -10.4112
  28   2.0000      -0.288399        -7.8477
  29   2.0000      -0.285459        -7.7677
  30   0.0000      -0.031131        -0.8471
  31   0.0000       0.044823         1.2197
  32   0.0000       0.068622         1.8673
  33   0.0000       0.071573         1.9476
  34   0.0000       0.086024         2.3408

MULLIKEN ATOMIC CHARGES
-----------------------
   0 F :   -0.503912
   1 I :    0.387731
   2 O :   -0.658607
   3 P :    0.514774
   4 H :    0.087825
   5 H :    0.087883
   6 H :    0.084306
Sum of atomic charges:   -0.0000000

LOEWDIN ATOMIC CHARGES
----------------------
   0 F :   -0.461109
   1 I :    0.325374
   2 O :   -0.540914
   3 P :    0.600644
   4 H :    0.024655
   5 H :    0.024682
   6 H :    0.026668

  Mayer bond orders larger than 0.100000
B(  0-F ,  1-I ) :   0.7595 B(  1-I ,  2-O ) :   0.1970 B(  2-O ,  3-P ) :   1.6105
B(  3-P ,  4-H ) :   0.8779 B(  3-P ,  5-H ) :   0.8779 B(  3-P ,  6-H ) :   0.8862

Dispersion correction           -0.002505160
FINAL SINGLE POINT ENERGY      -815.169525770856

DIPOLE MOMENT
-------------
                                X             Y             Z
Electronic contribution:     50.35329       6.42860       0.00840
Nuclear contribution   :    -53.31935      -7.22236      -0.00787
                        -----------------------------------------
Total Dipole Moment    :     -2.96606      -0.79376       0.00054
                        -----------------------------------------
Magnitude (a.u.)       :      3.07043
Magnitude (Debye)      :      7.80442

Rotational constants in cm-1:     0.687663     0.034281     0.032965
Rotational constants in MHz : 20615.611787  1027.710568   988.253179

                             ****ORCA TERMINATED NORMALLY****
TOTAL RUN TIME: 0 days 0 hours 1 minutes 36 seconds 734 msec
