                         Program Version 5.0.3 -  RELEASE  -
|  1> ! PBEh-3c def2/J TightSCF DefGrid3
|  2>
|  3> %maxcore 60000
|  4>
|  5> %pal
|  6> nprocs 4
|  7> end
|  8>
|  9> *xyzfile 0 1 02ts.xyz
| 10>
| 11>                          ****END OF INPUT****

CARTESIAN COORDINATES (ANGSTROEM)
---------------------------------
  H     -0.538867   -2.243618    1.325793
  C     -0.658773   -1.368187    0.700088
  H     -0.796082    1.841655    0.000000
  C     -0.658773   -0.044671    1.155497
  C     -0.658773   -1.368187   -0.700088
  H     -2.232306    0.800126    0.000000
  C     -1.130850    0.805204    0.000000
  C      1.440992    0.520195    0.694895
  H     -0.787696    0.242651    2.191708
  C      1.440992    0.520195   -0.694895
  H     -0.538867   -2.243618   -1.325793
  C     -0.658773   -0.044671   -1.155497
  H     -0.787696    0.242651   -2.191708
  H      1.371006    1.456401   -1.236478
  H      1.911731   -0.286263    1.241151
  H      1.371006    1.456401    1.236478
  H      1.911731   -0.286263   -1.241151

 Total Charge           Charge          ....    0
 Multiplicity           Mult            ....    1
 Number of Electrons    NEL             ....   52
 Basis Dimension        Dim             ....  125

ORBITAL ENERGIES
----------------

  NO   OCC          E(Eh)            E(eV)
   0   2.0000     -10.453799      -284.4623
   1   2.0000     -10.453742      -284.4608
   2   2.0000     -10.440465      -284.0995
   3   2.0000     -10.433853      -283.9196
   4   2.0000     -10.433294      -283.9044
   5   2.0000     -10.433137      -283.9001
   6   2.0000     -10.432506      -283.8829
   7   2.0000      -0.957635       -26.0586
   8   2.0000      -0.827891       -22.5280
   9   2.0000      -0.785237       -21.3674
  10   2.0000      -0.781590       -21.2681
  11   2.0000      -0.643827       -17.5194
  12   2.0000      -0.622603       -16.9419
  13   2.0000      -0.588290       -16.0082
  14   2.0000      -0.576723       -15.6934
  15   2.0000      -0.517291       -14.0762
  16   2.0000      -0.492991       -13.4150
  17   2.0000      -0.456724       -12.4281
  18   2.0000      -0.437728       -11.9112
  19   2.0000      -0.424972       -11.5641
  20   2.0000      -0.420847       -11.4518
  21   2.0000      -0.407906       -11.0997
  22   2.0000      -0.389084       -10.5875
  23   2.0000      -0.357958        -9.7405
  24   2.0000      -0.262293        -7.1374
  25   2.0000      -0.258632        -7.0377
  26   0.0000       0.020324         0.5530
  27   0.0000       0.042767         1.1637
  28   0.0000       0.148110         4.0303
  29   0.0000       0.155256         4.2247
  30   0.0000       0.180938         4.9236

MULLIKEN ATOMIC CHARGES
-----------------------
   0 H :    0.212298
   1 C :   -0.170772
   2 H :    0.226854
   3 C :   -0.275894
   4 C :   -0.170772
   5 H :    0.255254
   6 C :   -0.433063
   7 C :   -0.461698
   8 H :    0.218639
   9 C :   -0.461698
  10 H :    0.212298
  11 C :   -0.275894
  12 H :    0.218639
  13 H :    0.224509
  14 H :    0.228395
  15 H :    0.224509
  16 H :    0.228395
Sum of atomic charges:   -0.0000000

LOEWDIN ATOMIC CHARGES
----------------------
   0 H :    0.130357
   1 C :   -0.155785
   2 H :    0.129870
   3 C :   -0.126413
   4 C :   -0.155785
   5 H :    0.152737
   6 C :   -0.224797
   7 C :   -0.271922
   8 H :    0.131567
   9 C :   -0.271922
  10 H :    0.130357
  11 C :   -0.126413
  12 H :    0.131567
  13 H :    0.130979
  14 H :    0.132312
  15 H :    0.130979
  16 H :    0.132312

  Mayer bond orders larger than 0.100000
B(  0-H ,  1-C ) :   0.9244 B(  1-C ,  3-C ) :   1.4149 B(  1-C ,  4-C ) :   1.4120
B(  2-H ,  6-C ) :   0.9155 B(  3-C ,  6-C ) :   0.9955 B(  3-C ,  7-C ) :   0.3816
B(  3-C ,  8-H ) :   0.9242 B(  4-C , 10-H ) :   0.9244 B(  4-C , 11-C ) :   1.4149
B(  5-H ,  6-C ) :   0.8767 B(  6-C , 11-C ) :   0.9955 B(  7-C ,  9-C ) :   1.4870
B(  7-C , 14-H ) :   0.9246 B(  7-C , 15-H ) :   0.9198 B(  9-C , 11-C ) :   0.3816
B(  9-C , 13-H ) :   0.9198 B(  9-C , 16-H ) :   0.9246 B( 11-C , 12-H ) :   0.9242

Dispersion correction           -0.009820744
FINAL SINGLE POINT ENERGY      -272.049122608794

DIPOLE MOMENT
-------------
                                X             Y             Z
Electronic contribution:     -1.91997      -1.89930      -0.00000
Nuclear contribution   :      1.79842       1.99407       0.00000
                        -----------------------------------------
Total Dipole Moment    :     -0.12155       0.09477      -0.00000
                        -----------------------------------------
Magnitude (a.u.)       :      0.15413
Magnitude (Debye)      :      0.39176

Rotational constants in cm-1:     0.127452     0.093352     0.085122
Rotational constants in MHz :  3820.915152  2798.613618  2551.902336

                             ****ORCA TERMINATED NORMALLY****
TOTAL RUN TIME: 0 days 0 hours 1 minutes 39 seconds 751 msec
