                         Program Version 5.0.3 -  RELEASE  -
|  1> ! PBEh-3c def2/J TightSCF DefGrid3
|  2>
|  3> %maxcore 60000
|  4>
|  5> %pal
|  6> nprocs 4
|  7> end
|  8>
|  9> *xyzfile 0 1 nh3.xyz
| 10>
| 11>                          ****END OF INPUT****

CARTESIAN COORDINATES (ANGSTROEM)
---------------------------------
  N      0.000000    0.000000    0.113895
  H      0.000000    0.938032   -0.265755
  H      0.812359   -0.469016   -0.265755
  H     -0.812359   -0.469016   -0.265755

 Total Charge           Charge          ....    0
 Multiplicity           Mult            ....    1
 Number of Electrons    NEL             ....   10
 Basis Dimension        Dim             ....   21

ORBITAL ENERGIES
----------------

  NO   OCC          E(Eh)            E(eV)
   0   2.0000     -14.596020      -397.1779
   1   2.0000      -0.935123       -25.4460
   2   2.0000      -0.511001       -13.9050
   3   2.0000      -0.510999       -13.9050
   4   2.0000      -0.306121        -8.3300
   5   0.0000       0.142083         3.8663
   6   0.0000       0.225999         6.1498
   7   0.0000       0.226000         6.1498
   8   0.0000       0.762432        20.7468
   9   0.0000       0.762433        20.7469

MULLIKEN ATOMIC CHARGES
-----------------------
   0 N :   -0.943053
   1 H :    0.314353
   2 H :    0.314350
   3 H :    0.314350
Sum of atomic charges:    0.0000000

LOEWDIN ATOMIC CHARGES
----------------------
   0 N :   -0.648929
   1 H :    0.216310
   2 H :    0.216309
   3 H :    0.216309

  Mayer bond orders larger than 0.100000
B(  0-N ,  1-H ) :   0.8803 B(  0-N ,  2-H ) :   0.8803 B(  0-N ,  3-H ) :   0.8803

Dispersion correction           -0.000444534
FINAL SINGLE POINT ENERGY       -56.428132916296

DIPOLE MOMENT
-------------
                                X             Y             Z
Electronic contribution:      0.00000       0.00001       0.12827
Nuclear contribution   :      0.00000      -0.00000      -0.87844
                        -----------------------------------------
Total Dipole Moment    :      0.00000       0.00001      -0.75017
                        -----------------------------------------
Magnitude (a.u.)       :      0.75017
Magnitude (Debye)      :      1.90678

Rotational constants in cm-1:     9.981533     9.981521     6.335490
Rotational constants in MHz : 299238.818246 299238.479424 189933.198853

                             ****ORCA TERMINATED NORMALLY****
TOTAL RUN TIME: 0 days 0 hours 0 minutes 35 seconds 568 msec
