                         Program Version 5.0.3 -  RELEASE  -
|  1> ! PBEh-3c def2/J TightSCF DefGrid3
|  2>
|  3> %maxcore 60000
|  4>
|  5> %pal
|  6> nprocs 4
|  7> end
|  8>
|  9> *xyzfile -1 1 clch3clts.xyz
| 10>
| 11>                          ****END OF INPUT****

CARTESIAN COORDINATES (ANGSTROEM)
---------------------------------
  Cl    -0.000275    0.019243    2.322537
  C      0.000213    0.000203   -0.000052
  H      0.760980   -0.751016    0.006414
  H     -1.030750   -0.283007    0.002184
  H      0.270429    1.034645   -0.008660
  Cl    -0.000597   -0.020067   -2.322422

 Total Charge           Charge          ....   -1
 Multiplicity           Mult            ....    1
 Number of Electrons    NEL             ....   44
 Basis Dimension        Dim             ....   57

ORBITAL ENERGIES
----------------

  NO   OCC          E(Eh)            E(eV)
   0   2.0000    -102.022006     -2776.1599
   1   2.0000    -102.021959     -2776.1586
   2   2.0000     -10.338880      -281.3352
   3   2.0000      -9.486447      -258.1393
   4   2.0000      -9.486403      -258.1382
   5   2.0000      -7.171683      -195.1514
   6   2.0000      -7.171638      -195.1502
   7   2.0000      -7.167852      -195.0472
   8   2.0000      -7.167852      -195.0472
   9   2.0000      -7.167809      -195.0460
  10   2.0000      -7.167809      -195.0460
  11   2.0000      -0.661960       -18.0129
  12   2.0000      -0.618179       -16.8215
  13   2.0000      -0.566086       -15.4040
  14   2.0000      -0.339910        -9.2494
  15   2.0000      -0.339906        -9.2493
  16   2.0000      -0.193733        -5.2717
  17   2.0000      -0.121156        -3.2968
  18   2.0000      -0.121152        -3.2967
  19   2.0000      -0.113584        -3.0908
  20   2.0000      -0.113578        -3.0906
  21   2.0000      -0.095158        -2.5894
  22   0.0000       0.190057         5.1717
  23   0.0000       0.313227         8.5233
  24   0.0000       0.376072        10.2335
  25   0.0000       0.376087        10.2339
  26   0.0000       0.643565        17.5123

MULLIKEN ATOMIC CHARGES
-----------------------
   0 Cl:   -0.627725
   1 C :   -0.546972
   2 H :    0.267428
   3 H :    0.267493
   4 H :    0.267381
   5 Cl:   -0.627606
Sum of atomic charges:   -1.0000000

LOEWDIN ATOMIC CHARGES
----------------------
   0 Cl:   -0.562202
   1 C :   -0.313585
   2 H :    0.145945
   3 H :    0.145965
   4 H :    0.145930
   5 Cl:   -0.562054

  Mayer bond orders larger than 0.100000
B(  0-Cl,  1-C ) :   0.4838 B(  0-Cl,  5-Cl) :   0.1032 B(  1-C ,  2-H ) :   0.9040
B(  1-C ,  3-H ) :   0.9040 B(  1-C ,  4-H ) :   0.9040 B(  1-C ,  5-Cl) :   0.4840

Dispersion correction           -0.001958488
FINAL SINGLE POINT ENERGY      -959.266559081396

DIPOLE MOMENT
-------------
                                X             Y             Z
Electronic contribution:     -0.00134      -0.00127      -0.00038
Nuclear contribution   :      0.00183       0.00173      -0.00022
                        -----------------------------------------
Total Dipole Moment    :      0.00049       0.00045      -0.00060
                        -----------------------------------------
Magnitude (a.u.)       :      0.00090
Magnitude (Debye)      :      0.00228

Rotational constants in cm-1:     4.876602     0.043875     0.043875
Rotational constants in MHz : 146196.852857  1315.351113  1315.350907

                             ****ORCA TERMINATED NORMALLY****
TOTAL RUN TIME: 0 days 0 hours 1 minutes 6 seconds 452 msec
