                         Program Version 5.0.3 -  RELEASE  -
|  1> ! PBEh-3c def2/J TightSCF DefGrid3
|  2>
|  3> %maxcore 60000
|  4>
|  5> %pal
|  6> nprocs 4
|  7> end
|  8>
|  9> *xyzfile 0 1 E39.xyz
| 10>
| 11>                          ****END OF INPUT****

CARTESIAN COORDINATES (ANGSTROEM)
---------------------------------
  C      0.228601   -0.019446   -1.374710
  S     -0.798463   -0.693320    0.000000
  C      0.228601   -0.019446    1.374710
  H     -0.292852   -0.267442   -2.297523
  H      1.215889   -0.482944   -1.366274
  H      0.295639    1.062739   -1.264890
  H      0.295639    1.062739    1.264890
  H     -0.292852   -0.267442    2.297523
  H      1.215889   -0.482944    1.366274
  O     -2.096093    0.107506    0.000000

 Total Charge           Charge          ....    0
 Multiplicity           Mult            ....    1
 Number of Electrons    NEL             ....   42
 Basis Dimension        Dim             ....   75

ORBITAL ENERGIES
----------------

  NO   OCC          E(Eh)            E(eV)
   0   2.0000     -89.695015     -2440.7254
   1   2.0000     -19.437384      -528.9181
   2   2.0000     -10.469252      -284.8828
   3   2.0000     -10.469208      -284.8816
   4   2.0000      -8.319992      -226.3985
   5   2.0000      -6.210299      -168.9908
   6   2.0000      -6.209919      -168.9805
   7   2.0000      -6.203832      -168.8149
   8   2.0000      -1.092398       -29.7257
   9   2.0000      -0.876955       -23.8632
  10   2.0000      -0.806862       -21.9558
  11   2.0000      -0.677959       -18.4482
  12   2.0000      -0.529038       -14.3959
  13   2.0000      -0.517294       -14.0763
  14   2.0000      -0.515357       -14.0236
  15   2.0000      -0.485571       -13.2131
  16   2.0000      -0.451488       -12.2856
  17   2.0000      -0.447477       -12.1765
  18   2.0000      -0.403318       -10.9748
  19   2.0000      -0.308241        -8.3877
  20   2.0000      -0.271067        -7.3761
  21   0.0000       0.070783         1.9261
  22   0.0000       0.083700         2.2776
  23   0.0000       0.114288         3.1099
  24   0.0000       0.134134         3.6500
  25   0.0000       0.162219         4.4142

MULLIKEN ATOMIC CHARGES
-----------------------
   0 C :   -0.782296
   1 S :    0.710230
   2 C :   -0.782296
   3 H :    0.275788
   4 H :    0.235631
   5 H :    0.264686
   6 H :    0.264686
   7 H :    0.275788
   8 H :    0.235631
   9 O :   -0.697848
Sum of atomic charges:    0.0000000

LOEWDIN ATOMIC CHARGES
----------------------
   0 C :   -0.494440
   1 S :    0.787894
   2 C :   -0.494440
   3 H :    0.150904
   4 H :    0.136756
   5 H :    0.145584
   6 H :    0.145584
   7 H :    0.150904
   8 H :    0.136756
   9 O :   -0.665500

  Mayer bond orders larger than 0.100000
B(  0-C ,  1-S ) :   0.8964 B(  0-C ,  3-H ) :   0.9002 B(  0-C ,  4-H ) :   0.8936
B(  0-C ,  5-H ) :   0.8922 B(  1-S ,  2-C ) :   0.8964 B(  1-S ,  9-O ) :   1.5136
B(  2-C ,  6-H ) :   0.8922 B(  2-C ,  7-H ) :   0.9002 B(  2-C ,  8-H ) :   0.8936

Dispersion correction           -0.003906219
FINAL SINGLE POINT ENERGY      -552.405308329058

DIPOLE MOMENT
-------------
                                X             Y             Z
Electronic contribution:     -4.33629      -2.26626       0.00000
Nuclear contribution   :      5.95735       2.06990       0.00000
                        -----------------------------------------
Total Dipole Moment    :      1.62106      -0.19636       0.00000
                        -----------------------------------------
Magnitude (a.u.)       :      1.63291
Magnitude (Debye)      :      4.15053

Rotational constants in cm-1:     0.224823     0.221159     0.135063
Rotational constants in MHz :  6740.016536  6630.181966  4049.074592

                             ****ORCA TERMINATED NORMALLY****
TOTAL RUN TIME: 0 days 0 hours 1 minutes 14 seconds 453 msec
