                         Program Version 5.0.3 -  RELEASE  -
|  1> ! PBEh-3c def2/J TightSCF DefGrid3
|  2>
|  3> %maxcore 60000
|  4>
|  5> %pal
|  6> nprocs 4
|  7> end
|  8>
|  9> *xyzfile 0 1 30_CF3I-benA.xyz
| 10>
| 11>                          ****END OF INPUT****

CARTESIAN COORDINATES (ANGSTROEM)
---------------------------------
  H     -0.034769    0.294585    0.057188
  C     -0.017014    0.261960    1.141050
  C      1.201241    0.285824    1.820042
  C      1.223051    0.249206    3.213256
  C      0.027950    0.188859    3.927964
  C     -1.189663    0.164642    3.250362
  C     -1.212925    0.201265    1.856906
  H      2.130707    0.332626    1.263781
  H      2.169947    0.266274    3.740740
  H      0.045571    0.158815    5.011483
  H     -2.118962    0.116213    3.806470
  H     -2.160019    0.183694    1.329379

 Total Charge           Charge          ....    0
 Multiplicity           Mult            ....    1
 Number of Electrons    NEL             ....   42
 Basis Dimension        Dim             ....  102

ORBITAL ENERGIES
----------------

  NO   OCC          E(Eh)            E(eV)
   0   2.0000     -10.449273      -284.3392
   1   2.0000     -10.449002      -284.3318
   2   2.0000     -10.448985      -284.3313
   3   2.0000     -10.448442      -284.3166
   4   2.0000     -10.448371      -284.3146
   5   2.0000     -10.448126      -284.3080
   6   2.0000      -0.951916       -25.9030
   7   2.0000      -0.835290       -22.7294
   8   2.0000      -0.835142       -22.7254
   9   2.0000      -0.678617       -18.4661
  10   2.0000      -0.678554       -18.4644
  11   2.0000      -0.591368       -16.0919
  12   2.0000      -0.525198       -14.2914
  13   2.0000      -0.508426       -13.8350
  14   2.0000      -0.481466       -13.1014
  15   2.0000      -0.481318       -13.0973
  16   2.0000      -0.420816       -11.4510
  17   2.0000      -0.398104       -10.8330
  18   2.0000      -0.398062       -10.8318
  19   2.0000      -0.292548        -7.9606
  20   2.0000      -0.292427        -7.9574
  21   0.0000       0.019005         0.5171
  22   0.0000       0.019100         0.5197
  23   0.0000       0.139685         3.8010
  24   0.0000       0.196019         5.3340
  25   0.0000       0.200835         5.4650

MULLIKEN ATOMIC CHARGES
-----------------------
   0 H :    0.219814
   1 C :   -0.220218
   2 C :   -0.219803
   3 C :   -0.219599
   4 C :   -0.219669
   5 C :   -0.219576
   6 C :   -0.219953
   7 H :    0.219818
   8 H :    0.219791
   9 H :    0.219768
  10 H :    0.219802
  11 H :    0.219824
Sum of atomic charges:    0.0000000

LOEWDIN ATOMIC CHARGES
----------------------
   0 H :    0.135773
   1 C :   -0.135725
   2 C :   -0.135789
   3 C :   -0.135796
   4 C :   -0.135772
   5 C :   -0.135811
   6 C :   -0.135767
   7 H :    0.135783
   8 H :    0.135778
   9 H :    0.135765
  10 H :    0.135780
  11 H :    0.135780

  Mayer bond orders larger than 0.100000
B(  0-H ,  1-C ) :   0.9200 B(  1-C ,  2-C ) :   1.4258 B(  1-C ,  6-C ) :   1.4259
B(  2-C ,  3-C ) :   1.4261 B(  2-C ,  7-H ) :   0.9200 B(  3-C ,  4-C ) :   1.4259
B(  3-C ,  8-H ) :   0.9200 B(  4-C ,  5-C ) :   1.4261 B(  4-C ,  9-H ) :   0.9200
B(  5-C ,  6-C ) :   1.4259 B(  5-C , 10-H ) :   0.9200 B(  6-C , 11-H ) :   0.9200

Dispersion correction           -0.005877302
FINAL SINGLE POINT ENERGY      -231.725749167507

DIPOLE MOMENT
-------------
                                X             Y             Z
Electronic contribution:      0.00013      -0.00027       0.00053
Nuclear contribution   :     -0.00014       0.00039      -0.00047
                        -----------------------------------------
Total Dipole Moment    :     -0.00002       0.00012       0.00006
                        -----------------------------------------
Magnitude (a.u.)       :      0.00014
Magnitude (Debye)      :      0.00034

Rotational constants in cm-1:     0.190265     0.190179     0.095111
Rotational constants in MHz :  5703.988169  5701.428088  2851.354652

                             ****ORCA TERMINATED NORMALLY****
TOTAL RUN TIME: 0 days 0 hours 1 minutes 16 seconds 297 msec
