                         Program Version 5.0.3 -  RELEASE  -
|  1> ! PBEh-3c def2/J TightSCF DefGrid3
|  2>
|  3> %maxcore 60000
|  4>
|  5> %pal
|  6> nprocs 4
|  7> end
|  8>
|  9> *xyzfile 0 1 P4.xyz
| 10>
| 11>                          ****END OF INPUT****

CARTESIAN COORDINATES (ANGSTROEM)
---------------------------------
  C      0.000000   -1.114923   -0.212542
  C      1.233154   -0.664010    0.576496
  C      1.233154    0.664010    0.576496
  C      0.000000    1.114923   -0.212542
  C      0.000000    0.000000   -1.285132
  C     -1.233154   -0.664010    0.576496
  C     -1.233154    0.664010    0.576496
  H      0.000000   -2.148612   -0.553541
  H      1.921324   -1.329754    1.079287
  H      1.921324    1.329754    1.079287
  H      0.000000    2.148612   -0.553541
  H     -0.900304    0.000000   -1.902917
  H      0.900304    0.000000   -1.902917
  H     -1.921324   -1.329754    1.079287
  H     -1.921324    1.329754    1.079287

 Total Charge           Charge          ....    0
 Multiplicity           Mult            ....    1
 Number of Electrons    NEL             ....   50
 Basis Dimension        Dim             ....  121

ORBITAL ENERGIES
----------------

  NO   OCC          E(Eh)            E(eV)
   0   2.0000     -10.450037      -284.3600
   1   2.0000     -10.449990      -284.3587
   2   2.0000     -10.437738      -284.0253
   3   2.0000     -10.435027      -283.9515
   4   2.0000     -10.434889      -283.9478
   5   2.0000     -10.433969      -283.9227
   6   2.0000     -10.433891      -283.9206
   7   2.0000      -0.991512       -26.9804
   8   2.0000      -0.836208       -22.7544
   9   2.0000      -0.791406       -21.5352
  10   2.0000      -0.775673       -21.1071
  11   2.0000      -0.633301       -17.2330
  12   2.0000      -0.625494       -17.0205
  13   2.0000      -0.587652       -15.9908
  14   2.0000      -0.564006       -15.3474
  15   2.0000      -0.542023       -14.7492
  16   2.0000      -0.472314       -12.8523
  17   2.0000      -0.439475       -11.9587
  18   2.0000      -0.420903       -11.4534
  19   2.0000      -0.419570       -11.4171
  20   2.0000      -0.398147       -10.8341
  21   2.0000      -0.381853       -10.3907
  22   2.0000      -0.377605       -10.2752
  23   2.0000      -0.297509        -8.0956
  24   2.0000      -0.263712        -7.1760
  25   0.0000       0.019705         0.5362
  26   0.0000       0.080852         2.2001
  27   0.0000       0.159200         4.3321
  28   0.0000       0.188153         5.1199
  29   0.0000       0.195535         5.3208

MULLIKEN ATOMIC CHARGES
-----------------------
   0 C :   -0.364049
   1 C :   -0.164351
   2 C :   -0.164351
   3 C :   -0.364050
   4 C :   -0.366709
   5 C :   -0.164351
   6 C :   -0.164351
   7 H :    0.213659
   8 H :    0.217332
   9 H :    0.217332
  10 H :    0.213659
  11 H :    0.227784
  12 H :    0.227784
  13 H :    0.217332
  14 H :    0.217332
Sum of atomic charges:   -0.0000000

LOEWDIN ATOMIC CHARGES
----------------------
   0 C :   -0.146118
   1 C :   -0.137661
   2 C :   -0.137661
   3 C :   -0.146118
   4 C :   -0.186536
   5 C :   -0.137661
   6 C :   -0.137661
   7 H :    0.124337
   8 H :    0.133075
   9 H :    0.133075
  10 H :    0.124337
  11 H :    0.124220
  12 H :    0.124220
  13 H :    0.133075
  14 H :    0.133075

  Mayer bond orders larger than 0.100000
B(  0-C ,  1-C ) :   0.9651 B(  0-C ,  4-C ) :   0.9441 B(  0-C ,  5-C ) :   0.9651
B(  0-C ,  7-H ) :   0.9332 B(  1-C ,  2-C ) :   1.8951 B(  1-C ,  8-H ) :   0.9264
B(  2-C ,  3-C ) :   0.9651 B(  2-C ,  9-H ) :   0.9264 B(  3-C ,  4-C ) :   0.9441
B(  3-C ,  6-C ) :   0.9651 B(  3-C , 10-H ) :   0.9332 B(  4-C , 11-H ) :   0.9194
B(  4-C , 12-H ) :   0.9194 B(  5-C ,  6-C ) :   1.8951 B(  5-C , 13-H ) :   0.9264
B(  6-C , 14-H ) :   0.9264

Dispersion correction           -0.008210473
FINAL SINGLE POINT ENERGY      -270.880721172430

DIPOLE MOMENT
-------------
                                X             Y             Z
Electronic contribution:      0.00000       0.00000       1.08887
Nuclear contribution   :      0.00000      -0.00000      -1.09289
                        -----------------------------------------
Total Dipole Moment    :      0.00000       0.00000      -0.00403
                        -----------------------------------------
Magnitude (a.u.)       :      0.00403
Magnitude (Debye)      :      0.01023

Rotational constants in cm-1:     0.144679     0.121615     0.107334
Rotational constants in MHz :  4337.360158  3645.927192  3217.802717

                             ****ORCA TERMINATED NORMALLY****
TOTAL RUN TIME: 0 days 0 hours 1 minutes 12 seconds 980 msec
