                         Program Version 5.0.3 -  RELEASE  -
|  1> ! PBEh-3c def2/J TightSCF DefGrid3
|  2>
|  3> %maxcore 60000
|  4>
|  5> %pal
|  6> nprocs 4
|  7> end
|  8>
|  9> *xyzfile 0 1 13a.xyz
| 10>
| 11>                          ****END OF INPUT****

CARTESIAN COORDINATES (ANGSTROEM)
---------------------------------
  N     -0.363758    1.289660    0.194924
  N      0.270712   -0.763293    1.027627
  H     -0.649921    1.467512   -1.852655
  H     -0.079687   -0.914394   -2.319015
  H      0.595797   -1.309771    1.816363
  H     -0.481863    2.277958    0.349804
  C     -0.378107    0.773633   -1.071412
  C     -0.066922   -0.515513   -1.319498
  C      0.338640   -1.381082   -0.227598
  C      0.001610    0.561664    1.311718
  O      0.727008   -2.534634   -0.333055
  O      0.086492    1.048259    2.422798

 Total Charge           Charge          ....    0
 Multiplicity           Mult            ....    1
 Number of Electrons    NEL             ....   58
 Basis Dimension        Dim             ....  128

ORBITAL ENERGIES
----------------

  NO   OCC          E(Eh)            E(eV)
   0   2.0000     -19.484261      -530.1937
   1   2.0000     -19.476869      -529.9925
   2   2.0000     -14.718710      -400.5165
   3   2.0000     -14.698256      -399.9599
   4   2.0000     -10.610416      -288.7241
   5   2.0000     -10.574392      -287.7438
   6   2.0000     -10.538892      -286.7778
   7   2.0000     -10.467935      -284.8470
   8   2.0000      -1.197890       -32.5962
   9   2.0000      -1.157370       -31.4936
  10   2.0000      -1.095011       -29.7968
  11   2.0000      -1.035484       -28.1770
  12   2.0000      -0.900210       -24.4960
  13   2.0000      -0.781300       -21.2603
  14   2.0000      -0.750607       -20.4251
  15   2.0000      -0.678601       -18.4657
  16   2.0000      -0.637325       -17.3425
  17   2.0000      -0.594452       -16.1759
  18   2.0000      -0.554370       -15.0852
  19   2.0000      -0.544484       -14.8162
  20   2.0000      -0.522797       -14.2260
  21   2.0000      -0.491345       -13.3702
  22   2.0000      -0.486025       -13.2254
  23   2.0000      -0.468823       -12.7573
  24   2.0000      -0.431377       -11.7384
  25   2.0000      -0.362591        -9.8666
  26   2.0000      -0.341631        -9.2962
  27   2.0000      -0.328869        -8.9490
  28   2.0000      -0.300909        -8.1881
  29   0.0000      -0.023377        -0.6361
  30   0.0000       0.038200         1.0395
  31   0.0000       0.095759         2.6057
  32   0.0000       0.151964         4.1351
  33   0.0000       0.156129         4.2485

MULLIKEN ATOMIC CHARGES
-----------------------
   0 N :   -0.675485
   1 N :   -0.721051
   2 H :    0.272847
   3 H :    0.267035
   4 H :    0.399284
   5 H :    0.393302
   6 C :    0.081447
   7 C :   -0.450213
   8 C :    0.565139
   9 C :    0.675359
  10 O :   -0.393250
  11 O :   -0.414413
Sum of atomic charges:   -0.0000000

LOEWDIN ATOMIC CHARGES
----------------------
   0 N :   -0.188419
   1 N :   -0.204957
   2 H :    0.149980
   3 H :    0.164030
   4 H :    0.287048
   5 H :    0.282450
   6 C :   -0.014246
   7 C :   -0.239557
   8 C :    0.123859
   9 C :    0.146298
  10 O :   -0.244103
  11 O :   -0.262384

  Mayer bond orders larger than 0.100000
B(  0-N ,  5-H ) :   0.8077 B(  0-N ,  6-C ) :   1.0769 B(  0-N ,  9-C ) :   1.0273
B(  1-N ,  4-H ) :   0.7982 B(  1-N ,  8-C ) :   0.9816 B(  1-N ,  9-C ) :   1.0630
B(  2-H ,  6-C ) :   0.8991 B(  3-H ,  7-C ) :   0.9063 B(  6-C ,  7-C ) :   1.6453
B(  7-C ,  8-C ) :   1.0566 B(  8-C , 10-O ) :   2.0371 B(  9-C , 11-O ) :   2.0465

Dispersion correction           -0.006240345
FINAL SINGLE POINT ENERGY      -413.937672962291

DIPOLE MOMENT
-------------
                                X             Y             Z
Electronic contribution:      0.41164      -0.75903       1.96344
Nuclear contribution   :     -0.89885       2.13970      -2.95528
                        -----------------------------------------
Total Dipole Moment    :     -0.48721       1.38067      -0.99184
                        -----------------------------------------
Magnitude (a.u.)       :      1.76843
Magnitude (Debye)      :      4.49500

Rotational constants in cm-1:     0.130180     0.067460     0.044482
Rotational constants in MHz :  3902.698753  2022.413984  1333.548829

                             ****ORCA TERMINATED NORMALLY****
TOTAL RUN TIME: 0 days 0 hours 1 minutes 23 seconds 885 msec
