                         Program Version 5.0.3 -  RELEASE  -
|  1> ! PBEh-3c def2/J TightSCF DefGrid3
|  2>
|  3> %maxcore 60000
|  4>
|  5> %pal
|  6> nprocs 4
|  7> end
|  8>
|  9> *xyzfile 1 1 H3OpH2O.xyz
| 10>
| 11>                          ****END OF INPUT****

CARTESIAN COORDINATES (ANGSTROEM)
---------------------------------
  O     -1.199728    0.029020    0.115747
  H     -1.631424   -0.733320    0.528407
  H     -1.694002    0.295624   -0.672423
  O      1.199728   -0.029020    0.115747
  H      0.000000    0.000000    0.056538
  H      1.694002   -0.295624   -0.672423
  H      1.631424    0.733320    0.528407

 Total Charge           Charge          ....    1
 Multiplicity           Mult            ....    1
 Number of Electrons    NEL             ....   20
 Basis Dimension        Dim             ....   40

ORBITAL ENERGIES
----------------

  NO   OCC          E(Eh)            E(eV)
   0   2.0000     -19.790407      -538.5243
   1   2.0000     -19.790297      -538.5214
   2   2.0000      -1.433453       -39.0062
   3   2.0000      -1.403450       -38.1898
   4   2.0000      -0.910706       -24.7816
   5   2.0000      -0.888434       -24.1755
   6   2.0000      -0.887515       -24.1505
   7   2.0000      -0.738997       -20.1091
   8   2.0000      -0.681466       -18.5436
   9   2.0000      -0.666374       -18.1330
  10   0.0000      -0.126212        -3.4344
  11   0.0000      -0.084886        -2.3099
  12   0.0000      -0.027750        -0.7551
  13   0.0000      -0.023924        -0.6510
  14   0.0000       0.107331         2.9206

MULLIKEN ATOMIC CHARGES
-----------------------
   0 O :   -0.804727
   1 H :    0.517239
   2 H :    0.514360
   3 O :   -0.804727
   4 H :    0.546258
   5 H :    0.514360
   6 H :    0.517239
Sum of atomic charges:    1.0000000

LOEWDIN ATOMIC CHARGES
----------------------
   0 O :   -0.442296
   1 H :    0.377095
   2 H :    0.374339
   3 O :   -0.442296
   4 H :    0.381724
   5 H :    0.374339
   6 H :    0.377095

  Mayer bond orders larger than 0.100000
B(  0-O ,  1-H ) :   0.7172 B(  0-O ,  2-H ) :   0.7197 B(  0-O ,  4-H ) :   0.3479
B(  3-O ,  4-H ) :   0.3479 B(  3-O ,  5-H ) :   0.7197 B(  3-O ,  6-H ) :   0.7172

Dispersion correction           -0.001185400
FINAL SINGLE POINT ENERGY      -152.861972583827

DIPOLE MOMENT
-------------
                                X             Y             Z
Electronic contribution:      0.00000      -0.00000      -0.00666
Nuclear contribution   :     -0.00000       0.00000      -0.65605
                        -----------------------------------------
Total Dipole Moment    :      0.00000      -0.00000      -0.66270
                        -----------------------------------------
Magnitude (a.u.)       :      0.66270
Magnitude (Debye)      :      1.68446

Rotational constants in cm-1:     5.879984     0.288193     0.286744
Rotational constants in MHz : 176277.487916  8639.797503  8596.382409

                             ****ORCA TERMINATED NORMALLY****
TOTAL RUN TIME: 0 days 0 hours 0 minutes 56 seconds 778 msec
