                         Program Version 5.0.3 -  RELEASE  -
|  1> ! PBEh-3c def2/J TightSCF DefGrid3
|  2>
|  3> %maxcore 60000
|  4>
|  5> %pal
|  6> nprocs 4
|  7> end
|  8>
|  9> *xyzfile 0 1 TRP_xao.xyz
| 10>
| 11>                          ****END OF INPUT****

CARTESIAN COORDINATES (ANGSTROEM)
---------------------------------
  N      2.837335   -0.455351    0.127827
  C      1.476226   -0.009829   -0.000781
  C      1.503414    1.450172   -0.415219
  O      2.437083    2.185806   -0.100749
  C      0.706712   -0.164532    1.330324
  H      3.534750    0.262300    0.250865
  H      0.981766   -0.616010   -0.759653
  H      0.814169   -1.207401    1.632963
  H      1.192301    0.462865    2.080156
  C      3.142147   -1.775659    0.095566
  O      2.282039   -2.641067   -0.048802
  N      0.425963    1.856351   -1.123421
  H     -0.345684    1.210383   -1.190126
  C      0.187538    3.258819   -1.390152
  H     -0.363009    3.365573   -2.320600
  H     -0.374508    3.731341   -0.583170
  H      1.149191    3.753946   -1.478881
  C      4.605565   -2.112037    0.244978
  H      4.727834   -2.745024    1.120693
  H      5.238181   -1.233517    0.343478
  H      4.917824   -2.686391   -0.623807
  C     -0.726712    0.202599    1.175995
  C     -1.378598    1.295017    1.706091
  C     -1.667915   -0.450072    0.318241
  H     -1.012920    2.044289    2.389537
  C     -2.877640    0.294763    0.369124
  C     -1.601089   -1.600898   -0.488952
  H     -3.360266    2.020219    1.500423
  C     -2.726248   -1.966522   -1.210648
  H     -0.695797   -2.195238   -0.529737
  N     -2.665147    1.351163    1.219930
  C     -4.012432   -0.078517   -0.355358
  C     -3.917048   -1.214579   -1.145598
  H     -4.931309    0.491129   -0.304861
  H     -4.775970   -1.532289   -1.720765
  H     -2.696018   -2.849863   -1.833697

 Total Charge           Charge          ....    0
 Multiplicity           Mult            ....    1
 Number of Electrons    NEL             ....  138
 Basis Dimension        Dim             ....  319

ORBITAL ENERGIES
----------------

  NO   OCC          E(Eh)            E(eV)
   0   2.0000     -19.462873      -529.6117
   1   2.0000     -19.448655      -529.2248
   2   2.0000     -14.693658      -399.8348
   3   2.0000     -14.662702      -398.9924
   4   2.0000     -14.654948      -398.7814
   5   2.0000     -10.547489      -287.0118
   6   2.0000     -10.542617      -286.8792
   7   2.0000     -10.487790      -285.3873
   8   2.0000     -10.485738      -285.3314
   9   2.0000     -10.485095      -285.3139
  10   2.0000     -10.467396      -284.8323
  11   2.0000     -10.454341      -284.4771
  12   2.0000     -10.449231      -284.3380
  13   2.0000     -10.448788      -284.3260
  14   2.0000     -10.447800      -284.2991
  15   2.0000     -10.447148      -284.2813
  16   2.0000     -10.446580      -284.2659
  17   2.0000     -10.441860      -284.1375
  18   2.0000     -10.436464      -283.9906
  19   2.0000      -1.148466       -31.2513
  20   2.0000      -1.133057       -30.8320
  21   2.0000      -1.096961       -29.8498
  22   2.0000      -1.024687       -27.8831
  23   2.0000      -1.020789       -27.7771
  24   2.0000      -0.944280       -25.6952
  25   2.0000      -0.909098       -24.7378
  26   2.0000      -0.861259       -23.4360
  27   2.0000      -0.831446       -22.6248
  28   2.0000      -0.821792       -22.3621
  29   2.0000      -0.810273       -22.0486
  30   2.0000      -0.789254       -21.4767
  31   2.0000      -0.733393       -19.9566
  32   2.0000      -0.706988       -19.2381
  33   2.0000      -0.675985       -18.3945
  34   2.0000      -0.660385       -17.9700
  35   2.0000      -0.652325       -17.7507
  36   2.0000      -0.636748       -17.3268
  37   2.0000      -0.614546       -16.7227
  38   2.0000      -0.600301       -16.3350
  39   2.0000      -0.557452       -15.1690
  40   2.0000      -0.550070       -14.9682
  41   2.0000      -0.541148       -14.7254
  42   2.0000      -0.534361       -14.5407
  43   2.0000      -0.525045       -14.2872
  44   2.0000      -0.516285       -14.0488
  45   2.0000      -0.505971       -13.7682
  46   2.0000      -0.503560       -13.7026
  47   2.0000      -0.497568       -13.5395
  48   2.0000      -0.492968       -13.4143
  49   2.0000      -0.485214       -13.2033
  50   2.0000      -0.470255       -12.7963
  51   2.0000      -0.469173       -12.7668
  52   2.0000      -0.457253       -12.4425
  53   2.0000      -0.450559       -12.2603
  54   2.0000      -0.446865       -12.1598
  55   2.0000      -0.438325       -11.9274
  56   2.0000      -0.432505       -11.7691
  57   2.0000      -0.419891       -11.4258
  58   2.0000      -0.412271       -11.2185
  59   2.0000      -0.395711       -10.7678
  60   2.0000      -0.394302       -10.7295
  61   2.0000      -0.386754       -10.5241
  62   2.0000      -0.330906        -9.0044
  63   2.0000      -0.321242        -8.7414
  64   2.0000      -0.304972        -8.2987
  65   2.0000      -0.300491        -8.1768
  66   2.0000      -0.296165        -8.0591
  67   2.0000      -0.269238        -7.3263
  68   2.0000      -0.244633        -6.6568
  69   0.0000      -0.000486        -0.0132
  70   0.0000       0.039575         1.0769
  71   0.0000       0.052788         1.4364
  72   0.0000       0.070719         1.9244
  73   0.0000       0.086659         2.3581

MULLIKEN ATOMIC CHARGES
-----------------------
   0 N :   -0.643807
   1 C :   -0.180044
   2 C :    0.546968
   3 O :   -0.448886
   4 C :   -0.522683
   5 H :    0.378910
   6 H :    0.269351
   7 H :    0.275206
   8 H :    0.235247
   9 C :    0.529229
  10 O :   -0.449188
  11 N :   -0.622713
  12 H :    0.391157
  13 C :   -0.494017
  14 H :    0.223985
  15 H :    0.215989
  16 H :    0.259705
  17 C :   -0.747969
  18 H :    0.254959
  19 H :    0.217447
  20 H :    0.256986
  21 C :    0.011971
  22 C :   -0.058062
  23 C :    0.005114
  24 H :    0.246052
  25 C :    0.367210
  26 C :   -0.349683
  27 H :    0.360574
  28 C :   -0.229481
  29 H :    0.255045
  30 N :   -0.694263
  31 C :   -0.276319
  32 C :   -0.237485
  33 H :    0.214083
  34 H :    0.218461
  35 H :    0.220949
Sum of atomic charges:   -0.0000000

LOEWDIN ATOMIC CHARGES
----------------------
   0 N :   -0.218992
   1 C :   -0.090047
   2 C :    0.113924
   3 O :   -0.294031
   4 C :   -0.216140
   5 H :    0.267560
   6 H :    0.145111
   7 H :    0.154522
   8 H :    0.139794
   9 C :    0.107384
  10 O :   -0.298320
  11 N :   -0.230082
  12 H :    0.266812
  13 C :   -0.254230
  14 H :    0.127071
  15 H :    0.118523
  16 H :    0.149429
  17 C :   -0.386867
  18 H :    0.155444
  19 H :    0.129614
  20 H :    0.156422
  21 C :   -0.112287
  22 C :   -0.084043
  23 C :   -0.078061
  24 H :    0.138830
  25 C :    0.014092
  26 C :   -0.135529
  27 H :    0.262976
  28 C :   -0.153427
  29 H :    0.152330
  30 N :   -0.154705
  31 C :   -0.163467
  32 C :   -0.139083
  33 H :    0.136208
  34 H :    0.136142
  35 H :    0.137124

  Mayer bond orders larger than 0.100000
B(  0-N ,  1-C ) :   0.9354 B(  0-N ,  5-H ) :   0.7853 B(  0-N ,  9-C ) :   1.1591
B(  1-C ,  2-C ) :   0.9046 B(  1-C ,  4-C ) :   0.9426 B(  1-C ,  6-H ) :   0.8737
B(  2-C ,  3-O ) :   1.9586 B(  2-C , 11-N ) :   1.1603 B(  4-C ,  7-H ) :   0.8926
B(  4-C ,  8-H ) :   0.9164 B(  4-C , 21-C ) :   0.9571 B(  9-C , 10-O ) :   1.9452
B(  9-C , 17-C ) :   0.9286 B( 11-N , 12-H ) :   0.7957 B( 11-N , 13-C ) :   0.9589
B( 13-C , 14-H ) :   0.9240 B( 13-C , 15-H ) :   0.9180 B( 13-C , 16-H ) :   0.9049
B( 17-C , 18-H ) :   0.9111 B( 17-C , 19-H ) :   0.9211 B( 17-C , 20-H ) :   0.9106
B( 21-C , 22-C ) :   1.5610 B( 21-C , 23-C ) :   1.2296 B( 22-C , 24-H ) :   0.9080
B( 22-C , 30-N ) :   1.1294 B( 23-C , 25-C ) :   1.2318 B( 23-C , 26-C ) :   1.2918
B( 25-C , 30-N ) :   1.0262 B( 25-C , 31-C ) :   1.2918 B( 26-C , 28-C ) :   1.4977
B( 26-C , 29-H ) :   0.9030 B( 27-H , 30-N ) :   0.8321 B( 28-C , 32-C ) :   1.3596
B( 28-C , 35-H ) :   0.9193 B( 31-C , 32-C ) :   1.4967 B( 31-C , 33-H ) :   0.9197
B( 32-C , 34-H ) :   0.9194

Dispersion correction           -0.025784662
FINAL SINGLE POINT ENERGY      -856.627947612807

DIPOLE MOMENT
-------------
                                X             Y             Z
Electronic contribution:     -4.80550      -0.84876       2.17899
Nuclear contribution   :      3.80169       2.20115      -1.99610
                        -----------------------------------------
Total Dipole Moment    :     -1.00381       1.35240       0.18288
                        -----------------------------------------
Magnitude (a.u.)       :      1.69413
Magnitude (Debye)      :      4.30613

Rotational constants in cm-1:     0.018544     0.009006     0.007146
Rotational constants in MHz :   555.949257   269.996959   214.219515

                             ****ORCA TERMINATED NORMALLY****
TOTAL RUN TIME: 0 days 0 hours 5 minutes 59 seconds 220 msec
