                         Program Version 5.0.3 -  RELEASE  -
|  1> ! PBEh-3c def2/J TightSCF DefGrid3
|  2>
|  3> %maxcore 60000
|  4>
|  5> %pal
|  6> nprocs 4
|  7> end
|  8>
|  9> *xyzfile 0 1 nh3.xyz
| 10>
| 11>                          ****END OF INPUT****

CARTESIAN COORDINATES (ANGSTROEM)
---------------------------------
  N      0.000000    0.000000    0.069049
  H      0.000212   -0.934724   -0.319854
  H     -0.809601    0.467179   -0.319854
  H      0.809389    0.467545   -0.319854

 Total Charge           Charge          ....    0
 Multiplicity           Mult            ....    1
 Number of Electrons    NEL             ....   10
 Basis Dimension        Dim             ....   21

ORBITAL ENERGIES
----------------

  NO   OCC          E(Eh)            E(eV)
   0   2.0000     -14.596745      -397.1976
   1   2.0000      -0.936243       -25.4765
   2   2.0000      -0.510205       -13.8834
   3   2.0000      -0.510204       -13.8834
   4   2.0000      -0.307874        -8.3777
   5   0.0000       0.141639         3.8542
   6   0.0000       0.225462         6.1351
   7   0.0000       0.225462         6.1351
   8   0.0000       0.761115        20.7110
   9   0.0000       0.761116        20.7110

MULLIKEN ATOMIC CHARGES
-----------------------
   0 N :   -0.940315
   1 H :    0.313440
   2 H :    0.313438
   3 H :    0.313438
Sum of atomic charges:    0.0000000

LOEWDIN ATOMIC CHARGES
----------------------
   0 N :   -0.647692
   1 H :    0.215898
   2 H :    0.215897
   3 H :    0.215897

  Mayer bond orders larger than 0.100000
B(  0-N ,  1-H ) :   0.8809 B(  0-N ,  2-H ) :   0.8809 B(  0-N ,  3-H ) :   0.8809

Dispersion correction           -0.000444584
FINAL SINGLE POINT ENERGY       -56.428111348560

DIPOLE MOMENT
-------------
                                X             Y             Z
Electronic contribution:      0.00000      -0.00001       0.13637
Nuclear contribution   :      0.00000       0.00000      -0.89985
                        -----------------------------------------
Total Dipole Moment    :      0.00000      -0.00001      -0.76347
                        -----------------------------------------
Magnitude (a.u.)       :      0.76347
Magnitude (Debye)      :      1.94060

Rotational constants in cm-1:     9.932594     9.932588     6.380405
Rotational constants in MHz : 297771.669228 297771.493239 191279.723551

                             ****ORCA TERMINATED NORMALLY****
TOTAL RUN TIME: 0 days 0 hours 0 minutes 38 seconds 428 msec
