                         Program Version 5.0.3 -  RELEASE  -
|  1> ! PBEh-3c def2/J TightSCF DefGrid3
|  2>
|  3> %maxcore 60000
|  4>
|  5> %pal
|  6> nprocs 4
|  7> end
|  8>
|  9> *xyzfile 0 1 s8.xyz
| 10>
| 11>                          ****END OF INPUT****

CARTESIAN COORDINATES (ANGSTROEM)
---------------------------------
  S     -2.167085   -0.897636   -0.502673
  S     -2.167085    0.897636    0.502673
  S     -0.897636   -2.167085    0.502673
  S      0.897636   -2.167085   -0.502673
  S      2.167085   -0.897636    0.502673
  S      2.167085    0.897636   -0.502673
  S      0.897636    2.167085    0.502673
  S     -0.897636    2.167085   -0.502673

 Total Charge           Charge          ....    0
 Multiplicity           Mult            ....    1
 Number of Electrons    NEL             ....  128
 Basis Dimension        Dim             ....  144

ORBITAL ENERGIES
----------------

  NO   OCC          E(Eh)            E(eV)
   0   2.0000     -89.658458     -2439.7307
   1   2.0000     -89.658458     -2439.7307
   2   2.0000     -89.658436     -2439.7301
   3   2.0000     -89.658436     -2439.7301
   4   2.0000     -89.658377     -2439.7285
   5   2.0000     -89.658338     -2439.7274
   6   2.0000     -89.658338     -2439.7274
   7   2.0000     -89.658272     -2439.7256
   8   2.0000      -8.296779      -225.7668
   9   2.0000      -8.296779      -225.7668
  10   2.0000      -8.296767      -225.7665
  11   2.0000      -8.296767      -225.7665
  12   2.0000      -8.296744      -225.7659
  13   2.0000      -8.296710      -225.7649
  14   2.0000      -8.296710      -225.7649
  15   2.0000      -8.296659      -225.7636
  16   2.0000      -6.188093      -168.3866
  17   2.0000      -6.188043      -168.3852
  18   2.0000      -6.188043      -168.3852
  19   2.0000      -6.187922      -168.3819
  20   2.0000      -6.187922      -168.3819
  21   2.0000      -6.187832      -168.3795
  22   2.0000      -6.187832      -168.3795
  23   2.0000      -6.187802      -168.3786
  24   2.0000      -6.184298      -168.2833
  25   2.0000      -6.184288      -168.2830
  26   2.0000      -6.184288      -168.2830
  27   2.0000      -6.184242      -168.2818
  28   2.0000      -6.184242      -168.2818
  29   2.0000      -6.184172      -168.2799
  30   2.0000      -6.184172      -168.2799
  31   2.0000      -6.184131      -168.2788
  32   2.0000      -6.177740      -168.1049
  33   2.0000      -6.177740      -168.1048
  34   2.0000      -6.177722      -168.1044
  35   2.0000      -6.177722      -168.1044
  36   2.0000      -6.177722      -168.1044
  37   2.0000      -6.177722      -168.1044
  38   2.0000      -6.177709      -168.1040
  39   2.0000      -6.177707      -168.1040
  40   2.0000      -0.984314       -26.7846
  41   2.0000      -0.948510       -25.8103
  42   2.0000      -0.948510       -25.8103
  43   2.0000      -0.854155       -23.2427
  44   2.0000      -0.854154       -23.2427
  45   2.0000      -0.725926       -19.7534
  46   2.0000      -0.725926       -19.7534
  47   2.0000      -0.641939       -17.4680
  48   2.0000      -0.534740       -14.5510
  49   2.0000      -0.514132       -13.9902
  50   2.0000      -0.514132       -13.9902
  51   2.0000      -0.481417       -13.1000
  52   2.0000      -0.445082       -12.1113
  53   2.0000      -0.445082       -12.1113
  54   2.0000      -0.440789       -11.9945
  55   2.0000      -0.440789       -11.9945
  56   2.0000      -0.401382       -10.9222
  57   2.0000      -0.342423        -9.3178
  58   2.0000      -0.342423        -9.3178
  59   2.0000      -0.330165        -8.9843
  60   2.0000      -0.330165        -8.9842
  61   2.0000      -0.317602        -8.6424
  62   2.0000      -0.315765        -8.5924
  63   2.0000      -0.315765        -8.5924
  64   0.0000      -0.058545        -1.5931
  65   0.0000      -0.058545        -1.5931
  66   0.0000      -0.050251        -1.3674
  67   0.0000      -0.015459        -0.4206
  68   0.0000      -0.006513        -0.1772

MULLIKEN ATOMIC CHARGES
-----------------------
   0 S :   -0.000000
   1 S :    0.000000
   2 S :   -0.000000
   3 S :    0.000000
   4 S :    0.000000
   5 S :   -0.000000
   6 S :   -0.000000
   7 S :    0.000000
Sum of atomic charges:   -0.0000000

LOEWDIN ATOMIC CHARGES
----------------------
   0 S :   -0.000000
   1 S :    0.000000
   2 S :   -0.000000
   3 S :    0.000000
   4 S :    0.000000
   5 S :   -0.000000
   6 S :   -0.000000
   7 S :    0.000000

  Mayer bond orders larger than 0.100000
B(  0-S ,  1-S ) :   1.0318 B(  0-S ,  2-S ) :   1.0318 B(  1-S ,  7-S ) :   1.0318
B(  2-S ,  3-S ) :   1.0318 B(  3-S ,  4-S ) :   1.0318 B(  4-S ,  5-S ) :   1.0318
B(  5-S ,  6-S ) :   1.0318 B(  6-S ,  7-S ) :   1.0318

Dispersion correction           -0.009753444
FINAL SINGLE POINT ENERGY     -3181.988544500633

DIPOLE MOMENT
-------------
                                X             Y             Z
Electronic contribution:     -0.00000       0.00000       0.00000
Nuclear contribution   :     -0.00000      -0.00000       0.00000
                        -----------------------------------------
Total Dipole Moment    :     -0.00000       0.00000       0.00000
                        -----------------------------------------
Magnitude (a.u.)       :      0.00000
Magnitude (Debye)      :      0.00000

Rotational constants in cm-1:     0.021882     0.021882     0.011946
Rotational constants in MHz :   656.008895   656.008895   358.131646

                             ****ORCA TERMINATED NORMALLY****
TOTAL RUN TIME: 0 days 0 hours 1 minutes 6 seconds 995 msec
