                         Program Version 5.0.3 -  RELEASE  -
|  1> ! PBEh-3c def2/J TightSCF DefGrid3
|  2>
|  3> %maxcore 60000
|  4>
|  5> %pal
|  6> nprocs 4
|  7> end
|  8>
|  9> *xyzfile 0 1 i12p.xyz
| 10>
| 11>                          ****END OF INPUT****

CARTESIAN COORDINATES (ANGSTROEM)
---------------------------------
  C      2.655798   -0.417435    0.707361
  C      2.071703    0.418147   -0.260304
  C      2.909228    1.082697   -1.180664
  C      4.285732    0.913440   -1.132057
  C      4.862075    0.074670   -0.160153
  C      4.035624   -0.592915    0.764383
  C      0.620493    0.573216   -0.290045
  N     -0.235694    0.013529    0.479413
  C     -1.564806    0.478410    0.071122
  C     -1.277553    1.422150   -1.117410
  O      0.113429    1.433699   -1.272141
  C     -2.141594    1.324811    1.271104
  C     -3.552953    1.800321    1.125596
  F     -4.470590    0.865826    1.519284
  C     -2.490031   -0.685545   -0.296716
  C     -2.289793   -1.940365    0.297189
  C     -3.161862   -2.997076    0.023527
  C     -4.241600   -2.813292   -0.845760
  C     -4.443993   -1.563128   -1.437148
  C     -3.575745   -0.502394   -1.164761
  O     -1.992198    2.089838   -1.808977
  O      6.220171   -0.025908   -0.195197
  C      6.859203   -0.869492    0.772811
  C     -3.970503    2.986950    0.693346
  H     -5.029120    3.223416    0.636969
  H     -3.243450    3.723409    0.368181
  H     -1.447157   -2.083371    0.967174
  H     -2.994612   -3.966134    0.490301
  H     -4.919486   -3.637432   -1.059978
  H     -5.281965   -1.407993   -2.114014
  H     -3.748295    0.467534   -1.620044
  H     -2.065634    0.677061    2.151890
  H     -1.483249    2.187792    1.423773
  H      2.472916    1.730784   -1.935006
  H      4.937662    1.420767   -1.838424
  H      4.458916   -1.244508    1.522146
  H      2.011100   -0.929716    1.416581
  H      7.929275   -0.801973    0.561054
  H      6.521943   -1.911517    0.670182
  H      6.656618   -0.518270    1.795414

 Total Charge           Charge          ....    0
 Multiplicity           Mult            ....    1
 Number of Electrons    NEL             ....  170
 Basis Dimension        Dim             ....  392

ORBITAL ENERGIES
----------------

  NO   OCC          E(Eh)            E(eV)
   0   2.0000     -25.092206      -682.7936
   1   2.0000     -19.573772      -532.6294
   2   2.0000     -19.548975      -531.9547
   3   2.0000     -19.513310      -530.9842
   4   2.0000     -14.647706      -398.5843
   5   2.0000     -10.601708      -288.4871
   6   2.0000     -10.568928      -287.5951
   7   2.0000     -10.536793      -286.7207
   8   2.0000     -10.535232      -286.6782
   9   2.0000     -10.524598      -286.3889
  10   2.0000     -10.511231      -286.0251
  11   2.0000     -10.478259      -285.1279
  12   2.0000     -10.476393      -285.0771
  13   2.0000     -10.475255      -285.0462
  14   2.0000     -10.472674      -284.9760
  15   2.0000     -10.468619      -284.8656
  16   2.0000     -10.467448      -284.8338
  17   2.0000     -10.463034      -284.7136
  18   2.0000     -10.449453      -284.3441
  19   2.0000     -10.448977      -284.3311
  20   2.0000     -10.448575      -284.3202
  21   2.0000     -10.448210      -284.3102
  22   2.0000     -10.447165      -284.2818
  23   2.0000     -10.438805      -284.0543
  24   2.0000      -1.326737       -36.1023
  25   2.0000      -1.250233       -34.0206
  26   2.0000      -1.192989       -32.4629
  27   2.0000      -1.168081       -31.7851
  28   2.0000      -1.040819       -28.3221
  29   2.0000      -0.975949       -26.5569
  30   2.0000      -0.953828       -25.9550
  31   2.0000      -0.912689       -24.8355
  32   2.0000      -0.881066       -23.9750
  33   2.0000      -0.861129       -23.4325
  34   2.0000      -0.855780       -23.2869
  35   2.0000      -0.833203       -22.6726
  36   2.0000      -0.820549       -22.3283
  37   2.0000      -0.803736       -21.8708
  38   2.0000      -0.770079       -20.9549
  39   2.0000      -0.728770       -19.8308
  40   2.0000      -0.704312       -19.1653
  41   2.0000      -0.691821       -18.8254
  42   2.0000      -0.682322       -18.5669
  43   2.0000      -0.668000       -18.1772
  44   2.0000      -0.652232       -17.7481
  45   2.0000      -0.638066       -17.3627
  46   2.0000      -0.622224       -16.9316
  47   2.0000      -0.599466       -16.3123
  48   2.0000      -0.584307       -15.8998
  49   2.0000      -0.565610       -15.3910
  50   2.0000      -0.558545       -15.1988
  51   2.0000      -0.553319       -15.0566
  52   2.0000      -0.549994       -14.9661
  53   2.0000      -0.548871       -14.9355
  54   2.0000      -0.541751       -14.7418
  55   2.0000      -0.531131       -14.4528
  56   2.0000      -0.523749       -14.2519
  57   2.0000      -0.521061       -14.1788
  58   2.0000      -0.512879       -13.9561
  59   2.0000      -0.503045       -13.6885
  60   2.0000      -0.494967       -13.4687
  61   2.0000      -0.489968       -13.3327
  62   2.0000      -0.488462       -13.2917
  63   2.0000      -0.478612       -13.0237
  64   2.0000      -0.467846       -12.7307
  65   2.0000      -0.463155       -12.6031
  66   2.0000      -0.460677       -12.5357
  67   2.0000      -0.452944       -12.3252
  68   2.0000      -0.446162       -12.1407
  69   2.0000      -0.440356       -11.9827
  70   2.0000      -0.435673       -11.8553
  71   2.0000      -0.426549       -11.6070
  72   2.0000      -0.411952       -11.2098
  73   2.0000      -0.408516       -11.1163
  74   2.0000      -0.401117       -10.9149
  75   2.0000      -0.397804       -10.8248
  76   2.0000      -0.395053       -10.7499
  77   2.0000      -0.378789       -10.3074
  78   2.0000      -0.344082        -9.3630
  79   2.0000      -0.331740        -9.0271
  80   2.0000      -0.315139        -8.5754
  81   2.0000      -0.303096        -8.2477
  82   2.0000      -0.289700        -7.8831
  83   2.0000      -0.283624        -7.7178
  84   2.0000      -0.274909        -7.4807
  85   0.0000      -0.037625        -1.0238
  86   0.0000      -0.000422        -0.0115
  87   0.0000       0.006028         0.1640
  88   0.0000       0.017753         0.4831
  89   0.0000       0.027503         0.7484

MULLIKEN ATOMIC CHARGES
-----------------------
   0 C :   -0.228099
   1 C :   -0.043760
   2 C :   -0.234936
   3 C :   -0.292272
   4 C :    0.398797
   5 C :   -0.334436
   6 C :    0.532327
   7 N :   -0.385223
   8 C :   -0.213488
   9 C :    0.594114
  10 O :   -0.479530
  11 C :   -0.515585
  12 C :    0.532676
  13 F :   -0.319859
  14 C :    0.136292
  15 C :   -0.270280
  16 C :   -0.207976
  17 C :   -0.224384
  18 C :   -0.209634
  19 C :   -0.268449
  20 O :   -0.330650
  21 O :   -0.457783
  22 C :   -0.407404
  23 C :   -0.619630
  24 H :    0.246378
  25 H :    0.237108
  26 H :    0.240107
  27 H :    0.218679
  28 H :    0.220090
  29 H :    0.222141
  30 H :    0.261544
  31 H :    0.281447
  32 H :    0.248610
  33 H :    0.250288
  34 H :    0.247510
  35 H :    0.242903
  36 H :    0.252743
  37 H :    0.250045
  38 H :    0.215083
  39 H :    0.214495
Sum of atomic charges:   -0.0000000

LOEWDIN ATOMIC CHARGES
----------------------
   0 C :   -0.077303
   1 C :   -0.104985
   2 C :   -0.092102
   3 C :   -0.155620
   4 C :    0.092891
   5 C :   -0.191007
   6 C :    0.146335
   7 N :   -0.187712
   8 C :   -0.030800
   9 C :    0.188501
  10 O :   -0.147340
  11 C :   -0.214178
  12 C :    0.143147
  13 F :   -0.176396
  14 C :   -0.042265
  15 C :   -0.125507
  16 C :   -0.132732
  17 C :   -0.131976
  18 C :   -0.128821
  19 C :   -0.126496
  20 O :   -0.161389
  21 O :   -0.179197
  22 C :   -0.175749
  23 C :   -0.303109
  24 H :    0.151557
  25 H :    0.149235
  26 H :    0.147525
  27 H :    0.136516
  28 H :    0.136612
  29 H :    0.138158
  30 H :    0.154963
  31 H :    0.163091
  32 H :    0.149204
  33 H :    0.155774
  34 H :    0.152944
  35 H :    0.145600
  36 H :    0.156743
  37 H :    0.137300
  38 H :    0.119442
  39 H :    0.119148

  Mayer bond orders larger than 0.100000
B(  0-C ,  1-C ) :   1.3761 B(  0-C ,  5-C ) :   1.4306 B(  0-C , 36-H ) :   0.9037
B(  1-C ,  2-C ) :   1.3308 B(  1-C ,  6-C ) :   1.0258 B(  2-C ,  3-C ) :   1.4654
B(  2-C , 33-H ) :   0.9084 B(  3-C ,  4-C ) :   1.3399 B(  3-C , 34-H ) :   0.9068
B(  4-C ,  5-C ) :   1.2999 B(  4-C , 21-O ) :   1.0690 B(  5-C , 35-H ) :   0.9056
B(  6-C ,  7-N ) :   1.8171 B(  6-C , 10-O ) :   0.9868 B(  7-N ,  8-C ) :   1.0370
B(  8-C ,  9-C ) :   0.9219 B(  8-C , 11-C ) :   0.9216 B(  8-C , 14-C ) :   0.9267
B(  9-C , 10-O ) :   0.9911 B(  9-C , 20-O ) :   2.1146 B( 11-C , 12-C ) :   0.9585
B( 11-C , 31-H ) :   0.8875 B( 11-C , 32-H ) :   0.9027 B( 12-C , 13-F ) :   0.9695
B( 12-C , 23-C ) :   1.8271 B( 14-C , 15-C ) :   1.4142 B( 14-C , 19-C ) :   1.3927
B( 15-C , 16-C ) :   1.4146 B( 15-C , 26-H ) :   0.9059 B( 16-C , 17-C ) :   1.4194
B( 16-C , 27-H ) :   0.9204 B( 17-C , 18-C ) :   1.4240 B( 17-C , 28-H ) :   0.9196
B( 18-C , 19-C ) :   1.4190 B( 18-C , 29-H ) :   0.9197 B( 19-C , 30-H ) :   0.8893
B( 21-O , 22-C ) :   0.9296 B( 22-C , 37-H ) :   0.9195 B( 22-C , 38-H ) :   0.9066
B( 22-C , 39-H ) :   0.9067 B( 23-C , 24-H ) :   0.9171 B( 23-C , 25-H ) :   0.9170

Dispersion correction           -0.029376416
FINAL SINGLE POINT ENERGY     -1111.508497840674

DIPOLE MOMENT
-------------
                                X             Y             Z
Electronic contribution:     -9.87686       5.35898      -2.65895
Nuclear contribution   :     11.59334      -5.96833       3.47774
                        -----------------------------------------
Total Dipole Moment    :      1.71648      -0.60935       0.81879
                        -----------------------------------------
Magnitude (a.u.)       :      1.99700
Magnitude (Debye)      :      5.07598

Rotational constants in cm-1:     0.016415     0.003739     0.003437
Rotational constants in MHz :   492.115360   112.104060   103.040499

                             ****ORCA TERMINATED NORMALLY****
TOTAL RUN TIME: 0 days 0 hours 7 minutes 47 seconds 772 msec
