                         Program Version 5.0.3 -  RELEASE  -
|  1> ! PBEh-3c def2/J TightSCF DefGrid3
|  2>
|  3> %maxcore 60000
|  4>
|  5> %pal
|  6> nprocs 4
|  7> end
|  8>
|  9> *xyzfile 0 1 P13.xyz
| 10>
| 11>                          ****END OF INPUT****

CARTESIAN COORDINATES (ANGSTROEM)
---------------------------------
  C     -1.578452   -0.633192    0.373446
  C     -1.578452    0.633192   -0.373446
  C     -0.633192    1.578452   -0.373446
  C      0.633192    1.578452    0.373446
  C      1.578452    0.633192    0.373446
  C      1.578452   -0.633192   -0.373446
  C      0.633192   -1.578452   -0.373446
  C     -0.633192   -1.578452    0.373446
  H     -2.493158   -0.838829    0.925875
  H     -2.493158    0.838829   -0.925875
  H     -0.838829    2.493158   -0.925875
  H      0.838829    2.493158    0.925875
  H      2.493158    0.838829    0.925875
  H      2.493158   -0.838829   -0.925875
  H      0.838829   -2.493158   -0.925875
  H     -0.838829   -2.493158    0.925875

 Total Charge           Charge          ....    0
 Multiplicity           Mult            ....    1
 Number of Electrons    NEL             ....   56
 Basis Dimension        Dim             ....  136

ORBITAL ENERGIES
----------------

  NO   OCC          E(Eh)            E(eV)
   0   2.0000     -10.450356      -284.3686
   1   2.0000     -10.450338      -284.3682
   2   2.0000     -10.450338      -284.3682
   3   2.0000     -10.450124      -284.3623
   4   2.0000     -10.449583      -284.3476
   5   2.0000     -10.449310      -284.3402
   6   2.0000     -10.449310      -284.3402
   7   2.0000     -10.449210      -284.3375
   8   2.0000      -0.931297       -25.3419
   9   2.0000      -0.872956       -23.7543
  10   2.0000      -0.872956       -23.7543
  11   2.0000      -0.783465       -21.3192
  12   2.0000      -0.740023       -20.1371
  13   2.0000      -0.638387       -17.3714
  14   2.0000      -0.638387       -17.3714
  15   2.0000      -0.573326       -15.6010
  16   2.0000      -0.517059       -14.0699
  17   2.0000      -0.517059       -14.0699
  18   2.0000      -0.516528       -14.0554
  19   2.0000      -0.511962       -13.9312
  20   2.0000      -0.482296       -13.1240
  21   2.0000      -0.416185       -11.3250
  22   2.0000      -0.416185       -11.3250
  23   2.0000      -0.384534       -10.4637
  24   2.0000      -0.363010        -9.8780
  25   2.0000      -0.315687        -8.5903
  26   2.0000      -0.315687        -8.5903
  27   2.0000      -0.249320        -6.7843
  28   0.0000      -0.027505        -0.7485
  29   0.0000       0.055980         1.5233
  30   0.0000       0.055980         1.5233
  31   0.0000       0.125441         3.4134
  32   0.0000       0.145826         3.9681

MULLIKEN ATOMIC CHARGES
-----------------------
   0 C :   -0.221542
   1 C :   -0.221542
   2 C :   -0.221542
   3 C :   -0.221542
   4 C :   -0.221542
   5 C :   -0.221542
   6 C :   -0.221542
   7 C :   -0.221542
   8 H :    0.221542
   9 H :    0.221542
  10 H :    0.221542
  11 H :    0.221542
  12 H :    0.221542
  13 H :    0.221542
  14 H :    0.221542
  15 H :    0.221542
Sum of atomic charges:    0.0000000

LOEWDIN ATOMIC CHARGES
----------------------
   0 C :   -0.137713
   1 C :   -0.137713
   2 C :   -0.137713
   3 C :   -0.137713
   4 C :   -0.137713
   5 C :   -0.137713
   6 C :   -0.137713
   7 C :   -0.137713
   8 H :    0.137713
   9 H :    0.137713
  10 H :    0.137713
  11 H :    0.137713
  12 H :    0.137713
  13 H :    0.137713
  14 H :    0.137713
  15 H :    0.137713

  Mayer bond orders larger than 0.100000
B(  0-C ,  1-C ) :   1.0499 B(  0-C ,  7-C ) :   1.8493 B(  0-C ,  8-H ) :   0.9121
B(  1-C ,  2-C ) :   1.8493 B(  1-C ,  9-H ) :   0.9121 B(  2-C ,  3-C ) :   1.0499
B(  2-C , 10-H ) :   0.9121 B(  3-C ,  4-C ) :   1.8493 B(  3-C , 11-H ) :   0.9121
B(  4-C ,  5-C ) :   1.0499 B(  4-C , 12-H ) :   0.9121 B(  5-C ,  6-C ) :   1.8493
B(  5-C , 13-H ) :   0.9121 B(  6-C ,  7-C ) :   1.0499 B(  6-C , 14-H ) :   0.9121
B(  7-C , 15-H ) :   0.9121

Dispersion correction           -0.009195760
FINAL SINGLE POINT ENERGY      -308.887401033207

DIPOLE MOMENT
-------------
                                X             Y             Z
Electronic contribution:     -0.00000       0.00000      -0.00000
Nuclear contribution   :      0.00000       0.00000       0.00000
                        -----------------------------------------
Total Dipole Moment    :     -0.00000       0.00000      -0.00000
                        -----------------------------------------
Magnitude (a.u.)       :      0.00000
Magnitude (Debye)      :      0.00000

Rotational constants in cm-1:     0.090062     0.090062     0.050513
Rotational constants in MHz :  2700.005159  2700.005159  1514.347678

                             ****ORCA TERMINATED NORMALLY****
TOTAL RUN TIME: 0 days 0 hours 1 minutes 20 seconds 532 msec
