                         Program Version 5.0.3 -  RELEASE  -
|  1> ! PBEh-3c def2/J TightSCF DefGrid3
|  2>
|  3> %maxcore 60000
|  4>
|  5> %pal
|  6> nprocs 4
|  7> end
|  8>
|  9> *xyzfile 0 1 sbh3_hi.xyz
| 10>
| 11>                          ****END OF INPUT****

CARTESIAN COORDINATES (ANGSTROEM)
---------------------------------
  Sb     0.000000   -0.754436    0.000000
  H      0.000000    2.103356    0.000000
  I      0.000000    3.702235    0.000000
  H      1.398188   -1.683718    0.000000
  H     -0.699094   -1.683718   -1.210866
  H     -0.699094   -1.683718    1.210866

 Total Charge           Charge          ....    0
 Multiplicity           Mult            ....    1
 Number of Electrons    NEL             ....   52
 Basis Dimension        Dim             ....   60

ORBITAL ENERGIES
----------------

  NO   OCC          E(Eh)            E(eV)
   0   2.0000      -7.094018      -193.0381
   1   2.0000      -5.950404      -161.9187
   2   2.0000      -5.076925      -138.1501
   3   2.0000      -5.061306      -137.7251
   4   2.0000      -5.061306      -137.7251
   5   2.0000      -4.136820      -112.5686
   6   2.0000      -4.136820      -112.5686
   7   2.0000      -4.131776      -112.4313
   8   2.0000      -2.032103       -55.2963
   9   2.0000      -2.025888       -55.1272
  10   2.0000      -2.025888       -55.1272
  11   2.0000      -2.012359       -54.7591
  12   2.0000      -2.012358       -54.7590
  13   2.0000      -1.409756       -38.3614
  14   2.0000      -1.409756       -38.3614
  15   2.0000      -1.404495       -38.2183
  16   2.0000      -1.404495       -38.2183
  17   2.0000      -1.401118       -38.1264
  18   2.0000      -0.780336       -21.2340
  19   2.0000      -0.663493       -18.0546
  20   2.0000      -0.457258       -12.4426
  21   2.0000      -0.404479       -11.0064
  22   2.0000      -0.404477       -11.0064
  23   2.0000      -0.313912        -8.5420
  24   2.0000      -0.312637        -8.5073
  25   2.0000      -0.312637        -8.5073
  26   0.0000       0.014387         0.3915
  27   0.0000       0.018378         0.5001
  28   0.0000       0.018379         0.5001
  29   0.0000       0.122043         3.3210
  30   0.0000       0.254403         6.9227

MULLIKEN ATOMIC CHARGES
-----------------------
   0 Sb:   -0.036434
   1 H :    0.138943
   2 I :   -0.173112
   3 H :    0.023546
   4 H :    0.023528
   5 H :    0.023528
Sum of atomic charges:   -0.0000000

LOEWDIN ATOMIC CHARGES
----------------------
   0 Sb:   -0.018809
   1 H :    0.105278
   2 I :   -0.131935
   3 H :    0.015162
   4 H :    0.015152
   5 H :    0.015152

  Mayer bond orders larger than 0.100000
B(  0-Sb,  3-H ) :   0.9809 B(  0-Sb,  4-H ) :   0.9809 B(  0-Sb,  5-H ) :   0.9809
B(  1-H ,  2-I ) :   0.9168

Dispersion correction           -0.001661752
FINAL SINGLE POINT ENERGY      -540.374323868498

DIPOLE MOMENT
-------------
                                X             Y             Z
Electronic contribution:      0.00002       8.63855      -0.00000
Nuclear contribution   :     -0.00000      -9.28597       0.00000
                        -----------------------------------------
Total Dipole Moment    :      0.00002      -0.64742      -0.00000
                        -----------------------------------------
Magnitude (a.u.)       :      0.64742
Magnitude (Debye)      :      1.64561

Rotational constants in cm-1:     2.851571     0.013293     0.013293
Rotational constants in MHz : 85487.939631   398.518067   398.518066

                             ****ORCA TERMINATED NORMALLY****
TOTAL RUN TIME: 0 days 0 hours 1 minutes 16 seconds 53 msec
