                         Program Version 5.0.3 -  RELEASE  -
|  1> ! PBEh-3c def2/J TightSCF DefGrid3
|  2>
|  3> %maxcore 60000
|  4>
|  5> %pal
|  6> nprocs 4
|  7> end
|  8>
|  9> *xyzfile -1 3 EA_p-.xyz
| 10>
| 11>                          ****END OF INPUT****

CARTESIAN COORDINATES (ANGSTROEM)
---------------------------------
  P      0.000000    0.000000    0.000000

 Total Charge           Charge          ....   -1
 Multiplicity           Mult            ....    3
 Number of Electrons    NEL             ....   16
 Basis Dimension        Dim             ....   18

ORBITAL ENERGIES
----------------
                 SPIN UP ORBITALS
  NO   OCC          E(Eh)            E(eV)
   0   1.0000     -77.415836     -2106.5920
   1   1.0000      -6.486795      -176.5147
   2   1.0000      -4.583024      -124.7104
   3   1.0000      -4.583024      -124.7104
   4   1.0000      -4.571792      -124.4048
   5   1.0000      -0.317498        -8.6396
   6   1.0000       0.010396         0.2829
   7   1.0000       0.010396         0.2829
   8   1.0000       0.054644         1.4870
   9   0.0000       0.529307        14.4032
  10   0.0000       0.869117        23.6499
  11   0.0000       0.869117        23.6499
  12   0.0000       0.887455        24.1489
  13   0.0000       0.887455        24.1489

                 SPIN DOWN ORBITALS
  NO   OCC          E(Eh)            E(eV)
   0   1.0000     -77.407936     -2106.3770
   1   1.0000      -6.478425      -176.2869
   2   1.0000      -4.567219      -124.2803
   3   1.0000      -4.564864      -124.2163
   4   1.0000      -4.564864      -124.2163
   5   1.0000      -0.215524        -5.8647
   6   1.0000       0.080229         2.1832
   7   0.0000       0.222157         6.0452
   8   0.0000       0.222157         6.0452
   9   0.0000       0.564571        15.3628
  10   0.0000       0.919564        25.0226
  11   0.0000       0.933568        25.4037

MULLIKEN ATOMIC CHARGES AND SPIN POPULATIONS
--------------------------------------------
   0 P :   -1.000000    2.000000
Sum of atomic charges         :   -1.0000000

LOEWDIN ATOMIC CHARGES AND SPIN POPULATIONS
-------------------------------------------
   0 P :   -1.000000    2.000000

Dispersion correction            0.000000000
FINAL SINGLE POINT ENERGY      -340.849252221500

DIPOLE MOMENT
-------------
                                X             Y             Z
Electronic contribution:     -0.00000      -0.00000      -0.00000
Nuclear contribution   :      0.00000       0.00000       0.00000
                        -----------------------------------------
Total Dipole Moment    :     -0.00000      -0.00000      -0.00000
                        -----------------------------------------
Magnitude (a.u.)       :      0.00000
Magnitude (Debye)      :      0.00001

Rotational constants in cm-1:     0.000000     0.000000     0.000000
Rotational constants in MHz :     0.000000     0.000000     0.000000

                             ****ORCA TERMINATED NORMALLY****
TOTAL RUN TIME: 0 days 0 hours 0 minutes 5 seconds 282 msec
