                         Program Version 5.0.3 -  RELEASE  -
|  1> ! PBEh-3c def2/J TightSCF DefGrid3
|  2>
|  3> %maxcore 60000
|  4>
|  5> %pal
|  6> nprocs 4
|  7> end
|  8>
|  9> *xyzfile 0 1 E19.xyz
| 10>
| 11>                          ****END OF INPUT****

CARTESIAN COORDINATES (ANGSTROEM)
---------------------------------
  N     -1.192979    0.000000   -0.925890
  C     -1.181509    0.000000    0.408779
  C      0.000000    0.000000    1.138836
  C      1.181509    0.000000    0.408779
  N      1.192979    0.000000   -0.925890
  C      0.000000    0.000000   -1.521875
  H     -2.148846    0.000000    0.901533
  H      0.000000    0.000000    2.221045
  H      2.148846    0.000000    0.901533
  H      0.000000    0.000000   -2.606850

 Total Charge           Charge          ....    0
 Multiplicity           Mult            ....    1
 Number of Electrons    NEL             ....   42
 Basis Dimension        Dim             ....   98

ORBITAL ENERGIES
----------------

  NO   OCC          E(Eh)            E(eV)
   0   2.0000     -14.652775      -398.7223
   1   2.0000     -14.652758      -398.7218
   2   2.0000     -10.519082      -286.2388
   3   2.0000     -10.506987      -285.9097
   4   2.0000     -10.506980      -285.9095
   5   2.0000     -10.471441      -284.9424
   6   2.0000      -1.101207       -29.9654
   7   2.0000      -0.996495       -27.1160
   8   2.0000      -0.894223       -24.3330
   9   2.0000      -0.744590       -20.2613
  10   2.0000      -0.743059       -20.2197
  11   2.0000      -0.615156       -16.7392
  12   2.0000      -0.587642       -15.9905
  13   2.0000      -0.538954       -14.6657
  14   2.0000      -0.490741       -13.3537
  15   2.0000      -0.487236       -13.2584
  16   2.0000      -0.477815       -13.0020
  17   2.0000      -0.368183       -10.0188
  18   2.0000      -0.365379        -9.9425
  19   2.0000      -0.334773        -9.1096
  20   2.0000      -0.313320        -8.5259
  21   0.0000      -0.020778        -0.5654
  22   0.0000      -0.008871        -0.2414
  23   0.0000       0.152629         4.1533
  24   0.0000       0.167205         4.5499
  25   0.0000       0.197053         5.3621

MULLIKEN ATOMIC CHARGES
-----------------------
   0 N :   -0.348267
   1 C :   -0.010222
   2 C :   -0.316877
   3 C :   -0.010222
   4 N :   -0.348267
   5 C :    0.065238
   6 H :    0.243612
   7 H :    0.242127
   8 H :    0.243612
   9 H :    0.239266
Sum of atomic charges:    0.0000000

LOEWDIN ATOMIC CHARGES
----------------------
   0 N :   -0.151773
   1 C :   -0.026548
   2 C :   -0.191613
   3 C :   -0.026548
   4 N :   -0.151773
   5 C :   -0.000437
   6 H :    0.135287
   7 H :    0.148492
   8 H :    0.135287
   9 H :    0.129629

  Mayer bond orders larger than 0.100000
B(  0-N ,  1-C ) :   1.4943 B(  0-N ,  5-C ) :   1.4848 B(  1-C ,  2-C ) :   1.3782
B(  1-C ,  6-H ) :   0.9150 B(  2-C ,  3-C ) :   1.3782 B(  2-C ,  7-H ) :   0.9040
B(  3-C ,  4-N ) :   1.4943 B(  3-C ,  8-H ) :   0.9150 B(  4-N ,  5-C ) :   1.4848
B(  5-C ,  9-H ) :   0.9050

Dispersion correction           -0.004765188
FINAL SINGLE POINT ENERGY      -263.736422061600

DIPOLE MOMENT
-------------
                                X             Y             Z
Electronic contribution:      0.00000      -0.00000      -1.31745
Nuclear contribution   :      0.00000       0.00000       2.22597
                        -----------------------------------------
Total Dipole Moment    :      0.00000      -0.00000       0.90852
                        -----------------------------------------
Magnitude (a.u.)       :      0.90852
Magnitude (Debye)      :      2.30927

Rotational constants in cm-1:     0.210088     0.203811     0.103451
Rotational constants in MHz :  6298.274455  6110.089730  3101.377546

                             ****ORCA TERMINATED NORMALLY****
TOTAL RUN TIME: 0 days 0 hours 0 minutes 49 seconds 290 msec
