                         Program Version 5.0.3 -  RELEASE  -
|  1> ! PBEh-3c def2/J TightSCF DefGrid3
|  2>
|  3> %maxcore 60000
|  4>
|  5> %pal
|  6> nprocs 4
|  7> end
|  8>
|  9> *xyzfile 0 1 o3.xyz
| 10>
| 11>                          ****END OF INPUT****

CARTESIAN COORDINATES (ANGSTROEM)
---------------------------------
  O     -1.060538    0.000000   -0.210073
  O      0.000000    0.000000    0.420146
  O      1.060538    0.000000   -0.210073

 Total Charge           Charge          ....    0
 Multiplicity           Mult            ....    1
 Number of Electrons    NEL             ....   24
 Basis Dimension        Dim             ....   45

ORBITAL ENERGIES
----------------

  NO   OCC          E(Eh)            E(eV)
   0   2.0000     -19.809427      -539.0419
   1   2.0000     -19.611918      -533.6674
   2   2.0000     -19.611704      -533.6616
   3   2.0000      -1.521185       -41.3935
   4   2.0000      -1.225946       -33.3597
   5   2.0000      -0.863656       -23.5013
   6   2.0000      -0.684698       -18.6316
   7   2.0000      -0.679952       -18.5024
   8   2.0000      -0.663361       -18.0510
   9   2.0000      -0.411662       -11.2019
  10   2.0000      -0.408212       -11.1080
  11   2.0000      -0.394808       -10.7433
  12   0.0000      -0.142498        -3.8776
  13   0.0000       0.173241         4.7141
  14   0.0000       0.266798         7.2599
  15   0.0000       0.737848        20.0779
  16   0.0000       0.784493        21.3471

MULLIKEN ATOMIC CHARGES
-----------------------
   0 O :   -0.136095
   1 O :    0.272190
   2 O :   -0.136095
Sum of atomic charges:    0.0000000

LOEWDIN ATOMIC CHARGES
----------------------
   0 O :   -0.127908
   1 O :    0.255815
   2 O :   -0.127908

  Mayer bond orders larger than 0.100000
B(  0-O ,  1-O ) :   1.4597 B(  0-O ,  2-O ) :   0.4704 B(  1-O ,  2-O ) :   1.4597

Dispersion correction           -0.000395007
FINAL SINGLE POINT ENERGY      -224.928822495827

DIPOLE MOMENT
-------------
                                X             Y             Z
Electronic contribution:      0.00000      -0.00000       0.26400
Nuclear contribution   :      0.00000       0.00000       0.00000
                        -----------------------------------------
Total Dipole Moment    :      0.00000      -0.00000       0.26400
                        -----------------------------------------
Magnitude (a.u.)       :      0.26400
Magnitude (Debye)      :      0.67104

Rotational constants in cm-1:     3.979354     0.468405     0.419076
Rotational constants in MHz : 119298.041985 14042.441682 12563.594726

                             ****ORCA TERMINATED NORMALLY****
TOTAL RUN TIME: 0 days 0 hours 0 minutes 29 seconds 385 msec
