                         Program Version 5.0.3 -  RELEASE  -
|  1> ! PBEh-3c def2/J TightSCF DefGrid3
|  2>
|  3> %maxcore 60000
|  4>
|  5> %pal
|  6> nprocs 4
|  7> end
|  8>
|  9> *xyzfile 0 3 RKT18.xyz
| 10>
| 11>                          ****END OF INPUT****

CARTESIAN COORDINATES (ANGSTROEM)
---------------------------------
  C     -0.855804    0.092238   -0.000039
  N      1.744488    0.233226    0.000006
  H     -1.082890   -0.409568    0.933047
  H     -1.076138   -0.488018   -0.888153
  H     -1.176464    1.126168   -0.045792
  H      0.532698    0.230260    0.000992
  H      1.914110   -0.784305   -0.000062

 Total Charge           Charge          ....    0
 Multiplicity           Mult            ....    3
 Number of Electrons    NEL             ....   18
 Basis Dimension        Dim             ....   40

ORBITAL ENERGIES
----------------
                 SPIN UP ORBITALS
  NO   OCC          E(Eh)            E(eV)
   0   1.0000     -14.673861      -399.2961
   1   1.0000     -10.447494      -284.2908
   2   1.0000      -0.946783       -25.7633
   3   1.0000      -0.784830       -21.3563
   4   1.0000      -0.527035       -14.3413
   5   1.0000      -0.475947       -12.9512
   6   1.0000      -0.474787       -12.9196
   7   1.0000      -0.418683       -11.3929
   8   1.0000      -0.380461       -10.3529
   9   1.0000      -0.285196        -7.7606
  10   0.0000       0.146086         3.9752
  11   0.0000       0.178604         4.8601
  12   0.0000       0.211514         5.7556
  13   0.0000       0.212920         5.7938
  14   0.0000       0.297727         8.1016

                 SPIN DOWN ORBITALS
  NO   OCC          E(Eh)            E(eV)
   0   1.0000     -14.639620      -398.3643
   1   1.0000     -10.435556      -283.9659
   2   1.0000      -0.843195       -22.9445
   3   1.0000      -0.746683       -20.3183
   4   1.0000      -0.478107       -13.0100
   5   1.0000      -0.466481       -12.6936
   6   1.0000      -0.462225       -12.5778
   7   1.0000      -0.348378        -9.4798
   8   0.0000      -0.051628        -1.4049
   9   0.0000      -0.034596        -0.9414
  10   0.0000       0.159873         4.3504
  11   0.0000       0.192152         5.2287
  12   0.0000       0.219735         5.9793

MULLIKEN ATOMIC CHARGES AND SPIN POPULATIONS
--------------------------------------------
   0 C :   -0.836999    0.695171
   1 N :   -0.488970    1.585064
   2 H :    0.236880   -0.026033
   3 H :    0.236177   -0.026293
   4 H :    0.248781   -0.024827
   5 H :    0.299635   -0.146063
   6 H :    0.304497   -0.057019
Sum of atomic charges         :   -0.0000000

LOEWDIN ATOMIC CHARGES AND SPIN POPULATIONS
-------------------------------------------
   0 C :   -0.486135    0.613790
   1 N :   -0.337080    1.536532
   2 H :    0.136263   -0.014099
   3 H :    0.135859   -0.014274
   4 H :    0.142365   -0.013997
   5 H :    0.206437   -0.069526
   6 H :    0.202290   -0.038427

  Mayer bond orders larger than 0.100000
B(  0-C ,  1-N ) :   0.1886 B(  0-C ,  2-H ) :   0.9175 B(  0-C ,  3-H ) :   0.9177
B(  0-C ,  4-H ) :   0.9172 B(  0-C ,  5-H ) :   0.3837 B(  1-N ,  5-H ) :   0.4908
B(  1-N ,  6-H ) :   0.8668

Dispersion correction           -0.001484886
FINAL SINGLE POINT ENERGY       -95.491997575044

DIPOLE MOMENT
-------------
                                X             Y             Z
Electronic contribution:      2.44280       0.31982       0.00004
Nuclear contribution   :     -2.82925      -0.91596       0.00008
                        -----------------------------------------
Total Dipole Moment    :     -0.38646      -0.59614       0.00013
                        -----------------------------------------
Magnitude (a.u.)       :      0.71044
Magnitude (Debye)      :      1.80580

Rotational constants in cm-1:     3.883597     0.305434     0.300045
Rotational constants in MHz : 116427.299250  9156.670204  8995.132797

                             ****ORCA TERMINATED NORMALLY****
TOTAL RUN TIME: 0 days 0 hours 2 minutes 21 seconds 627 msec
