                         Program Version 5.0.3 -  RELEASE  -
|  1> ! PBEh-3c def2/J TightSCF DefGrid3
|  2>
|  3> %maxcore 60000
|  4>
|  5> %pal
|  6> nprocs 4
|  7> end
|  8>
|  9> *xyzfile 0 1 23.xyz
| 10>
| 11>                          ****END OF INPUT****

CARTESIAN COORDINATES (ANGSTROEM)
---------------------------------
  C     -2.525977   -0.436427   -0.073151
  O     -1.864527    0.593950    0.094089
  N     -1.963831   -1.644177   -0.245809
  H     -0.949404   -1.738626   -0.239854
  H     -2.537464   -2.454389   -0.378210
  C     -4.031495   -0.381308   -0.087414
  H     -4.371226   -0.001461    0.872974
  H     -4.495365   -1.345200   -0.277738
  H     -4.343238    0.327425   -0.850125
  N      2.901962   -0.530637   -0.051069
  H      3.391991   -1.406594   -0.169008
  C      3.705588    0.612208    0.099412
  O      4.921150    0.516585    0.084228
  C      2.932996    1.827524    0.262556
  H      3.454759    2.760717    0.385591
  C      1.583835    1.765849    0.256880
  H      0.963431    2.642209    0.374556
  N      0.898753    0.593567    0.102314
  H     -0.134037    0.584506    0.101476
  C      1.529643   -0.610902   -0.059946
  O      0.932454   -1.674818   -0.201754

 Total Charge           Charge          ....    0
 Multiplicity           Mult            ....    1
 Number of Electrons    NEL             ....   90
 Basis Dimension        Dim             ....  198

ORBITAL ENERGIES
----------------

  NO   OCC          E(Eh)            E(eV)
   0   2.0000     -19.484365      -530.1965
   1   2.0000     -19.477936      -530.0216
   2   2.0000     -19.467352      -529.7336
   3   2.0000     -14.692020      -399.7902
   4   2.0000     -14.691442      -399.7745
   5   2.0000     -14.661561      -398.9613
   6   2.0000     -10.604565      -288.5649
   7   2.0000     -10.569505      -287.6109
   8   2.0000     -10.564666      -287.4792
   9   2.0000     -10.522477      -286.3312
  10   2.0000     -10.454692      -284.4866
  11   2.0000     -10.454261      -284.4749
  12   2.0000      -1.190863       -32.4050
  13   2.0000      -1.158542       -31.5255
  14   2.0000      -1.149617       -31.2827
  15   2.0000      -1.080783       -29.4096
  16   2.0000      -1.024261       -27.8716
  17   2.0000      -1.015488       -27.6328
  18   2.0000      -0.885827       -24.1046
  19   2.0000      -0.841986       -22.9116
  20   2.0000      -0.767796       -20.8928
  21   2.0000      -0.739408       -20.1203
  22   2.0000      -0.674375       -18.3507
  23   2.0000      -0.662075       -18.0160
  24   2.0000      -0.627024       -17.0622
  25   2.0000      -0.615854       -16.7582
  26   2.0000      -0.585536       -15.9333
  27   2.0000      -0.558008       -15.1842
  28   2.0000      -0.544262       -14.8101
  29   2.0000      -0.533146       -14.5076
  30   2.0000      -0.523031       -14.2324
  31   2.0000      -0.516577       -14.0568
  32   2.0000      -0.487541       -13.2667
  33   2.0000      -0.477398       -12.9906
  34   2.0000      -0.474011       -12.8985
  35   2.0000      -0.468304       -12.7432
  36   2.0000      -0.460018       -12.5177
  37   2.0000      -0.437197       -11.8967
  38   2.0000      -0.417334       -11.3562
  39   2.0000      -0.363444        -9.8898
  40   2.0000      -0.338166        -9.2020
  41   2.0000      -0.333403        -9.0724
  42   2.0000      -0.333239        -9.0679
  43   2.0000      -0.321067        -8.7367
  44   2.0000      -0.287232        -7.8160
  45   0.0000      -0.010188        -0.2772
  46   0.0000       0.043582         1.1859
  47   0.0000       0.049977         1.3600
  48   0.0000       0.116357         3.1662
  49   0.0000       0.137311         3.7364

MULLIKEN ATOMIC CHARGES
-----------------------
   0 C :    0.533803
   1 O :   -0.488199
   2 N :   -0.818338
   3 H :    0.438855
   4 H :    0.363293
   5 C :   -0.737071
   6 H :    0.262447
   7 H :    0.217668
   8 H :    0.262803
   9 N :   -0.718510
  10 H :    0.394581
  11 C :    0.562298
  12 O :   -0.398068
  13 C :   -0.456516
  14 H :    0.261094
  15 C :    0.082650
  16 H :    0.273079
  17 N :   -0.721464
  18 H :    0.454962
  19 C :    0.711774
  20 O :   -0.481139
Sum of atomic charges:    0.0000000

LOEWDIN ATOMIC CHARGES
----------------------
   0 C :    0.119270
   1 O :   -0.316605
   2 N :   -0.356794
   3 H :    0.269245
   4 H :    0.254707
   5 C :   -0.385326
   6 H :    0.159777
   7 H :    0.129957
   8 H :    0.159537
   9 N :   -0.198573
  10 H :    0.284052
  11 C :    0.122755
  12 O :   -0.248973
  13 C :   -0.247980
  14 H :    0.161007
  15 C :   -0.003743
  16 H :    0.152273
  17 N :   -0.195533
  18 H :    0.286855
  19 C :    0.156642
  20 O :   -0.302550

  Mayer bond orders larger than 0.100000
B(  0-C ,  1-O ) :   1.8094 B(  0-C ,  2-N ) :   1.2632 B(  0-C ,  5-C ) :   0.9414
B(  1-O ,  2-N ) :   0.1039 B(  1-O , 18-H ) :   0.1780 B(  2-N ,  3-H ) :   0.6862
B(  2-N ,  4-H ) :   0.8319 B(  3-H , 20-O ) :   0.1178 B(  5-C ,  6-H ) :   0.9061
B(  5-C ,  7-H ) :   0.9223 B(  5-C ,  8-H ) :   0.9068 B(  9-N , 10-H ) :   0.8004
B(  9-N , 11-C ) :   0.9695 B(  9-N , 19-C ) :   1.0926 B( 11-C , 12-O ) :   2.0366
B( 11-C , 13-C ) :   1.0679 B( 13-C , 14-H ) :   0.9088 B( 13-C , 15-C ) :   1.6196
B( 15-C , 16-H ) :   0.9013 B( 15-C , 17-N ) :   1.1219 B( 17-N , 18-H ) :   0.6144
B( 17-N , 19-C ) :   1.1046 B( 19-C , 20-O ) :   1.8639

Dispersion correction           -0.011248192
FINAL SINGLE POINT ENERGY      -622.733400480170

DIPOLE MOMENT
-------------
                                X             Y             Z
Electronic contribution:     12.09215       0.38497       0.17446
Nuclear contribution   :    -14.29814      -0.68600      -0.24526
                        -----------------------------------------
Total Dipole Moment    :     -2.20599      -0.30103      -0.07080
                        -----------------------------------------
Magnitude (a.u.)       :      2.22756
Magnitude (Debye)      :      5.66200

Rotational constants in cm-1:     0.088847     0.013121     0.011457
Rotational constants in MHz :  2663.562536   393.360326   343.479916

                             ****ORCA TERMINATED NORMALLY****
TOTAL RUN TIME: 0 days 0 hours 2 minutes 34 seconds 915 msec
