                         Program Version 5.0.3 -  RELEASE  -
|  1> ! PBEh-3c def2/J TightSCF DefGrid3
|  2>
|  3> %maxcore 60000
|  4>
|  5> %pal
|  6> nprocs 4
|  7> end
|  8>
|  9> *xyzfile 0 1 o3_c2h2_add.xyz
| 10>
| 11>                          ****END OF INPUT****

CARTESIAN COORDINATES (ANGSTROEM)
---------------------------------
  O     -0.373139   -1.606439    0.000000
  O      0.040752   -0.855372    1.133174
  O      0.040752   -0.855372   -1.133174
  C      0.040752    0.436722    0.660109
  C      0.040752    0.436722   -0.660109
  H      0.105066    1.221869    1.390529
  H      0.105066    1.221869   -1.390529

 Total Charge           Charge          ....    0
 Multiplicity           Mult            ....    1
 Number of Electrons    NEL             ....   38
 Basis Dimension        Dim             ....   79

ORBITAL ENERGIES
----------------

  NO   OCC          E(Eh)            E(eV)
   0   2.0000     -19.630568      -534.1749
   1   2.0000     -19.594763      -533.2006
   2   2.0000     -19.594631      -533.1970
   3   2.0000     -10.519987      -286.2634
   4   2.0000     -10.518949      -286.2351
   5   2.0000      -1.348378       -36.6912
   6   2.0000      -1.170064       -31.8391
   7   2.0000      -1.015043       -27.6207
   8   2.0000      -0.816016       -22.2049
   9   2.0000      -0.734623       -19.9901
  10   2.0000      -0.639255       -17.3950
  11   2.0000      -0.587415       -15.9844
  12   2.0000      -0.560033       -15.2393
  13   2.0000      -0.509491       -13.8639
  14   2.0000      -0.491643       -13.3783
  15   2.0000      -0.485425       -13.2091
  16   2.0000      -0.438743       -11.9388
  17   2.0000      -0.386869       -10.5272
  18   2.0000      -0.263075        -7.1586
  19   0.0000       0.026802         0.7293
  20   0.0000       0.044821         1.2196
  21   0.0000       0.092334         2.5125
  22   0.0000       0.142863         3.8875
  23   0.0000       0.189855         5.1662

MULLIKEN ATOMIC CHARGES
-----------------------
   0 O :   -0.031226
   1 O :   -0.241897
   2 O :   -0.241897
   3 C :   -0.008307
   4 C :   -0.008307
   5 H :    0.265817
   6 H :    0.265817
Sum of atomic charges:   -0.0000000

LOEWDIN ATOMIC CHARGES
----------------------
   0 O :    0.013726
   1 O :   -0.078094
   2 O :   -0.078094
   3 C :   -0.085502
   4 C :   -0.085502
   5 H :    0.156733
   6 H :    0.156733

  Mayer bond orders larger than 0.100000
B(  0-O ,  1-O ) :   0.9588 B(  0-O ,  2-O ) :   0.9588 B(  1-O ,  3-C ) :   0.9427
B(  2-O ,  4-C ) :   0.9427 B(  3-C ,  4-C ) :   1.8347 B(  3-C ,  5-H ) :   0.8969
B(  4-C ,  6-H ) :   0.8969

Dispersion correction           -0.002169485
FINAL SINGLE POINT ENERGY      -302.205125130856

DIPOLE MOMENT
-------------
                                X             Y             Z
Electronic contribution:     -0.19820      -2.08887      -0.00000
Nuclear contribution   :      0.28298       3.28438       0.00000
                        -----------------------------------------
Total Dipole Moment    :      0.08479       1.19551      -0.00000
                        -----------------------------------------
Magnitude (a.u.)       :      1.19851
Magnitude (Debye)      :      3.04637

Rotational constants in cm-1:     0.319684     0.298038     0.157434
Rotational constants in MHz :  9583.881442  8934.962382  4719.759183

                             ****ORCA TERMINATED NORMALLY****
TOTAL RUN TIME: 0 days 0 hours 0 minutes 54 seconds 520 msec
