                         Program Version 5.0.3 -  RELEASE  -
|  1> ! PBEh-3c def2/J TightSCF DefGrid3
|  2>
|  3> %maxcore 60000
|  4>
|  5> %pal
|  6> nprocs 4
|  7> end
|  8>
|  9> *xyzfile 0 1 11.xyz
| 10>
| 11>                          ****END OF INPUT****

CARTESIAN COORDINATES (ANGSTROEM)
---------------------------------
  F      0.737668    2.720457    2.333292
  H      2.150219    1.531089   -2.290454
  C     -1.179247    0.222269   -1.830255
  C     -0.792551   -0.889384   -1.448218
  Al     0.630330   -2.265651   -1.055878
  H     -0.393560   -2.558775    0.796703
  Mg     1.329288    0.319164   -1.371242
  H      0.227228   -2.140585    0.969426
  H      1.988997    2.185536    0.324625
  O      1.319009    1.488331    0.441443
  B      0.464082    1.688312    1.523885
  H      0.034186   -3.737778   -1.197168
  N     -0.629638    0.835306    1.709289
  B     -1.638972    0.090092    1.640052
  H     -2.581962   -0.599712    1.629141
  H     -1.665078    1.111328   -2.174641

 Total Charge           Charge          ....    0
 Multiplicity           Mult            ....    1
 Number of Electrons    NEL             ....   78
 Basis Dimension        Dim             ....  155

ORBITAL ENERGIES
----------------

  NO   OCC          E(Eh)            E(eV)
   0   2.0000     -56.586457     -1539.7958
   1   2.0000     -47.343689     -1288.2873
   2   2.0000     -25.127004      -683.7405
   3   2.0000     -19.579122      -532.7750
   4   2.0000     -14.645287      -398.5185
   5   2.0000     -10.465942      -284.7928
   6   2.0000     -10.459594      -284.6200
   7   2.0000      -7.100613      -193.2175
   8   2.0000      -7.030559      -191.3112
   9   2.0000      -4.326291      -117.7244
  10   2.0000      -2.810049       -76.4653
  11   2.0000      -2.817595       -76.6707
  12   2.0000      -2.814279       -76.5804
  13   2.0000      -3.293450       -89.6193
  14   2.0000      -1.977620       -53.8138
  15   2.0000      -1.976750       -53.7901
  16   2.0000      -1.974561       -53.7305
  17   2.0000      -1.359536       -36.9949
  18   2.0000      -1.195680       -32.5361
  19   2.0000      -0.962340       -26.1866
  20   2.0000      -0.852747       -23.2044
  21   2.0000      -0.705801       -19.2058
  22   2.0000      -0.645637       -17.5687
  23   2.0000      -0.628284       -17.0965
  24   2.0000      -0.624233       -16.9862
  25   2.0000      -0.580543       -15.7974
  26   2.0000      -0.560876       -15.2622
  27   2.0000      -0.557583       -15.1726
  28   2.0000      -0.536095       -14.5879
  29   2.0000      -0.502100       -13.6628
  30   2.0000      -0.479767       -13.0551
  31   2.0000      -0.468910       -12.7597
  32   2.0000      -0.399154       -10.8615
  33   2.0000      -0.394255       -10.7282
  34   2.0000      -0.379593       -10.3293
  35   2.0000      -0.358335        -9.7508
  36   2.0000      -0.343801        -9.3553
  37   2.0000      -0.288006        -7.8370
  38   2.0000      -0.222227        -6.0471
  39   0.0000      -0.025341        -0.6896
  40   0.0000      -0.020292        -0.5522
  41   0.0000       0.008148         0.2217
  42   0.0000       0.008958         0.2437
  43   0.0000       0.023897         0.6503

MULLIKEN ATOMIC CHARGES
-----------------------
   0 F :   -0.277667
   1 H :   -0.087615
   2 C :   -0.339971
   3 C :   -0.289139
   4 Al:    0.202302
   5 H :    0.056992
   6 Mg:    0.107883
   7 H :    0.024438
   8 H :    0.511877
   9 O :   -0.665373
  10 B :    0.667607
  11 H :   -0.079527
  12 N :   -0.287578
  13 B :    0.081073
  14 H :    0.115634
  15 H :    0.259064
Sum of atomic charges:    0.0000000

LOEWDIN ATOMIC CHARGES
----------------------
   0 F :   -0.130955
   1 H :   -0.070597
   2 C :   -0.127383
   3 C :   -0.094401
   4 Al:    0.116968
   5 H :    0.092202
   6 Mg:   -0.429480
   7 H :    0.086133
   8 H :    0.393817
   9 O :   -0.208582
  10 B :    0.235396
  11 H :   -0.071593
  12 N :   -0.154004
  13 B :    0.109407
  14 H :    0.063504
  15 H :    0.189567

  Mayer bond orders larger than 0.100000
B(  0-F , 10-B ) :   1.1357 B(  1-H ,  6-Mg) :   0.9462 B(  2-C ,  3-C ) :   2.4736
B(  2-C ,  6-Mg) :   0.1909 B(  2-C , 15-H ) :   0.9137 B(  3-C ,  4-Al) :   0.6699
B(  3-C ,  6-Mg) :   0.2257 B(  4-Al,  5-H ) :   0.1241 B(  4-Al,  6-Mg) :   0.7311
B(  4-Al,  7-H ) :   0.1279 B(  4-Al, 11-H ) :   0.9492 B(  5-H ,  7-H ) :   0.8322
B(  6-Mg,  9-O ) :   0.2795 B(  8-H ,  9-O ) :   0.6905 B(  9-O , 10-B ) :   0.9944
B( 10-B , 12-N ) :   1.0980 B( 12-N , 13-B ) :   2.2545 B( 13-B , 14-H ) :   0.9596

Dispersion correction           -0.008292140
FINAL SINGLE POINT ENERGY      -801.110321217995

DIPOLE MOMENT
-------------
                                X             Y             Z
Electronic contribution:      0.70989       7.11343       6.50608
Nuclear contribution   :     -1.68839      -6.61691      -5.16292
                        -----------------------------------------
Total Dipole Moment    :     -0.97850       0.49652       1.34317
                        -----------------------------------------
Magnitude (a.u.)       :      1.73438
Magnitude (Debye)      :      4.40845

Rotational constants in cm-1:     0.056637     0.023625     0.020796
Rotational constants in MHz :  1697.948667   708.250912   623.456759

                             ****ORCA TERMINATED NORMALLY****
TOTAL RUN TIME: 0 days 0 hours 2 minutes 40 seconds 219 msec
