                         Program Version 5.0.3 -  RELEASE  -
|  1> ! PBEh-3c def2/J TightSCF DefGrid3
|  2>
|  3> %maxcore 60000
|  4>
|  5> %pal
|  6> nprocs 4
|  7> end
|  8>
|  9> *xyzfile 0 1 39A.xyz
| 10>
| 11>                          ****END OF INPUT****

CARTESIAN COORDINATES (ANGSTROEM)
---------------------------------
  C      1.206935    0.696824    0.000000
  H      2.143699    1.237665    0.000000
  C      1.206935   -0.696824    0.000000
  H      2.143699   -1.237665    0.000000
  C      0.000000   -1.393648    0.000000
  H      0.000000   -2.475331    0.000000
  C     -1.206935   -0.696824    0.000000
  H     -2.143699   -1.237665    0.000000
  C     -1.206935    0.696824    0.000000
  H     -2.143699    1.237665    0.000000
  C      0.000000    1.393648    0.000000
  H      0.000000    2.475331    0.000000

 Total Charge           Charge          ....    0
 Multiplicity           Mult            ....    1
 Number of Electrons    NEL             ....   42
 Basis Dimension        Dim             ....  102

ORBITAL ENERGIES
----------------

  NO   OCC          E(Eh)            E(eV)
   0   2.0000     -10.448710      -284.3238
   1   2.0000     -10.448490      -284.3179
   2   2.0000     -10.448488      -284.3178
   3   2.0000     -10.447876      -284.3012
   4   2.0000     -10.447874      -284.3011
   5   2.0000     -10.447645      -284.2949
   6   2.0000      -0.952209       -25.9109
   7   2.0000      -0.835517       -22.7356
   8   2.0000      -0.835516       -22.7356
   9   2.0000      -0.678988       -18.4762
  10   2.0000      -0.678988       -18.4762
  11   2.0000      -0.592022       -16.1097
  12   2.0000      -0.525832       -14.3086
  13   2.0000      -0.508521       -13.8376
  14   2.0000      -0.481774       -13.1097
  15   2.0000      -0.481772       -13.1097
  16   2.0000      -0.420947       -11.4546
  17   2.0000      -0.398289       -10.8380
  18   2.0000      -0.398288       -10.8380
  19   2.0000      -0.292507        -7.9595
  20   2.0000      -0.292504        -7.9594
  21   0.0000       0.019226         0.5232
  22   0.0000       0.019227         0.5232
  23   0.0000       0.140700         3.8286
  24   0.0000       0.196347         5.3429
  25   0.0000       0.201733         5.4894

MULLIKEN ATOMIC CHARGES
-----------------------
   0 C :   -0.219827
   1 H :    0.219826
   2 C :   -0.219826
   3 H :    0.219826
   4 C :   -0.219839
   5 H :    0.219839
   6 C :   -0.219826
   7 H :    0.219826
   8 C :   -0.219826
   9 H :    0.219826
  10 C :   -0.219839
  11 H :    0.219839
Sum of atomic charges:   -0.0000000

LOEWDIN ATOMIC CHARGES
----------------------
   0 C :   -0.135677
   1 H :    0.135679
   2 C :   -0.135677
   3 H :    0.135679
   4 C :   -0.135683
   5 H :    0.135678
   6 C :   -0.135677
   7 H :    0.135679
   8 C :   -0.135677
   9 H :    0.135679
  10 C :   -0.135683
  11 H :    0.135678

  Mayer bond orders larger than 0.100000
B(  0-C ,  1-H ) :   0.9200 B(  0-C ,  2-C ) :   1.4265 B(  0-C , 10-C ) :   1.4265
B(  2-C ,  3-H ) :   0.9200 B(  2-C ,  4-C ) :   1.4265 B(  4-C ,  5-H ) :   0.9200
B(  4-C ,  6-C ) :   1.4265 B(  6-C ,  7-H ) :   0.9200 B(  6-C ,  8-C ) :   1.4265
B(  8-C ,  9-H ) :   0.9200 B(  8-C , 10-C ) :   1.4265 B( 10-C , 11-H ) :   0.9200

Dispersion correction           -0.005880827
FINAL SINGLE POINT ENERGY      -231.725814524214

DIPOLE MOMENT
-------------
                                X             Y             Z
Electronic contribution:     -0.00000      -0.00000       0.00000
Nuclear contribution   :      0.00000      -0.00000       0.00000
                        -----------------------------------------
Total Dipole Moment    :     -0.00000      -0.00000       0.00000
                        -----------------------------------------
Magnitude (a.u.)       :      0.00000
Magnitude (Debye)      :      0.00000

Rotational constants in cm-1:     0.190451     0.190451     0.095226
Rotational constants in MHz :  5709.590702  5709.590298  2854.795250

                             ****ORCA TERMINATED NORMALLY****
TOTAL RUN TIME: 0 days 0 hours 1 minutes 10 seconds 784 msec
