                         Program Version 5.0.3 -  RELEASE  -
|  1> ! PBEh-3c def2/J TightSCF DefGrid3
|  2>
|  3> %maxcore 60000
|  4>
|  5> %pal
|  6> nprocs 4
|  7> end
|  8>
|  9> *xyzfile 0 1 1N_B.xyz
| 10>
| 11>                          ****END OF INPUT****

CARTESIAN COORDINATES (ANGSTROEM)
---------------------------------
  C      0.000000    0.000000   -0.457758
  H      0.865425    0.000000    0.228879
  H     -0.865425    0.000000    0.228879

 Total Charge           Charge          ....    0
 Multiplicity           Mult            ....    1
 Number of Electrons    NEL             ....    8
 Basis Dimension        Dim             ....   19

ORBITAL ENERGIES
----------------

  NO   OCC          E(Eh)            E(eV)
   0   2.0000     -10.505512      -285.8695
   1   2.0000      -0.747025       -20.3276
   2   2.0000      -0.467255       -12.7147
   3   2.0000      -0.293933        -7.9983
   4   0.0000      -0.087573        -2.3830
   5   0.0000       0.171394         4.6639
   6   0.0000       0.211124         5.7450
   7   0.0000       0.507968        13.8225
   8   0.0000       0.545549        14.8451

MULLIKEN ATOMIC CHARGES
-----------------------
   0 C :   -0.369226
   1 H :    0.184613
   2 H :    0.184613
Sum of atomic charges:    0.0000000

LOEWDIN ATOMIC CHARGES
----------------------
   0 C :   -0.206293
   1 H :    0.103146
   2 H :    0.103146

  Mayer bond orders larger than 0.100000
B(  0-C ,  1-H ) :   0.9178 B(  0-C ,  2-H ) :   0.9178

Dispersion correction           -0.000284480
FINAL SINGLE POINT ENERGY       -39.031593879236

DIPOLE MOMENT
-------------
                                X             Y             Z
Electronic contribution:     -0.00000      -0.00000      -0.28360
Nuclear contribution   :      0.00000       0.00000       1.10321
                        -----------------------------------------
Total Dipole Moment    :     -0.00000      -0.00000       0.81960
                        -----------------------------------------
Magnitude (a.u.)       :      0.81960
Magnitude (Debye)      :      2.08327

Rotational constants in cm-1:    20.712712    11.164714     7.254397
Rotational constants in MHz : 620951.484424 334709.703479 217481.352028

                             ****ORCA TERMINATED NORMALLY****
TOTAL RUN TIME: 0 days 0 hours 0 minutes 22 seconds 454 msec
