                         Program Version 5.0.3 -  RELEASE  -
|  1> ! PBEh-3c def2/J TightSCF DefGrid3
|  2>
|  3> %maxcore 60000
|  4>
|  5> %pal
|  6> nprocs 4
|  7> end
|  8>
|  9> *xyzfile 0 1 tmethane_60.xyz
| 10>
| 11>                          ****END OF INPUT****

CARTESIAN COORDINATES (ANGSTROEM)
---------------------------------
  C     -0.006870    0.770257    0.414441
  C      0.006870   -0.770257    0.414441
  C      1.407912   -1.325076    0.640601
  H     -0.610803   -1.088111    1.256825
  C     -0.600372   -1.357550   -0.853818
  C     -1.407912    1.325076    0.640601
  C      0.600372    1.357550   -0.853818
  H      0.610803    1.088111    1.256825
  H      1.384782   -2.399360    0.812717
  H      2.044860   -1.149281   -0.224340
  H      1.881802   -0.861637    1.502884
  H      0.050152   -1.181356   -1.707972
  H     -0.734648   -2.432743   -0.761197
  H     -1.570862   -0.920772   -1.080144
  H      0.734648    2.432743   -0.761197
  H      1.570862    0.920772   -1.080144
  H     -0.050152    1.181356   -1.707972
  H     -1.384782    2.399360    0.812717
  H     -2.044860    1.149281   -0.224340
  H     -1.881802    0.861637    1.502884

 Total Charge           Charge          ....    0
 Multiplicity           Mult            ....    1
 Number of Electrons    NEL             ....   50
 Basis Dimension        Dim             ....  118

ORBITAL ENERGIES
----------------

  NO   OCC          E(Eh)            E(eV)
   0   2.0000     -10.434150      -283.9277
   1   2.0000     -10.433931      -283.9217
   2   2.0000     -10.416690      -283.4525
   3   2.0000     -10.416658      -283.4517
   4   2.0000     -10.416155      -283.4380
   5   2.0000     -10.416118      -283.4370
   6   2.0000      -0.913395       -24.8547
   7   2.0000      -0.832589       -22.6559
   8   2.0000      -0.763853       -20.7855
   9   2.0000      -0.759277       -20.6610
  10   2.0000      -0.684236       -18.6190
  11   2.0000      -0.601872       -16.3778
  12   2.0000      -0.531886       -14.4734
  13   2.0000      -0.508064       -13.8251
  14   2.0000      -0.498953       -13.5772
  15   2.0000      -0.460828       -12.5398
  16   2.0000      -0.449755       -12.2384
  17   2.0000      -0.437624       -11.9084
  18   2.0000      -0.428563       -11.6618
  19   2.0000      -0.422344       -11.4926
  20   2.0000      -0.395303       -10.7568
  21   2.0000      -0.393338       -10.7033
  22   2.0000      -0.358852        -9.7648
  23   2.0000      -0.358648        -9.7593
  24   2.0000      -0.350016        -9.5244
  25   0.0000       0.125720         3.4210
  26   0.0000       0.168930         4.5968
  27   0.0000       0.176046         4.7905
  28   0.0000       0.184752         5.0274
  29   0.0000       0.185629         5.0512

MULLIKEN ATOMIC CHARGES
-----------------------
   0 C :   -0.218607
   1 C :   -0.218607
   2 C :   -0.631842
   3 H :    0.207648
   4 C :   -0.645745
   5 C :   -0.631842
   6 C :   -0.645745
   7 H :    0.207648
   8 H :    0.218737
   9 H :    0.205233
  10 H :    0.214584
  11 H :    0.211215
  12 H :    0.220835
  13 H :    0.217942
  14 H :    0.220835
  15 H :    0.217942
  16 H :    0.211215
  17 H :    0.218737
  18 H :    0.205233
  19 H :    0.214584
Sum of atomic charges:    0.0000000

LOEWDIN ATOMIC CHARGES
----------------------
   0 C :   -0.157804
   1 C :   -0.157804
   2 C :   -0.353536
   3 H :    0.118804
   4 C :   -0.355540
   5 C :   -0.353536
   6 C :   -0.355539
   7 H :    0.118804
   8 H :    0.126727
   9 H :    0.121691
  10 H :    0.124237
  11 H :    0.124106
  12 H :    0.127154
  13 H :    0.124160
  14 H :    0.127154
  15 H :    0.124160
  16 H :    0.124106
  17 H :    0.126727
  18 H :    0.121691
  19 H :    0.124237

  Mayer bond orders larger than 0.100000
B(  0-C ,  1-C ) :   0.9648 B(  0-C ,  5-C ) :   0.9946 B(  0-C ,  6-C ) :   0.9807
B(  0-C ,  7-H ) :   0.9144 B(  1-C ,  2-C ) :   0.9946 B(  1-C ,  3-H ) :   0.9144
B(  1-C ,  4-C ) :   0.9807 B(  2-C ,  8-H ) :   0.9302 B(  2-C ,  9-H ) :   0.9248
B(  2-C , 10-H ) :   0.9307 B(  4-C , 11-H ) :   0.9241 B(  4-C , 12-H ) :   0.9291
B(  4-C , 13-H ) :   0.9280 B(  5-C , 17-H ) :   0.9302 B(  5-C , 18-H ) :   0.9248
B(  5-C , 19-H ) :   0.9307 B(  6-C , 14-H ) :   0.9291 B(  6-C , 15-H ) :   0.9280
B(  6-C , 16-H ) :   0.9241

Dispersion correction           -0.009821774
FINAL SINGLE POINT ENERGY      -236.563523437241

DIPOLE MOMENT
-------------
                                X             Y             Z
Electronic contribution:      0.00000       0.00000       1.09690
Nuclear contribution   :      0.00000       0.00000      -1.05247
                        -----------------------------------------
Total Dipole Moment    :      0.00000       0.00000       0.04443
                        -----------------------------------------
Magnitude (a.u.)       :      0.04443
Magnitude (Debye)      :      0.11293

Rotational constants in cm-1:     0.144047     0.084081     0.077386
Rotational constants in MHz :  4318.414802  2520.695919  2319.963661

                             ****ORCA TERMINATED NORMALLY****
TOTAL RUN TIME: 0 days 0 hours 1 minutes 36 seconds 992 msec
