                         Program Version 5.0.3 -  RELEASE  -
|  1> ! PBEh-3c def2/J TightSCF DefGrid3
|  2>
|  3> %maxcore 60000
|  4>
|  5> %pal
|  6> nprocs 4
|  7> end
|  8>
|  9> *xyzfile 0 1 nme3-cbh22.xyz
| 10>
| 11>                          ****END OF INPUT****

CARTESIAN COORDINATES (ANGSTROEM)
---------------------------------
  C      0.249623   -1.000621    0.000000
  N     -0.094789    0.482138    0.000000
  B      1.667392   -1.466388    0.000000
  B     -0.896849   -1.958575    0.000000
  H      1.840090   -2.646513    0.000000
  H      2.635477   -0.757942    0.000000
  H     -2.053271   -1.615407    0.000000
  H     -0.663225   -3.126710    0.000000
  C     -0.896849    0.815670    1.210983
  H     -1.147654    1.876802    1.196420
  H     -1.794038    0.206451    1.201647
  H     -0.295020    0.570767    2.081354
  C     -0.896849    0.815670   -1.210983
  H     -1.147654    1.876802   -1.196420
  H     -0.295020    0.570767   -2.081354
  H     -1.794038    0.206451   -1.201647
  C      1.104771    1.355468    0.000000
  H      0.773356    2.393059    0.000000
  H      1.693810    1.139105    0.884956
  H      1.693810    1.139105   -0.884956

 Total Charge           Charge          ....    0
 Multiplicity           Mult            ....    1
 Number of Electrons    NEL             ....   54
 Basis Dimension        Dim             ....  131

ORBITAL ENERGIES
----------------

  NO   OCC          E(Eh)            E(eV)
   0   2.0000     -14.766658      -401.8212
   1   2.0000     -10.497165      -285.6424
   2   2.0000     -10.497129      -285.6414
   3   2.0000     -10.496633      -285.6279
   4   2.0000     -10.404255      -283.1142
   5   2.0000      -6.902064      -187.8147
   6   2.0000      -6.896959      -187.6758
   7   2.0000      -1.119740       -30.4697
   8   2.0000      -0.841631       -22.9019
   9   2.0000      -0.841593       -22.9009
  10   2.0000      -0.786027       -21.3889
  11   2.0000      -0.691017       -18.8035
  12   2.0000      -0.590992       -16.0817
  13   2.0000      -0.583028       -15.8650
  14   2.0000      -0.582534       -15.8516
  15   2.0000      -0.526378       -14.3235
  16   2.0000      -0.507280       -13.8038
  17   2.0000      -0.494318       -13.4511
  18   2.0000      -0.481829       -13.1112
  19   2.0000      -0.466856       -12.7038
  20   2.0000      -0.463294       -12.6069
  21   2.0000      -0.462482       -12.5848
  22   2.0000      -0.409086       -11.1318
  23   2.0000      -0.349181        -9.5017
  24   2.0000      -0.344329        -9.3697
  25   2.0000      -0.313891        -8.5414
  26   2.0000      -0.250910        -6.8276
  27   0.0000       0.013358         0.3635
  28   0.0000       0.083353         2.2682
  29   0.0000       0.097039         2.6406
  30   0.0000       0.136662         3.7188
  31   0.0000       0.144954         3.9444

MULLIKEN ATOMIC CHARGES
-----------------------
   0 C :   -0.130470
   1 N :   -0.390986
   2 B :   -0.199005
   3 B :   -0.182182
   4 H :    0.043735
   5 H :    0.000058
   6 H :   -0.013719
   7 H :    0.049067
   8 C :   -0.504410
   9 H :    0.224629
  10 H :    0.283726
  11 H :    0.270135
  12 C :   -0.504410
  13 H :    0.224629
  14 H :    0.270135
  15 H :    0.283726
  16 C :   -0.517827
  17 H :    0.233413
  18 H :    0.279878
  19 H :    0.279878
Sum of atomic charges:   -0.0000000

LOEWDIN ATOMIC CHARGES
----------------------
   0 C :   -0.242081
   1 N :    0.028172
   2 B :   -0.215470
   3 B :   -0.199835
   4 H :    0.021806
   5 H :   -0.011917
   6 H :   -0.020696
   7 H :    0.024107
   8 C :   -0.231282
   9 H :    0.124869
  10 H :    0.159496
  11 H :    0.151863
  12 C :   -0.231282
  13 H :    0.124869
  14 H :    0.151863
  15 H :    0.159496
  16 C :   -0.232258
  17 H :    0.126573
  18 H :    0.155853
  19 H :    0.155853

  Mayer bond orders larger than 0.100000
B(  0-C ,  1-N ) :   0.7474 B(  0-C ,  2-B ) :   1.3876 B(  0-C ,  3-B ) :   1.3601
B(  1-N ,  8-C ) :   0.8963 B(  1-N , 12-C ) :   0.8963 B(  1-N , 16-C ) :   0.8995
B(  2-B ,  3-B ) :   0.1133 B(  2-B ,  4-H ) :   0.9834 B(  2-B ,  5-H ) :   0.9714
B(  3-B ,  6-H ) :   0.9683 B(  3-B ,  7-H ) :   0.9874 B(  8-C ,  9-H ) :   0.9093
B(  8-C , 10-H ) :   0.8928 B(  8-C , 11-H ) :   0.9087 B( 12-C , 13-H ) :   0.9093
B( 12-C , 14-H ) :   0.9087 B( 12-C , 15-H ) :   0.8928 B( 16-C , 17-H ) :   0.9074
B( 16-C , 18-H ) :   0.9004 B( 16-C , 19-H ) :   0.9004

Dispersion correction           -0.010823258
FINAL SINGLE POINT ENERGY      -264.039861304477

DIPOLE MOMENT
-------------
                                X             Y             Z
Electronic contribution:      0.60055      -2.13160       0.00000
Nuclear contribution   :     -1.23118       4.81579      -0.00000
                        -----------------------------------------
Total Dipole Moment    :     -0.63063       2.68419       0.00000
                        -----------------------------------------
Magnitude (a.u.)       :      2.75727
Magnitude (Debye)      :      7.00843

Rotational constants in cm-1:     0.110112     0.080981     0.065191
Rotational constants in MHz :  3301.074443  2427.763297  1954.375862

                             ****ORCA TERMINATED NORMALLY****
TOTAL RUN TIME: 0 days 0 hours 1 minutes 27 seconds 452 msec
