                         Program Version 5.0.3 -  RELEASE  -
|  1> ! PBEh-3c def2/J TightSCF DefGrid3
|  2>
|  3> %maxcore 60000
|  4>
|  5> %pal
|  6> nprocs 4
|  7> end
|  8>
|  9> *xyzfile 0 1 38A.xyz
| 10>
| 11>                          ****END OF INPUT****

CARTESIAN COORDINATES (ANGSTROEM)
---------------------------------
  C      0.999439   -0.799325    0.176099
  H      1.547125   -1.185837   -0.682431
  H      1.463943   -1.222257    1.065174
  C      1.033508    0.751029    0.179653
  H      1.553153    1.115617   -0.705903
  H      1.558817    1.152338    1.044686
  C     -0.436893    1.194839    0.138028
  H     -0.573710    2.157397   -0.352284
  H     -0.832183    1.281592    1.152219
  C     -1.139548    0.039724   -0.572505
  H     -0.906323    0.065690   -1.639655
  H     -2.223105    0.058956   -0.464577
  C     -0.488101   -1.182369    0.073459
  H     -0.647832   -2.104500   -0.482859
  H     -0.908290   -1.322892    1.070897

 Total Charge           Charge          ....    0
 Multiplicity           Mult            ....    1
 Number of Electrons    NEL             ....   40
 Basis Dimension        Dim             ....   95

ORBITAL ENERGIES
----------------

  NO   OCC          E(Eh)            E(eV)
   0   2.0000     -10.424551      -283.6664
   1   2.0000     -10.424475      -283.6644
   2   2.0000     -10.424453      -283.6638
   3   2.0000     -10.424239      -283.6580
   4   2.0000     -10.424148      -283.6555
   5   2.0000      -0.924705       -25.1625
   6   2.0000      -0.786381       -21.3985
   7   2.0000      -0.785678       -21.3794
   8   2.0000      -0.636576       -17.3221
   9   2.0000      -0.627210       -17.0672
  10   2.0000      -0.538853       -14.6629
  11   2.0000      -0.535664       -14.5762
  12   2.0000      -0.467041       -12.7088
  13   2.0000      -0.465377       -12.6636
  14   2.0000      -0.384825       -10.4716
  15   2.0000      -0.383861       -10.4454
  16   2.0000      -0.379377       -10.3234
  17   2.0000      -0.375171       -10.2089
  18   2.0000      -0.369128       -10.0445
  19   2.0000      -0.358690        -9.7604
  20   0.0000       0.131894         3.5890
  21   0.0000       0.146963         3.9991
  22   0.0000       0.191700         5.2164
  23   0.0000       0.192086         5.2269
  24   0.0000       0.220853         6.0097

MULLIKEN ATOMIC CHARGES
-----------------------
   0 C :   -0.432687
   1 H :    0.216527
   2 H :    0.219449
   3 C :   -0.434093
   4 H :    0.215683
   5 H :    0.219999
   6 C :   -0.430830
   7 H :    0.220426
   8 H :    0.208723
   9 C :   -0.428460
  10 H :    0.206988
  11 H :    0.220168
  12 C :   -0.432361
  13 H :    0.220624
  14 H :    0.209846
Sum of atomic charges:    0.0000000

LOEWDIN ATOMIC CHARGES
----------------------
   0 C :   -0.247202
   1 H :    0.123592
   2 H :    0.124362
   3 C :   -0.246856
   4 H :    0.123167
   5 H :    0.124316
   6 C :   -0.244447
   7 H :    0.123592
   8 H :    0.120382
   9 C :   -0.244305
  10 H :    0.120102
  11 H :    0.123505
  12 C :   -0.244667
  13 H :    0.123718
  14 H :    0.120741

  Mayer bond orders larger than 0.100000
B(  0-C ,  1-H ) :   0.9315 B(  0-C ,  2-H ) :   0.9337 B(  0-C ,  3-C ) :   0.9611
B(  0-C , 12-C ) :   0.9752 B(  3-C ,  4-H ) :   0.9305 B(  3-C ,  5-H ) :   0.9335
B(  3-C ,  6-C ) :   0.9781 B(  6-C ,  7-H ) :   0.9304 B(  6-C ,  8-H ) :   0.9239
B(  6-C ,  9-C ) :   0.9797 B(  9-C , 10-H ) :   0.9214 B(  9-C , 11-H ) :   0.9293
B(  9-C , 12-C ) :   0.9806 B( 12-C , 13-H ) :   0.9309 B( 12-C , 14-H ) :   0.9249

Dispersion correction           -0.006586785
FINAL SINGLE POINT ENERGY      -196.125755756777

DIPOLE MOMENT
-------------
                                X             Y             Z
Electronic contribution:     -0.07621       0.00940      -0.01417
Nuclear contribution   :      0.07614      -0.00939       0.01269
                        -----------------------------------------
Total Dipole Moment    :     -0.00007       0.00001      -0.00147
                        -----------------------------------------
Magnitude (a.u.)       :      0.00148
Magnitude (Debye)      :      0.00375

Rotational constants in cm-1:     0.218638     0.218413     0.126795
Rotational constants in MHz :  6554.602481  6547.860639  3801.211730

                             ****ORCA TERMINATED NORMALLY****
TOTAL RUN TIME: 0 days 0 hours 1 minutes 3 seconds 171 msec
