                         Program Version 5.0.3 -  RELEASE  -
|  1> ! PBEh-3c def2/J TightSCF DefGrid3
|  2>
|  3> %maxcore 60000
|  4>
|  5> %pal
|  6> nprocs 4
|  7> end
|  8>
|  9> *xyzfile 0 1 K_H.xyz
| 10>
| 11>                          ****END OF INPUT****

CARTESIAN COORDINATES (ANGSTROEM)
---------------------------------
  P     -0.820829   -0.004228    0.008559
  B      1.889455    0.006530   -0.018263
  H     -2.180300    0.155331   -0.430911
  H     -0.283904    1.093963   -0.660073
  H     -0.649486   -1.298676   -0.478201
  H     -1.103385    0.134074    1.371267
  H      1.968912    1.211597    0.055948
  H      2.677809   -0.634525    0.627134
  H      1.672896   -0.401209   -1.140073
  H      0.762623   -0.229789    0.617837

 Total Charge           Charge          ....    0
 Multiplicity           Mult            ....    1
 Number of Electrons    NEL             ....   28
 Basis Dimension        Dim             ....   49

ORBITAL ENERGIES
----------------

  NO   OCC          E(Eh)            E(eV)
   0   2.0000     -77.845919     -2118.2952
   1   2.0000      -6.918943      -188.2740
   2   2.0000      -6.880075      -187.2164
   3   2.0000      -5.010525      -136.3433
   4   2.0000      -5.010027      -136.3298
   5   2.0000      -5.009154      -136.3060
   6   2.0000      -0.822452       -22.3801
   7   2.0000      -0.583702       -15.8833
   8   2.0000      -0.542158       -14.7529
   9   2.0000      -0.538700       -14.6588
  10   2.0000      -0.470848       -12.8124
  11   2.0000      -0.335137        -9.1195
  12   2.0000      -0.327953        -8.9240
  13   2.0000      -0.316045        -8.6000
  14   0.0000       0.021517         0.5855
  15   0.0000       0.034996         0.9523
  16   0.0000       0.043844         1.1931
  17   0.0000       0.115569         3.1448
  18   0.0000       0.202077         5.4988

MULLIKEN ATOMIC CHARGES
-----------------------
   0 P :   -0.076846
   1 B :   -0.553504
   2 H :    0.035369
   3 H :    0.189311
   4 H :    0.172372
   5 H :    0.151553
   6 H :    0.044534
   7 H :    0.040673
   8 H :    0.025420
   9 H :   -0.028883
Sum of atomic charges:    0.0000000

LOEWDIN ATOMIC CHARGES
----------------------
   0 P :    0.385319
   1 B :   -0.552786
   2 H :   -0.040656
   3 H :    0.097855
   4 H :    0.077933
   5 H :    0.064949
   6 H :   -0.006360
   7 H :    0.009995
   8 H :   -0.016594
   9 H :   -0.019655

  Mayer bond orders larger than 0.100000
B(  0-P ,  1-B ) :   0.1408 B(  0-P ,  2-H ) :   0.8349 B(  0-P ,  3-H ) :   0.8847
B(  0-P ,  4-H ) :   0.8950 B(  0-P ,  5-H ) :   0.8969 B(  0-P ,  9-H ) :   0.3779
B(  1-B ,  6-H ) :   0.9802 B(  1-B ,  7-H ) :   0.9721 B(  1-B ,  8-H ) :   0.9680
B(  1-B ,  9-H ) :   0.4869

Dispersion correction           -0.003292693
FINAL SINGLE POINT ENERGY      -370.413289144456

DIPOLE MOMENT
-------------
                                X             Y             Z
Electronic contribution:     -4.58558      -0.06839       0.13713
Nuclear contribution   :      2.24106       0.03115      -0.03218
                        -----------------------------------------
Total Dipole Moment    :     -2.34452      -0.03724       0.10494
                        -----------------------------------------
Magnitude (a.u.)       :      2.34716
Magnitude (Debye)      :      5.96601

Rotational constants in cm-1:     1.702440     0.197644     0.197184
Rotational constants in MHz : 51037.861816  5925.224430  5911.415094

                             ****ORCA TERMINATED NORMALLY****
TOTAL RUN TIME: 0 days 0 hours 0 minutes 41 seconds 9 msec
