                         Program Version 5.0.3 -  RELEASE  -
|  1> ! PBEh-3c def2/J TightSCF DefGrid3
|  2>
|  3> %maxcore 60000
|  4>
|  5> %pal
|  6> nprocs 4
|  7> end
|  8>
|  9> *xyzfile 0 1 P1.xyz
| 10>
| 11>                          ****END OF INPUT****

CARTESIAN COORDINATES (ANGSTROEM)
---------------------------------
  C     -0.661895   -0.059710   -1.393910
  C     -1.486209   -0.113548   -0.144719
  C     -0.691628    0.317536    1.081726
  C      0.691628   -0.317536    1.081726
  C      1.486209    0.113548   -0.144719
  C      0.661895    0.059710   -1.393910
  H     -1.190276   -0.118798   -2.341761
  H     -2.373255    0.518105   -0.263582
  H     -1.871284   -1.133269   -0.007315
  H     -1.235540    0.060875    1.994969
  H     -0.583769    1.408342    1.074593
  H      1.235540   -0.060875    1.994969
  H      0.583769   -1.408342    1.074593
  H      2.373255   -0.518105   -0.263582
  H      1.871284    1.133269   -0.007315
  H      1.190276    0.118798   -2.341761

 Total Charge           Charge          ....    0
 Multiplicity           Mult            ....    1
 Number of Electrons    NEL             ....   46
 Basis Dimension        Dim             ....  110

ORBITAL ENERGIES
----------------

  NO   OCC          E(Eh)            E(eV)
   0   2.0000     -10.432303      -283.8774
   1   2.0000     -10.432195      -283.8744
   2   2.0000     -10.432059      -283.8707
   3   2.0000     -10.431215      -283.8478
   4   2.0000     -10.428994      -283.7873
   5   2.0000     -10.428752      -283.7808
   6   2.0000      -0.927088       -25.2274
   7   2.0000      -0.826544       -22.4914
   8   2.0000      -0.825544       -22.4642
   9   2.0000      -0.692628       -18.8474
  10   2.0000      -0.669542       -18.2192
  11   2.0000      -0.572399       -15.5758
  12   2.0000      -0.555413       -15.1136
  13   2.0000      -0.503441       -13.6993
  14   2.0000      -0.480811       -13.0835
  15   2.0000      -0.462572       -12.5872
  16   2.0000      -0.442011       -12.0277
  17   2.0000      -0.431022       -11.7287
  18   2.0000      -0.429755       -11.6942
  19   2.0000      -0.372136       -10.1263
  20   2.0000      -0.362645        -9.8681
  21   2.0000      -0.350021        -9.5246
  22   2.0000      -0.279669        -7.6102
  23   0.0000       0.058912         1.6031
  24   0.0000       0.142323         3.8728
  25   0.0000       0.179472         4.8837
  26   0.0000       0.186106         5.0642
  27   0.0000       0.194779         5.3002

MULLIKEN ATOMIC CHARGES
-----------------------
   0 C :   -0.195007
   1 C :   -0.458784
   2 C :   -0.431161
   3 C :   -0.431161
   4 C :   -0.458784
   5 C :   -0.195007
   6 H :    0.209272
   7 H :    0.223393
   8 H :    0.219842
   9 H :    0.219420
  10 H :    0.213025
  11 H :    0.219420
  12 H :    0.213025
  13 H :    0.223393
  14 H :    0.219842
  15 H :    0.209272
Sum of atomic charges:    0.0000000

LOEWDIN ATOMIC CHARGES
----------------------
   0 C :   -0.156881
   1 C :   -0.242241
   2 C :   -0.237008
   3 C :   -0.237008
   4 C :   -0.242241
   5 C :   -0.156881
   6 H :    0.128437
   7 H :    0.130589
   8 H :    0.129681
   9 H :    0.124019
  10 H :    0.123404
  11 H :    0.124019
  12 H :    0.123404
  13 H :    0.130589
  14 H :    0.129681
  15 H :    0.128437

  Mayer bond orders larger than 0.100000
B(  0-C ,  1-C ) :   0.9908 B(  0-C ,  5-C ) :   1.9096 B(  0-C ,  6-H ) :   0.9239
B(  1-C ,  2-C ) :   0.9872 B(  1-C ,  7-H ) :   0.9177 B(  1-C ,  8-H ) :   0.9077
B(  2-C ,  3-C ) :   0.9799 B(  2-C ,  9-H ) :   0.9264 B(  2-C , 10-H ) :   0.9186
B(  3-C ,  4-C ) :   0.9872 B(  3-C , 11-H ) :   0.9264 B(  3-C , 12-H ) :   0.9186
B(  4-C ,  5-C ) :   0.9908 B(  4-C , 13-H ) :   0.9177 B(  4-C , 14-H ) :   0.9077
B(  5-C , 15-H ) :   0.9239

Dispersion correction           -0.007809314
FINAL SINGLE POINT ENERGY      -234.130336299547

DIPOLE MOMENT
-------------
                                X             Y             Z
Electronic contribution:     -0.00000       0.00000      -1.89652
Nuclear contribution   :      0.00000       0.00000       2.00563
                        -----------------------------------------
Total Dipole Moment    :     -0.00000       0.00000       0.10911
                        -----------------------------------------
Magnitude (a.u.)       :      0.10911
Magnitude (Debye)      :      0.27735

Rotational constants in cm-1:     0.159659     0.153122     0.086135
Rotational constants in MHz :  4786.465632  4590.496614  2582.247360

                             ****ORCA TERMINATED NORMALLY****
TOTAL RUN TIME: 0 days 0 hours 0 minutes 50 seconds 658 msec
