                         Program Version 5.0.3 -  RELEASE  -
|  1> ! PBEh-3c def2/J TightSCF DefGrid3
|  2>
|  3> %maxcore 60000
|  4>
|  5> %pal
|  6> nprocs 4
|  7> end
|  8>
|  9> *xyzfile 0 1 29A.xyz
| 10>
| 11>                          ****END OF INPUT****

CARTESIAN COORDINATES (ANGSTROEM)
---------------------------------
  N      0.000000    0.000000    1.613237
  C     -1.143009    0.000000    0.909638
  H     -2.058832    0.000000    1.486975
  C     -1.193869    0.000000   -0.482168
  H     -2.149793    0.000000   -0.986071
  C      0.000000    0.000000   -1.194928
  H      0.000000    0.000000   -2.276257
  C      1.193869    0.000000   -0.482168
  H      2.149793    0.000000   -0.986071
  C      1.143009    0.000000    0.909638
  H      2.058832    0.000000    1.486975

 Total Charge           Charge          ....    0
 Multiplicity           Mult            ....    1
 Number of Electrons    NEL             ....   42
 Basis Dimension        Dim             ....  100

ORBITAL ENERGIES
----------------

  NO   OCC          E(Eh)            E(eV)
   0   2.0000     -14.640915      -398.3995
   1   2.0000     -10.483431      -285.2687
   2   2.0000     -10.483400      -285.2678
   3   2.0000     -10.471017      -284.9309
   4   2.0000     -10.459282      -284.6115
   5   2.0000     -10.459270      -284.6112
   6   2.0000      -1.045545       -28.4507
   7   2.0000      -0.902086       -24.5470
   8   2.0000      -0.854843       -23.2615
   9   2.0000      -0.710287       -19.3279
  10   2.0000      -0.709249       -19.2996
  11   2.0000      -0.601240       -16.3606
  12   2.0000      -0.547094       -14.8872
  13   2.0000      -0.537702       -14.6316
  14   2.0000      -0.492293       -13.3960
  15   2.0000      -0.467905       -12.7323
  16   2.0000      -0.455868       -12.4048
  17   2.0000      -0.422212       -11.4890
  18   2.0000      -0.333468        -9.0741
  19   2.0000      -0.314207        -8.5500
  20   2.0000      -0.306194        -8.3320
  21   0.0000      -0.004933        -0.1342
  22   0.0000       0.008768         0.2386
  23   0.0000       0.144796         3.9401
  24   0.0000       0.181810         4.9473
  25   0.0000       0.195894         5.3305

MULLIKEN ATOMIC CHARGES
-----------------------
   0 N :   -0.361576
   1 C :   -0.038325
   2 H :    0.233635
   3 C :   -0.297269
   4 H :    0.232152
   5 C :   -0.133666
   6 H :    0.234855
   7 C :   -0.297269
   8 H :    0.232152
   9 C :   -0.038325
  10 H :    0.233635
Sum of atomic charges:   -0.0000000

LOEWDIN ATOMIC CHARGES
----------------------
   0 N :   -0.140481
   1 C :   -0.056193
   2 H :    0.130390
   3 C :   -0.164639
   4 H :    0.142001
   5 C :   -0.103665
   6 H :    0.141029
   7 C :   -0.164639
   8 H :    0.142001
   9 C :   -0.056193
  10 H :    0.130390

  Mayer bond orders larger than 0.100000
B(  0-N ,  1-C ) :   1.4963 B(  0-N ,  9-C ) :   1.4963 B(  1-C ,  2-H ) :   0.9172
B(  1-C ,  3-C ) :   1.3830 B(  3-C ,  4-H ) :   0.9128 B(  3-C ,  5-C ) :   1.4139
B(  5-C ,  6-H ) :   0.9183 B(  5-C ,  7-C ) :   1.4139 B(  7-C ,  8-H ) :   0.9128
B(  7-C ,  9-C ) :   1.3830 B(  9-C , 10-H ) :   0.9172

Dispersion correction           -0.005322077
FINAL SINGLE POINT ENERGY      -247.729220446312

DIPOLE MOMENT
-------------
                                X             Y             Z
Electronic contribution:     -0.00000      -0.00000       1.33300
Nuclear contribution   :      0.00000       0.00000      -2.20965
                        -----------------------------------------
Total Dipole Moment    :     -0.00000      -0.00000      -0.87665
                        -----------------------------------------
Magnitude (a.u.)       :      0.87665
Magnitude (Debye)      :      2.22826

Rotational constants in cm-1:     0.201923     0.193870     0.098907
Rotational constants in MHz :  6053.490280  5812.069788  2965.162012

                             ****ORCA TERMINATED NORMALLY****
TOTAL RUN TIME: 0 days 0 hours 1 minutes 15 seconds 666 msec
