                         Program Version 5.0.3 -  RELEASE  -
|  1> ! PBEh-3c def2/J TightSCF DefGrid3
|  2>
|  3> %maxcore 60000
|  4>
|  5> %pal
|  6> nprocs 4
|  7> end
|  8>
|  9> *xyzfile 0 1 r1.xyz
| 10>
| 11>                          ****END OF INPUT****

CARTESIAN COORDINATES (ANGSTROEM)
---------------------------------
  C     -0.588368   -0.486201   -1.023388
  C     -1.204842   -0.264053    0.360260
  C      0.588368    0.486201   -1.023388
  C      1.204842    0.264053    0.360260
  C      0.000000    0.000000    1.293643
  H     -1.293678   -0.320147   -1.836223
  H     -0.213146   -1.508580   -1.108183
  H     -1.848732    0.615394    0.326271
  H     -1.816927   -1.100427    0.692458
  H      0.213146    1.508580   -1.108183
  H      1.293678    0.320147   -1.836223
  H      1.848732   -0.615394    0.326271
  H      1.816927    1.100427    0.692458
  H      0.191974   -0.852978    1.941983
  H     -0.191974    0.852978    1.941983

 Total Charge           Charge          ....    0
 Multiplicity           Mult            ....    1
 Number of Electrons    NEL             ....   40
 Basis Dimension        Dim             ....   95

ORBITAL ENERGIES
----------------

  NO   OCC          E(Eh)            E(eV)
   0   2.0000     -10.424529      -283.6659
   1   2.0000     -10.424482      -283.6646
   2   2.0000     -10.424404      -283.6624
   3   2.0000     -10.424202      -283.6569
   4   2.0000     -10.424124      -283.6548
   5   2.0000      -0.924900       -25.1678
   6   2.0000      -0.786239       -21.3946
   7   2.0000      -0.785765       -21.3818
   8   2.0000      -0.636735       -17.3264
   9   2.0000      -0.627213       -17.0673
  10   2.0000      -0.538892       -14.6640
  11   2.0000      -0.535783       -14.5794
  12   2.0000      -0.467094       -12.7103
  13   2.0000      -0.465407       -12.6644
  14   2.0000      -0.384893       -10.4735
  15   2.0000      -0.383924       -10.4471
  16   2.0000      -0.379206       -10.3187
  17   2.0000      -0.375054       -10.2057
  18   2.0000      -0.369374       -10.0512
  19   2.0000      -0.358796        -9.7633
  20   0.0000       0.131988         3.5916
  21   0.0000       0.147259         4.0071
  22   0.0000       0.191162         5.2018
  23   0.0000       0.192490         5.2379
  24   0.0000       0.220610         6.0031

MULLIKEN ATOMIC CHARGES
-----------------------
   0 C :   -0.428534
   1 C :   -0.435453
   2 C :   -0.428534
   3 C :   -0.435453
   4 C :   -0.430327
   5 H :    0.220150
   6 H :    0.207260
   7 H :    0.212895
   8 H :    0.220800
   9 H :    0.207260
  10 H :    0.220150
  11 H :    0.212895
  12 H :    0.220800
  13 H :    0.218046
  14 H :    0.218046
Sum of atomic charges:   -0.0000000

LOEWDIN ATOMIC CHARGES
----------------------
   0 C :   -0.244197
   1 C :   -0.245636
   2 C :   -0.244197
   3 C :   -0.245636
   4 C :   -0.247586
   5 H :    0.123451
   6 H :    0.120086
   7 H :    0.121869
   8 H :    0.123998
   9 H :    0.120086
  10 H :    0.123451
  11 H :    0.121869
  12 H :    0.123998
  13 H :    0.124221
  14 H :    0.124221

  Mayer bond orders larger than 0.100000
B(  0-C ,  1-C ) :   0.9818 B(  0-C ,  2-C ) :   0.9784 B(  0-C ,  5-H ) :   0.9295
B(  0-C ,  6-H ) :   0.9220 B(  1-C ,  4-C ) :   0.9666 B(  1-C ,  7-H ) :   0.9276
B(  1-C ,  8-H ) :   0.9324 B(  2-C ,  3-C ) :   0.9818 B(  2-C ,  9-H ) :   0.9220
B(  2-C , 10-H ) :   0.9295 B(  3-C ,  4-C ) :   0.9666 B(  3-C , 11-H ) :   0.9276
B(  3-C , 12-H ) :   0.9324 B(  4-C , 13-H ) :   0.9332 B(  4-C , 14-H ) :   0.9332

Dispersion correction           -0.006589236
FINAL SINGLE POINT ENERGY      -196.125721238208

DIPOLE MOMENT
-------------
                                X             Y             Z
Electronic contribution:     -0.00000      -0.00000      -0.07895
Nuclear contribution   :     -0.00000       0.00000       0.07860
                        -----------------------------------------
Total Dipole Moment    :     -0.00000      -0.00000      -0.00035
                        -----------------------------------------
Magnitude (a.u.)       :      0.00035
Magnitude (Debye)      :      0.00089

Rotational constants in cm-1:     0.218668     0.218531     0.126924
Rotational constants in MHz :  6555.501961  6551.393557  3805.083208

                             ****ORCA TERMINATED NORMALLY****
TOTAL RUN TIME: 0 days 0 hours 0 minutes 52 seconds 498 msec
