                         Program Version 5.0.3 -  RELEASE  -
|  1> ! PBEh-3c def2/J TightSCF DefGrid3
|  2>
|  3> %maxcore 60000
|  4>
|  5> %pal
|  6> nprocs 4
|  7> end
|  8>
|  9> *xyzfile 0 1 E28.xyz
| 10>
| 11>                          ****END OF INPUT****

CARTESIAN COORDINATES (ANGSTROEM)
---------------------------------
  C     -1.224407    0.053627    0.000000
  O      0.016994    0.790158    0.000000
  C      1.141536    0.064852    0.000000
  F      2.183811    0.894768    0.000000
  F      1.245558   -0.744031    1.083714
  F      1.245558   -0.744031   -1.083714
  H     -2.002743    0.810773    0.000000
  H     -1.303153   -0.563058   -0.895383
  H     -1.303153   -0.563058    0.895383

 Total Charge           Charge          ....    0
 Multiplicity           Mult            ....    1
 Number of Electrons    NEL             ....   50
 Basis Dimension        Dim             ....   96

ORBITAL ENERGIES
----------------

  NO   OCC          E(Eh)            E(eV)
   0   2.0000     -25.136337      -683.9945
   1   2.0000     -25.131074      -683.8513
   2   2.0000     -25.130955      -683.8481
   3   2.0000     -19.557008      -532.1732
   4   2.0000     -10.746895      -292.4379
   5   2.0000     -10.514066      -286.1023
   6   2.0000      -1.450936       -39.4820
   7   2.0000      -1.355687       -36.8901
   8   2.0000      -1.346845       -36.6495
   9   2.0000      -1.206714       -32.8364
  10   2.0000      -0.848577       -23.0909
  11   2.0000      -0.756675       -20.5902
  12   2.0000      -0.679946       -18.5023
  13   2.0000      -0.678399       -18.4602
  14   2.0000      -0.661709       -18.0060
  15   2.0000      -0.561241       -15.2721
  16   2.0000      -0.554047       -15.0764
  17   2.0000      -0.532117       -14.4796
  18   2.0000      -0.527944       -14.3661
  19   2.0000      -0.521394       -14.1878
  20   2.0000      -0.494400       -13.4533
  21   2.0000      -0.492454       -13.4004
  22   2.0000      -0.483556       -13.1582
  23   2.0000      -0.436826       -11.8866
  24   2.0000      -0.391376       -10.6499
  25   0.0000       0.132538         3.6065
  26   0.0000       0.155048         4.2191
  27   0.0000       0.183615         4.9964
  28   0.0000       0.185287         5.0419
  29   0.0000       0.240012         6.5311

MULLIKEN ATOMIC CHARGES
-----------------------
   0 C :   -0.407834
   1 O :   -0.471736
   2 C :    1.087659
   3 F :   -0.280005
   4 F :   -0.319369
   5 F :   -0.319369
   6 H :    0.243901
   7 H :    0.233376
   8 H :    0.233376
Sum of atomic charges:    0.0000000

LOEWDIN ATOMIC CHARGES
----------------------
   0 C :   -0.173598
   1 O :   -0.166131
   2 C :    0.338410
   3 F :   -0.104289
   4 F :   -0.145274
   5 F :   -0.145274
   6 H :    0.139263
   7 H :    0.128446
   8 H :    0.128446

  Mayer bond orders larger than 0.100000
B(  0-C ,  1-O ) :   0.8864 B(  0-C ,  6-H ) :   0.9209 B(  0-C ,  7-H ) :   0.9073
B(  0-C ,  8-H ) :   0.9073 B(  1-O ,  2-C ) :   1.1206 B(  2-C ,  3-F ) :   1.0478
B(  2-C ,  4-F ) :   0.9916 B(  2-C ,  5-F ) :   0.9916

Dispersion correction           -0.002652920
FINAL SINGLE POINT ENERGY      -451.883151994022

DIPOLE MOMENT
-------------
                                X             Y             Z
Electronic contribution:      7.68932      -0.45220       0.00000
Nuclear contribution   :     -8.69680       0.26432       0.00000
                        -----------------------------------------
Total Dipole Moment    :     -1.00747      -0.18789       0.00000
                        -----------------------------------------
Magnitude (a.u.)       :      1.02485
Magnitude (Debye)      :      2.60495

Rotational constants in cm-1:     0.179722     0.100753     0.099966
Rotational constants in MHz :  5387.922084  3020.510919  2996.898697

                             ****ORCA TERMINATED NORMALLY****
TOTAL RUN TIME: 0 days 0 hours 1 minutes 18 seconds 661 msec
