                         Program Version 5.0.3 -  RELEASE  -
|  1> ! PBEh-3c def2/J TightSCF DefGrid3
|  2>
|  3> %maxcore 60000
|  4>
|  5> %pal
|  6> nprocs 4
|  7> end
|  8>
|  9> *xyzfile 0 1 TS10.xyz
| 10>
| 11>                          ****END OF INPUT****

CARTESIAN COORDINATES (ANGSTROEM)
---------------------------------
  C      1.804707   -0.690451   -1.129797
  C      2.523037   -0.355617    0.181626
  H      2.614944   -1.187352    0.889487
  H      3.535611    0.023648    0.000000
  H      1.073183   -1.491153   -0.973470
  H      2.443600   -0.996501   -1.970959
  C      1.097301    0.648000   -1.318664
  C      1.629699    0.800230    0.669199
  H      2.101596    1.781419    0.674492
  C      0.593346    0.648000    1.609622
  H      1.766555    1.467777   -1.574983
  C     -0.235306    0.800230   -1.745960
  C     -1.104225   -0.355617   -2.275827
  C     -1.880788   -0.690451   -0.998023
  H     -0.537153   -1.187352   -2.709352
  H     -0.466670    1.781419   -2.157282
  H     -1.767806    0.023648   -3.061929
  H     -1.379641   -1.491153   -0.442669
  H     -2.928701   -0.996501   -1.130740
  C     -1.690648    0.648000   -0.290959
  C     -1.394392    0.800230    1.076761
  H     -2.247254    1.467777   -0.742390
  H     -1.634926    1.781419    1.482789
  C     -1.418810   -0.355617    2.094201
  H     -2.077791   -1.187352    1.819865
  C      0.076080   -0.690451    2.127822
  H      0.485101   -0.996501    3.101699
  H      0.480698    1.467777    2.317374
  H      0.306458   -1.491153    1.416139
  H     -1.767806    0.023648    3.061929

 Total Charge           Charge          ....    0
 Multiplicity           Mult            ....    1
 Number of Electrons    NEL             ....   90
 Basis Dimension        Dim             ....  216

ORBITAL ENERGIES
----------------

  NO   OCC          E(Eh)            E(eV)
   0   2.0000     -10.440600      -284.1032
   1   2.0000     -10.440600      -284.1032
   2   2.0000     -10.440540      -284.1015
   3   2.0000     -10.439579      -284.0754
   4   2.0000     -10.439559      -284.0748
   5   2.0000     -10.439557      -284.0748
   6   2.0000     -10.431927      -283.8672
   7   2.0000     -10.431924      -283.8671
   8   2.0000     -10.431911      -283.8667
   9   2.0000     -10.430296      -283.8228
  10   2.0000     -10.430295      -283.8227
  11   2.0000     -10.430294      -283.8227
  12   2.0000      -0.931761       -25.3545
  13   2.0000      -0.894516       -24.3410
  14   2.0000      -0.894515       -24.3410
  15   2.0000      -0.798554       -21.7298
  16   2.0000      -0.798554       -21.7297
  17   2.0000      -0.763143       -20.7662
  18   2.0000      -0.705586       -19.2000
  19   2.0000      -0.680050       -18.5051
  20   2.0000      -0.680049       -18.5051
  21   2.0000      -0.606457       -16.5025
  22   2.0000      -0.606456       -16.5025
  23   2.0000      -0.567724       -15.4486
  24   2.0000      -0.533905       -14.5283
  25   2.0000      -0.520395       -14.1607
  26   2.0000      -0.520394       -14.1606
  27   2.0000      -0.519354       -14.1323
  28   2.0000      -0.471372       -12.8267
  29   2.0000      -0.471371       -12.8267
  30   2.0000      -0.455123       -12.3845
  31   2.0000      -0.453323       -12.3356
  32   2.0000      -0.453323       -12.3356
  33   2.0000      -0.426226       -11.5982
  34   2.0000      -0.401937       -10.9373
  35   2.0000      -0.401937       -10.9373
  36   2.0000      -0.392523       -10.6811
  37   2.0000      -0.371058       -10.0970
  38   2.0000      -0.371057       -10.0970
  39   2.0000      -0.364204        -9.9105
  40   2.0000      -0.364203        -9.9105
  41   2.0000      -0.337420        -9.1817
  42   2.0000      -0.328358        -8.9351
  43   2.0000      -0.234724        -6.3872
  44   2.0000      -0.234721        -6.3871
  45   0.0000       0.033260         0.9050
  46   0.0000       0.033261         0.9051
  47   0.0000       0.110678         3.0117
  48   0.0000       0.124765         3.3950
  49   0.0000       0.152543         4.1509

MULLIKEN ATOMIC CHARGES
-----------------------
   0 C :   -0.423064
   1 C :   -0.427639
   2 H :    0.222990
   3 H :    0.221486
   4 H :    0.210025
   5 H :    0.215487
   6 C :   -0.195837
   7 C :   -0.273399
   8 H :    0.219740
   9 C :   -0.195872
  10 H :    0.230209
  11 C :   -0.273376
  12 C :   -0.427648
  13 C :   -0.423096
  14 H :    0.223009
  15 H :    0.219730
  16 H :    0.221486
  17 H :    0.210042
  18 H :    0.215498
  19 C :   -0.195880
  20 C :   -0.273341
  21 H :    0.230221
  22 H :    0.219742
  23 C :   -0.427672
  24 H :    0.222992
  25 C :   -0.423065
  26 H :    0.215496
  27 H :    0.230206
  28 H :    0.210023
  29 H :    0.221508
Sum of atomic charges:   -0.0000000

LOEWDIN ATOMIC CHARGES
----------------------
   0 C :   -0.234861
   1 C :   -0.232199
   2 H :    0.122115
   3 H :    0.129107
   4 H :    0.122527
   5 H :    0.119100
   6 C :   -0.138655
   7 C :   -0.150784
   8 H :    0.128669
   9 C :   -0.138673
  10 H :    0.134981
  11 C :   -0.150770
  12 C :   -0.232207
  13 C :   -0.234867
  14 H :    0.122120
  15 H :    0.128665
  16 H :    0.129109
  17 H :    0.122534
  18 H :    0.119100
  19 C :   -0.138663
  20 C :   -0.150764
  21 H :    0.134982
  22 H :    0.128668
  23 C :   -0.232212
  24 H :    0.122114
  25 C :   -0.234862
  26 H :    0.119102
  27 H :    0.134983
  28 H :    0.122528
  29 H :    0.129114

  Mayer bond orders larger than 0.100000
B(  0-C ,  1-C ) :   0.9692 B(  0-C ,  4-H ) :   0.9152 B(  0-C ,  5-H ) :   0.9220
B(  0-C ,  6-C ) :   0.9725 B(  1-C ,  2-H ) :   0.9284 B(  1-C ,  3-H ) :   0.9210
B(  1-C ,  7-C ) :   0.9532 B(  6-C ,  7-C ) :   0.4979 B(  6-C , 10-H ) :   0.8993
B(  6-C , 11-C ) :   1.3638 B(  7-C ,  8-H ) :   0.9237 B(  7-C ,  9-C ) :   1.3638
B(  9-C , 20-C ) :   0.4979 B(  9-C , 25-C ) :   0.9725 B(  9-C , 27-H ) :   0.8994
B( 11-C , 12-C ) :   0.9532 B( 11-C , 15-H ) :   0.9237 B( 11-C , 19-C ) :   0.4979
B( 12-C , 13-C ) :   0.9692 B( 12-C , 14-H ) :   0.9284 B( 12-C , 16-H ) :   0.9210
B( 13-C , 17-H ) :   0.9151 B( 13-C , 18-H ) :   0.9220 B( 13-C , 19-C ) :   0.9725
B( 19-C , 20-C ) :   1.3638 B( 19-C , 21-H ) :   0.8993 B( 20-C , 22-H ) :   0.9237
B( 20-C , 23-C ) :   0.9532 B( 23-C , 24-H ) :   0.9284 B( 23-C , 25-C ) :   0.9692
B( 23-C , 29-H ) :   0.9210 B( 25-C , 26-H ) :   0.9220 B( 25-C , 28-H ) :   0.9152

Dispersion correction           -0.020335710
FINAL SINGLE POINT ENERGY      -466.911563420019

DIPOLE MOMENT
-------------
                                X             Y             Z
Electronic contribution:     -0.00000       2.53567      -0.00005
Nuclear contribution   :     -0.00000      -2.51335      -0.00000
                        -----------------------------------------
Total Dipole Moment    :     -0.00001       0.02232      -0.00005
                        -----------------------------------------
Magnitude (a.u.)       :      0.02232
Magnitude (Debye)      :      0.05674

Rotational constants in cm-1:     0.036711     0.036711     0.022765
Rotational constants in MHz :  1100.558743  1100.558551   682.491345

                             ****ORCA TERMINATED NORMALLY****
TOTAL RUN TIME: 0 days 0 hours 2 minutes 45 seconds 190 msec
