                         Program Version 5.0.3 -  RELEASE  -
|  1> ! PBEh-3c def2/J TightSCF DefGrid3
|  2>
|  3> %maxcore 60000
|  4>
|  5> %pal
|  6> nprocs 4
|  7> end
|  8>
|  9> *xyzfile 0 1 B27.xyz
| 10>
| 11>                          ****END OF INPUT****

CARTESIAN COORDINATES (ANGSTROEM)
---------------------------------
  C     -0.447253    1.885098    0.000000
  H     -1.092527    1.886094    0.884543
  O      0.417824    3.017536    0.000000
  C      0.417824    0.638860    0.000000
  H      1.066295    0.668218   -0.878012
  H      1.066295    0.668218    0.878012
  C     -0.417824   -0.638860    0.000000
  H     -1.066295   -0.668218   -0.878012
  H     -1.066295   -0.668218    0.878012
  H     -0.130163    3.806474    0.000000
  H     -1.092527    1.886094   -0.884543
  C      0.447253   -1.885098    0.000000
  H      1.092527   -1.886094   -0.884543
  H      1.092527   -1.886094    0.884543
  O     -0.417824   -3.017536    0.000000
  H      0.130163   -3.806474    0.000000

 Total Charge           Charge          ....    0
 Multiplicity           Mult            ....    1
 Number of Electrons    NEL             ....   50
 Basis Dimension        Dim             ....  110

ORBITAL ENERGIES
----------------

  NO   OCC          E(Eh)            E(eV)
   0   2.0000     -19.482388      -530.1427
   1   2.0000     -19.482378      -530.1425
   2   2.0000     -10.479327      -285.1570
   3   2.0000     -10.479287      -285.1559
   4   2.0000     -10.430295      -283.8227
   5   2.0000     -10.430069      -283.8166
   6   2.0000      -1.119247       -30.4563
   7   2.0000      -1.118792       -30.4439
   8   2.0000      -0.884957       -24.0809
   9   2.0000      -0.796124       -21.6636
  10   2.0000      -0.693146       -18.8615
  11   2.0000      -0.655764       -17.8443
  12   2.0000      -0.578986       -15.7550
  13   2.0000      -0.556655       -15.1474
  14   2.0000      -0.551577       -15.0092
  15   2.0000      -0.512106       -13.9351
  16   2.0000      -0.484666       -13.1884
  17   2.0000      -0.441027       -12.0010
  18   2.0000      -0.433211       -11.7883
  19   2.0000      -0.406910       -11.0726
  20   2.0000      -0.388629       -10.5751
  21   2.0000      -0.382846       -10.4178
  22   2.0000      -0.369405       -10.0520
  23   2.0000      -0.325804        -8.8656
  24   2.0000      -0.321288        -8.7427
  25   0.0000       0.128992         3.5101
  26   0.0000       0.132998         3.6191
  27   0.0000       0.138880         3.7791
  28   0.0000       0.187478         5.1015
  29   0.0000       0.189195         5.1482

MULLIKEN ATOMIC CHARGES
-----------------------
   0 C :   -0.128545
   1 H :    0.175933
   2 O :   -0.629005
   3 C :   -0.451130
   4 H :    0.220806
   5 H :    0.220806
   6 C :   -0.451130
   7 H :    0.220806
   8 H :    0.220806
   9 H :    0.415202
  10 H :    0.175933
  11 C :   -0.128545
  12 H :    0.175933
  13 H :    0.175933
  14 O :   -0.629005
  15 H :    0.415202
Sum of atomic charges:   -0.0000000

LOEWDIN ATOMIC CHARGES
----------------------
   0 C :   -0.088902
   1 H :    0.096620
   2 O :   -0.417385
   3 C :   -0.252360
   4 H :    0.128665
   5 H :    0.128665
   6 C :   -0.252360
   7 H :    0.128665
   8 H :    0.128665
   9 H :    0.308078
  10 H :    0.096620
  11 C :   -0.088902
  12 H :    0.096620
  13 H :    0.096620
  14 O :   -0.417385
  15 H :    0.308078

  Mayer bond orders larger than 0.100000
B(  0-C ,  1-H ) :   0.9048 B(  0-C ,  2-O ) :   1.0248 B(  0-C ,  3-C ) :   1.0003
B(  0-C , 10-H ) :   0.9048 B(  2-O ,  9-H ) :   0.7936 B(  3-C ,  4-H ) :   0.9115
B(  3-C ,  5-H ) :   0.9115 B(  3-C ,  6-C ) :   0.9571 B(  6-C ,  7-H ) :   0.9115
B(  6-C ,  8-H ) :   0.9115 B(  6-C , 11-C ) :   1.0003 B( 11-C , 12-H ) :   0.9048
B( 11-C , 13-H ) :   0.9048 B( 11-C , 14-O ) :   1.0248 B( 14-O , 15-H ) :   0.7936

Dispersion correction           -0.006295574
FINAL SINGLE POINT ENERGY      -308.205669833125

DIPOLE MOMENT
-------------
                                X             Y             Z
Electronic contribution:     -0.00000      -0.00000       0.00000
Nuclear contribution   :     -0.00000       0.00000       0.00000
                        -----------------------------------------
Total Dipole Moment    :     -0.00000      -0.00000       0.00000
                        -----------------------------------------
Magnitude (a.u.)       :      0.00000
Magnitude (Debye)      :      0.00000

Rotational constants in cm-1:     0.575460     0.038389     0.036977
Rotational constants in MHz : 17251.864038  1150.867268  1108.537604

                             ****ORCA TERMINATED NORMALLY****
TOTAL RUN TIME: 0 days 0 hours 1 minutes 38 seconds 544 msec
