                         Program Version 5.0.3 -  RELEASE  -
|  1> ! PBEh-3c def2/J TightSCF DefGrid3
|  2>
|  3> %maxcore 60000
|  4>
|  5> %pal
|  6> nprocs 4
|  7> end
|  8>
|  9> *xyzfile -1 1 fch3fcomp.xyz
| 10>
| 11>                          ****END OF INPUT****

CARTESIAN COORDINATES (ANGSTROEM)
---------------------------------
  F      0.000000    0.000000   -1.791371
  C      0.000000    0.000000   -0.365617
  H     -0.511791    0.886448   -0.017587
  H     -0.511791   -0.886448   -0.017587
  H      1.023582    0.000000   -0.017587
  F      0.000000    0.000000    2.209748

 Total Charge           Charge          ....   -1
 Multiplicity           Mult            ....    1
 Number of Electrons    NEL             ....   28
 Basis Dimension        Dim             ....   51

ORBITAL ENERGIES
----------------

  NO   OCC          E(Eh)            E(eV)
   0   2.0000     -24.878111      -676.9678
   1   2.0000     -24.562327      -668.3749
   2   2.0000     -10.301025      -280.3051
   3   2.0000      -1.104317       -30.0500
   4   2.0000      -0.749509       -20.3952
   5   2.0000      -0.576899       -15.6982
   6   2.0000      -0.347127        -9.4458
   7   2.0000      -0.347126        -9.4458
   8   2.0000      -0.343183        -9.3385
   9   2.0000      -0.212874        -5.7926
  10   2.0000      -0.212873        -5.7926
  11   2.0000       0.011324         0.3081
  12   2.0000       0.012522         0.3407
  13   2.0000       0.012529         0.3409
  14   0.0000       0.341586         9.2950
  15   0.0000       0.392566        10.6823
  16   0.0000       0.419383        11.4120
  17   0.0000       0.419385        11.4120
  18   0.0000       0.684346        18.6220

MULLIKEN ATOMIC CHARGES
-----------------------
   0 F :   -0.441913
   1 C :   -0.257920
   2 H :    0.193280
   3 H :    0.193280
   4 H :    0.193279
   5 F :   -0.880005
Sum of atomic charges:   -1.0000000

LOEWDIN ATOMIC CHARGES
----------------------
   0 F :   -0.337110
   1 C :   -0.125549
   2 H :    0.114980
   3 H :    0.114980
   4 H :    0.114980
   5 F :   -0.882282

  Mayer bond orders larger than 0.100000
B(  0-F ,  1-C ) :   0.8363 B(  1-C ,  2-H ) :   0.9274 B(  1-C ,  3-H ) :   0.9274
B(  1-C ,  4-H ) :   0.9274 B(  1-C ,  5-F ) :   0.1689

Dispersion correction           -0.001088696
FINAL SINGLE POINT ENERGY      -239.080557546760

DIPOLE MOMENT
-------------
                                X             Y             Z
Electronic contribution:      0.00000       0.00000      -1.97167
Nuclear contribution   :      0.00000       0.00000      -0.50066
                        -----------------------------------------
Total Dipole Moment    :      0.00000       0.00000      -2.47233
                        -----------------------------------------
Magnitude (a.u.)       :      2.47233
Magnitude (Debye)      :      6.28416

Rotational constants in cm-1:     5.320711     0.107585     0.107585
Rotational constants in MHz : 159510.898514  3225.326241  3225.326240

                             ****ORCA TERMINATED NORMALLY****
TOTAL RUN TIME: 0 days 0 hours 0 minutes 17 seconds 607 msec
