                         Program Version 5.0.3 -  RELEASE  -
|  1> ! PBEh-3c def2/J TightSCF DefGrid3
|  2>
|  3> %maxcore 60000
|  4>
|  5> %pal
|  6> nprocs 4
|  7> end
|  8>
|  9> *xyzfile 0 1 1N.xyz
| 10>
| 11>                          ****END OF INPUT****

CARTESIAN COORDINATES (ANGSTROEM)
---------------------------------
  N     -1.722651    0.007973   -0.151411
  H     -0.707816    0.006636   -0.159302
  H     -2.010748    0.975427   -0.113142
  H     -2.004249   -0.403802    0.727317
  C      1.698408   -0.116320   -0.069384
  H      2.316941   -0.207471   -0.980175
  H      2.430113   -0.262443    0.746096

 Total Charge           Charge          ....    0
 Multiplicity           Mult            ....    1
 Number of Electrons    NEL             ....   18
 Basis Dimension        Dim             ....   40

ORBITAL ENERGIES
----------------

  NO   OCC          E(Eh)            E(eV)
   0   2.0000     -14.564256      -396.3136
   1   2.0000     -10.521153      -286.2951
   2   2.0000      -0.905404       -24.6373
   3   2.0000      -0.759980       -20.6801
   4   2.0000      -0.482997       -13.1430
   5   2.0000      -0.481395       -13.0994
   6   2.0000      -0.478735       -13.0270
   7   2.0000      -0.313057        -8.5187
   8   2.0000      -0.277154        -7.5417
   9   0.0000      -0.101750        -2.7688
  10   0.0000       0.153329         4.1723
  11   0.0000       0.182823         4.9749
  12   0.0000       0.197751         5.3811
  13   0.0000       0.247920         6.7463

MULLIKEN ATOMIC CHARGES
-----------------------
   0 N :   -0.981544
   1 H :    0.371374
   2 H :    0.299141
   3 H :    0.298507
   4 C :   -0.392237
   5 H :    0.202903
   6 H :    0.201857
Sum of atomic charges:    0.0000000

LOEWDIN ATOMIC CHARGES
----------------------
   0 N :   -0.669360
   1 H :    0.226198
   2 H :    0.208721
   3 H :    0.208489
   4 C :   -0.195104
   5 H :    0.111313
   6 H :    0.109743

  Mayer bond orders larger than 0.100000
B(  0-N ,  1-H ) :   0.8232 B(  0-N ,  2-H ) :   0.8894 B(  0-N ,  3-H ) :   0.8897
B(  4-C ,  5-H ) :   0.9127 B(  4-C ,  6-H ) :   0.9120

Dispersion correction           -0.001158659
FINAL SINGLE POINT ENERGY       -95.465641954409

DIPOLE MOMENT
-------------
                                X             Y             Z
Electronic contribution:      0.71704      -0.07222      -0.10083
Nuclear contribution   :      0.57353       0.27955       0.61937
                        -----------------------------------------
Total Dipole Moment    :      1.29057       0.20734       0.51853
                        -----------------------------------------
Magnitude (a.u.)       :      1.40621
Magnitude (Debye)      :      3.57431

Rotational constants in cm-1:     5.062590     0.173805     0.171322
Rotational constants in MHz : 151772.619428  5210.557796  5136.090440

                             ****ORCA TERMINATED NORMALLY****
TOTAL RUN TIME: 0 days 0 hours 0 minutes 23 seconds 907 msec
