                         Program Version 5.0.3 -  RELEASE  -
|  1> ! PBEh-3c def2/J TightSCF DefGrid3
|  2>
|  3> %maxcore 60000
|  4>
|  5> %pal
|  6> nprocs 4
|  7> end
|  8>
|  9> *xyzfile 0 1 r9.xyz
| 10>
| 11>                          ****END OF INPUT****

CARTESIAN COORDINATES (ANGSTROEM)
---------------------------------
  C      0.000000    0.000000   -0.999838
  C      0.947749   -0.802682   -0.078232
  C     -0.947749    0.802682   -0.078232
  C     -0.741830    0.174038    1.303727
  C      0.741830   -0.174038    1.303727
  C      2.393308   -0.814780   -0.546115
  C     -2.393308    0.814780   -0.546115
  H     -0.568674   -0.666671   -1.650199
  H      0.568674    0.666671   -1.650199
  H      0.587013   -1.833276   -0.025719
  H     -0.587013    1.833276   -0.025719
  H     -1.043623    0.834562    2.116522
  H     -1.334455   -0.742582    1.379562
  H      1.334455    0.742582    1.379562
  H      1.043623   -0.834562    2.116522
  H      2.775493    0.205260   -0.609866
  H      2.488609   -1.269433   -1.532220
  H      3.030231   -1.370555    0.142461
  H     -2.775493   -0.205260   -0.609866
  H     -2.488609    1.269433   -1.532220
  H     -3.030231    1.370555    0.142461

 Total Charge           Charge          ....    0
 Multiplicity           Mult            ....    1
 Number of Electrons    NEL             ....   56
 Basis Dimension        Dim             ....  133

ORBITAL ENERGIES
----------------

  NO   OCC          E(Eh)            E(eV)
   0   2.0000     -10.432654      -283.8869
   1   2.0000     -10.432643      -283.8867
   2   2.0000     -10.422666      -283.6151
   3   2.0000     -10.422427      -283.6086
   4   2.0000     -10.421040      -283.5709
   5   2.0000     -10.417701      -283.4801
   6   2.0000     -10.417698      -283.4800
   7   2.0000      -0.936418       -25.4812
   8   2.0000      -0.846448       -23.0330
   9   2.0000      -0.801959       -21.8224
  10   2.0000      -0.754511       -20.5313
  11   2.0000      -0.705594       -19.2002
  12   2.0000      -0.632596       -17.2138
  13   2.0000      -0.608280       -16.5521
  14   2.0000      -0.536004       -14.5854
  15   2.0000      -0.525866       -14.3095
  16   2.0000      -0.482214       -13.1217
  17   2.0000      -0.474111       -12.9012
  18   2.0000      -0.458247       -12.4695
  19   2.0000      -0.449771       -12.2389
  20   2.0000      -0.436422       -11.8756
  21   2.0000      -0.411058       -11.1855
  22   2.0000      -0.378400       -10.2968
  23   2.0000      -0.371123       -10.0988
  24   2.0000      -0.367640       -10.0040
  25   2.0000      -0.358547        -9.7566
  26   2.0000      -0.352354        -9.5880
  27   2.0000      -0.348229        -9.4758
  28   0.0000       0.131856         3.5880
  29   0.0000       0.143049         3.8926
  30   0.0000       0.158458         4.3119
  31   0.0000       0.181763         4.9460
  32   0.0000       0.196218         5.3394

MULLIKEN ATOMIC CHARGES
-----------------------
   0 C :   -0.412429
   1 C :   -0.222878
   2 C :   -0.222877
   3 C :   -0.412816
   4 C :   -0.412816
   5 C :   -0.639168
   6 C :   -0.639168
   7 H :    0.214186
   8 H :    0.214186
   9 H :    0.212240
  10 H :    0.212240
  11 H :    0.218434
  12 H :    0.200061
  13 H :    0.200061
  14 H :    0.218434
  15 H :    0.204247
  16 H :    0.216919
  17 H :    0.214990
  18 H :    0.204247
  19 H :    0.216919
  20 H :    0.214990
Sum of atomic charges:    0.0000000

LOEWDIN ATOMIC CHARGES
----------------------
   0 C :   -0.230577
   1 C :   -0.156688
   2 C :   -0.156688
   3 C :   -0.234571
   4 C :   -0.234571
   5 C :   -0.353988
   6 C :   -0.353988
   7 H :    0.124407
   8 H :    0.124407
   9 H :    0.120019
  10 H :    0.120019
  11 H :    0.123484
  12 H :    0.119258
  13 H :    0.119258
  14 H :    0.123484
  15 H :    0.122163
  16 H :    0.125994
  17 H :    0.125210
  18 H :    0.122163
  19 H :    0.125994
  20 H :    0.125210

  Mayer bond orders larger than 0.100000
B(  0-C ,  1-C ) :   0.9583 B(  0-C ,  2-C ) :   0.9583 B(  0-C ,  7-H ) :   0.9296
B(  0-C ,  8-H ) :   0.9296 B(  1-C ,  4-C ) :   0.9755 B(  1-C ,  5-C ) :   0.9984
B(  1-C ,  9-H ) :   0.9150 B(  2-C ,  3-C ) :   0.9755 B(  2-C ,  6-C ) :   0.9984
B(  2-C , 10-H ) :   0.9150 B(  3-C ,  4-C ) :   0.9859 B(  3-C , 11-H ) :   0.9282
B(  3-C , 12-H ) :   0.9197 B(  4-C , 13-H ) :   0.9197 B(  4-C , 14-H ) :   0.9282
B(  5-C , 15-H ) :   0.9290 B(  5-C , 16-H ) :   0.9309 B(  5-C , 17-H ) :   0.9301
B(  6-C , 18-H ) :   0.9290 B(  6-C , 19-H ) :   0.9309 B(  6-C , 20-H ) :   0.9301

Dispersion correction           -0.010709516
FINAL SINGLE POINT ENERGY      -274.586830782456

DIPOLE MOMENT
-------------
                                X             Y             Z
Electronic contribution:      0.00000       0.00000       0.86993
Nuclear contribution   :      0.00000       0.00000      -0.86501
                        -----------------------------------------
Total Dipole Moment    :      0.00000       0.00000       0.00493
                        -----------------------------------------
Magnitude (a.u.)       :      0.00493
Magnitude (Debye)      :      0.01253

Rotational constants in cm-1:     0.167799     0.061186     0.049177
Rotational constants in MHz :  5030.490726  1834.323957  1474.291686

                             ****ORCA TERMINATED NORMALLY****
TOTAL RUN TIME: 0 days 0 hours 1 minutes 14 seconds 256 msec
