                         Program Version 5.0.3 -  RELEASE  -
|  1> ! PBEh-3c def2/J TightSCF DefGrid3
|  2>
|  3> %maxcore 60000
|  4>
|  5> %pal
|  6> nprocs 4
|  7> end
|  8>
|  9> *xyzfile 0 1 h2o_6.xyz
| 10>
| 11>                          ****END OF INPUT****

CARTESIAN COORDINATES (ANGSTROEM)
---------------------------------
  O      0.000000    2.699161    0.140851
  H      0.843745    2.201715    0.029190
  H      2.328614    0.370153   -0.029190
  H     -0.110587   -3.233926   -0.931241
  H     -0.843745   -2.201715   -0.029190
  O      0.000000   -2.699161   -0.140851
  O      2.337542    1.349580   -0.140851
  H     -1.484868    1.831562   -0.029190
  O     -2.337542    1.349580   -0.140851
  O      2.337542   -1.349580    0.140851
  H      1.484868   -1.831562    0.029190
  H      2.745369   -1.712734    0.931241
  O     -2.337542   -1.349580    0.140851
  H     -2.328614   -0.370153    0.029190
  H     -2.855956   -1.521192    0.931241
  H      2.855956    1.521192   -0.931241
  H      0.110587    3.233926    0.931241
  H     -2.745369    1.712734   -0.931241

 Total Charge           Charge          ....    0
 Multiplicity           Mult            ....    1
 Number of Electrons    NEL             ....   60
 Basis Dimension        Dim             ....  114

ORBITAL ENERGIES
----------------

  NO   OCC          E(Eh)            E(eV)
   0   2.0000     -19.469205      -529.7840
   1   2.0000     -19.469193      -529.7837
   2   2.0000     -19.469193      -529.7837
   3   2.0000     -19.469134      -529.7821
   4   2.0000     -19.469133      -529.7820
   5   2.0000     -19.469075      -529.7805
   6   2.0000      -1.106170       -30.1004
   7   2.0000      -1.099253       -29.9122
   8   2.0000      -1.099253       -29.9122
   9   2.0000      -1.084744       -29.5174
  10   2.0000      -1.084744       -29.5174
  11   2.0000      -1.077108       -29.3096
  12   2.0000      -0.580155       -15.7868
  13   2.0000      -0.579761       -15.7761
  14   2.0000      -0.578940       -15.7537
  15   2.0000      -0.578939       -15.7537
  16   2.0000      -0.578854       -15.7514
  17   2.0000      -0.578852       -15.7514
  18   2.0000      -0.480579       -13.0772
  19   2.0000      -0.459984       -12.5168
  20   2.0000      -0.459983       -12.5168
  21   2.0000      -0.414872       -11.2892
  22   2.0000      -0.414870       -11.2892
  23   2.0000      -0.391814       -10.6618
  24   2.0000      -0.356183        -9.6922
  25   2.0000      -0.356181        -9.6922
  26   2.0000      -0.355525        -9.6743
  27   2.0000      -0.355524        -9.6743
  28   2.0000      -0.354207        -9.6385
  29   2.0000      -0.353726        -9.6254
  30   0.0000       0.122473         3.3327
  31   0.0000       0.144861         3.9419
  32   0.0000       0.144862         3.9419
  33   0.0000       0.175297         4.7701
  34   0.0000       0.175298         4.7701

MULLIKEN ATOMIC CHARGES
-----------------------
   0 O :   -0.882401
   1 H :    0.464683
   2 H :    0.464681
   3 H :    0.417717
   4 H :    0.464683
   5 O :   -0.882401
   6 O :   -0.882393
   7 H :    0.464682
   8 O :   -0.882393
   9 O :   -0.882393
  10 H :    0.464682
  11 H :    0.417713
  12 O :   -0.882393
  13 H :    0.464681
  14 H :    0.417711
  15 H :    0.417711
  16 H :    0.417717
  17 H :    0.417713
Sum of atomic charges:    0.0000000

LOEWDIN ATOMIC CHARGES
----------------------
   0 O :   -0.610098
   1 H :    0.304674
   2 H :    0.304672
   3 H :    0.305424
   4 H :    0.304674
   5 O :   -0.610098
   6 O :   -0.610094
   7 H :    0.304673
   8 O :   -0.610094
   9 O :   -0.610094
  10 H :    0.304673
  11 H :    0.305423
  12 O :   -0.610094
  13 H :    0.304672
  14 H :    0.305420
  15 H :    0.305420
  16 H :    0.305424
  17 H :    0.305423

  Mayer bond orders larger than 0.100000
B(  0-O ,  1-H ) :   0.6578 B(  0-O ,  7-H ) :   0.1506 B(  0-O , 16-H ) :   0.8054
B(  1-H ,  6-O ) :   0.1506 B(  2-H ,  6-O ) :   0.6578 B(  2-H ,  9-O ) :   0.1506
B(  3-H ,  5-O ) :   0.8054 B(  4-H ,  5-O ) :   0.6578 B(  4-H , 12-O ) :   0.1506
B(  5-O , 10-H ) :   0.1506 B(  6-O , 15-H ) :   0.8054 B(  7-H ,  8-O ) :   0.6578
B(  8-O , 13-H ) :   0.1506 B(  8-O , 17-H ) :   0.8054 B(  9-O , 10-H ) :   0.6578
B(  9-O , 11-H ) :   0.8054 B( 12-O , 13-H ) :   0.6578 B( 12-O , 14-H ) :   0.8054

Dispersion correction           -0.004484524
FINAL SINGLE POINT ENERGY      -457.635822262923

DIPOLE MOMENT
-------------
                                X             Y             Z
Electronic contribution:      0.00000       0.00000       0.00000
Nuclear contribution   :     -0.00000       0.00000      -0.00000
                        -----------------------------------------
Total Dipole Moment    :      0.00000       0.00000       0.00000
                        -----------------------------------------
Magnitude (a.u.)       :      0.00000
Magnitude (Debye)      :      0.00000

Rotational constants in cm-1:     0.041592     0.041592     0.021170
Rotational constants in MHz :  1246.897295  1246.897019   634.651344

                             ****ORCA TERMINATED NORMALLY****
TOTAL RUN TIME: 0 days 0 hours 1 minutes 11 seconds 955 msec
