                         Program Version 5.0.3 -  RELEASE  -
|  1> ! PBEh-3c def2/J TightSCF DefGrid3
|  2>
|  3> %maxcore 60000
|  4>
|  5> %pal
|  6> nprocs 4
|  7> end
|  8>
|  9> *xyzfile 0 1 B36.xyz
| 10>
| 11>                          ****END OF INPUT****

CARTESIAN COORDINATES (ANGSTROEM)
---------------------------------
  C      1.392977    0.251812   -0.685299
  H      0.798345    1.121323   -0.979580
  O      2.215852    0.557522    0.441430
  C      0.492488   -0.956477   -0.460561
  H     -0.069485   -1.137183   -1.378110
  H      1.120648   -1.830367   -0.279152
  C     -0.487300   -0.801340    0.706668
  H      0.059272   -0.735098    1.651259
  H     -1.109908   -1.695102    0.770127
  H      1.642052    0.873627    1.143317
  H      2.085737    0.043566   -1.498809
  C     -1.396798    0.411350    0.592379
  H     -2.104441    0.416674    1.426437
  H     -0.813796    1.337540    0.647826
  O     -2.082929    0.329199   -0.654948
  H     -2.680014    1.079182   -0.714288

 Total Charge           Charge          ....    0
 Multiplicity           Mult            ....    1
 Number of Electrons    NEL             ....   50
 Basis Dimension        Dim             ....  110

ORBITAL ENERGIES
----------------

  NO   OCC          E(Eh)            E(eV)
   0   2.0000     -19.490972      -530.3763
   1   2.0000     -19.479580      -530.0663
   2   2.0000     -10.488552      -285.4080
   3   2.0000     -10.472857      -284.9809
   4   2.0000     -10.436557      -283.9931
   5   2.0000     -10.425633      -283.6959
   6   2.0000      -1.127386       -30.6777
   7   2.0000      -1.114966       -30.3398
   8   2.0000      -0.880381       -23.9564
   9   2.0000      -0.796998       -21.6874
  10   2.0000      -0.716222       -19.4894
  11   2.0000      -0.639467       -17.4008
  12   2.0000      -0.589149       -16.0316
  13   2.0000      -0.569830       -15.5059
  14   2.0000      -0.530613       -14.4387
  15   2.0000      -0.498496       -13.5648
  16   2.0000      -0.480457       -13.0739
  17   2.0000      -0.473349       -12.8805
  18   2.0000      -0.429433       -11.6855
  19   2.0000      -0.415274       -11.3002
  20   2.0000      -0.394102       -10.7241
  21   2.0000      -0.382285       -10.4025
  22   2.0000      -0.365826        -9.9546
  23   2.0000      -0.331314        -9.0155
  24   2.0000      -0.317052        -8.6274
  25   0.0000       0.102503         2.7892
  26   0.0000       0.129181         3.5152
  27   0.0000       0.173603         4.7240
  28   0.0000       0.180088         4.9004
  29   0.0000       0.198422         5.3993

MULLIKEN ATOMIC CHARGES
-----------------------
   0 C :   -0.177992
   1 H :    0.188480
   2 O :   -0.628502
   3 C :   -0.438607
   4 H :    0.232022
   5 H :    0.225477
   6 C :   -0.473057
   7 H :    0.204946
   8 H :    0.240221
   9 H :    0.410321
  10 H :    0.220607
  11 C :   -0.158130
  12 H :    0.197505
  13 H :    0.167184
  14 O :   -0.629219
  15 H :    0.418744
Sum of atomic charges:    0.0000000

LOEWDIN ATOMIC CHARGES
----------------------
   0 C :   -0.096692
   1 H :    0.099522
   2 O :   -0.416413
   3 C :   -0.265093
   4 H :    0.137887
   5 H :    0.129847
   6 C :   -0.260525
   7 H :    0.121489
   8 H :    0.136287
   9 H :    0.301692
  10 H :    0.122316
  11 C :   -0.094811
  12 H :    0.103189
  13 H :    0.089130
  14 O :   -0.417641
  15 H :    0.309816

  Mayer bond orders larger than 0.100000
B(  0-C ,  1-H ) :   0.9088 B(  0-C ,  2-O ) :   1.0119 B(  0-C ,  3-C ) :   0.9636
B(  0-C , 10-H ) :   0.9195 B(  2-O ,  9-H ) :   0.7922 B(  3-C ,  4-H ) :   0.9017
B(  3-C ,  5-H ) :   0.9166 B(  3-C ,  6-C ) :   0.9791 B(  6-C ,  7-H ) :   0.9156
B(  6-C ,  8-H ) :   0.9153 B(  6-C , 11-C ) :   0.9793 B( 11-C , 12-H ) :   0.9079
B( 11-C , 13-H ) :   0.9050 B( 11-C , 14-O ) :   1.0083 B( 14-O , 15-H ) :   0.7920

Dispersion correction           -0.006863784
FINAL SINGLE POINT ENERGY      -308.206184035390

DIPOLE MOMENT
-------------
                                X             Y             Z
Electronic contribution:      0.24047       0.99811      -0.44992
Nuclear contribution   :     -1.11437      -0.53334       0.81863
                        -----------------------------------------
Total Dipole Moment    :     -0.87390       0.46478       0.36871
                        -----------------------------------------
Magnitude (a.u.)       :      1.05625
Magnitude (Debye)      :      2.68478

Rotational constants in cm-1:     0.204054     0.063775     0.063668
Rotational constants in MHz :  6117.390391  1911.932961  1908.730523

                             ****ORCA TERMINATED NORMALLY****
TOTAL RUN TIME: 0 days 0 hours 1 minutes 37 seconds 795 msec
