                         Program Version 5.0.3 -  RELEASE  -
|  1> ! PBEh-3c def2/J TightSCF DefGrid3
|  2>
|  3> %maxcore 60000
|  4>
|  5> %pal
|  6> nprocs 4
|  7> end
|  8>
|  9> *xyzfile 0 1 ts3h2o.xyz
| 10>
| 11>                          ****END OF INPUT****

CARTESIAN COORDINATES (ANGSTROEM)
---------------------------------
  C     -1.052939   -0.251581   -0.157748
  H     -1.923167   -0.521696   -0.766377
  O     -0.280052   -1.209002    0.171390
  C     -0.755357    1.097543    0.084037
  H     -0.380893    1.351330    1.073089
  H      0.665145    0.893073   -0.235114
  H     -1.418229    1.837130   -0.343451
  H      0.875277   -0.641244    0.197011
  O      1.642542    0.208515   -0.005237
  H      2.131724    0.009531   -0.812120

 Total Charge           Charge          ....    0
 Multiplicity           Mult            ....    1
 Number of Electrons    NEL             ....   34
 Basis Dimension        Dim             ....   72

ORBITAL ENERGIES
----------------

  NO   OCC          E(Eh)            E(eV)
   0   2.0000     -19.521228      -531.1996
   1   2.0000     -19.495077      -530.4880
   2   2.0000     -10.532925      -286.6155
   3   2.0000     -10.415664      -283.4246
   4   2.0000      -1.167398       -31.7665
   5   2.0000      -1.120006       -30.4769
   6   2.0000      -0.831432       -22.6244
   7   2.0000      -0.681165       -18.5355
   8   2.0000      -0.599836       -16.3224
   9   2.0000      -0.566004       -15.4018
  10   2.0000      -0.538453       -14.6520
  11   2.0000      -0.490248       -13.3403
  12   2.0000      -0.467269       -12.7150
  13   2.0000      -0.444507       -12.0957
  14   2.0000      -0.408768       -11.1232
  15   2.0000      -0.339045        -9.2259
  16   2.0000      -0.281078        -7.6485
  17   0.0000       0.007242         0.1971
  18   0.0000       0.127881         3.4798
  19   0.0000       0.174774         4.7558
  20   0.0000       0.205054         5.5798
  21   0.0000       0.231935         6.3113

MULLIKEN ATOMIC CHARGES
-----------------------
   0 C :    0.194716
   1 H :    0.204165
   2 O :   -0.534612
   3 C :   -0.895802
   4 H :    0.295523
   5 H :    0.421214
   6 H :    0.225898
   7 H :    0.481688
   8 O :   -0.829177
   9 H :    0.436386
Sum of atomic charges:   -0.0000000

LOEWDIN ATOMIC CHARGES
----------------------
   0 C :    0.064685
   1 H :    0.111291
   2 O :   -0.343964
   3 C :   -0.557778
   4 H :    0.166180
   5 H :    0.332824
   6 H :    0.136839
   7 H :    0.361743
   8 O :   -0.590151
   9 H :    0.318331

  Mayer bond orders larger than 0.100000
B(  0-C ,  1-H ) :   0.9033 B(  0-C ,  2-O ) :   1.5663 B(  0-C ,  3-C ) :   1.2838
B(  2-O ,  7-H ) :   0.3327 B(  3-C ,  4-H ) :   0.8758 B(  3-C ,  5-H ) :   0.3548
B(  3-C ,  6-H ) :   0.9294 B(  5-H ,  8-O ) :   0.4100 B(  7-H ,  8-O ) :   0.4337
B(  8-O ,  9-H ) :   0.7821

Dispersion correction           -0.003324023
FINAL SINGLE POINT ENERGY      -229.695597990102

DIPOLE MOMENT
-------------
                                X             Y             Z
Electronic contribution:      0.18181      -2.67524       0.18493
Nuclear contribution   :     -0.02949       2.99618      -0.90980
                        -----------------------------------------
Total Dipole Moment    :      0.15232       0.32093      -0.72487
                        -----------------------------------------
Magnitude (a.u.)       :      0.80724
Magnitude (Debye)      :      2.05183

Rotational constants in cm-1:     0.342310     0.211031     0.137933
Rotational constants in MHz : 10262.204364  6326.542627  4135.123154

                             ****ORCA TERMINATED NORMALLY****
TOTAL RUN TIME: 0 days 0 hours 1 minutes 2 seconds 575 msec
