                         Program Version 5.0.3 -  RELEASE  -
|  1> ! PBEh-3c def2/J TightSCF DefGrid3
|  2>
|  3> %maxcore 60000
|  4>
|  5> %pal
|  6> nprocs 4
|  7> end
|  8>
|  9> *xyzfile 0 1 SER_pII.xyz
| 10>
| 11>                          ****END OF INPUT****

CARTESIAN COORDINATES (ANGSTROEM)
---------------------------------
  H     -7.234814   -0.071484   -1.038248
  C     -6.361037   -0.712950   -0.921579
  H     -5.987601   -0.966603   -1.920270
  H     -6.647036   -1.640441   -0.416174
  C     -5.284625    0.053448   -0.169868
  O     -5.191282    1.271794   -0.215239
  N     -4.435475   -0.728864    0.584592
  H     -4.378039   -1.702363    0.310507
  C     -3.176952   -0.171568    1.053350
  H     -3.384607    0.860443    1.350256
  C     -2.633452   -0.977340    2.242276
  H     -2.492769   -2.025571    1.958240
  H     -1.661153   -0.592741    2.560352
  H     -3.331983   -0.933492    3.081175
  C     -2.135054   -0.175007   -0.080932
  O     -2.131960   -1.041957   -0.947978
  N     -1.208220    0.826765   -0.019185
  H     -1.164322    1.382885    0.824562
  C      0.042304    0.723469   -0.742242
  H     -0.193677    0.258904   -1.705197
  C      0.634499    2.108608   -1.004586
  H      1.507915    2.006082   -1.665266
  H     -0.124523    2.717901   -1.516106
  O      1.008725    2.662246    0.249706
  H      1.409346    3.525669    0.091414
  C      1.041846   -0.183375    0.006315
  O      1.014276   -0.327923    1.220097
  N      1.921256   -0.851696   -0.812040
  H      2.020655   -0.475261   -1.747422
  C      3.169887   -1.355540   -0.257582
  H      2.929444   -1.748475    0.734546
  C      3.744765   -2.464710   -1.147976
  H      3.985210   -2.071774   -2.141104
  H      4.664298   -2.870413   -0.716944
  H      3.019420   -3.273806   -1.257156
  C      4.177127   -0.191592   -0.136506
  O      4.186692    0.721432   -0.957387
  N      5.076804   -0.307057    0.877845
  H      4.913808   -1.014404    1.577720
  C      6.102332    0.691787    1.129752
  H      5.867010    1.298006    2.012098
  H      7.076549    0.216594    1.276789
  H      6.145781    1.343976    0.257612

 Total Charge           Charge          ....    0
 Multiplicity           Mult            ....    1
 Number of Electrons    NEL             ....  162
 Basis Dimension        Dim             ....  359

ORBITAL ENERGIES
----------------

  NO   OCC          E(Eh)            E(eV)
   0   2.0000     -19.498783      -530.5889
   1   2.0000     -19.467128      -529.7275
   2   2.0000     -19.466321      -529.7055
   3   2.0000     -19.459306      -529.5146
   4   2.0000     -19.451396      -529.2994
   5   2.0000     -14.673835      -399.2953
   6   2.0000     -14.663493      -399.0139
   7   2.0000     -14.658100      -398.8672
   8   2.0000     -14.650369      -398.6568
   9   2.0000     -10.554381      -287.1993
  10   2.0000     -10.551132      -287.1109
  11   2.0000     -10.543760      -286.9103
  12   2.0000     -10.541850      -286.8583
  13   2.0000     -10.500177      -285.7244
  14   2.0000     -10.498390      -285.6757
  15   2.0000     -10.492266      -285.5091
  16   2.0000     -10.484517      -285.2982
  17   2.0000     -10.475772      -285.0602
  18   2.0000     -10.448123      -284.3079
  19   2.0000     -10.435502      -283.9644
  20   2.0000     -10.433911      -283.9212
  21   2.0000      -1.154825       -31.4244
  22   2.0000      -1.147222       -31.2175
  23   2.0000      -1.140535       -31.0355
  24   2.0000      -1.133896       -30.8549
  25   2.0000      -1.131321       -30.7848
  26   2.0000      -1.028722       -27.9929
  27   2.0000      -1.028110       -27.9763
  28   2.0000      -1.021721       -27.8025
  29   2.0000      -1.014035       -27.5933
  30   2.0000      -0.882317       -24.0091
  31   2.0000      -0.864237       -23.5171
  32   2.0000      -0.838798       -22.8249
  33   2.0000      -0.805431       -21.9169
  34   2.0000      -0.799699       -21.7609
  35   2.0000      -0.742341       -20.2001
  36   2.0000      -0.729738       -19.8572
  37   2.0000      -0.700993       -19.0750
  38   2.0000      -0.669342       -18.2137
  39   2.0000      -0.658133       -17.9087
  40   2.0000      -0.648976       -17.6595
  41   2.0000      -0.640563       -17.4306
  42   2.0000      -0.621259       -16.9053
  43   2.0000      -0.596332       -16.2270
  44   2.0000      -0.583614       -15.8810
  45   2.0000      -0.563384       -15.3304
  46   2.0000      -0.548907       -14.9365
  47   2.0000      -0.537775       -14.6336
  48   2.0000      -0.534674       -14.5492
  49   2.0000      -0.528209       -14.3733
  50   2.0000      -0.525752       -14.3065
  51   2.0000      -0.511780       -13.9262
  52   2.0000      -0.501482       -13.6460
  53   2.0000      -0.499500       -13.5921
  54   2.0000      -0.495936       -13.4951
  55   2.0000      -0.490161       -13.3379
  56   2.0000      -0.480119       -13.0647
  57   2.0000      -0.473024       -12.8716
  58   2.0000      -0.466571       -12.6961
  59   2.0000      -0.461940       -12.5700
  60   2.0000      -0.453812       -12.3489
  61   2.0000      -0.452020       -12.3001
  62   2.0000      -0.450718       -12.2647
  63   2.0000      -0.448914       -12.2156
  64   2.0000      -0.433645       -11.8001
  65   2.0000      -0.430101       -11.7036
  66   2.0000      -0.428322       -11.6552
  67   2.0000      -0.419857       -11.4249
  68   2.0000      -0.414818       -11.2878
  69   2.0000      -0.406572       -11.0634
  70   2.0000      -0.402564       -10.9543
  71   2.0000      -0.398950       -10.8560
  72   2.0000      -0.344224        -9.3668
  73   2.0000      -0.327947        -8.9239
  74   2.0000      -0.323275        -8.7967
  75   2.0000      -0.318768        -8.6741
  76   2.0000      -0.313243        -8.5238
  77   2.0000      -0.307449        -8.3661
  78   2.0000      -0.302952        -8.2437
  79   2.0000      -0.296016        -8.0550
  80   2.0000      -0.289238        -7.8706
  81   0.0000       0.046155         1.2559
  82   0.0000       0.051586         1.4037
  83   0.0000       0.058624         1.5952
  84   0.0000       0.065831         1.7914
  85   0.0000       0.111379         3.0308

MULLIKEN ATOMIC CHARGES
-----------------------
   0 H :    0.260515
   1 C :   -0.764280
   2 H :    0.254675
   3 H :    0.223574
   4 C :    0.525003
   5 O :   -0.420307
   6 N :   -0.604780
   7 H :    0.359077
   8 C :   -0.229720
   9 H :    0.268074
  10 C :   -0.640761
  11 H :    0.222391
  12 H :    0.248954
  13 H :    0.237112
  14 C :    0.564251
  15 O :   -0.435834
  16 N :   -0.618881
  17 H :    0.377260
  18 C :   -0.251867
  19 H :    0.279025
  20 C :   -0.156754
  21 H :    0.207866
  22 H :    0.215355
  23 O :   -0.625704
  24 H :    0.428464
  25 C :    0.573065
  26 O :   -0.417784
  27 N :   -0.606947
  28 H :    0.360088
  29 C :   -0.221329
  30 H :    0.260944
  31 C :   -0.634416
  32 H :    0.228553
  33 H :    0.223607
  34 H :    0.248707
  35 C :    0.558702
  36 O :   -0.444080
  37 N :   -0.631707
  38 H :    0.360901
  39 C :   -0.492795
  40 H :    0.225954
  41 H :    0.221004
  42 H :    0.264828
Sum of atomic charges:    0.0000000

LOEWDIN ATOMIC CHARGES
----------------------
   0 H :    0.154915
   1 C :   -0.394348
   2 H :    0.155957
   3 H :    0.134794
   4 C :    0.118521
   5 O :   -0.267931
   6 N :   -0.238537
   7 H :    0.257667
   8 C :   -0.104701
   9 H :    0.149394
  10 C :   -0.352344
  11 H :    0.133348
  12 H :    0.144586
  13 H :    0.136910
  14 C :    0.121826
  15 O :   -0.280174
  16 N :   -0.216917
  17 H :    0.267345
  18 C :   -0.110590
  19 H :    0.156452
  20 C :   -0.087259
  21 H :    0.113158
  22 H :    0.114801
  23 O :   -0.407863
  24 H :    0.317218
  25 C :    0.126554
  26 O :   -0.261418
  27 N :   -0.225861
  28 H :    0.257707
  29 C :   -0.101727
  30 H :    0.146132
  31 C :   -0.350186
  32 H :    0.135751
  33 H :    0.133800
  34 H :    0.142526
  35 C :    0.113510
  36 O :   -0.291357
  37 N :   -0.244546
  38 H :    0.256222
  39 C :   -0.256111
  40 H :    0.124746
  41 H :    0.124023
  42 H :    0.154005

  Mayer bond orders larger than 0.100000
B(  0-H ,  1-C ) :   0.9155 B(  1-C ,  2-H ) :   0.9062 B(  1-C ,  3-H ) :   0.9180
B(  1-C ,  4-C ) :   0.9271 B(  4-C ,  5-O ) :   2.0079 B(  4-C ,  6-N ) :   1.1169
B(  6-N ,  7-H ) :   0.8182 B(  6-N ,  8-C ) :   0.9620 B(  8-C ,  9-H ) :   0.8783
B(  8-C , 10-C ) :   0.9821 B(  8-C , 14-C ) :   0.8788 B( 10-C , 11-H ) :   0.9209
B( 10-C , 12-H ) :   0.9080 B( 10-C , 13-H ) :   0.9200 B( 14-C , 15-O ) :   1.9912
B( 14-C , 16-N ) :   1.1130 B( 16-N , 17-H ) :   0.8070 B( 16-N , 18-C ) :   0.9629
B( 18-C , 19-H ) :   0.8772 B( 18-C , 20-C ) :   0.9651 B( 18-C , 25-C ) :   0.8689
B( 20-C , 21-H ) :   0.8904 B( 20-C , 22-H ) :   0.8941 B( 20-C , 23-O ) :   1.0253
B( 23-O , 24-H ) :   0.7840 B( 25-C , 26-O ) :   2.0131 B( 25-C , 27-N ) :   1.0977
B( 27-N , 28-H ) :   0.8140 B( 27-N , 29-C ) :   0.9661 B( 29-C , 30-H ) :   0.8806
B( 29-C , 31-C ) :   0.9827 B( 29-C , 35-C ) :   0.8786 B( 31-C , 32-H ) :   0.9186
B( 31-C , 33-H ) :   0.9220 B( 31-C , 34-H ) :   0.9167 B( 35-C , 36-O ) :   1.9731
B( 35-C , 37-N ) :   1.1272 B( 37-N , 38-H ) :   0.8255 B( 37-N , 39-C ) :   0.9464
B( 39-C , 40-H ) :   0.9175 B( 39-C , 41-H ) :   0.9219 B( 39-C , 42-H ) :   0.9005

Dispersion correction           -0.026834387
FINAL SINGLE POINT ENERGY     -1063.446271275775

DIPOLE MOMENT
-------------
                                X             Y             Z
Electronic contribution:     -4.65093       4.72214      -1.46190
Nuclear contribution   :      6.50081      -5.37635       1.78702
                        -----------------------------------------
Total Dipole Moment    :      1.84987      -0.65422       0.32512
                        -----------------------------------------
Magnitude (a.u.)       :      1.98890
Magnitude (Debye)      :      5.05539

Rotational constants in cm-1:     0.023612     0.003979     0.003820
Rotational constants in MHz :   707.878641   119.274236   114.520567

                             ****ORCA TERMINATED NORMALLY****
TOTAL RUN TIME: 0 days 0 hours 5 minutes 33 seconds 350 msec
