                         Program Version 5.0.3 -  RELEASE  -
|  1> ! PBEh-3c def2/J TightSCF DefGrid3
|  2>
|  3> %maxcore 60000
|  4>
|  5> %pal
|  6> nprocs 4
|  7> end
|  8>
|  9> *xyzfile 0 1 NCH_FCl.xyz
| 10>
| 11>                          ****END OF INPUT****

CARTESIAN COORDINATES (ANGSTROEM)
---------------------------------
  N      0.000000    0.000000   -1.841130
  C      0.000000    0.000000   -2.982143
  H      0.000000    0.000000   -4.049770
  Cl     0.000000    0.000000    0.771599
  F      0.000000    0.000000    2.412594

 Total Charge           Charge          ....    0
 Multiplicity           Mult            ....    1
 Number of Electrons    NEL             ....   40
 Basis Dimension        Dim             ....   65

ORBITAL ENERGIES
----------------

  NO   OCC          E(Eh)            E(eV)
   0   2.0000    -102.356005     -2785.2485
   1   2.0000     -25.106208      -683.1746
   2   2.0000     -14.695017      -399.8717
   3   2.0000     -10.528354      -286.4911
   4   2.0000      -9.814953      -267.0784
   5   2.0000      -7.508039      -204.3041
   6   2.0000      -7.491530      -203.8549
   7   2.0000      -7.491530      -203.8549
   8   2.0000      -1.317808       -35.8594
   9   2.0000      -1.055522       -28.7222
  10   2.0000      -0.884334       -24.0639
  11   2.0000      -0.698963       -19.0198
  12   2.0000      -0.564233       -15.3536
  13   2.0000      -0.518606       -14.1120
  14   2.0000      -0.518606       -14.1120
  15   2.0000      -0.469745       -12.7824
  16   2.0000      -0.444262       -12.0890
  17   2.0000      -0.444262       -12.0890
  18   2.0000      -0.350059        -9.5256
  19   2.0000      -0.350059        -9.5256
  20   0.0000      -0.023464        -0.6385
  21   0.0000       0.032399         0.8816
  22   0.0000       0.032399         0.8816
  23   0.0000       0.115673         3.1476
  24   0.0000       0.343861         9.3569

MULLIKEN ATOMIC CHARGES
-----------------------
   0 N :   -0.186632
   1 C :   -0.093184
   2 H :    0.315465
   3 Cl:    0.347659
   4 F :   -0.383308
Sum of atomic charges:   -0.0000000

LOEWDIN ATOMIC CHARGES
----------------------
   0 N :   -0.062969
   1 C :   -0.072758
   2 H :    0.167975
   3 Cl:    0.351623
   4 F :   -0.383871

  Mayer bond orders larger than 0.100000
B(  0-N ,  1-C ) :   3.1136 B(  1-C ,  2-H ) :   0.8548 B(  3-Cl,  4-F ) :   0.8741

Dispersion correction           -0.001196123
FINAL SINGLE POINT ENERGY      -652.482150529729

DIPOLE MOMENT
-------------
                                X             Y             Z
Electronic contribution:      0.00000       0.00000       4.92932
Nuclear contribution   :      0.00000       0.00000      -6.95855
                        -----------------------------------------
Total Dipole Moment    :      0.00000       0.00000      -2.02923
                        -----------------------------------------
Magnitude (a.u.)       :      2.02923
Magnitude (Debye)      :      5.15790

Rotational constants in cm-1:     0.000000     0.055852     0.055852
Rotational constants in MHz :     0.000000  1674.412000  1674.412000

                             ****ORCA TERMINATED NORMALLY****
TOTAL RUN TIME: 0 days 0 hours 1 minutes 24 seconds 96 msec
