                         Program Version 5.0.3 -  RELEASE  -
|  1> ! PBEh-3c def2/J TightSCF DefGrid3
|  2>
|  3> %maxcore 60000
|  4>
|  5> %pal
|  6> nprocs 4
|  7> end
|  8>
|  9> *xyzfile 0 1 as2me4.xyz
| 10>
| 11>                          ****END OF INPUT****

CARTESIAN COORDINATES (ANGSTROEM)
---------------------------------
  As    -1.149753    0.403815   -1.024616
  As     1.149753   -0.403815   -1.024616
  C     -1.385198    0.958156    0.850885
  C     -1.994937   -1.368579   -0.869346
  C      1.994937    1.368579   -0.869346
  C      1.385198   -0.958156    0.850885
  H     -0.741572    1.812396    1.063475
  H     -1.163791    0.150689    1.548403
  H     -2.422269    1.271157    0.982871
  H     -1.811347   -1.932375   -1.783964
  H     -1.611746   -1.928619   -0.015384
  H     -3.070912   -1.232704   -0.752323
  H      1.811347    1.932375   -1.783964
  H      3.070912    1.232704   -0.752323
  H      1.611746    1.928619   -0.015384
  H      0.741572   -1.812396    1.063475
  H      2.422269   -1.271157    0.982871
  H      1.163791   -0.150689    1.548403

 Total Charge           Charge          ....    0
 Multiplicity           Mult            ....    1
 Number of Electrons    NEL             ....  102
 Basis Dimension        Dim             ....  148

ORBITAL ENERGIES
----------------

  NO   OCC          E(Eh)            E(eV)
   0   2.0000    -427.404275    -11630.2616
   1   2.0000    -427.404265    -11630.2613
   2   2.0000     -54.457968     -1481.8767
   3   2.0000     -54.457961     -1481.8764
   4   2.0000     -48.637145     -1323.4840
   5   2.0000     -48.637116     -1323.4832
   6   2.0000     -48.637007     -1323.4802
   7   2.0000     -48.637005     -1323.4802
   8   2.0000     -48.636832     -1323.4755
   9   2.0000     -48.636818     -1323.4751
  10   2.0000     -10.438343      -284.0417
  11   2.0000     -10.438342      -284.0417
  12   2.0000     -10.437199      -284.0106
  13   2.0000     -10.437189      -284.0103
  14   2.0000      -7.265158      -197.6950
  15   2.0000      -7.265136      -197.6944
  16   2.0000      -5.270145      -143.4079
  17   2.0000      -5.270052      -143.4054
  18   2.0000      -5.269873      -143.4005
  19   2.0000      -5.269820      -143.3991
  20   2.0000      -5.265175      -143.2727
  21   2.0000      -5.265141      -143.2718
  22   2.0000      -1.764154       -48.0051
  23   2.0000      -1.763017       -47.9741
  24   2.0000      -1.762694       -47.9653
  25   2.0000      -1.761546       -47.9341
  26   2.0000      -1.758798       -47.8593
  27   2.0000      -1.758788       -47.8591
  28   2.0000      -1.758601       -47.8540
  29   2.0000      -1.757043       -47.8116
  30   2.0000      -1.756581       -47.7990
  31   2.0000      -1.756147       -47.7872
  32   2.0000      -0.828365       -22.5410
  33   2.0000      -0.803007       -21.8509
  34   2.0000      -0.767541       -20.8859
  35   2.0000      -0.767103       -20.8739
  36   2.0000      -0.639892       -17.4124
  37   2.0000      -0.563998       -15.3472
  38   2.0000      -0.492497       -13.4015
  39   2.0000      -0.484639       -13.1877
  40   2.0000      -0.477758       -13.0005
  41   2.0000      -0.464157       -12.6303
  42   2.0000      -0.462030       -12.5725
  43   2.0000      -0.453874       -12.3505
  44   2.0000      -0.452279       -12.3071
  45   2.0000      -0.446301       -12.1445
  46   2.0000      -0.370837       -10.0910
  47   2.0000      -0.368249       -10.0206
  48   2.0000      -0.333165        -9.0659
  49   2.0000      -0.278904        -7.5894
  50   2.0000      -0.253483        -6.8976
  51   0.0000       0.031821         0.8659
  52   0.0000       0.057452         1.5633
  53   0.0000       0.075511         2.0547
  54   0.0000       0.106970         2.9108
  55   0.0000       0.116404         3.1675

MULLIKEN ATOMIC CHARGES
-----------------------
   0 As:    0.319780
   1 As:    0.319780
   2 C :   -0.879488
   3 C :   -0.872032
   4 C :   -0.872032
   5 C :   -0.879488
   6 H :    0.233906
   7 H :    0.236273
   8 H :    0.244509
   9 H :    0.245596
  10 H :    0.230472
  11 H :    0.240984
  12 H :    0.245596
  13 H :    0.240984
  14 H :    0.230472
  15 H :    0.233906
  16 H :    0.244509
  17 H :    0.236273
Sum of atomic charges:    0.0000000

LOEWDIN ATOMIC CHARGES
----------------------
   0 As:    0.187778
   1 As:    0.187778
   2 C :   -0.508908
   3 C :   -0.505770
   4 C :   -0.505769
   5 C :   -0.508908
   6 H :    0.137310
   7 H :    0.132983
   8 H :    0.142219
   9 H :    0.144191
  10 H :    0.129874
  11 H :    0.140321
  12 H :    0.144191
  13 H :    0.140321
  14 H :    0.129874
  15 H :    0.137310
  16 H :    0.142219
  17 H :    0.132983

  Mayer bond orders larger than 0.100000
B(  0-As,  1-As) :   0.9827 B(  0-As,  2-C ) :   0.9507 B(  0-As,  3-C ) :   0.9607
B(  1-As,  4-C ) :   0.9607 B(  1-As,  5-C ) :   0.9507 B(  2-C ,  6-H ) :   0.9149
B(  2-C ,  7-H ) :   0.9043 B(  2-C ,  8-H ) :   0.9093 B(  3-C ,  9-H ) :   0.9127
B(  3-C , 10-H ) :   0.9075 B(  3-C , 11-H ) :   0.9126 B(  4-C , 12-H ) :   0.9127
B(  4-C , 13-H ) :   0.9126 B(  4-C , 14-H ) :   0.9075 B(  5-C , 15-H ) :   0.9149
B(  5-C , 16-H ) :   0.9093 B(  5-C , 17-H ) :   0.9043

Dispersion correction           -0.009841269
FINAL SINGLE POINT ENERGY     -4628.965918657208

DIPOLE MOMENT
-------------
                                X             Y             Z
Electronic contribution:      0.00000       0.00000     -14.45566
Nuclear contribution   :      0.00000       0.00000      15.14044
                        -----------------------------------------
Total Dipole Moment    :      0.00000       0.00000       0.68478
                        -----------------------------------------
Magnitude (a.u.)       :      0.68478
Magnitude (Debye)      :      1.74058

Rotational constants in cm-1:     0.077701     0.034536     0.033329
Rotational constants in MHz :  2329.414918  1035.377123   999.167069

                             ****ORCA TERMINATED NORMALLY****
TOTAL RUN TIME: 0 days 0 hours 2 minutes 12 seconds 371 msec
