                         Program Version 5.0.3 -  RELEASE  -
|  1> ! PBEh-3c def2/J TightSCF DefGrid3
|  2>
|  3> %maxcore 60000
|  4>
|  5> %pal
|  6> nprocs 4
|  7> end
|  8>
|  9> *xyzfile 0 1 F14f.xyz
| 10>
| 11>                          ****END OF INPUT****

CARTESIAN COORDINATES (ANGSTROEM)
---------------------------------
  C     -2.224326   -0.253250    0.167015
  C     -1.636530    0.452784    1.399658
  C     -1.538809   -0.478383    2.626350
  C     -0.764113    0.122907    3.825865
  C      0.764113   -0.122907    3.825865
  C      1.538809    0.478383    2.626350
  C      1.636530   -0.452784    1.399658
  C      2.224326    0.253250    0.167015
  C      2.322273   -0.659404   -1.067480
  C      2.945144    0.043470   -2.287595
  C      3.056110   -0.879748   -3.516117
  C     -2.322273    0.659404   -1.067480
  C     -2.945144   -0.043470   -2.287595
  C     -3.056110    0.879748   -3.516117
  H     -3.225905   -0.646299    0.410816
  H     -1.597233   -1.127536   -0.077692
  H     -0.646806    0.852590    1.142000
  H     -2.262417    1.322174    1.660795
  H     -1.065114   -1.428113    2.328938
  H     -2.563488   -0.732606    2.940407
  H     -0.950896    1.209753    3.864321
  H     -1.168360   -0.295184    4.760923
  H      0.950896   -1.209753    3.864321
  H      1.168360    0.295184    4.760923
  H      1.065114    1.428113    2.328938
  H      2.563488    0.732606    2.940407
  H      0.646806   -0.852590    1.142000
  H      2.262417   -1.322174    1.660795
  H      1.597233    1.127536   -0.077692
  H      3.225905    0.646299    0.410816
  H      1.314975   -1.025619   -1.329847
  H      2.924112   -1.549402   -0.816302
  H      2.340543    0.929770   -2.540371
  H      3.945510    0.415392   -2.011284
  H      2.062447   -1.238611   -3.825897
  H      3.513244   -0.361000   -4.371721
  H      3.673631   -1.760722   -3.282780
  H     -1.314975    1.025619   -1.329847
  H     -2.924112    1.549402   -0.816302
  H     -2.340543   -0.929770   -2.540371
  H     -3.945510   -0.415392   -2.011284
  H     -2.062447    1.238611   -3.825897
  H     -3.513244    0.361000   -4.371721
  H     -3.673631    1.760722   -3.282780

 Total Charge           Charge          ....    0
 Multiplicity           Mult            ....    1
 Number of Electrons    NEL             ....  114
 Basis Dimension        Dim             ....  270

ORBITAL ENERGIES
----------------

  NO   OCC          E(Eh)            E(eV)
   0   2.0000     -10.432235      -283.8755
   1   2.0000     -10.432233      -283.8755
   2   2.0000     -10.430783      -283.8360
   3   2.0000     -10.430615      -283.8315
   4   2.0000     -10.430284      -283.8225
   5   2.0000     -10.430273      -283.8222
   6   2.0000     -10.430062      -283.8164
   7   2.0000     -10.430059      -283.8163
   8   2.0000     -10.429900      -283.8120
   9   2.0000     -10.429899      -283.8120
  10   2.0000     -10.428700      -283.7794
  11   2.0000     -10.428683      -283.7789
  12   2.0000     -10.424259      -283.6585
  13   2.0000     -10.424258      -283.6585
  14   2.0000      -0.903540       -24.5866
  15   2.0000      -0.890765       -24.2389
  16   2.0000      -0.876138       -23.8409
  17   2.0000      -0.851768       -23.1778
  18   2.0000      -0.829212       -22.5640
  19   2.0000      -0.795691       -21.6519
  20   2.0000      -0.765233       -20.8231
  21   2.0000      -0.727367       -19.7927
  22   2.0000      -0.692698       -18.8493
  23   2.0000      -0.660911       -17.9843
  24   2.0000      -0.643730       -17.5168
  25   2.0000      -0.643459       -17.5094
  26   2.0000      -0.640586       -17.4312
  27   2.0000      -0.625359       -17.0169
  28   2.0000      -0.550449       -14.9785
  29   2.0000      -0.530093       -14.4246
  30   2.0000      -0.517861       -14.0917
  31   2.0000      -0.500885       -13.6298
  32   2.0000      -0.490513       -13.3475
  33   2.0000      -0.488719       -13.2987
  34   2.0000      -0.481652       -13.1064
  35   2.0000      -0.471992       -12.8436
  36   2.0000      -0.467151       -12.7118
  37   2.0000      -0.460250       -12.5240
  38   2.0000      -0.444768       -12.1028
  39   2.0000      -0.443500       -12.0683
  40   2.0000      -0.426424       -11.6036
  41   2.0000      -0.421909       -11.4807
  42   2.0000      -0.416085       -11.3223
  43   2.0000      -0.402930       -10.9643
  44   2.0000      -0.398525       -10.8444
  45   2.0000      -0.397590       -10.8190
  46   2.0000      -0.383472       -10.4348
  47   2.0000      -0.379447       -10.3253
  48   2.0000      -0.374277       -10.1846
  49   2.0000      -0.373323       -10.1586
  50   2.0000      -0.368014       -10.0142
  51   2.0000      -0.365954        -9.9581
  52   2.0000      -0.365080        -9.9343
  53   2.0000      -0.364918        -9.9299
  54   2.0000      -0.352624        -9.5954
  55   2.0000      -0.345126        -9.3914
  56   2.0000      -0.335063        -9.1175
  57   0.0000       0.098876         2.6905
  58   0.0000       0.135564         3.6889
  59   0.0000       0.136984         3.7275
  60   0.0000       0.144864         3.9420
  61   0.0000       0.152500         4.1497

MULLIKEN ATOMIC CHARGES
-----------------------
   0 C :   -0.398382
   1 C :   -0.429778
   2 C :   -0.417886
   3 C :   -0.417219
   4 C :   -0.417219
   5 C :   -0.417886
   6 C :   -0.429778
   7 C :   -0.398382
   8 C :   -0.394439
   9 C :   -0.406871
  10 C :   -0.635310
  11 C :   -0.394438
  12 C :   -0.406871
  13 C :   -0.635310
  14 H :    0.200904
  15 H :    0.198103
  16 H :    0.220307
  17 H :    0.209851
  18 H :    0.202415
  19 H :    0.214079
  20 H :    0.203765
  21 H :    0.214159
  22 H :    0.203765
  23 H :    0.214159
  24 H :    0.202415
  25 H :    0.214079
  26 H :    0.220307
  27 H :    0.209851
  28 H :    0.198103
  29 H :    0.200904
  30 H :    0.199438
  31 H :    0.198945
  32 H :    0.202945
  33 H :    0.203223
  34 H :    0.207626
  35 H :    0.216697
  36 H :    0.207425
  37 H :    0.199438
  38 H :    0.198945
  39 H :    0.202945
  40 H :    0.203223
  41 H :    0.207626
  42 H :    0.216697
  43 H :    0.207425
Sum of atomic charges:   -0.0000000

LOEWDIN ATOMIC CHARGES
----------------------
   0 C :   -0.237523
   1 C :   -0.243531
   2 C :   -0.241990
   3 C :   -0.237474
   4 C :   -0.237474
   5 C :   -0.241990
   6 C :   -0.243532
   7 C :   -0.237523
   8 C :   -0.238744
   9 C :   -0.244701
  10 C :   -0.362249
  11 C :   -0.238744
  12 C :   -0.244701
  13 C :   -0.362249
  14 H :    0.118918
  15 H :    0.116683
  16 H :    0.121799
  17 H :    0.119939
  18 H :    0.117628
  19 H :    0.122403
  20 H :    0.119279
  21 H :    0.123181
  22 H :    0.119279
  23 H :    0.123181
  24 H :    0.117628
  25 H :    0.122403
  26 H :    0.121799
  27 H :    0.119939
  28 H :    0.116683
  29 H :    0.118918
  30 H :    0.117930
  31 H :    0.118385
  32 H :    0.118873
  33 H :    0.119100
  34 H :    0.123195
  35 H :    0.125757
  36 H :    0.123142
  37 H :    0.117930
  38 H :    0.118385
  39 H :    0.118873
  40 H :    0.119100
  41 H :    0.123195
  42 H :    0.125757
  43 H :    0.123142

  Mayer bond orders larger than 0.100000
B(  0-C ,  1-C ) :   0.9865 B(  0-C , 11-C ) :   0.9899 B(  0-C , 14-H ) :   0.9187
B(  0-C , 15-H ) :   0.9168 B(  1-C ,  2-C ) :   0.9797 B(  1-C , 16-H ) :   0.9022
B(  1-C , 17-H ) :   0.9175 B(  2-C ,  3-C ) :   0.9630 B(  2-C , 18-H ) :   0.9191
B(  2-C , 19-H ) :   0.9249 B(  3-C ,  4-C ) :   0.9966 B(  3-C , 20-H ) :   0.9201
B(  3-C , 21-H ) :   0.9270 B(  4-C ,  5-C ) :   0.9630 B(  4-C , 22-H ) :   0.9201
B(  4-C , 23-H ) :   0.9270 B(  5-C ,  6-C ) :   0.9797 B(  5-C , 24-H ) :   0.9191
B(  5-C , 25-H ) :   0.9249 B(  6-C ,  7-C ) :   0.9865 B(  6-C , 26-H ) :   0.9022
B(  6-C , 27-H ) :   0.9175 B(  7-C ,  8-C ) :   0.9899 B(  7-C , 28-H ) :   0.9168
B(  7-C , 29-H ) :   0.9187 B(  8-C ,  9-C ) :   0.9862 B(  8-C , 30-H ) :   0.9178
B(  8-C , 31-H ) :   0.9191 B(  9-C , 10-C ) :   0.9935 B(  9-C , 32-H ) :   0.9209
B(  9-C , 33-H ) :   0.9208 B( 10-C , 34-H ) :   0.9297 B( 10-C , 35-H ) :   0.9320
B( 10-C , 36-H ) :   0.9296 B( 11-C , 12-C ) :   0.9862 B( 11-C , 37-H ) :   0.9178
B( 11-C , 38-H ) :   0.9191 B( 12-C , 13-C ) :   0.9935 B( 12-C , 39-H ) :   0.9209
B( 12-C , 40-H ) :   0.9208 B( 13-C , 41-H ) :   0.9297 B( 13-C , 42-H ) :   0.9320
B( 13-C , 43-H ) :   0.9296

Dispersion correction           -0.024786065
FINAL SINGLE POINT ENERGY      -550.373731338425

DIPOLE MOMENT
-------------
                                X             Y             Z
Electronic contribution:      0.00000      -0.00000       5.79508
Nuclear contribution   :     -0.00000      -0.00000      -5.73647
                        -----------------------------------------
Total Dipole Moment    :      0.00000      -0.00000       0.05862
                        -----------------------------------------
Magnitude (a.u.)       :      0.05862
Magnitude (Debye)      :      0.14899

Rotational constants in cm-1:     0.015691     0.012916     0.007492
Rotational constants in MHz :   470.399919   387.219722   224.603386

                             ****ORCA TERMINATED NORMALLY****
TOTAL RUN TIME: 0 days 0 hours 3 minutes 39 seconds 452 msec
