                         Program Version 5.0.3 -  RELEASE  -
|  1> ! PBEh-3c def2/J TightSCF DefGrid3
|  2>
|  3> %maxcore 60000
|  4>
|  5> %pal
|  6> nprocs 4
|  7> end
|  8>
|  9> *xyzfile 0 1 37A.xyz
| 10>
| 11>                          ****END OF INPUT****

CARTESIAN COORDINATES (ANGSTROEM)
---------------------------------
  C      0.852069   -0.918339   -0.265857
  H      0.905710   -1.018339   -1.351608
  H      1.543556   -1.640457    0.166126
  C      1.169041    0.528665    0.146068
  H      1.890297    0.993857   -0.523141
  H      1.607724    0.543537    1.143490
  C     -0.192405    1.269402    0.149383
  H     -0.205923    2.104575   -0.548270
  H     -0.396650    1.680708    1.137390
  C     -1.246560    0.207524   -0.214285
  H     -1.421406    0.208956   -1.291599
  H     -2.204580    0.381753    0.273564
  C     -0.594725   -1.116356    0.182713
  H     -1.072285   -1.983915   -0.270601
  H     -0.633864   -1.241571    1.266626

 Total Charge           Charge          ....    0
 Multiplicity           Mult            ....    1
 Number of Electrons    NEL             ....   40
 Basis Dimension        Dim             ....   95

ORBITAL ENERGIES
----------------

  NO   OCC          E(Eh)            E(eV)
   0   2.0000     -10.424500      -283.6651
   1   2.0000     -10.424450      -283.6637
   2   2.0000     -10.424382      -283.6619
   3   2.0000     -10.424193      -283.6567
   4   2.0000     -10.424070      -283.6534
   5   2.0000      -0.924149       -25.1474
   6   2.0000      -0.786349       -21.3976
   7   2.0000      -0.785998       -21.3881
   8   2.0000      -0.636238       -17.3129
   9   2.0000      -0.627361       -17.0714
  10   2.0000      -0.538823       -14.6621
  11   2.0000      -0.535353       -14.5677
  12   2.0000      -0.467061       -12.7094
  13   2.0000      -0.465429       -12.6650
  14   2.0000      -0.384302       -10.4574
  15   2.0000      -0.383804       -10.4438
  16   2.0000      -0.379655       -10.3309
  17   2.0000      -0.375647       -10.2219
  18   2.0000      -0.368658       -10.0317
  19   2.0000      -0.358550        -9.7566
  20   0.0000       0.131790         3.5862
  21   0.0000       0.146235         3.9793
  22   0.0000       0.191953         5.2233
  23   0.0000       0.192255         5.2315
  24   0.0000       0.221108         6.0166

MULLIKEN ATOMIC CHARGES
-----------------------
   0 C :   -0.431349
   1 H :    0.209111
   2 H :    0.220431
   3 C :   -0.434107
   4 H :    0.220012
   5 H :    0.215860
   6 C :   -0.432938
   7 H :    0.219570
   8 H :    0.216489
   9 C :   -0.432551
  10 H :    0.209922
  11 H :    0.220573
  12 C :   -0.428615
  13 H :    0.220149
  14 H :    0.207445
Sum of atomic charges:    0.0000000

LOEWDIN ATOMIC CHARGES
----------------------
   0 C :   -0.244550
   1 H :    0.120550
   2 H :    0.123744
   3 C :   -0.247024
   4 H :    0.124372
   5 H :    0.123203
   6 C :   -0.247286
   7 H :    0.124398
   8 H :    0.123537
   9 C :   -0.244754
  10 H :    0.120798
  11 H :    0.123816
  12 C :   -0.244629
  13 H :    0.123652
  14 H :    0.120173

  Mayer bond orders larger than 0.100000
B(  0-C ,  1-H ) :   0.9243 B(  0-C ,  2-H ) :   0.9306 B(  0-C ,  3-C ) :   0.9774
B(  0-C , 12-C ) :   0.9800 B(  3-C ,  4-H ) :   0.9336 B(  3-C ,  5-H ) :   0.9308
B(  3-C ,  6-C ) :   0.9611 B(  6-C ,  7-H ) :   0.9337 B(  6-C ,  8-H ) :   0.9316
B(  6-C ,  9-C ) :   0.9750 B(  9-C , 10-H ) :   0.9251 B(  9-C , 11-H ) :   0.9310
B(  9-C , 12-C ) :   0.9806 B( 12-C , 13-H ) :   0.9293 B( 12-C , 14-H ) :   0.9217

Dispersion correction           -0.006580482
FINAL SINGLE POINT ENERGY      -196.125821665125

DIPOLE MOMENT
-------------
                                X             Y             Z
Electronic contribution:     -0.03029      -0.07020      -0.00382
Nuclear contribution   :      0.03032       0.07014       0.00477
                        -----------------------------------------
Total Dipole Moment    :      0.00003      -0.00006       0.00095
                        -----------------------------------------
Magnitude (a.u.)       :      0.00095
Magnitude (Debye)      :      0.00242

Rotational constants in cm-1:     0.218387     0.218290     0.126437
Rotational constants in MHz :  6547.065500  6544.155880  3790.482239

                             ****ORCA TERMINATED NORMALLY****
TOTAL RUN TIME: 0 days 0 hours 1 minutes 3 seconds 603 msec
