                         Program Version 5.0.3 -  RELEASE  -
|  1> ! PBEh-3c def2/J TightSCF DefGrid3
|  2>
|  3> %maxcore 60000
|  4>
|  5> %pal
|  6> nprocs 4
|  7> end
|  8>
|  9> *xyzfile 0 1 nf3-ch2.xyz
| 10>
| 11>                          ****END OF INPUT****

CARTESIAN COORDINATES (ANGSTROEM)
---------------------------------
  C      0.479202    1.409820    0.000000
  N      0.144998    0.147328    0.000000
  H      0.442339    1.894943    0.958148
  H      0.442339    1.894943   -0.958148
  F      0.479202   -0.567550   -1.103655
  F     -1.488947   -0.340468    0.000000
  F      0.479202   -0.567550    1.103655

 Total Charge           Charge          ....    0
 Multiplicity           Mult            ....    1
 Number of Electrons    NEL             ....   42
 Basis Dimension        Dim             ....   79

ORBITAL ENERGIES
----------------

  NO   OCC          E(Eh)            E(eV)
   0   2.0000     -25.193493      -685.5498
   1   2.0000     -25.193377      -685.5466
   2   2.0000     -25.005988      -680.4475
   3   2.0000     -14.967574      -407.2884
   4   2.0000     -10.510171      -285.9963
   5   2.0000      -1.491515       -40.5862
   6   2.0000      -1.395379       -37.9702
   7   2.0000      -1.187992       -32.3269
   8   2.0000      -1.054073       -28.6828
   9   2.0000      -0.810211       -22.0470
  10   2.0000      -0.729234       -19.8435
  11   2.0000      -0.671123       -18.2622
  12   2.0000      -0.651884       -17.7387
  13   2.0000      -0.572676       -15.5833
  14   2.0000      -0.558412       -15.1952
  15   2.0000      -0.550058       -14.9679
  16   2.0000      -0.522254       -14.2113
  17   2.0000      -0.474722       -12.9178
  18   2.0000      -0.393433       -10.7058
  19   2.0000      -0.391352       -10.6492
  20   2.0000      -0.310154        -8.4397
  21   0.0000      -0.044712        -1.2167
  22   0.0000       0.045177         1.2293
  23   0.0000       0.056005         1.5240
  24   0.0000       0.148978         4.0539
  25   0.0000       0.227922         6.2021

MULLIKEN ATOMIC CHARGES
-----------------------
   0 C :   -0.401833
   1 N :    0.751180
   2 H :    0.272489
   3 H :    0.272489
   4 F :   -0.231050
   5 F :   -0.432227
   6 F :   -0.231050
Sum of atomic charges:   -0.0000000

LOEWDIN ATOMIC CHARGES
----------------------
   0 C :   -0.283220
   1 N :    0.543144
   2 H :    0.166117
   3 H :    0.166117
   4 F :   -0.090278
   5 F :   -0.411603
   6 F :   -0.090278

  Mayer bond orders larger than 0.100000
B(  0-C ,  1-N ) :   1.5541 B(  0-C ,  2-H ) :   0.8873 B(  0-C ,  3-H ) :   0.8873
B(  0-C ,  5-F ) :   0.2648 B(  1-N ,  4-F ) :   0.9356 B(  1-N ,  5-F ) :   0.5197
B(  1-N ,  6-F ) :   0.9356

Dispersion correction           -0.001867953
FINAL SINGLE POINT ENERGY      -392.522626991499

DIPOLE MOMENT
-------------
                                X             Y             Z
Electronic contribution:     -0.30995      -3.90978      -0.00000
Nuclear contribution   :      1.30756       4.86849       0.00000
                        -----------------------------------------
Total Dipole Moment    :      0.99761       0.95871      -0.00000
                        -----------------------------------------
Magnitude (a.u.)       :      1.38360
Magnitude (Debye)      :      3.51682

Rotational constants in cm-1:     0.192115     0.168907     0.155627
Rotational constants in MHz :  5759.468983  5063.698044  4665.581928

                             ****ORCA TERMINATED NORMALLY****
TOTAL RUN TIME: 0 days 0 hours 1 minutes 25 seconds 776 msec
