                         Program Version 5.0.3 -  RELEASE  -
|  1> ! PBEh-3c def2/J TightSCF DefGrid3
|  2>
|  3> %maxcore 60000
|  4>
|  5> %pal
|  6> nprocs 4
|  7> end
|  8>
|  9> *xyzfile 0 1 ph3.xyz
| 10>
| 11>                          ****END OF INPUT****

CARTESIAN COORDINATES (ANGSTROEM)
---------------------------------
  P      0.000000    0.000000   -0.579859
  H      0.595835   -1.032016    0.193286
  H      0.595835    1.032016    0.193286
  H     -1.191669    0.000000    0.193286

 Total Charge           Charge          ....    0
 Multiplicity           Mult            ....    1
 Number of Electrons    NEL             ....   18
 Basis Dimension        Dim             ....   24

ORBITAL ENERGIES
----------------

  NO   OCC          E(Eh)            E(eV)
   0   2.0000     -77.728888     -2115.1106
   1   2.0000      -6.809374      -185.2925
   2   2.0000      -4.899499      -133.3221
   3   2.0000      -4.899499      -133.3221
   4   2.0000      -4.897575      -133.2698
   5   2.0000      -0.717972       -19.5370
   6   2.0000      -0.435022       -11.8376
   7   2.0000      -0.435022       -11.8376
   8   2.0000      -0.317684        -8.6446
   9   0.0000       0.070265         1.9120
  10   0.0000       0.070266         1.9120
  11   0.0000       0.162205         4.4138
  12   0.0000       0.386295        10.5116
  13   0.0000       0.514207        13.9923

MULLIKEN ATOMIC CHARGES
-----------------------
   0 P :   -0.257664
   1 H :    0.085889
   2 H :    0.085889
   3 H :    0.085886
Sum of atomic charges:   -0.0000000

LOEWDIN ATOMIC CHARGES
----------------------
   0 P :   -0.093393
   1 H :    0.031133
   2 H :    0.031133
   3 H :    0.031128

  Mayer bond orders larger than 0.100000
B(  0-P ,  1-H ) :   0.9631 B(  0-P ,  2-H ) :   0.9631 B(  0-P ,  3-H ) :   0.9631

Dispersion correction           -0.000715529
FINAL SINGLE POINT ENERGY      -342.730740394853

DIPOLE MOMENT
-------------
                                X             Y             Z
Electronic contribution:     -0.00001       0.00000      -1.64100
Nuclear contribution   :     -0.00000       0.00000       2.04393
                        -----------------------------------------
Total Dipole Moment    :     -0.00001       0.00000       0.40293
                        -----------------------------------------
Magnitude (a.u.)       :      0.40293
Magnitude (Debye)      :      1.02417

Rotational constants in cm-1:     4.443258     4.443258     3.925578
Rotational constants in MHz : 133205.521384 133205.515225 117685.869785

                             ****ORCA TERMINATED NORMALLY****
TOTAL RUN TIME: 0 days 0 hours 0 minutes 36 seconds 698 msec
