                         Program Version 5.0.3 -  RELEASE  -
|  1> ! PBEh-3c def2/J TightSCF DefGrid3
|  2>
|  3> %maxcore 60000
|  4>
|  5> %pal
|  6> nprocs 4
|  7> end
|  8>
|  9> *xyzfile 0 1 55A.xyz
| 10>
| 11>                          ****END OF INPUT****

CARTESIAN COORDINATES (ANGSTROEM)
---------------------------------
  C      0.000000    1.394653    0.000000
  H      0.000000    2.475843    0.000000
  C      1.207805    0.697327    0.000000
  H      2.144143    1.237921    0.000000
  C      1.207805   -0.697327    0.000000
  H      2.144143   -1.237921    0.000000
  C      0.000000   -1.394653    0.000000
  H      0.000000   -2.475843    0.000000
  C     -1.207805   -0.697327    0.000000
  H     -2.144143   -1.237921    0.000000
  C     -1.207805    0.697327    0.000000
  H     -2.144143    1.237921    0.000000

 Total Charge           Charge          ....    0
 Multiplicity           Mult            ....    1
 Number of Electrons    NEL             ....   42
 Basis Dimension        Dim             ....  102

ORBITAL ENERGIES
----------------

  NO   OCC          E(Eh)            E(eV)
   0   2.0000     -10.448919      -284.3295
   1   2.0000     -10.448702      -284.3236
   2   2.0000     -10.448700      -284.3236
   3   2.0000     -10.448092      -284.3070
   4   2.0000     -10.448090      -284.3070
   5   2.0000     -10.447863      -284.3008
   6   2.0000      -0.951688       -25.8967
   7   2.0000      -0.835302       -22.7297
   8   2.0000      -0.835301       -22.7297
   9   2.0000      -0.678961       -18.4755
  10   2.0000      -0.678960       -18.4754
  11   2.0000      -0.591884       -16.1060
  12   2.0000      -0.526248       -14.3199
  13   2.0000      -0.508210       -13.8291
  14   2.0000      -0.481779       -13.1099
  15   2.0000      -0.481776       -13.1098
  16   2.0000      -0.420578       -11.4445
  17   2.0000      -0.398398       -10.8410
  18   2.0000      -0.398397       -10.8409
  19   2.0000      -0.292353        -7.9553
  20   2.0000      -0.292350        -7.9552
  21   0.0000       0.019002         0.5171
  22   0.0000       0.019003         0.5171
  23   0.0000       0.140966         3.8359
  24   0.0000       0.195830         5.3288
  25   0.0000       0.201935         5.4949

MULLIKEN ATOMIC CHARGES
-----------------------
   0 C :   -0.219951
   1 H :    0.219951
   2 C :   -0.219938
   3 H :    0.219938
   4 C :   -0.219938
   5 H :    0.219938
   6 C :   -0.219951
   7 H :    0.219951
   8 C :   -0.219938
   9 H :    0.219938
  10 C :   -0.219938
  11 H :    0.219939
Sum of atomic charges:    0.0000000

LOEWDIN ATOMIC CHARGES
----------------------
   0 C :   -0.135701
   1 H :    0.135696
   2 C :   -0.135695
   3 H :    0.135697
   4 C :   -0.135695
   5 H :    0.135697
   6 C :   -0.135701
   7 H :    0.135696
   8 C :   -0.135695
   9 H :    0.135697
  10 C :   -0.135695
  11 H :    0.135697

  Mayer bond orders larger than 0.100000
B(  0-C ,  1-H ) :   0.9200 B(  0-C ,  2-C ) :   1.4264 B(  0-C , 10-C ) :   1.4264
B(  2-C ,  3-H ) :   0.9200 B(  2-C ,  4-C ) :   1.4264 B(  4-C ,  5-H ) :   0.9200
B(  4-C ,  6-C ) :   1.4264 B(  6-C ,  7-H ) :   0.9200 B(  6-C ,  8-C ) :   1.4264
B(  8-C ,  9-H ) :   0.9200 B(  8-C , 10-C ) :   1.4264 B( 10-C , 11-H ) :   0.9200

Dispersion correction           -0.005879612
FINAL SINGLE POINT ENERGY      -231.725735916319

DIPOLE MOMENT
-------------
                                X             Y             Z
Electronic contribution:     -0.00000       0.00000      -0.00000
Nuclear contribution   :     -0.00000       0.00000       0.00000
                        -----------------------------------------
Total Dipole Moment    :     -0.00000       0.00000      -0.00000
                        -----------------------------------------
Magnitude (a.u.)       :      0.00000
Magnitude (Debye)      :      0.00000

Rotational constants in cm-1:     0.190218     0.190218     0.095109
Rotational constants in MHz :  5702.592198  5702.592189  2851.296097

                             ****ORCA TERMINATED NORMALLY****
TOTAL RUN TIME: 0 days 0 hours 1 minutes 17 seconds 904 msec
