                         Program Version 5.0.3 -  RELEASE  -
|  1> ! PBEh-3c def2/J TightSCF DefGrid3
|  2>
|  3> %maxcore 60000
|  4>
|  5> %pal
|  6> nprocs 4
|  7> end
|  8>
|  9> *xyzfile 0 1 27A.xyz
| 10>
| 11>                          ****END OF INPUT****

CARTESIAN COORDINATES (ANGSTROEM)
---------------------------------
  C      1.206597    0.696629    0.000000
  H      2.143467    1.237531    0.000000
  C      1.206597   -0.696629    0.000000
  H      2.143467   -1.237531    0.000000
  C      0.000000   -1.393258    0.000000
  H      0.000000   -2.475063    0.000000
  C     -1.206597   -0.696629    0.000000
  H     -2.143467   -1.237531    0.000000
  C     -1.206597    0.696629    0.000000
  H     -2.143467    1.237531    0.000000
  C      0.000000    1.393258    0.000000
  H      0.000000    2.475063    0.000000

 Total Charge           Charge          ....    0
 Multiplicity           Mult            ....    1
 Number of Electrons    NEL             ....   42
 Basis Dimension        Dim             ....  102

ORBITAL ENERGIES
----------------

  NO   OCC          E(Eh)            E(eV)
   0   2.0000     -10.448619      -284.3214
   1   2.0000     -10.448398      -284.3154
   2   2.0000     -10.448396      -284.3153
   3   2.0000     -10.447782      -284.2986
   4   2.0000     -10.447780      -284.2986
   5   2.0000     -10.447551      -284.2923
   6   2.0000      -0.952412       -25.9164
   7   2.0000      -0.835605       -22.7380
   8   2.0000      -0.835604       -22.7379
   9   2.0000      -0.679008       -18.4768
  10   2.0000      -0.679008       -18.4767
  11   2.0000      -0.592089       -16.1116
  12   2.0000      -0.525693       -14.3048
  13   2.0000      -0.508640       -13.8408
  14   2.0000      -0.481782       -13.1099
  15   2.0000      -0.481779       -13.1099
  16   2.0000      -0.421088       -11.4584
  17   2.0000      -0.398254       -10.8370
  18   2.0000      -0.398253       -10.8370
  19   2.0000      -0.292565        -7.9611
  20   2.0000      -0.292561        -7.9610
  21   0.0000       0.019315         0.5256
  22   0.0000       0.019316         0.5256
  23   0.0000       0.140626         3.8266
  24   0.0000       0.196549         5.3484
  25   0.0000       0.201679         5.4880

MULLIKEN ATOMIC CHARGES
-----------------------
   0 C :   -0.219786
   1 H :    0.219785
   2 C :   -0.219785
   3 H :    0.219785
   4 C :   -0.219798
   5 H :    0.219798
   6 C :   -0.219785
   7 H :    0.219785
   8 C :   -0.219785
   9 H :    0.219785
  10 C :   -0.219797
  11 H :    0.219798
Sum of atomic charges:   -0.0000000

LOEWDIN ATOMIC CHARGES
----------------------
   0 C :   -0.135668
   1 H :    0.135670
   2 C :   -0.135668
   3 H :    0.135670
   4 C :   -0.135674
   5 H :    0.135669
   6 C :   -0.135668
   7 H :    0.135670
   8 C :   -0.135668
   9 H :    0.135670
  10 C :   -0.135674
  11 H :    0.135669

  Mayer bond orders larger than 0.100000
B(  0-C ,  1-H ) :   0.9200 B(  0-C ,  2-C ) :   1.4266 B(  0-C , 10-C ) :   1.4265
B(  2-C ,  3-H ) :   0.9200 B(  2-C ,  4-C ) :   1.4265 B(  4-C ,  5-H ) :   0.9200
B(  4-C ,  6-C ) :   1.4265 B(  6-C ,  7-H ) :   0.9200 B(  6-C ,  8-C ) :   1.4266
B(  8-C ,  9-H ) :   0.9200 B(  8-C , 10-C ) :   1.4265 B( 10-C , 11-H ) :   0.9200

Dispersion correction           -0.005881364
FINAL SINGLE POINT ENERGY      -231.725841310933

DIPOLE MOMENT
-------------
                                X             Y             Z
Electronic contribution:     -0.00000       0.00000       0.00000
Nuclear contribution   :      0.00000      -0.00000       0.00000
                        -----------------------------------------
Total Dipole Moment    :     -0.00000       0.00000       0.00000
                        -----------------------------------------
Magnitude (a.u.)       :      0.00000
Magnitude (Debye)      :      0.00000

Rotational constants in cm-1:     0.190544     0.190544     0.095272
Rotational constants in MHz :  5712.376978  5712.376479  2856.188364

                             ****ORCA TERMINATED NORMALLY****
TOTAL RUN TIME: 0 days 0 hours 1 minutes 8 seconds 183 msec
