                         Program Version 5.0.3 -  RELEASE  -
|  1> ! PBEh-3c def2/J TightSCF DefGrid3
|  2>
|  3> %maxcore 60000
|  4>
|  5> %pal
|  6> nprocs 4
|  7> end
|  8>
|  9> *xyzfile 0 1 P7X.xyz
| 10>
| 11>                          ****END OF INPUT****

CARTESIAN COORDINATES (ANGSTROEM)
---------------------------------
  C      0.670674    0.526805   -1.061947
  C     -0.468880   -0.501694   -0.763638
  C     -0.468880   -0.501694    0.763638
  C      0.670674    0.526805    1.061947
  C      1.959625   -0.157707   -0.664127
  C      1.959625   -0.157707    0.664127
  O      0.473440    1.448958    0.000000
  C     -1.819831    0.056698   -1.136532
  C     -1.819831    0.056698    1.136532
  O     -2.530976    0.362804    0.000000
  O     -2.268086    0.238483    2.219596
  O     -2.268086    0.238483   -2.219596
  H      0.611610    1.013784   -2.031763
  H     -0.316594   -1.459898   -1.257378
  H     -0.316594   -1.459898    1.257378
  H      0.611610    1.013784    2.031763
  H      2.660251   -0.622351   -1.343239
  H      2.660251   -0.622351    1.343239

 Total Charge           Charge          ....    0
 Multiplicity           Mult            ....    1
 Number of Electrons    NEL             ....   86
 Basis Dimension        Dim             ....  192

ORBITAL ENERGIES
----------------

  NO   OCC          E(Eh)            E(eV)
   0   2.0000     -19.577295      -532.7253
   1   2.0000     -19.533072      -531.5219
   2   2.0000     -19.513588      -530.9917
   3   2.0000     -19.513563      -530.9910
   4   2.0000     -10.605989      -288.6036
   5   2.0000     -10.605934      -288.6021
   6   2.0000     -10.537040      -286.7274
   7   2.0000     -10.536957      -286.7252
   8   2.0000     -10.496653      -285.6285
   9   2.0000     -10.496418      -285.6220
  10   2.0000     -10.478236      -285.1273
  11   2.0000     -10.477233      -285.1000
  12   2.0000      -1.272035       -34.6138
  13   2.0000      -1.211795       -32.9746
  14   2.0000      -1.198631       -32.6164
  15   2.0000      -1.156636       -31.4737
  16   2.0000      -0.955533       -26.0014
  17   2.0000      -0.908574       -24.7236
  18   2.0000      -0.877553       -23.8794
  19   2.0000      -0.779632       -21.2149
  20   2.0000      -0.721418       -19.6308
  21   2.0000      -0.715853       -19.4793
  22   2.0000      -0.660906       -17.9842
  23   2.0000      -0.658315       -17.9137
  24   2.0000      -0.626165       -17.0388
  25   2.0000      -0.610932       -16.6243
  26   2.0000      -0.564002       -15.3473
  27   2.0000      -0.559361       -15.2210
  28   2.0000      -0.541543       -14.7361
  29   2.0000      -0.518887       -14.1196
  30   2.0000      -0.505440       -13.7537
  31   2.0000      -0.505417       -13.7531
  32   2.0000      -0.482613       -13.1326
  33   2.0000      -0.481888       -13.1128
  34   2.0000      -0.469931       -12.7875
  35   2.0000      -0.449973       -12.2444
  36   2.0000      -0.437225       -11.8975
  37   2.0000      -0.422803       -11.5050
  38   2.0000      -0.393382       -10.7045
  39   2.0000      -0.372721       -10.1423
  40   2.0000      -0.357921        -9.7395
  41   2.0000      -0.345422        -9.3994
  42   2.0000      -0.328207        -8.9310
  43   0.0000      -0.010108        -0.2751
  44   0.0000       0.014092         0.3835
  45   0.0000       0.019075         0.5190
  46   0.0000       0.126209         3.4343
  47   0.0000       0.147450         4.0123

MULLIKEN ATOMIC CHARGES
-----------------------
   0 C :   -0.056782
   1 C :   -0.421089
   2 C :   -0.421089
   3 C :   -0.056782
   4 C :   -0.172644
   5 C :   -0.172643
   6 O :   -0.432415
   7 C :    0.590984
   8 C :    0.590984
   9 O :   -0.421483
  10 O :   -0.322889
  11 O :   -0.322889
  12 H :    0.268285
  13 H :    0.303306
  14 H :    0.303306
  15 H :    0.268285
  16 H :    0.237777
  17 H :    0.237778
Sum of atomic charges:   -0.0000000

LOEWDIN ATOMIC CHARGES
----------------------
   0 C :    0.013211
   1 C :   -0.180655
   2 C :   -0.180655
   3 C :    0.013211
   4 C :   -0.136939
   5 C :   -0.136939
   6 O :   -0.220675
   7 C :    0.164753
   8 C :    0.164753
   9 O :   -0.110653
  10 O :   -0.150713
  11 O :   -0.150713
  12 H :    0.145722
  13 H :    0.163826
  14 H :    0.163826
  15 H :    0.145722
  16 H :    0.146459
  17 H :    0.146459

  Mayer bond orders larger than 0.100000
B(  0-C ,  1-C ) :   0.9079 B(  0-C ,  4-C ) :   0.9793 B(  0-C ,  6-O ) :   0.9744
B(  0-C , 12-H ) :   0.9087 B(  1-C ,  2-C ) :   0.9405 B(  1-C ,  7-C ) :   0.9253
B(  1-C , 13-H ) :   0.8821 B(  2-C ,  3-C ) :   0.9079 B(  2-C ,  8-C ) :   0.9253
B(  2-C , 14-H ) :   0.8821 B(  3-C ,  5-C ) :   0.9793 B(  3-C ,  6-O ) :   0.9744
B(  3-C , 15-H ) :   0.9087 B(  4-C ,  5-C ) :   1.8627 B(  4-C , 16-H ) :   0.9148
B(  5-C , 17-H ) :   0.9148 B(  7-C ,  9-O ) :   1.0154 B(  7-C , 11-O ) :   2.1522
B(  8-C ,  9-O ) :   1.0154 B(  8-C , 10-O ) :   2.1522

Dispersion correction           -0.011794415
FINAL SINGLE POINT ENERGY      -608.045040741316

DIPOLE MOMENT
-------------
                                X             Y             Z
Electronic contribution:     -6.61789       1.85552      -0.00000
Nuclear contribution   :      8.57464      -3.08854       0.00000
                        -----------------------------------------
Total Dipole Moment    :      1.95675      -1.23301      -0.00000
                        -----------------------------------------
Magnitude (a.u.)       :      2.31283
Magnitude (Debye)      :      5.87875

Rotational constants in cm-1:     0.054884     0.035473     0.024824
Rotational constants in MHz :  1645.376030  1063.457560   744.195404

                             ****ORCA TERMINATED NORMALLY****
TOTAL RUN TIME: 0 days 0 hours 2 minutes 6 seconds 478 msec
