                         Program Version 5.0.3 -  RELEASE  -
|  1> ! PBEh-3c def2/J TightSCF DefGrid3
|  2>
|  3> %maxcore 60000
|  4>
|  5> %pal
|  6> nprocs 4
|  7> end
|  8>
|  9> *xyzfile 0 1 6d.xyz
| 10>
| 11>                          ****END OF INPUT****

CARTESIAN COORDINATES (ANGSTROEM)
---------------------------------
  N      1.143022   -1.175261    0.032061
  C     -0.197091   -1.124299    0.079195
  C     -0.921111    0.072254    0.058687
  C     -0.202083    1.260481   -0.022779
  N      1.107444    1.230473   -0.066084
  C      1.719216    0.013858   -0.029818
  N     -2.241276   -0.283613    0.117134
  C     -2.255820   -1.649348    0.169208
  N     -1.060196   -2.194282    0.147926
  O     -0.847596    2.441640   -0.060234
  N      3.092338    0.059681   -0.011655
  H     -3.182004   -2.196067    0.222657
  H      3.500413    0.895876   -0.388223
  H      3.542060   -0.803069   -0.261798
  H     -3.035460    0.331251    0.122478
  H     -0.161854    3.120425   -0.108755

 Total Charge           Charge          ....    0
 Multiplicity           Mult            ....    1
 Number of Electrons    NEL             ....   78
 Basis Dimension        Dim             ....  175

ORBITAL ENERGIES
----------------

  NO   OCC          E(Eh)            E(eV)
   0   2.0000     -19.548943      -531.9538
   1   2.0000     -14.710112      -400.2825
   2   2.0000     -14.637971      -398.3194
   3   2.0000     -14.636600      -398.2821
   4   2.0000     -14.627862      -398.0444
   5   2.0000     -14.619166      -397.8077
   6   2.0000     -10.565889      -287.5125
   7   2.0000     -10.546635      -286.9885
   8   2.0000     -10.525364      -286.4097
   9   2.0000     -10.505711      -285.8749
  10   2.0000     -10.482922      -285.2548
  11   2.0000      -1.209260       -32.9056
  12   2.0000      -1.144913       -31.1547
  13   2.0000      -1.095935       -29.8219
  14   2.0000      -1.002759       -27.2865
  15   2.0000      -0.992945       -27.0194
  16   2.0000      -0.961713       -26.1695
  17   2.0000      -0.858830       -23.3700
  18   2.0000      -0.753479       -20.5032
  19   2.0000      -0.727123       -19.7860
  20   2.0000      -0.707237       -19.2449
  21   2.0000      -0.664343       -18.0777
  22   2.0000      -0.642101       -17.4725
  23   2.0000      -0.598016       -16.2728
  24   2.0000      -0.561142       -15.2694
  25   2.0000      -0.544287       -14.8108
  26   2.0000      -0.541066       -14.7232
  27   2.0000      -0.530533       -14.4365
  28   2.0000      -0.492004       -13.3881
  29   2.0000      -0.487787       -13.2734
  30   2.0000      -0.474409       -12.9093
  31   2.0000      -0.456381       -12.4188
  32   2.0000      -0.384892       -10.4734
  33   2.0000      -0.368891       -10.0380
  34   2.0000      -0.344243        -9.3673
  35   2.0000      -0.342723        -9.3260
  36   2.0000      -0.309277        -8.4159
  37   2.0000      -0.308231        -8.3874
  38   2.0000      -0.252539        -6.8719
  39   0.0000      -0.004424        -0.1204
  40   0.0000       0.049890         1.3576
  41   0.0000       0.083139         2.2623
  42   0.0000       0.111140         3.0243
  43   0.0000       0.136649         3.7184

MULLIKEN ATOMIC CHARGES
-----------------------
   0 N :   -0.437303
   1 C :    0.338143
   2 C :    0.142900
   3 C :    0.465270
   4 N :   -0.493641
   5 C :    0.522743
   6 N :   -0.660985
   7 C :    0.122983
   8 N :   -0.393055
   9 O :   -0.597673
  10 N :   -0.796907
  11 H :    0.244194
  12 H :    0.355528
  13 H :    0.362839
  14 H :    0.378364
  15 H :    0.446602
Sum of atomic charges:   -0.0000000

LOEWDIN ATOMIC CHARGES
----------------------
   0 N :   -0.199040
   1 C :    0.054001
   2 C :   -0.099422
   3 C :    0.110305
   4 N :   -0.238269
   5 C :    0.108352
   6 N :   -0.149586
   7 C :    0.006141
   8 N :   -0.179216
   9 O :   -0.294606
  10 N :   -0.374250
  11 H :    0.136169
  12 H :    0.251794
  13 H :    0.256121
  14 H :    0.274219
  15 H :    0.337286

  Mayer bond orders larger than 0.100000
B(  0-N ,  1-C ) :   1.3868 B(  0-N ,  5-C ) :   1.5477 B(  1-C ,  2-C ) :   1.2467
B(  1-C ,  8-N ) :   1.3287 B(  2-C ,  3-C ) :   1.2223 B(  2-C ,  6-N ) :   0.9711
B(  3-C ,  4-N ) :   1.5587 B(  3-C ,  9-O ) :   1.1450 B(  4-N ,  5-C ) :   1.3270
B(  5-C , 10-N ) :   1.1032 B(  6-N ,  7-C ) :   1.2122 B(  6-N , 14-H ) :   0.8187
B(  7-C ,  8-N ) :   1.6387 B(  7-C , 11-H ) :   0.9091 B(  9-O , 15-H ) :   0.7526
B( 10-N , 12-H ) :   0.8381 B( 10-N , 13-H ) :   0.8346

Dispersion correction           -0.009436007
FINAL SINGLE POINT ENERGY      -541.389693856434

DIPOLE MOMENT
-------------
                                X             Y             Z
Electronic contribution:     -1.65329      -0.20113       0.12931
Nuclear contribution   :      0.82764       1.59557      -0.53648
                        -----------------------------------------
Total Dipole Moment    :     -0.82565       1.39445      -0.40718
                        -----------------------------------------
Magnitude (a.u.)       :      1.67092
Magnitude (Debye)      :      4.24713

Rotational constants in cm-1:     0.063833     0.038008     0.023835
Rotational constants in MHz :  1913.660285  1139.450993   714.546363

                             ****ORCA TERMINATED NORMALLY****
TOTAL RUN TIME: 0 days 0 hours 2 minutes 5 seconds 92 msec
