                         Program Version 5.0.3 -  RELEASE  -
|  1> ! PBEh-3c def2/J TightSCF DefGrid3
|  2>
|  3> %maxcore 60000
|  4>
|  5> %pal
|  6> nprocs 4
|  7> end
|  8>
|  9> *xyzfile 0 1 03.xyz
| 10>
| 11>                          ****END OF INPUT****

CARTESIAN COORDINATES (ANGSTROEM)
---------------------------------
  C     -1.888896   -0.179692    0.000000
  C      1.888896    0.179692    0.000000
  O     -1.170435   -1.166590    0.000000
  O     -1.493280    1.073689    0.000000
  O      1.493280   -1.073689    0.000000
  O      1.170435    1.166590    0.000000
  H     -0.498833    1.107195    0.000000
  H     -2.979489   -0.258829    0.000000
  H      2.979489    0.258829    0.000000
  H      0.498833   -1.107195    0.000000

 Total Charge           Charge          ....    0
 Multiplicity           Mult            ....    1
 Number of Electrons    NEL             ....   48
 Basis Dimension        Dim             ....   98

ORBITAL ENERGIES
----------------

  NO   OCC          E(Eh)            E(eV)
   0   2.0000     -19.550664      -532.0006
   1   2.0000     -19.550645      -532.0001
   2   2.0000     -19.518921      -531.1368
   3   2.0000     -19.518919      -531.1368
   4   2.0000     -10.603027      -288.5230
   5   2.0000     -10.603020      -288.5228
   6   2.0000      -1.243657       -33.8416
   7   2.0000      -1.231765       -33.5180
   8   2.0000      -1.153865       -31.3983
   9   2.0000      -1.140735       -31.0410
  10   2.0000      -0.766729       -20.8638
  11   2.0000      -0.735868       -20.0240
  12   2.0000      -0.631593       -17.1865
  13   2.0000      -0.597454       -16.2576
  14   2.0000      -0.584253       -15.8983
  15   2.0000      -0.561682       -15.2841
  16   2.0000      -0.529524       -14.4091
  17   2.0000      -0.521364       -14.1870
  18   2.0000      -0.496430       -13.5086
  19   2.0000      -0.454508       -12.3678
  20   2.0000      -0.401347       -10.9212
  21   2.0000      -0.391551       -10.6547
  22   2.0000      -0.379354       -10.3227
  23   2.0000      -0.361720        -9.8429
  24   0.0000       0.020227         0.5504
  25   0.0000       0.024597         0.6693
  26   0.0000       0.164899         4.4871
  27   0.0000       0.187824         5.1110
  28   0.0000       0.210264         5.7216

MULLIKEN ATOMIC CHARGES
-----------------------
   0 C :    0.325932
   1 C :    0.325932
   2 O :   -0.448449
   3 O :   -0.565931
   4 O :   -0.565931
   5 O :   -0.448449
   6 H :    0.477165
   7 H :    0.211283
   8 H :    0.211283
   9 H :    0.477166
Sum of atomic charges:   -0.0000000

LOEWDIN ATOMIC CHARGES
----------------------
   0 C :    0.116972
   1 C :    0.116972
   2 O :   -0.268015
   3 O :   -0.281736
   4 O :   -0.281736
   5 O :   -0.268015
   6 H :    0.324869
   7 H :    0.107910
   8 H :    0.107910
   9 H :    0.324869

  Mayer bond orders larger than 0.100000
B(  0-C ,  2-O ) :   1.8563 B(  0-C ,  3-O ) :   1.3068 B(  0-C ,  7-H ) :   0.8739
B(  1-C ,  4-O ) :   1.3068 B(  1-C ,  5-O ) :   1.8563 B(  1-C ,  8-H ) :   0.8739
B(  2-O ,  3-O ) :   0.1054 B(  2-O ,  9-H ) :   0.1638 B(  3-O ,  6-H ) :   0.6012
B(  4-O ,  5-O ) :   0.1054 B(  4-O ,  9-H ) :   0.6012 B(  5-O ,  6-H ) :   0.1638

Dispersion correction           -0.003453622
FINAL SINGLE POINT ENERGY      -378.743013827325

DIPOLE MOMENT
-------------
                                X             Y             Z
Electronic contribution:      0.00000      -0.00000      -0.00000
Nuclear contribution   :      0.00000       0.00000       0.00000
                        -----------------------------------------
Total Dipole Moment    :      0.00000      -0.00000      -0.00000
                        -----------------------------------------
Magnitude (a.u.)       :      0.00000
Magnitude (Debye)      :      0.00000

Rotational constants in cm-1:     0.201142     0.076870     0.055615
Rotational constants in MHz :  6030.085246  2304.502554  1667.310632

                             ****ORCA TERMINATED NORMALLY****
TOTAL RUN TIME: 0 days 0 hours 1 minutes 48 seconds 819 msec
