                         Program Version 5.0.3 -  RELEASE  -
|  1> ! PBEh-3c def2/J TightSCF DefGrid3
|  2>
|  3> %maxcore 60000
|  4>
|  5> %pal
|  6> nprocs 4
|  7> end
|  8>
|  9> *xyzfile 0 1 13ts_5a.xyz
| 10>
| 11>                          ****END OF INPUT****

CARTESIAN COORDINATES (ANGSTROEM)
---------------------------------
  C     -1.148013   -0.579756    0.031207
  C     -1.080220    0.781925    0.026390
  N      1.305437    1.131216    0.117437
  N      1.575341   -0.095910    0.004451
  C      1.063378   -1.194812    0.004786
  H     -1.313475   -1.118004    0.958401
  H     -1.348139   -1.129980   -0.879635
  H     -1.113760    1.354190    0.942575
  H     -1.162812    1.343818   -0.895874
  H      1.770931    1.660379   -0.624838
  H      1.451331   -2.153067    0.315099

 Total Charge           Charge          ....    0
 Multiplicity           Mult            ....    1
 Number of Electrons    NEL             ....   38
 Basis Dimension        Dim             ....   87

ORBITAL ENERGIES
----------------

  NO   OCC          E(Eh)            E(eV)
   0   2.0000     -14.730700      -400.8427
   1   2.0000     -14.663786      -399.0219
   2   2.0000     -10.496699      -285.6297
   3   2.0000     -10.434796      -283.9452
   4   2.0000     -10.433896      -283.9208
   5   2.0000      -1.141166       -31.0527
   6   2.0000      -0.920071       -25.0364
   7   2.0000      -0.833736       -22.6871
   8   2.0000      -0.654521       -17.8104
   9   2.0000      -0.644425       -17.5357
  10   2.0000      -0.584505       -15.9052
  11   2.0000      -0.521593       -14.1933
  12   2.0000      -0.513918       -13.9844
  13   2.0000      -0.480018       -13.0620
  14   2.0000      -0.461767       -12.5653
  15   2.0000      -0.399315       -10.8659
  16   2.0000      -0.318440        -8.6652
  17   2.0000      -0.298441        -8.1210
  18   2.0000      -0.262377        -7.1396
  19   0.0000      -0.002981        -0.0811
  20   0.0000       0.035765         0.9732
  21   0.0000       0.087623         2.3843
  22   0.0000       0.157884         4.2962
  23   0.0000       0.181221         4.9313

MULLIKEN ATOMIC CHARGES
-----------------------
   0 C :   -0.493859
   1 C :   -0.414763
   2 N :   -0.436228
   3 N :    0.026476
   4 C :   -0.171300
   5 H :    0.222390
   6 H :    0.226533
   7 H :    0.231563
   8 H :    0.212470
   9 H :    0.335901
  10 H :    0.260816
Sum of atomic charges:   -0.0000000

LOEWDIN ATOMIC CHARGES
----------------------
   0 C :   -0.295017
   1 C :   -0.260562
   2 N :   -0.290434
   3 N :    0.089934
   4 C :   -0.160363
   5 H :    0.132146
   6 H :    0.133321
   7 H :    0.136063
   8 H :    0.127710
   9 H :    0.230237
  10 H :    0.156965

  Mayer bond orders larger than 0.100000
B(  0-C ,  1-C ) :   1.6708 B(  0-C ,  4-C ) :   0.2780 B(  0-C ,  5-H ) :   0.9212
B(  0-C ,  6-H ) :   0.9226 B(  1-C ,  2-N ) :   0.2416 B(  1-C ,  7-H ) :   0.9234
B(  1-C ,  8-H ) :   0.9301 B(  2-N ,  3-N ) :   1.4637 B(  2-N ,  4-C ) :   0.3411
B(  2-N ,  9-H ) :   0.8221 B(  3-N ,  4-C ) :   2.0985 B(  4-C , 10-H ) :   0.8694

Dispersion correction           -0.004728799
FINAL SINGLE POINT ENERGY      -226.755977973818

DIPOLE MOMENT
-------------
                                X             Y             Z
Electronic contribution:      3.93733      -0.12339       0.06352
Nuclear contribution   :     -3.57581      -0.23837      -0.35493
                        -----------------------------------------
Total Dipole Moment    :      0.36151      -0.36176      -0.29140
                        -----------------------------------------
Magnitude (a.u.)       :      0.58863
Magnitude (Debye)      :      1.49617

Rotational constants in cm-1:     0.262579     0.154776     0.102150
Rotational constants in MHz :  7871.928565  4640.059884  3062.380639

                             ****ORCA TERMINATED NORMALLY****
TOTAL RUN TIME: 0 days 0 hours 1 minutes 46 seconds 302 msec
