                         Program Version 5.0.3 -  RELEASE  -
|  1> ! PBEh-3c def2/J TightSCF DefGrid3
|  2>
|  3> %maxcore 60000
|  4>
|  5> %pal
|  6> nprocs 4
|  7> end
|  8>
|  9> *xyzfile 0 1 SER_xah.xyz
| 10>
| 11>                          ****END OF INPUT****

CARTESIAN COORDINATES (ANGSTROEM)
---------------------------------
  N      1.047521   -0.762339    0.356002
  C     -0.254266   -0.780308   -0.289891
  C     -1.104996    0.425203    0.126696
  O     -2.137964    0.298431    0.790459
  C     -0.965147   -2.076768    0.075585
  O     -2.244337   -2.150397   -0.502697
  H      1.162841   -1.290857    1.204554
  H     -0.090773   -0.735802   -1.367026
  H     -0.384680   -2.917251   -0.301497
  H     -1.014055   -2.153673    1.168156
  H     -2.733907   -1.427354   -0.084541
  N     -0.632668    1.608603   -0.296116
  H      0.258450    1.606322   -0.779332
  C     -1.297292    2.845066    0.057467
  H     -0.929892    3.637765   -0.586647
  H     -2.369277    2.732627   -0.080179
  H     -1.116450    3.115431    1.097374
  C      2.087626   -0.023782   -0.102386
  O      1.981556    0.727693   -1.071605
  C      3.389548   -0.188638    0.637619
  H      3.737786    0.791947    0.951551
  H      4.125699   -0.594968   -0.052321
  H      3.313339   -0.841709    1.503160

 Total Charge           Charge          ....    0
 Multiplicity           Mult            ....    1
 Number of Electrons    NEL             ....   86
 Basis Dimension        Dim             ....  189

ORBITAL ENERGIES
----------------

  NO   OCC          E(Eh)            E(eV)
   0   2.0000     -19.479699      -530.0696
   1   2.0000     -19.478124      -530.0267
   2   2.0000     -19.467897      -529.7484
   3   2.0000     -14.688184      -399.6858
   4   2.0000     -14.659422      -398.9032
   5   2.0000     -10.572058      -287.6803
   6   2.0000     -10.549775      -287.0740
   7   2.0000     -10.495330      -285.5925
   8   2.0000     -10.490773      -285.4684
   9   2.0000     -10.466829      -284.8169
  10   2.0000     -10.459327      -284.6128
  11   2.0000      -1.166843       -31.7514
  12   2.0000      -1.150495       -31.3066
  13   2.0000      -1.119464       -30.4622
  14   2.0000      -1.048736       -28.5376
  15   2.0000      -1.022076       -27.8121
  16   2.0000      -0.880174       -23.9507
  17   2.0000      -0.826322       -22.4854
  18   2.0000      -0.796233       -21.6666
  19   2.0000      -0.720065       -19.5940
  20   2.0000      -0.682799       -18.5799
  21   2.0000      -0.654656       -17.8141
  22   2.0000      -0.616395       -16.7730
  23   2.0000      -0.579950       -15.7812
  24   2.0000      -0.575868       -15.6702
  25   2.0000      -0.551968       -15.0198
  26   2.0000      -0.532611       -14.4931
  27   2.0000      -0.522922       -14.2294
  28   2.0000      -0.510732       -13.8977
  29   2.0000      -0.494990       -13.4694
  30   2.0000      -0.485916       -13.2224
  31   2.0000      -0.479349       -13.0437
  32   2.0000      -0.464295       -12.6341
  33   2.0000      -0.457955       -12.4616
  34   2.0000      -0.448848       -12.2138
  35   2.0000      -0.433220       -11.7885
  36   2.0000      -0.425705       -11.5840
  37   2.0000      -0.393958       -10.7201
  38   2.0000      -0.349905        -9.5214
  39   2.0000      -0.332911        -9.0590
  40   2.0000      -0.326651        -8.8886
  41   2.0000      -0.305920        -8.3245
  42   2.0000      -0.302020        -8.2184
  43   0.0000       0.030842         0.8393
  44   0.0000       0.053870         1.4659
  45   0.0000       0.105276         2.8647
  46   0.0000       0.145119         3.9489
  47   0.0000       0.160902         4.3784

MULLIKEN ATOMIC CHARGES
-----------------------
   0 N :   -0.625401
   1 C :   -0.257543
   2 C :    0.574713
   3 O :   -0.470200
   4 C :   -0.143969
   5 O :   -0.631439
   6 H :    0.363796
   7 H :    0.285403
   8 H :    0.222367
   9 H :    0.179798
  10 H :    0.441665
  11 N :   -0.645814
  12 H :    0.411459
  13 C :   -0.489789
  14 H :    0.223697
  15 H :    0.247265
  16 H :    0.226127
  17 C :    0.544126
  18 O :   -0.461146
  19 C :   -0.743209
  20 H :    0.263294
  21 H :    0.267145
  22 H :    0.217653
Sum of atomic charges:    0.0000000

LOEWDIN ATOMIC CHARGES
----------------------
   0 N :   -0.214831
   1 C :   -0.117544
   2 C :    0.106312
   3 O :   -0.299872
   4 C :   -0.092766
   5 O :   -0.403763
   6 H :    0.259306
   7 H :    0.156530
   8 H :    0.124117
   9 H :    0.102495
  10 H :    0.316028
  11 N :   -0.235528
  12 H :    0.270857
  13 C :   -0.251916
  14 H :    0.129178
  15 H :    0.140317
  16 H :    0.124587
  17 C :    0.115876
  18 O :   -0.298449
  19 C :   -0.383471
  20 H :    0.159558
  21 H :    0.162803
  22 H :    0.130176

  Mayer bond orders larger than 0.100000
B(  0-N ,  1-C ) :   0.8986 B(  0-N ,  6-H ) :   0.8179 B(  0-N , 17-C ) :   1.1684
B(  1-C ,  2-C ) :   0.8750 B(  1-C ,  4-C ) :   0.9588 B(  1-C ,  7-H ) :   0.8707
B(  2-C ,  3-O ) :   1.8773 B(  2-C , 11-N ) :   1.2249 B(  4-C ,  5-O ) :   1.0717
B(  4-C ,  8-H ) :   0.9103 B(  4-C ,  9-H ) :   0.9000 B(  5-O , 10-H ) :   0.7324
B( 11-N , 12-H ) :   0.7303 B( 11-N , 13-C ) :   0.9550 B( 13-C , 14-H ) :   0.9255
B( 13-C , 15-H ) :   0.9114 B( 13-C , 16-H ) :   0.9166 B( 17-C , 18-O ) :   1.8805
B( 17-C , 19-C ) :   0.9343 B( 19-C , 20-H ) :   0.9069 B( 19-C , 21-H ) :   0.9041
B( 19-C , 22-H ) :   0.9208

Dispersion correction           -0.012551814
FINAL SINGLE POINT ENERGY      -569.849794050192

DIPOLE MOMENT
-------------
                                X             Y             Z
Electronic contribution:     -2.67973      -1.71447      -1.89731
Nuclear contribution   :      4.12763       1.91769       2.70442
                        -----------------------------------------
Total Dipole Moment    :      1.44790       0.20322       0.80711
                        -----------------------------------------
Magnitude (a.u.)       :      1.67007
Magnitude (Debye)      :      4.24498

Rotational constants in cm-1:     0.043366     0.028606     0.019278
Rotational constants in MHz :  1300.078149   857.591528   577.925382

                             ****ORCA TERMINATED NORMALLY****
TOTAL RUN TIME: 0 days 0 hours 2 minutes 11 seconds 755 msec
