                         Program Version 5.0.3 -  RELEASE  -
|  1> ! PBEh-3c def2/J TightSCF DefGrid3
|  2>
|  3> %maxcore 60000
|  4>
|  5> %pal
|  6> nprocs 4
|  7> end
|  8>
|  9> *xyzfile 0 1 07B.xyz
| 10>
| 11>                          ****END OF INPUT****

CARTESIAN COORDINATES (ANGSTROEM)
---------------------------------
  C     -1.591236    1.002936    0.248968
  H     -1.084842    1.964385    0.214098
  H     -2.001780    0.856800    1.246845
  H     -2.420883    0.993423   -0.452537
  C     -0.675605   -0.152003   -0.066948
  O     -1.099800   -1.271913   -0.352030
  N      0.650531    0.109722   -0.007749
  H      0.948544    1.020150    0.289938
  C      1.632937   -0.930390   -0.230492
  H      1.276380   -1.581327   -1.022669
  H      2.573307   -0.476866   -0.529006
  H      1.792447   -1.534917    0.661583

 Total Charge           Charge          ....    0
 Multiplicity           Mult            ....    1
 Number of Electrons    NEL             ....   40
 Basis Dimension        Dim             ....   89

ORBITAL ENERGIES
----------------

  NO   OCC          E(Eh)            E(eV)
   0   2.0000     -19.444446      -529.1103
   1   2.0000     -14.660493      -398.9323
   2   2.0000     -10.540530      -286.8224
   3   2.0000     -10.465202      -284.7726
   4   2.0000     -10.440127      -284.0903
   5   2.0000      -1.130430       -30.7606
   6   2.0000      -1.016824       -27.6692
   7   2.0000      -0.841159       -22.8891
   8   2.0000      -0.769676       -20.9439
   9   2.0000      -0.654755       -17.8168
  10   2.0000      -0.569146       -15.4872
  11   2.0000      -0.528196       -14.3729
  12   2.0000      -0.520952       -14.1758
  13   2.0000      -0.480949       -13.0873
  14   2.0000      -0.462838       -12.5945
  15   2.0000      -0.452070       -12.3014
  16   2.0000      -0.442426       -12.0390
  17   2.0000      -0.400438       -10.8965
  18   2.0000      -0.302103        -8.2206
  19   2.0000      -0.296136        -8.0583
  20   0.0000       0.068660         1.8683
  21   0.0000       0.118424         3.2225
  22   0.0000       0.176617         4.8060
  23   0.0000       0.182969         4.9788
  24   0.0000       0.197030         5.3615

MULLIKEN ATOMIC CHARGES
-----------------------
   0 C :   -0.750309
   1 H :    0.208621
   2 H :    0.253965
   3 H :    0.263760
   4 C :    0.518184
   5 O :   -0.437551
   6 N :   -0.620509
   7 H :    0.352513
   8 C :   -0.485454
   9 H :    0.258139
  10 H :    0.212620
  11 H :    0.226020
Sum of atomic charges:    0.0000000

LOEWDIN ATOMIC CHARGES
----------------------
   0 C :   -0.390091
   1 H :    0.126065
   2 H :    0.155352
   3 H :    0.157877
   4 C :    0.102101
   5 O :   -0.290608
   6 N :   -0.249913
   7 H :    0.250346
   8 C :   -0.254726
   9 H :    0.147222
  10 H :    0.123136
  11 H :    0.123239

  Mayer bond orders larger than 0.100000
B(  0-C ,  1-H ) :   0.9220 B(  0-C ,  2-H ) :   0.9090 B(  0-C ,  3-H ) :   0.9123
B(  0-C ,  4-C ) :   0.9303 B(  4-C ,  5-O ) :   1.9855 B(  4-C ,  6-N ) :   1.1447
B(  6-N ,  7-H ) :   0.8305 B(  6-N ,  8-C ) :   0.9499 B(  8-C ,  9-H ) :   0.9055
B(  8-C , 10-H ) :   0.9270 B(  8-C , 11-H ) :   0.9174

Dispersion correction           -0.004444678
FINAL SINGLE POINT ENERGY      -247.988849569393

DIPOLE MOMENT
-------------
                                X             Y             Z
Electronic contribution:     -1.48521      -1.60653      -0.54031
Nuclear contribution   :      2.35588       2.81533       0.91051
                        -----------------------------------------
Total Dipole Moment    :      0.87067       1.20879       0.37020
                        -----------------------------------------
Magnitude (a.u.)       :      1.53502
Magnitude (Debye)      :      3.90171

Rotational constants in cm-1:     0.336205     0.130424     0.097377
Rotational constants in MHz : 10079.181095  3910.004628  2919.290625

                             ****ORCA TERMINATED NORMALLY****
TOTAL RUN TIME: 0 days 0 hours 1 minutes 8 seconds 520 msec
