                         Program Version 5.0.3 -  RELEASE  -
|  1> ! PBEh-3c def2/J TightSCF DefGrid3
|  2>
|  3> %maxcore 60000
|  4>
|  5> %pal
|  6> nprocs 4
|  7> end
|  8>
|  9> *xyzfile 0 1 SI5H12_4.xyz
| 10>
| 11>                          ****END OF INPUT****

CARTESIAN COORDINATES (ANGSTROEM)
---------------------------------
  Si     0.000000   -2.061414   -0.872922
  Si     0.000000    0.000000   -2.029773
  Si     0.000000    2.061414   -0.872922
  Si     0.000000    2.040664    1.472967
  Si     0.000000   -2.040664    1.472967
  H      1.197996   -2.825484   -1.318220
  H     -1.197996   -2.825484   -1.318220
  H     -1.196768    0.000000   -2.915183
  H      1.196768    0.000000   -2.915183
  H      1.197996    2.825484   -1.318220
  H     -1.197996    2.825484   -1.318220
  H      0.000000    3.440414    1.972296
  H     -1.206085    1.352781    1.997469
  H      1.206085    1.352781    1.997469
  H      0.000000   -3.440414    1.972296
  H      1.206085   -1.352781    1.997469
  H     -1.206085   -1.352781    1.997469

 Total Charge           Charge          ....    0
 Multiplicity           Mult            ....    1
 Number of Electrons    NEL             ....   82
 Basis Dimension        Dim             ....  114

ORBITAL ENERGIES
----------------

  NO   OCC          E(Eh)            E(eV)
   0   2.0000     -66.737468     -1816.0188
   1   2.0000     -66.735216     -1815.9576
   2   2.0000     -66.735201     -1815.9571
   3   2.0000     -66.734347     -1815.9339
   4   2.0000     -66.734294     -1815.9325
   5   2.0000      -5.519348      -150.1891
   6   2.0000      -5.517648      -150.1428
   7   2.0000      -5.517636      -150.1425
   8   2.0000      -5.517421      -150.1367
   9   2.0000      -5.517392      -150.1359
  10   2.0000      -3.810032      -103.6762
  11   2.0000      -3.809998      -103.6753
  12   2.0000      -3.809544      -103.6630
  13   2.0000      -3.808350      -103.6305
  14   2.0000      -3.808349      -103.6304
  15   2.0000      -3.808285      -103.6287
  16   2.0000      -3.808276      -103.6285
  17   2.0000      -3.808040      -103.6220
  18   2.0000      -3.808036      -103.6219
  19   2.0000      -3.807998      -103.6209
  20   2.0000      -3.807983      -103.6205
  21   2.0000      -3.807928      -103.6190
  22   2.0000      -3.807886      -103.6179
  23   2.0000      -3.807500      -103.6073
  24   2.0000      -3.807491      -103.6071
  25   2.0000      -0.657495       -17.8914
  26   2.0000      -0.632326       -17.2065
  27   2.0000      -0.605255       -16.4698
  28   2.0000      -0.562499       -15.3064
  29   2.0000      -0.531233       -14.4556
  30   2.0000      -0.432298       -11.7634
  31   2.0000      -0.419187       -11.4066
  32   2.0000      -0.415119       -11.2960
  33   2.0000      -0.410561       -11.1719
  34   2.0000      -0.399106       -10.8602
  35   2.0000      -0.386656       -10.5214
  36   2.0000      -0.379533       -10.3276
  37   2.0000      -0.378943       -10.3116
  38   2.0000      -0.344437        -9.3726
  39   2.0000      -0.329184        -8.9576
  40   2.0000      -0.327077        -8.9002
  41   0.0000       0.005757         0.1567
  42   0.0000       0.011035         0.3003
  43   0.0000       0.012441         0.3385
  44   0.0000       0.016097         0.4380
  45   0.0000       0.048696         1.3251

MULLIKEN ATOMIC CHARGES
-----------------------
   0 Si:   -0.055996
   1 Si:   -0.051409
   2 Si:   -0.055996
   3 Si:    0.018988
   4 Si:    0.018988
   5 H :    0.017314
   6 H :    0.017314
   7 H :    0.022685
   8 H :    0.022685
   9 H :    0.017314
  10 H :    0.017314
  11 H :    0.007028
  12 H :   -0.000815
  13 H :   -0.000815
  14 H :    0.007028
  15 H :   -0.000815
  16 H :   -0.000815
Sum of atomic charges:   -0.0000000

LOEWDIN ATOMIC CHARGES
----------------------
   0 Si:   -0.002107
   1 Si:    0.004492
   2 Si:   -0.002107
   3 Si:    0.043980
   4 Si:    0.043980
   5 H :   -0.003343
   6 H :   -0.003343
   7 H :   -0.001541
   8 H :   -0.001541
   9 H :   -0.003343
  10 H :   -0.003343
  11 H :   -0.010645
  12 H :   -0.012623
  13 H :   -0.012623
  14 H :   -0.010645
  15 H :   -0.012623
  16 H :   -0.012623

  Mayer bond orders larger than 0.100000
B(  0-Si,  1-Si) :   0.9589 B(  0-Si,  4-Si) :   0.9852 B(  0-Si,  5-H ) :   0.9646
B(  0-Si,  6-H ) :   0.9646 B(  1-Si,  2-Si) :   0.9589 B(  1-Si,  7-H ) :   0.9685
B(  1-Si,  8-H ) :   0.9685 B(  2-Si,  3-Si) :   0.9852 B(  2-Si,  9-H ) :   0.9646
B(  2-Si, 10-H ) :   0.9646 B(  3-Si, 11-H ) :   0.9682 B(  3-Si, 12-H ) :   0.9624
B(  3-Si, 13-H ) :   0.9624 B(  4-Si, 14-H ) :   0.9682 B(  4-Si, 15-H ) :   0.9624
B(  4-Si, 16-H ) :   0.9624

Dispersion correction           -0.008862588
FINAL SINGLE POINT ENERGY     -1452.856721388834

DIPOLE MOMENT
-------------
                                X             Y             Z
Electronic contribution:     -0.00000       0.00000      -2.37340
Nuclear contribution   :      0.00000      -0.00000       2.44328
                        -----------------------------------------
Total Dipole Moment    :     -0.00000       0.00000       0.06988
                        -----------------------------------------
Magnitude (a.u.)       :      0.06988
Magnitude (Debye)      :      0.17763

Rotational constants in cm-1:     0.049627     0.030618     0.019575
Rotational constants in MHz :  1487.776311   917.894659   586.835256

                             ****ORCA TERMINATED NORMALLY****
TOTAL RUN TIME: 0 days 0 hours 1 minutes 31 seconds 830 msec
