                         Program Version 5.0.3 -  RELEASE  -
|  1> ! PBEh-3c def2/J TightSCF DefGrid3
|  2>
|  3> %maxcore 60000
|  4>
|  5> %pal
|  6> nprocs 4
|  7> end
|  8>
|  9> *xyzfile 0 1 20.xyz
| 10>
| 11>                          ****END OF INPUT****

CARTESIAN COORDINATES (ANGSTROEM)
---------------------------------
  P      0.000000    0.000000    0.579214
  H     -0.597090    1.034190   -0.193071
  H     -0.597090   -1.034190   -0.193071
  H      1.194179    0.000000   -0.193071

 Total Charge           Charge          ....    0
 Multiplicity           Mult            ....    1
 Number of Electrons    NEL             ....   18
 Basis Dimension        Dim             ....   24

ORBITAL ENERGIES
----------------

  NO   OCC          E(Eh)            E(eV)
   0   2.0000     -77.729268     -2115.1209
   1   2.0000      -6.809634      -185.2996
   2   2.0000      -4.899764      -133.3294
   3   2.0000      -4.899764      -133.3294
   4   2.0000      -4.897838      -133.2769
   5   2.0000      -0.717549       -19.5255
   6   2.0000      -0.434964       -11.8360
   7   2.0000      -0.434964       -11.8360
   8   2.0000      -0.317425        -8.6376
   9   0.0000       0.070068         1.9067
  10   0.0000       0.070070         1.9067
  11   0.0000       0.161290         4.3889
  12   0.0000       0.385876        10.5002
  13   0.0000       0.514359        13.9964

MULLIKEN ATOMIC CHARGES
-----------------------
   0 P :   -0.256901
   1 H :    0.085635
   2 H :    0.085635
   3 H :    0.085632
Sum of atomic charges:   -0.0000000

LOEWDIN ATOMIC CHARGES
----------------------
   0 P :   -0.093364
   1 H :    0.031123
   2 H :    0.031123
   3 H :    0.031118

  Mayer bond orders larger than 0.100000
B(  0-P ,  1-H ) :   0.9631 B(  0-P ,  2-H ) :   0.9631 B(  0-P ,  3-H ) :   0.9631

Dispersion correction           -0.000715411
FINAL SINGLE POINT ENERGY      -342.730706571542

DIPOLE MOMENT
-------------
                                X             Y             Z
Electronic contribution:      0.00001       0.00000       1.63873
Nuclear contribution   :      0.00000       0.00000      -2.04166
                        -----------------------------------------
Total Dipole Moment    :      0.00001       0.00000      -0.40293
                        -----------------------------------------
Magnitude (a.u.)       :      0.40293
Magnitude (Debye)      :      1.02416

Rotational constants in cm-1:     4.436956     4.436956     3.909094
Rotational constants in MHz : 133016.591183 133016.587698 117191.691366

                             ****ORCA TERMINATED NORMALLY****
TOTAL RUN TIME: 0 days 0 hours 0 minutes 6 seconds 597 msec
