                         Program Version 5.0.3 -  RELEASE  -
|  1> ! PBEh-3c def2/J TightSCF DefGrid3
|  2>
|  3> %maxcore 60000
|  4>
|  5> %pal
|  6> nprocs 4
|  7> end
|  8>
|  9> *xyzfile 0 1 C.xyz
| 10>
| 11>                          ****END OF INPUT****

CARTESIAN COORDINATES (ANGSTROEM)
---------------------------------
  O      2.597986    1.377042    0.000000
  N      0.332498    1.306213    0.000000
  N     -1.938153    1.179113    0.000000
  N      1.614520   -0.653505    0.000000
  C     -0.758283    0.560603    0.000000
  C     -0.716012   -0.870512    0.000000
  C      1.555029    0.734667    0.000000
  C      0.511498   -1.428608    0.000000
  H     -1.611775   -1.474532    0.000000
  H      0.672763   -2.498020    0.000000
  H     -2.804213    0.668352    0.000000
  H     -1.983532    2.184707    0.000000
  H      2.527672   -1.085520    0.000000

 Total Charge           Charge          ....    0
 Multiplicity           Mult            ....    1
 Number of Electrons    NEL             ....   58
 Basis Dimension        Dim             ....  130

ORBITAL ENERGIES
----------------

  NO   OCC          E(Eh)            E(eV)
   0   2.0000     -19.426831      -528.6310
   1   2.0000     -14.693945      -399.8426
   2   2.0000     -14.668936      -399.1620
   3   2.0000     -14.608003      -397.5040
   4   2.0000     -10.552542      -287.1493
   5   2.0000     -10.545106      -286.9469
   6   2.0000     -10.524007      -286.3728
   7   2.0000     -10.458166      -284.5812
   8   2.0000      -1.147774       -31.2325
   9   2.0000      -1.077374       -29.3168
  10   2.0000      -1.054337       -28.6900
  11   2.0000      -0.971844       -26.4452
  12   2.0000      -0.881014       -23.9736
  13   2.0000      -0.752176       -20.4678
  14   2.0000      -0.734763       -19.9939
  15   2.0000      -0.643710       -17.5162
  16   2.0000      -0.639631       -17.4052
  17   2.0000      -0.604516       -16.4497
  18   2.0000      -0.563847       -15.3431
  19   2.0000      -0.519139       -14.1265
  20   2.0000      -0.509943       -13.8763
  21   2.0000      -0.498459       -13.5638
  22   2.0000      -0.455813       -12.4033
  23   2.0000      -0.443243       -12.0613
  24   2.0000      -0.396320       -10.7844
  25   2.0000      -0.318444        -8.6653
  26   2.0000      -0.301212        -8.1964
  27   2.0000      -0.298808        -8.1310
  28   2.0000      -0.269927        -7.3451
  29   0.0000      -0.006960        -0.1894
  30   0.0000       0.056874         1.5476
  31   0.0000       0.108899         2.9633
  32   0.0000       0.125200         3.4069
  33   0.0000       0.164566         4.4781

MULLIKEN ATOMIC CHARGES
-----------------------
   0 O :   -0.438777
   1 N :   -0.476415
   2 N :   -0.808062
   3 N :   -0.654706
   4 C :    0.527375
   5 C :   -0.440009
   6 C :    0.568689
   7 C :    0.100289
   8 H :    0.231271
   9 H :    0.260275
  10 H :    0.365541
  11 H :    0.382495
  12 H :    0.382034
Sum of atomic charges:   -0.0000000

LOEWDIN ATOMIC CHARGES
----------------------
   0 O :   -0.287462
   1 N :   -0.234765
   2 N :   -0.332053
   3 N :   -0.171811
   4 C :    0.103177
   5 C :   -0.265536
   6 C :    0.102221
   7 C :   -0.002883
   8 H :    0.144726
   9 H :    0.143673
  10 H :    0.255293
  11 H :    0.268329
  12 H :    0.277091

  Mayer bond orders larger than 0.100000
B(  0-O ,  6-C ) :   2.0046 B(  1-N ,  4-C ) :   1.6012 B(  1-N ,  6-C ) :   1.2404
B(  2-N ,  4-C ) :   1.1460 B(  2-N , 10-H ) :   0.8391 B(  2-N , 11-H ) :   0.8188
B(  3-N ,  6-C ) :   0.9723 B(  3-N ,  7-C ) :   1.1714 B(  3-N , 12-H ) :   0.8089
B(  4-C ,  5-C ) :   1.1202 B(  5-C ,  7-C ) :   1.6123 B(  5-C ,  8-H ) :   0.9063
B(  7-C ,  9-H ) :   0.9026

Dispersion correction           -0.006825126
FINAL SINGLE POINT ENERGY      -394.084202470559

DIPOLE MOMENT
-------------
                                X             Y             Z
Electronic contribution:      2.96813       1.50717      -0.00000
Nuclear contribution   :     -4.90001      -3.45823       0.00000
                        -----------------------------------------
Total Dipole Moment    :     -1.93188      -1.95107      -0.00000
                        -----------------------------------------
Magnitude (a.u.)       :      2.74569
Magnitude (Debye)      :      6.97900

Rotational constants in cm-1:     0.131268     0.068346     0.044945
Rotational constants in MHz :  3935.318326  2048.964002  1347.417308

                             ****ORCA TERMINATED NORMALLY****
TOTAL RUN TIME: 0 days 0 hours 1 minutes 29 seconds 840 msec
