                         Program Version 5.0.3 -  RELEASE  -
|  1> ! PBEh-3c def2/J TightSCF DefGrid3
|  2>
|  3> %maxcore 60000
|  4>
|  5> %pal
|  6> nprocs 4
|  7> end
|  8>
|  9> *xyzfile 0 1 ARG_xci.xyz
| 10>
| 11>                          ****END OF INPUT****

CARTESIAN COORDINATES (ANGSTROEM)
---------------------------------
  N      1.931472   -0.114029    0.108893
  H      2.664262    0.298315    0.667228
  C      0.586281    0.207881    0.527227
  H     -0.033938    0.195873   -0.364795
  C      0.059863   -0.810423    1.551658
  C      0.589503    1.599237    1.133475
  H      0.889863   -1.068146    2.209436
  H     -0.696512   -0.334033    2.181518
  C     -0.527107   -2.055817    0.878143
  O      1.535201    2.000541    1.813182
  H     -0.263577   -2.958728    1.431912
  H     -0.110625   -2.157973   -0.124976
  C     -2.055433   -2.000742    0.803336
  H     -2.470466   -2.112062    1.805429
  H     -2.430997   -2.843976    0.223369
  N     -2.618324   -0.760438    0.277723
  H     -2.644691    0.006648    0.932686
  C     -2.328480   -0.298134   -0.985921
  N     -2.182261    0.974220   -1.169507
  N     -2.183765   -1.284409   -1.927407
  H     -2.095187    1.184109   -2.159225
  H     -2.743463   -2.112974   -1.833368
  H     -1.988330   -0.991283   -2.867232
  N     -0.543288    2.292833    0.911179
  C     -0.697124    3.627905    1.448689
  H     -1.184936    1.949576    0.190092
  H     -0.419286    3.634641    2.499610
  H     -1.735509    3.929410    1.346202
  H     -0.062927    4.347671    0.930855
  C      2.208246   -0.585912   -1.134681
  C      3.677411   -0.662811   -1.476398
  O      1.338386   -0.933390   -1.928954
  H      4.323471   -0.500332   -0.617358
  H      3.883014   -1.638018   -1.908862
  H      3.895422    0.088495   -2.233049

 Total Charge           Charge          ....    0
 Multiplicity           Mult            ....    1
 Number of Electrons    NEL             ....  124
 Basis Dimension        Dim             ....  278

ORBITAL ENERGIES
----------------

  NO   OCC          E(Eh)            E(eV)
   0   2.0000     -19.445048      -529.1267
   1   2.0000     -19.444969      -529.1245
   2   2.0000     -14.656149      -398.8141
   3   2.0000     -14.651802      -398.6958
   4   2.0000     -14.648852      -398.6155
   5   2.0000     -14.638132      -398.3238
   6   2.0000     -14.597068      -397.2064
   7   2.0000     -10.552673      -287.1528
   8   2.0000     -10.539500      -286.7944
   9   2.0000     -10.527849      -286.4773
  10   2.0000     -10.480083      -285.1776
  11   2.0000     -10.468639      -284.8662
  12   2.0000     -10.452193      -284.4186
  13   2.0000     -10.437759      -284.0259
  14   2.0000     -10.434113      -283.9266
  15   2.0000     -10.432490      -283.8825
  16   2.0000      -1.133247       -30.8372
  17   2.0000      -1.123912       -30.5832
  18   2.0000      -1.094447       -29.7814
  19   2.0000      -1.014162       -27.5967
  20   2.0000      -1.002843       -27.2887
  21   2.0000      -0.993092       -27.0234
  22   2.0000      -0.948316       -25.8050
  23   2.0000      -0.885096       -24.0847
  24   2.0000      -0.838064       -22.8049
  25   2.0000      -0.805510       -21.9191
  26   2.0000      -0.777002       -21.1433
  27   2.0000      -0.730310       -19.8727
  28   2.0000      -0.693526       -18.8718
  29   2.0000      -0.658320       -17.9138
  30   2.0000      -0.649036       -17.6612
  31   2.0000      -0.633963       -17.2510
  32   2.0000      -0.612504       -16.6671
  33   2.0000      -0.593688       -16.1551
  34   2.0000      -0.580544       -15.7974
  35   2.0000      -0.551417       -15.0048
  36   2.0000      -0.544070       -14.8049
  37   2.0000      -0.529265       -14.4020
  38   2.0000      -0.517838       -14.0911
  39   2.0000      -0.509812       -13.8727
  40   2.0000      -0.502374       -13.6703
  41   2.0000      -0.496025       -13.4975
  42   2.0000      -0.491955       -13.3868
  43   2.0000      -0.476448       -12.9648
  44   2.0000      -0.463198       -12.6043
  45   2.0000      -0.462475       -12.5846
  46   2.0000      -0.454888       -12.3781
  47   2.0000      -0.447086       -12.1658
  48   2.0000      -0.440031       -11.9739
  49   2.0000      -0.435798       -11.8587
  50   2.0000      -0.415550       -11.3077
  51   2.0000      -0.404897       -11.0178
  52   2.0000      -0.397045       -10.8041
  53   2.0000      -0.387287       -10.5386
  54   2.0000      -0.377573       -10.2743
  55   2.0000      -0.337591        -9.1863
  56   2.0000      -0.316289        -8.6067
  57   2.0000      -0.306656        -8.3445
  58   2.0000      -0.298368        -8.1190
  59   2.0000      -0.291590        -7.9346
  60   2.0000      -0.280752        -7.6396
  61   2.0000      -0.279437        -7.6039
  62   0.0000       0.064867         1.7651
  63   0.0000       0.076363         2.0779
  64   0.0000       0.079826         2.1722
  65   0.0000       0.102763         2.7963
  66   0.0000       0.132816         3.6141

MULLIKEN ATOMIC CHARGES
-----------------------
   0 N :   -0.624633
   1 H :    0.372249
   2 C :   -0.228834
   3 H :    0.292232
   4 C :   -0.411942
   5 C :    0.537606
   6 H :    0.242760
   7 H :    0.210760
   8 C :   -0.461933
   9 O :   -0.457522
  10 H :    0.220352
  11 H :    0.277932
  12 C :   -0.306940
  13 H :    0.232876
  14 H :    0.214159
  15 N :   -0.601754
  16 H :    0.360264
  17 C :    0.571426
  18 N :   -0.678652
  19 N :   -0.780053
  20 H :    0.298517
  21 H :    0.361568
  22 H :    0.366687
  23 N :   -0.668767
  24 C :   -0.490244
  25 H :    0.425392
  26 H :    0.237625
  27 H :    0.217045
  28 H :    0.223451
  29 C :    0.523885
  30 C :   -0.747093
  31 O :   -0.453680
  32 H :    0.218494
  33 H :    0.254234
  34 H :    0.252536
Sum of atomic charges:   -0.0000000

LOEWDIN ATOMIC CHARGES
----------------------
   0 N :   -0.217729
   1 H :    0.263842
   2 C :   -0.100651
   3 H :    0.154539
   4 C :   -0.229224
   5 C :    0.102038
   6 H :    0.137693
   7 H :    0.120791
   8 C :   -0.262059
   9 O :   -0.304103
  10 H :    0.128665
  11 H :    0.149037
  12 C :   -0.152747
  13 H :    0.127397
  14 H :    0.117360
  15 N :   -0.260758
  16 H :    0.255938
  17 C :    0.092032
  18 N :   -0.460262
  19 N :   -0.383901
  20 H :    0.220280
  21 H :    0.254139
  22 H :    0.255906
  23 N :   -0.257845
  24 C :   -0.253314
  25 H :    0.265231
  26 H :    0.134943
  27 H :    0.125255
  28 H :    0.122437
  29 C :    0.105261
  30 C :   -0.387965
  31 O :   -0.300692
  32 H :    0.130085
  33 H :    0.153627
  34 H :    0.154756

  Mayer bond orders larger than 0.100000
B(  0-N ,  1-H ) :   0.7941 B(  0-N ,  2-C ) :   0.9353 B(  0-N , 29-C ) :   1.1646
B(  2-C ,  3-H ) :   0.8497 B(  2-C ,  4-C ) :   0.9328 B(  2-C ,  5-C ) :   0.9094
B(  4-C ,  6-H ) :   0.9191 B(  4-C ,  7-H ) :   0.9191 B(  4-C ,  8-C ) :   0.9418
B(  5-C ,  9-O ) :   1.9521 B(  5-C , 23-N ) :   1.1885 B(  8-C , 10-H ) :   0.9202
B(  8-C , 11-H ) :   0.8845 B(  8-C , 12-C ) :   0.9653 B( 12-C , 13-H ) :   0.9183
B( 12-C , 14-H ) :   0.9190 B( 12-C , 15-N ) :   0.9722 B( 15-N , 16-H ) :   0.8217
B( 15-N , 17-C ) :   1.1115 B( 17-C , 18-N ) :   1.7695 B( 17-C , 19-N ) :   1.1089
B( 18-N , 20-H ) :   0.8554 B( 18-N , 25-H ) :   0.1327 B( 19-N , 21-H ) :   0.8234
B( 19-N , 22-H ) :   0.8349 B( 23-N , 24-C ) :   0.9680 B( 23-N , 25-H ) :   0.6792
B( 24-C , 26-H ) :   0.9155 B( 24-C , 27-H ) :   0.9276 B( 24-C , 28-H ) :   0.9172
B( 29-C , 30-C ) :   0.9273 B( 29-C , 31-O ) :   1.9457 B( 30-C , 32-H ) :   0.9207
B( 30-C , 33-H ) :   0.9140 B( 30-C , 34-H ) :   0.9103

Dispersion correction           -0.023504010
FINAL SINGLE POINT ENERGY      -776.980866050369

DIPOLE MOMENT
-------------
                                X             Y             Z
Electronic contribution:      0.74322       1.58718      -1.96371
Nuclear contribution   :     -1.64955      -2.53413       1.51148
                        -----------------------------------------
Total Dipole Moment    :     -0.90633      -0.94695      -0.45223
                        -----------------------------------------
Magnitude (a.u.)       :      1.38660
Magnitude (Debye)      :      3.52447

Rotational constants in cm-1:     0.017476     0.015579     0.011089
Rotational constants in MHz :   523.904702   467.038516   332.426267

                             ****ORCA TERMINATED NORMALLY****
TOTAL RUN TIME: 0 days 0 hours 5 minutes 15 seconds 807 msec
