                         Program Version 5.0.3 -  RELEASE  -
|  1> ! PBEh-3c def2/J TightSCF DefGrid3
|  2>
|  3> %maxcore 60000
|  4>
|  5> %pal
|  6> nprocs 4
|  7> end
|  8>
|  9> *xyzfile 0 1 PCH_F3CI.xyz
| 10>
| 11>                          ****END OF INPUT****

CARTESIAN COORDINATES (ANGSTROEM)
---------------------------------
  P      0.000000    0.000000   -3.628273
  C      0.000000    0.000000   -5.152747
  H      0.000000    0.000000   -6.224379
  I      0.000000    0.000000    0.095628
  C      0.000000    0.000000    2.236336
  F      0.000000    1.244253    2.706617
  F     -1.077555   -0.622126    2.706617
  F      1.077555   -0.622126    2.706617

 Total Charge           Charge          ....    0
 Multiplicity           Mult            ....    1
 Number of Electrons    NEL             ....   80
 Basis Dimension        Dim             ....  121

ORBITAL ENERGIES
----------------

  NO   OCC          E(Eh)            E(eV)
   0   2.0000     -77.755718     -2115.8406
   1   2.0000     -25.157644      -684.5743
   2   2.0000     -25.157547      -684.5716
   3   2.0000     -25.157544      -684.5716
   4   2.0000     -10.750042      -292.5235
   5   2.0000     -10.495495      -285.5969
   6   2.0000      -7.121013      -193.7726
   7   2.0000      -6.833719      -185.9550
   8   2.0000      -5.105669      -138.9323
   9   2.0000      -5.087305      -138.4326
  10   2.0000      -5.087305      -138.4326
  11   2.0000      -4.923156      -133.9659
  12   2.0000      -4.923156      -133.9659
  13   2.0000      -4.923054      -133.9631
  14   2.0000      -2.059672       -56.0465
  15   2.0000      -2.053823       -55.8874
  16   2.0000      -2.053823       -55.8874
  17   2.0000      -2.037855       -55.4528
  18   2.0000      -2.037853       -55.4528
  19   2.0000      -1.473420       -40.0938
  20   2.0000      -1.378154       -37.5015
  21   2.0000      -1.378150       -37.5014
  22   2.0000      -0.848414       -23.0865
  23   2.0000      -0.814121       -22.1533
  24   2.0000      -0.773651       -21.0521
  25   2.0000      -0.693486       -18.8707
  26   2.0000      -0.693485       -18.8707
  27   2.0000      -0.644942       -17.5498
  28   2.0000      -0.617834       -16.8121
  29   2.0000      -0.566935       -15.4271
  30   2.0000      -0.566932       -15.4270
  31   2.0000      -0.528396       -14.3784
  32   2.0000      -0.528391       -14.3782
  33   2.0000      -0.505181       -13.7467
  34   2.0000      -0.438746       -11.9389
  35   2.0000      -0.408397       -11.1130
  36   2.0000      -0.340492        -9.2652
  37   2.0000      -0.340492        -9.2652
  38   2.0000      -0.332975        -9.0607
  39   2.0000      -0.332974        -9.0607
  40   0.0000      -0.042375        -1.1531
  41   0.0000      -0.031887        -0.8677
  42   0.0000      -0.031887        -0.8677
  43   0.0000       0.137381         3.7383
  44   0.0000       0.160050         4.3552

MULLIKEN ATOMIC CHARGES
-----------------------
   0 P :    0.149003
   1 C :   -0.399090
   2 H :    0.256806
   3 I :    0.045244
   4 C :    0.751913
   5 F :   -0.267953
   6 F :   -0.267962
   7 F :   -0.267962
Sum of atomic charges:    0.0000000

LOEWDIN ATOMIC CHARGES
----------------------
   0 P :    0.226755
   1 C :   -0.369446
   2 H :    0.155790
   3 I :    0.094044
   4 C :    0.236658
   5 F :   -0.114597
   6 F :   -0.114602
   7 F :   -0.114602

  Mayer bond orders larger than 0.100000
B(  0-P ,  1-C ) :   2.9090 B(  1-C ,  2-H ) :   0.8915 B(  3-I ,  4-C ) :   0.9815
B(  4-C ,  5-F ) :   1.0231 B(  4-C ,  6-F ) :   1.0231 B(  4-C ,  7-F ) :   1.0231

Dispersion correction           -0.002870966
FINAL SINGLE POINT ENERGY     -1014.211602078345

DIPOLE MOMENT
-------------
                                X             Y             Z
Electronic contribution:      0.00000       0.00001      12.38361
Nuclear contribution   :      0.00000       0.00000     -13.06995
                        -----------------------------------------
Total Dipole Moment    :      0.00000       0.00002      -0.68634
                        -----------------------------------------
Magnitude (a.u.)       :      0.68634
Magnitude (Debye)      :      1.74453

Rotational constants in cm-1:     0.191051     0.013089     0.013089
Rotational constants in MHz :  5727.579613   392.403691   392.403677

                             ****ORCA TERMINATED NORMALLY****
TOTAL RUN TIME: 0 days 0 hours 1 minutes 47 seconds 484 msec
