                         Program Version 5.0.3 -  RELEASE  -
|  1> ! PBEh-3c def2/J TightSCF DefGrid3
|  2>
|  3> %maxcore 60000
|  4>
|  5> %pal
|  6> nprocs 4
|  7> end
|  8>
|  9> *xyzfile -1 1 1f.xyz
| 10>
| 11>                          ****END OF INPUT****

CARTESIAN COORDINATES (ANGSTROEM)
---------------------------------
  H      6.041635    0.790248    2.280265
  O      5.153167    0.514215    2.004625
  C      4.858020   -0.736678    2.648681
  H      5.201971   -0.726189    3.689493
  H      5.348075   -1.569133    2.125514
  C      3.366981   -0.979599    2.615930
  H      3.174397   -1.982185    3.019986
  O      2.672751   -0.008894    3.454305
  C      1.432875    0.348786    2.875456
  H      0.619650    0.212850    3.590142
  N      1.462364    1.805578    2.535657
  C      2.638576    2.489746    2.372178
  H      3.535694    1.895580    2.516911
  C      2.674896    3.808460    2.050546
  H      3.618803    4.323635    1.930645
  C      1.450597    4.542309    1.867224
  O      1.338555    5.740636    1.577212
  N      0.297315    3.759868    2.043474
  H     -0.597711    4.229919    1.934777
  C      0.226550    2.420606    2.366908
  O     -0.837046    1.813996    2.487405
  C      2.685869   -0.853552    1.254887
  H      3.127922   -0.027909    0.685920
  C      1.231624   -0.503673    1.615378
  H      0.730527    0.064061    0.828101
  O      0.475752   -1.658611    1.965299
  H      0.409952   -2.180040    1.142904
  O      2.856997   -2.073901    0.527895
  P      2.665713   -2.030808   -1.100477
  O      2.931028   -3.422567   -1.588618
  O      3.375756   -0.855983   -1.708272
  O      1.049065   -1.723987   -1.045976
  C      0.332271   -1.392472   -2.245973
  H      0.881515   -1.715168   -3.138047
  H      0.199831   -0.304511   -2.287500
  C     -1.005838   -2.095477   -2.230470
  H     -0.854182   -3.181144   -2.195261
  O     -1.768541   -1.705209   -1.056711
  C     -3.143181   -1.590868   -1.368652
  H     -3.740332   -2.217414   -0.702538
  N     -3.565983   -0.170263   -1.134285
  C     -2.674237    0.807246   -0.777489
  H     -1.653854    0.464166   -0.671966
  C     -3.044505    2.094125   -0.561912
  H     -2.314501    2.838490   -0.274861
  C     -4.425308    2.478925   -0.698884
  O     -4.899161    3.610022   -0.533866
  N     -5.271583    1.412859   -1.043489
  H     -6.261269    1.625418   -1.142162
  C     -4.925126    0.097803   -1.267832
  O     -5.744417   -0.774476   -1.555685
  C     -1.905929   -1.740497   -3.412176
  H     -1.796855   -0.682924   -3.679012
  C     -3.311647   -2.000567   -2.839554
  H     -4.094831   -1.428313   -3.344048
  O     -3.594312   -3.399222   -2.874171
  H     -3.136751   -3.738040   -3.670317
  O     -1.589731   -2.576339   -4.524235
  H     -1.909863   -2.142935   -5.333277

 Total Charge           Charge          ....   -1
 Multiplicity           Mult            ....    1
 Number of Electrons    NEL             ....  286
 Basis Dimension        Dim             ....  602

ORBITAL ENERGIES
----------------

  NO   OCC          E(Eh)            E(eV)
   0   2.0000     -77.709490     -2114.5827
   1   2.0000     -19.463479      -529.6282
   2   2.0000     -19.452064      -529.3176
   3   2.0000     -19.435600      -528.8696
   4   2.0000     -19.431455      -528.7568
   5   2.0000     -19.427928      -528.6608
   6   2.0000     -19.412930      -528.2527
   7   2.0000     -19.398789      -527.8679
   8   2.0000     -19.398508      -527.8602
   9   2.0000     -19.389652      -527.6192
  10   2.0000     -19.387454      -527.5594
  11   2.0000     -19.387237      -527.5535
  12   2.0000     -19.382528      -527.4254
  13   2.0000     -19.268822      -524.3313
  14   2.0000     -19.262234      -524.1520
  15   2.0000     -14.646344      -398.5473
  16   2.0000     -14.629931      -398.1007
  17   2.0000     -14.628865      -398.0717
  18   2.0000     -14.615875      -397.7182
  19   2.0000     -10.537101      -286.7291
  20   2.0000     -10.522174      -286.3229
  21   2.0000     -10.497776      -285.6590
  22   2.0000     -10.486540      -285.3533
  23   2.0000     -10.483089      -285.2593
  24   2.0000     -10.459603      -284.6203
  25   2.0000     -10.449482      -284.3449
  26   2.0000     -10.448664      -284.3226
  27   2.0000     -10.439708      -284.0789
  28   2.0000     -10.434973      -283.9501
  29   2.0000     -10.427550      -283.7481
  30   2.0000     -10.416957      -283.4598
  31   2.0000     -10.413713      -283.3715
  32   2.0000     -10.405860      -283.1578
  33   2.0000     -10.401765      -283.0464
  34   2.0000     -10.394854      -282.8584
  35   2.0000     -10.383891      -282.5600
  36   2.0000     -10.372603      -282.2529
  37   2.0000      -6.754089      -183.7881
  38   2.0000      -4.849276      -131.9555
  39   2.0000      -4.847973      -131.9201
  40   2.0000      -4.845333      -131.8482
  41   2.0000      -1.126827       -30.6625
  42   2.0000      -1.110428       -30.2163
  43   2.0000      -1.110113       -30.2077
  44   2.0000      -1.091156       -29.6919
  45   2.0000      -1.087949       -29.6046
  46   2.0000      -1.073309       -29.2062
  47   2.0000      -1.061451       -28.8836
  48   2.0000      -1.058146       -28.7936
  49   2.0000      -1.054803       -28.7027
  50   2.0000      -1.047336       -28.4995
  51   2.0000      -1.021266       -27.7901
  52   2.0000      -1.011332       -27.5197
  53   2.0000      -0.999314       -27.1927
  54   2.0000      -0.995741       -27.0955
  55   2.0000      -0.961498       -26.1637
  56   2.0000      -0.947753       -25.7897
  57   2.0000      -0.898965       -24.4621
  58   2.0000      -0.853342       -23.2206
  59   2.0000      -0.825553       -22.4645
  60   2.0000      -0.811631       -22.0856
  61   2.0000      -0.809075       -22.0160
  62   2.0000      -0.781664       -21.2702
  63   2.0000      -0.777994       -21.1703
  64   2.0000      -0.758737       -20.6463
  65   2.0000      -0.702588       -19.1184
  66   2.0000      -0.696712       -18.9585
  67   2.0000      -0.689935       -18.7741
  68   2.0000      -0.686815       -18.6892
  69   2.0000      -0.656635       -17.8679
  70   2.0000      -0.640883       -17.4393
  71   2.0000      -0.625775       -17.0282
  72   2.0000      -0.603234       -16.4148
  73   2.0000      -0.593703       -16.1555
  74   2.0000      -0.579605       -15.7719
  75   2.0000      -0.575397       -15.6574
  76   2.0000      -0.557741       -15.1769
  77   2.0000      -0.553185       -15.0529
  78   2.0000      -0.544176       -14.8078
  79   2.0000      -0.540672       -14.7124
  80   2.0000      -0.525716       -14.3054
  81   2.0000      -0.518642       -14.1130
  82   2.0000      -0.515448       -14.0260
  83   2.0000      -0.504581       -13.7303
  84   2.0000      -0.502298       -13.6682
  85   2.0000      -0.493609       -13.4318
  86   2.0000      -0.484942       -13.1960
  87   2.0000      -0.482183       -13.1209
  88   2.0000      -0.469935       -12.7876
  89   2.0000      -0.466632       -12.6977
  90   2.0000      -0.460930       -12.5426
  91   2.0000      -0.455041       -12.3823
  92   2.0000      -0.452171       -12.3042
  93   2.0000      -0.447102       -12.1663
  94   2.0000      -0.444569       -12.0973
  95   2.0000      -0.437471       -11.9042
  96   2.0000      -0.435465       -11.8496
  97   2.0000      -0.429981       -11.7004
  98   2.0000      -0.425874       -11.5886
  99   2.0000      -0.414045       -11.2667
 100   2.0000      -0.407638       -11.0924
 101   2.0000      -0.406692       -11.0666
 102   2.0000      -0.403213       -10.9720
 103   2.0000      -0.397639       -10.8203
 104   2.0000      -0.393457       -10.7065
 105   2.0000      -0.392077       -10.6690
 106   2.0000      -0.389550       -10.6002
 107   2.0000      -0.381930       -10.3928
 108   2.0000      -0.378519       -10.3000
 109   2.0000      -0.375880       -10.2282
 110   2.0000      -0.369296       -10.0491
 111   2.0000      -0.364957        -9.9310
 112   2.0000      -0.353533        -9.6201
 113   2.0000      -0.343366        -9.3435
 114   2.0000      -0.340999        -9.2791
 115   2.0000      -0.336612        -9.1597
 116   2.0000      -0.333007        -9.0616
 117   2.0000      -0.329750        -8.9729
 118   2.0000      -0.327918        -8.9231
 119   2.0000      -0.301698        -8.2096
 120   2.0000      -0.296114        -8.0577
 121   2.0000      -0.290585        -7.9072
 122   2.0000      -0.287885        -7.8337
 123   2.0000      -0.284333        -7.7371
 124   2.0000      -0.277701        -7.5566
 125   2.0000      -0.272319        -7.4102
 126   2.0000      -0.269392        -7.3305
 127   2.0000      -0.266362        -7.2481
 128   2.0000      -0.264641        -7.2013
 129   2.0000      -0.263072        -7.1585
 130   2.0000      -0.256185        -6.9712
 131   2.0000      -0.252516        -6.8713
 132   2.0000      -0.250661        -6.8208
 133   2.0000      -0.248002        -6.7485
 134   2.0000      -0.238228        -6.4825
 135   2.0000      -0.230192        -6.2639
 136   2.0000      -0.220772        -6.0075
 137   2.0000      -0.212897        -5.7932
 138   2.0000      -0.199040        -5.4161
 139   2.0000      -0.194417        -5.2904
 140   2.0000      -0.185379        -5.0444
 141   2.0000      -0.157487        -4.2854
 142   2.0000      -0.140743        -3.8298
 143   0.0000       0.056554         1.5389
 144   0.0000       0.068874         1.8742
 145   0.0000       0.106387         2.8949
 146   0.0000       0.120585         3.2813
 147   0.0000       0.145954         3.9716

MULLIKEN ATOMIC CHARGES
-----------------------
   0 H :    0.419027
   1 O :   -0.627298
   2 C :   -0.180373
   3 H :    0.190980
   4 H :    0.225249
   5 C :    0.031434
   6 H :    0.239501
   7 O :   -0.507685
   8 C :    0.197382
   9 H :    0.272917
  10 N :   -0.570995
  11 C :    0.082601
  12 H :    0.325909
  13 C :   -0.482770
  14 H :    0.242220
  15 C :    0.558350
  16 O :   -0.434886
  17 N :   -0.736254
  18 H :    0.389686
  19 C :    0.712642
  20 O :   -0.444247
  21 C :   -0.009478
  22 H :    0.258822
  23 C :   -0.026018
  24 H :    0.234312
  25 O :   -0.652604
  26 H :    0.446570
  27 O :   -0.604569
  28 P :    1.342140
  29 O :   -0.715781
  30 O :   -0.746666
  31 O :   -0.636547
  32 C :   -0.117811
  33 H :    0.235160
  34 H :    0.179083
  35 C :    0.020405
  36 H :    0.260040
  37 O :   -0.488224
  38 C :    0.224703
  39 H :    0.280403
  40 N :   -0.584354
  41 C :    0.077705
  42 H :    0.322518
  43 C :   -0.456229
  44 H :    0.256766
  45 C :    0.558306
  46 O :   -0.427993
  47 N :   -0.732534
  48 H :    0.388338
  49 C :    0.715707
  50 O :   -0.448484
  51 C :   -0.063000
  52 H :    0.215048
  53 C :   -0.035274
  54 H :    0.236556
  55 O :   -0.633979
  56 H :    0.424759
  57 O :   -0.625681
  58 H :    0.424493
Sum of atomic charges:   -1.0000000

LOEWDIN ATOMIC CHARGES
----------------------
   0 H :    0.311268
   1 O :   -0.408898
   2 C :   -0.093403
   3 H :    0.107118
   4 H :    0.126815
   5 C :   -0.012264
   6 H :    0.132568
   7 O :   -0.242433
   8 C :    0.085860
   9 H :    0.144551
  10 N :   -0.090917
  11 C :   -0.000311
  12 H :    0.169655
  13 C :   -0.261977
  14 H :    0.154948
  15 C :    0.125248
  16 O :   -0.287671
  17 N :   -0.202985
  18 H :    0.282098
  19 C :    0.154854
  20 O :   -0.282704
  21 C :   -0.036230
  22 H :    0.141602
  23 C :   -0.039433
  24 H :    0.119226
  25 O :   -0.400566
  26 H :    0.326171
  27 O :   -0.332962
  28 P :    0.801013
  29 O :   -0.603491
  30 O :   -0.616028
  31 O :   -0.366660
  32 C :   -0.079984
  33 H :    0.137436
  34 H :    0.107138
  35 C :   -0.015034
  36 H :    0.142485
  37 O :   -0.223397
  38 C :    0.092716
  39 H :    0.145719
  40 N :   -0.098063
  41 C :    0.000377
  42 H :    0.169811
  43 C :   -0.245123
  44 H :    0.161893
  45 C :    0.126105
  46 O :   -0.280494
  47 N :   -0.199907
  48 H :    0.282397
  49 C :    0.155934
  50 O :   -0.286531
  51 C :   -0.044371
  52 H :    0.117102
  53 C :   -0.043877
  54 H :    0.120178
  55 O :   -0.393405
  56 H :    0.313236
  57 O :   -0.385847
  58 H :    0.319443

  Mayer bond orders larger than 0.100000
B(  0-H ,  1-O ) :   0.7902 B(  1-O ,  2-C ) :   0.9870 B(  2-C ,  3-H ) :   0.9071
B(  2-C ,  4-H ) :   0.8897 B(  2-C ,  5-C ) :   0.9714 B(  5-C ,  6-H ) :   0.8873
B(  5-C ,  7-O ) :   0.8963 B(  5-C , 21-C ) :   0.9228 B(  7-O ,  8-C ) :   1.0142
B(  8-C ,  9-H ) :   0.8792 B(  8-C , 10-N ) :   0.8361 B(  8-C , 23-C ) :   0.9247
B( 10-N , 11-C ) :   1.0941 B( 10-N , 19-C ) :   1.0380 B( 11-C , 12-H ) :   0.8210
B( 11-C , 13-C ) :   1.5794 B( 13-C , 14-H ) :   0.9205 B( 13-C , 15-C ) :   1.0871
B( 15-C , 16-O ) :   1.9958 B( 15-C , 17-N ) :   0.9825 B( 17-N , 18-H ) :   0.8028
B( 17-N , 19-C ) :   1.0619 B( 19-C , 20-O ) :   1.9581 B( 21-C , 22-H ) :   0.8480
B( 21-C , 23-C ) :   0.9091 B( 21-C , 27-O ) :   0.9610 B( 23-C , 24-H ) :   0.8967
B( 23-C , 25-O ) :   1.0246 B( 25-O , 26-H ) :   0.7436 B( 27-O , 28-P ) :   0.8582
B( 28-P , 29-O ) :   1.7960 B( 28-P , 30-O ) :   1.7098 B( 28-P , 31-O ) :   0.8053
B( 31-O , 32-C ) :   0.9444 B( 32-C , 33-H ) :   0.8843 B( 32-C , 34-H ) :   0.9048
B( 32-C , 35-C ) :   0.9756 B( 35-C , 36-H ) :   0.8734 B( 35-C , 37-O ) :   0.8972
B( 35-C , 51-C ) :   0.9137 B( 37-O , 38-C ) :   1.0233 B( 38-C , 39-H ) :   0.8788
B( 38-C , 40-N ) :   0.8207 B( 38-C , 53-C ) :   0.9244 B( 40-N , 41-C ) :   1.0898
B( 40-N , 49-C ) :   1.0350 B( 41-C , 42-H ) :   0.8583 B( 41-C , 43-C ) :   1.5922
B( 43-C , 44-H ) :   0.9123 B( 43-C , 45-C ) :   1.0803 B( 45-C , 46-O ) :   2.0007
B( 45-C , 47-N ) :   0.9779 B( 47-N , 48-H ) :   0.8043 B( 47-N , 49-C ) :   1.0701
B( 49-C , 50-O ) :   1.9504 B( 51-C , 52-H ) :   0.8845 B( 51-C , 53-C ) :   0.9289
B( 51-C , 57-O ) :   1.0010 B( 53-C , 54-H ) :   0.8957 B( 53-C , 55-O ) :   1.0101
B( 55-O , 56-H ) :   0.7527 B( 57-O , 58-H ) :   0.7849

Dispersion correction           -0.047015469
FINAL SINGLE POINT ENERGY     -2308.293283159222

DIPOLE MOMENT
-------------
                                X             Y             Z
Electronic contribution:     -6.33746       4.47300       1.84830
Nuclear contribution   :      4.80856      -3.68832      -1.65087
                        -----------------------------------------
Total Dipole Moment    :     -1.52890       0.78468       0.19743
                        -----------------------------------------
Magnitude (a.u.)       :      1.72981
Magnitude (Debye)      :      4.39682

Rotational constants in cm-1:     0.003929     0.002483     0.001723
Rotational constants in MHz :   117.776545    74.434273    51.663571

                             ****ORCA TERMINATED NORMALLY****
TOTAL RUN TIME: 0 days 0 hours 16 minutes 14 seconds 444 msec
