                         Program Version 5.0.3 -  RELEASE  -
|  1> ! PBEh-3c def2/J TightSCF DefGrid3
|  2>
|  3> %maxcore 60000
|  4>
|  5> %pal
|  6> nprocs 4
|  7> end
|  8>
|  9> *xyzfile 0 1 mgo.xyz
| 10>
| 11>                          ****END OF INPUT****

CARTESIAN COORDINATES (ANGSTROEM)
---------------------------------
  Mg     0.000000    0.000000    0.863903
  O      0.000000    0.000000   -0.863903

 Total Charge           Charge          ....    0
 Multiplicity           Mult            ....    1
 Number of Electrons    NEL             ....   20
 Basis Dimension        Dim             ....   33

ORBITAL ENERGIES
----------------

  NO   OCC          E(Eh)            E(eV)
   0   2.0000     -47.386892     -1289.4629
   1   2.0000     -19.401687      -527.9467
   2   2.0000      -3.339266       -90.8660
   3   2.0000      -2.020478       -54.9800
   4   2.0000      -2.020478       -54.9800
   5   2.0000      -2.020188       -54.9721
   6   2.0000      -0.882843       -24.0234
   7   2.0000      -0.276395        -7.5211
   8   2.0000      -0.259465        -7.0604
   9   2.0000      -0.259465        -7.0604
  10   0.0000      -0.119039        -3.2392
  11   0.0000      -0.003818        -0.1039
  12   0.0000      -0.003818        -0.1039
  13   0.0000       0.057962         1.5772
  14   0.0000       0.088315         2.4032

MULLIKEN ATOMIC CHARGES
-----------------------
   0 Mg:    0.641962
   1 O :   -0.641962
Sum of atomic charges:   -0.0000000

LOEWDIN ATOMIC CHARGES
----------------------
   0 Mg:    0.357991
   1 O :   -0.357991

  Mayer bond orders larger than 0.100000
B(  0-Mg,  1-O ) :   2.0672

Dispersion correction           -0.000284280
FINAL SINGLE POINT ENERGY      -274.745685438240

DIPOLE MOMENT
-------------
                                X             Y             Z
Electronic contribution:      0.00000      -0.00000       3.23990
Nuclear contribution   :      0.00000       0.00000      -0.19864
                        -----------------------------------------
Total Dipole Moment    :      0.00000      -0.00000       3.04126
                        -----------------------------------------
Magnitude (a.u.)       :      3.04126
Magnitude (Debye)      :      7.73028

Rotational constants in cm-1:     0.000000     0.585283     0.585283
Rotational constants in MHz :     0.000000 17546.355836 17546.355836

                             ****ORCA TERMINATED NORMALLY****
TOTAL RUN TIME: 0 days 0 hours 0 minutes 37 seconds 419 msec
