                         Program Version 5.0.3 -  RELEASE  -
|  1> ! PBEh-3c def2/J TightSCF DefGrid3
|  2>
|  3> %maxcore 60000
|  4>
|  5> %pal
|  6> nprocs 4
|  7> end
|  8>
|  9> *xyzfile 0 1 pentanol.xyz
| 10>
| 11>                          ****END OF INPUT****

CARTESIAN COORDINATES (ANGSTROEM)
---------------------------------
  C     -2.124496   -0.936357   -1.622411
  H     -1.789943   -1.984061   -1.664475
  H     -1.792414   -0.446275   -2.550303
  H     -3.223826   -0.937988   -1.621804
  C     -1.563476   -0.224981   -0.388825
  H     -1.942536    0.810555   -0.355057
  H     -1.941011   -0.715381    0.524278
  C     -0.031371   -0.200825   -0.348718
  H      0.345967    0.289655   -1.263505
  H      0.347124   -1.238060   -0.382618
  C      0.532560    0.511061    0.884963
  H      0.167792    0.021652    1.802956
  H      0.170037    1.551683    0.918800
  C      2.052949    0.527662    0.917324
  H      2.442439    1.033180    0.012322
  H      2.440441   -0.509821    0.912473
  O      2.469184    1.219377    2.104093
  H      3.440581    1.228922    2.120507

 Total Charge           Charge          ....    0
 Multiplicity           Mult            ....    1
 Number of Electrons    NEL             ....   50
 Basis Dimension        Dim             ....  114

ORBITAL ENERGIES
----------------

  NO   OCC          E(Eh)            E(eV)
   0   2.0000     -19.482058      -530.1337
   1   2.0000     -10.481231      -285.2088
   2   2.0000     -10.434605      -283.9401
   3   2.0000     -10.433794      -283.9180
   4   2.0000     -10.429455      -283.7999
   5   2.0000     -10.425158      -283.6830
   6   2.0000      -1.111768       -30.2527
   7   2.0000      -0.890131       -24.2217
   8   2.0000      -0.831003       -22.6127
   9   2.0000      -0.746895       -20.3240
  10   2.0000      -0.666121       -18.1261
  11   2.0000      -0.646158       -17.5829
  12   2.0000      -0.563668       -15.3382
  13   2.0000      -0.541971       -14.7478
  14   2.0000      -0.503875       -13.7111
  15   2.0000      -0.479372       -13.0444
  16   2.0000      -0.467594       -12.7239
  17   2.0000      -0.445826       -12.1315
  18   2.0000      -0.427962       -11.6454
  19   2.0000      -0.391356       -10.6493
  20   2.0000      -0.390111       -10.6155
  21   2.0000      -0.380528       -10.3547
  22   2.0000      -0.368347       -10.0232
  23   2.0000      -0.364673        -9.9233
  24   2.0000      -0.321078        -8.7370
  25   0.0000       0.128299         3.4912
  26   0.0000       0.134253         3.6532
  27   0.0000       0.157908         4.2969
  28   0.0000       0.179246         4.8775
  29   0.0000       0.189257         5.1500

MULLIKEN ATOMIC CHARGES
-----------------------
   0 C :   -0.635865
   1 H :    0.207639
   2 H :    0.207644
   3 H :    0.218553
   4 C :   -0.403830
   5 H :    0.206003
   6 H :    0.206015
   7 C :   -0.407374
   8 H :    0.199134
   9 H :    0.199008
  10 C :   -0.431863
  11 H :    0.218260
  12 H :    0.218387
  13 C :   -0.128663
  14 H :    0.171915
  15 H :    0.171969
  16 O :   -0.630124
  17 H :    0.413192
Sum of atomic charges:   -0.0000000

LOEWDIN ATOMIC CHARGES
----------------------
   0 C :   -0.361837
   1 H :    0.123010
   2 H :    0.123018
   3 H :    0.126793
   4 C :   -0.243601
   5 H :    0.120509
   6 H :    0.120502
   7 C :   -0.241024
   8 H :    0.118037
   9 H :    0.117995
  10 C :   -0.250013
  11 H :    0.128518
  12 H :    0.128602
  13 C :   -0.087244
  14 H :    0.095026
  15 H :    0.095055
  16 O :   -0.421839
  17 H :    0.308492

  Mayer bond orders larger than 0.100000
B(  0-C ,  1-H ) :   0.9294 B(  0-C ,  2-H ) :   0.9294 B(  0-C ,  3-H ) :   0.9317
B(  0-C ,  4-C ) :   0.9941 B(  4-C ,  5-H ) :   0.9198 B(  4-C ,  6-H ) :   0.9198
B(  4-C ,  7-C ) :   0.9893 B(  7-C ,  8-H ) :   0.9173 B(  7-C ,  9-H ) :   0.9174
B(  7-C , 10-C ) :   0.9723 B( 10-C , 11-H ) :   0.9127 B( 10-C , 12-H ) :   0.9126
B( 10-C , 13-C ) :   0.9943 B( 13-C , 14-H ) :   0.9049 B( 13-C , 15-H ) :   0.9048
B( 13-C , 16-O ) :   1.0181 B( 16-O , 17-H ) :   0.7946

Dispersion correction           -0.007350423
FINAL SINGLE POINT ENERGY      -272.382501322209

DIPOLE MOMENT
-------------
                                X             Y             Z
Electronic contribution:      4.72899       2.46550       4.25736
Nuclear contribution   :     -4.35453      -2.70507      -4.66876
                        -----------------------------------------
Total Dipole Moment    :      0.37446      -0.23957      -0.41140
                        -----------------------------------------
Magnitude (a.u.)       :      0.60569
Magnitude (Debye)      :      1.53954

Rotational constants in cm-1:     0.524185     0.037711     0.036380
Rotational constants in MHz : 15714.657209  1130.555214  1090.642300

                             ****ORCA TERMINATED NORMALLY****
TOTAL RUN TIME: 0 days 0 hours 1 minutes 33 seconds 131 msec
