                         Program Version 5.0.3 -  RELEASE  -
|  1> ! PBEh-3c def2/J TightSCF DefGrid3
|  2>
|  3> %maxcore 60000
|  4>
|  5> %pal
|  6> nprocs 4
|  7> end
|  8>
|  9> *xyzfile 1 3 p+.xyz
| 10>
| 11>                          ****END OF INPUT****

CARTESIAN COORDINATES (ANGSTROEM)
---------------------------------
  P      0.000000    0.000000    0.000000

 Total Charge           Charge          ....    1
 Multiplicity           Mult            ....    3
 Number of Electrons    NEL             ....   14
 Basis Dimension        Dim             ....   18

ORBITAL ENERGIES
----------------
                 SPIN UP ORBITALS
  NO   OCC          E(Eh)            E(eV)
   0   1.0000     -78.192916     -2127.7374
   1   1.0000      -7.258658      -197.5181
   2   1.0000      -5.352415      -145.6466
   3   1.0000      -5.352415      -145.6466
   4   1.0000      -5.346685      -145.4907
   5   1.0000      -1.002092       -27.2683
   6   1.0000      -0.636600       -17.3228
   7   1.0000      -0.636600       -17.3228
   8   0.0000      -0.473225       -12.8771
   9   0.0000      -0.018718        -0.5093
  10   0.0000       0.204088         5.5535
  11   0.0000       0.204088         5.5535
  12   0.0000       0.214017         5.8237

                 SPIN DOWN ORBITALS
  NO   OCC          E(Eh)            E(eV)
   0   1.0000     -78.181311     -2127.4216
   1   1.0000      -7.246681      -197.1922
   2   1.0000      -5.340436      -145.3207
   3   1.0000      -5.326294      -144.9358
   4   1.0000      -5.326294      -144.9358
   5   1.0000      -0.884584       -24.0708
   6   0.0000      -0.442277       -12.0350
   7   0.0000      -0.393973       -10.7205
   8   0.0000      -0.393973       -10.7205
   9   0.0000       0.015104         0.4110
  10   0.0000       0.270919         7.3721

MULLIKEN ATOMIC CHARGES AND SPIN POPULATIONS
--------------------------------------------
   0 P :    1.000000    2.000000
Sum of atomic charges         :    1.0000000

LOEWDIN ATOMIC CHARGES AND SPIN POPULATIONS
-------------------------------------------
   0 P :    1.000000    2.000000

Dispersion correction            0.000000000
FINAL SINGLE POINT ENERGY      -340.462924290156

DIPOLE MOMENT
-------------
                                X             Y             Z
Electronic contribution:      0.00001       0.00001      -0.00003
Nuclear contribution   :      0.00000       0.00000       0.00000
                        -----------------------------------------
Total Dipole Moment    :      0.00001       0.00001      -0.00003
                        -----------------------------------------
Magnitude (a.u.)       :      0.00003
Magnitude (Debye)      :      0.00007

Rotational constants in cm-1:     0.000000     0.000000     0.000000
Rotational constants in MHz :     0.000000     0.000000     0.000000

                             ****ORCA TERMINATED NORMALLY****
TOTAL RUN TIME: 0 days 0 hours 0 minutes 5 seconds 139 msec
