                         Program Version 5.0.3 -  RELEASE  -
|  1> ! PBEh-3c def2/J TightSCF DefGrid3
|  2>
|  3> %maxcore 60000
|  4>
|  5> %pal
|  6> nprocs 4
|  7> end
|  8>
|  9> *xyzfile 0 1 13-Cyclopentadiene.xyz
| 10>
| 11>                          ****END OF INPUT****

CARTESIAN COORDINATES (ANGSTROEM)
---------------------------------
  H     -1.789359    0.878783    0.000098
  C     -1.126632    0.000111   -0.000003
  C     -0.191681    0.000025   -1.181349
  C      1.084681   -0.000333   -0.734692
  C      1.084677    0.000367    0.734696
  C     -0.191686   -0.000408    1.181348
  H     -1.789840   -0.878175   -0.000107
  H     -0.518503   -0.000637    2.214542
  H     -0.518493    0.000086   -2.214545
  H      1.978424   -0.000428   -1.349346
  H      1.978412    0.000610    1.349358

 Total Charge           Charge          ....    0
 Multiplicity           Mult            ....    1
 Number of Electrons    NEL             ....   36
 Basis Dimension        Dim             ....   87

ORBITAL ENERGIES
----------------

  NO   OCC          E(Eh)            E(eV)
   0   2.0000     -10.445598      -284.2392
   1   2.0000     -10.441445      -284.1262
   2   2.0000     -10.441320      -284.1228
   3   2.0000     -10.440621      -284.1038
   4   2.0000     -10.440477      -284.0998
   5   2.0000      -0.950367       -25.8608
   6   2.0000      -0.787921       -21.4404
   7   2.0000      -0.785732       -21.3809
   8   2.0000      -0.619910       -16.8686
   9   2.0000      -0.596499       -16.2316
  10   2.0000      -0.577002       -15.7010
  11   2.0000      -0.491413       -13.3720
  12   2.0000      -0.453520       -12.3409
  13   2.0000      -0.428583       -11.6623
  14   2.0000      -0.412043       -11.2123
  15   2.0000      -0.410581       -11.1725
  16   2.0000      -0.344465        -9.3734
  17   2.0000      -0.257183        -6.9983
  18   0.0000       0.007567         0.2059
  19   0.0000       0.111288         3.0283
  20   0.0000       0.167649         4.5620
  21   0.0000       0.192790         5.2461
  22   0.0000       0.216792         5.8992

MULLIKEN ATOMIC CHARGES
-----------------------
   0 H :    0.247275
   1 C :   -0.493106
   2 C :   -0.232290
   3 C :   -0.205035
   4 C :   -0.205035
   5 C :   -0.232290
   6 H :    0.247233
   7 H :    0.220538
   8 H :    0.220538
   9 H :    0.216086
  10 H :    0.216086
Sum of atomic charges:   -0.0000000

LOEWDIN ATOMIC CHARGES
----------------------
   0 H :    0.154937
   1 C :   -0.237614
   2 C :   -0.152649
   3 C :   -0.149416
   4 C :   -0.149416
   5 C :   -0.152649
   6 H :    0.154900
   7 H :    0.133372
   8 H :    0.133372
   9 H :    0.132581
  10 H :    0.132581

  Mayer bond orders larger than 0.100000
B(  0-H ,  1-C ) :   0.8858 B(  1-C ,  2-C ) :   1.0205 B(  1-C ,  5-C ) :   1.0205
B(  1-C ,  6-H ) :   0.8858 B(  2-C ,  3-C ) :   1.7944 B(  2-C ,  8-H ) :   0.9232
B(  3-C ,  4-C ) :   1.1200 B(  3-C ,  9-H ) :   0.9212 B(  4-C ,  5-C ) :   1.7944
B(  4-C , 10-H ) :   0.9212 B(  5-C ,  7-H ) :   0.9232

Dispersion correction           -0.004686376
FINAL SINGLE POINT ENERGY      -193.665413701943

DIPOLE MOMENT
-------------
                                X             Y             Z
Electronic contribution:      1.04543      -0.00026      -0.00000
Nuclear contribution   :     -1.23639       0.00045       0.00000
                        -----------------------------------------
Total Dipole Moment    :     -0.19096       0.00018       0.00000
                        -----------------------------------------
Magnitude (a.u.)       :      0.19096
Magnitude (Debye)      :      0.48538

Rotational constants in cm-1:     0.280775     0.273643     0.142219
Rotational constants in MHz :  8417.411499  8203.607817  4263.629118

                             ****ORCA TERMINATED NORMALLY****
TOTAL RUN TIME: 0 days 0 hours 1 minutes 4 seconds 456 msec
