                         Program Version 5.0.3 -  RELEASE  -
|  1> ! PBEh-3c def2/J TightSCF DefGrid3
|  2>
|  3> %maxcore 60000
|  4>
|  5> %pal
|  6> nprocs 4
|  7> end
|  8>
|  9> *xyzfile 0 1 TYR_xan.xyz
| 10>
| 11>                          ****END OF INPUT****

CARTESIAN COORDINATES (ANGSTROEM)
---------------------------------
  N      0.926913    0.612426    1.038917
  C      1.147215   -0.738641    0.531231
  C      2.615281   -1.121314    0.323684
  O      3.040215   -2.179691    0.778794
  C      0.326025   -1.034871   -0.737335
  C     -1.123086   -0.711337   -0.525188
  C     -1.675761    0.473738   -1.021083
  C     -1.941812   -1.555417    0.228814
  C     -3.002772    0.810509   -0.773101
  C     -3.271125   -1.229176    0.484074
  C     -3.804176   -0.040836   -0.014777
  O     -5.100002    0.337704    0.200471
  H      0.490290    0.679498    1.941960
  H      0.803426   -1.406467    1.318490
  H      0.723261   -0.460732   -1.571619
  H      0.462525   -2.094735   -0.959546
  H     -1.058048    1.136610   -1.614427
  H     -1.541642   -2.485695    0.614979
  H     -3.432960    1.721873   -1.164856
  H     -3.894414   -1.900060    1.063763
  H     -5.531850   -0.352254    0.714745
  N      3.334627   -0.253772   -0.417596
  H      2.854891    0.569941   -0.765435
  C      4.723181   -0.497642   -0.739213
  H      4.967842   -1.503335   -0.411614
  H      4.885048   -0.418326   -1.812270
  H      5.378388    0.209130   -0.231485
  C      0.978958    1.752207    0.310303
  O      1.449178    1.801949   -0.828748
  C      0.389363    2.967496    0.978691
  H      0.435711    2.911267    2.063975
  H     -0.655971    3.046398    0.680085
  H      0.915649    3.851040    0.632436

 Total Charge           Charge          ....    0
 Multiplicity           Mult            ....    1
 Number of Electrons    NEL             ....  126
 Basis Dimension        Dim             ....  287

ORBITAL ENERGIES
----------------

  NO   OCC          E(Eh)            E(eV)
   0   2.0000     -19.531640      -531.4830
   1   2.0000     -19.477408      -530.0072
   2   2.0000     -19.446192      -529.1578
   3   2.0000     -14.679791      -399.4574
   4   2.0000     -14.643889      -398.4805
   5   2.0000     -10.567601      -287.5591
   6   2.0000     -10.535960      -286.6980
   7   2.0000     -10.517700      -286.2012
   8   2.0000     -10.496289      -285.6186
   9   2.0000     -10.458368      -284.5867
  10   2.0000     -10.456470      -284.5350
  11   2.0000     -10.456340      -284.5315
  12   2.0000     -10.454421      -284.4793
  13   2.0000     -10.453714      -284.4600
  14   2.0000     -10.452719      -284.4330
  15   2.0000     -10.449004      -284.3319
  16   2.0000     -10.448577      -284.3202
  17   2.0000      -1.178375       -32.0652
  18   2.0000      -1.161406       -31.6035
  19   2.0000      -1.129828       -30.7442
  20   2.0000      -1.042726       -28.3740
  21   2.0000      -1.006998       -27.4018
  22   2.0000      -0.962588       -26.1933
  23   2.0000      -0.893978       -24.3264
  24   2.0000      -0.849459       -23.1150
  25   2.0000      -0.846985       -23.0476
  26   2.0000      -0.816682       -22.2231
  27   2.0000      -0.779447       -21.2098
  28   2.0000      -0.738614       -20.0987
  29   2.0000      -0.709307       -19.3012
  30   2.0000      -0.679210       -18.4822
  31   2.0000      -0.659616       -17.9491
  32   2.0000      -0.636428       -17.3181
  33   2.0000      -0.620969       -16.8974
  34   2.0000      -0.604341       -16.4449
  35   2.0000      -0.583988       -15.8911
  36   2.0000      -0.559956       -15.2372
  37   2.0000      -0.543728       -14.7956
  38   2.0000      -0.530968       -14.4484
  39   2.0000      -0.525652       -14.3037
  40   2.0000      -0.511366       -13.9150
  41   2.0000      -0.503101       -13.6901
  42   2.0000      -0.499083       -13.5807
  43   2.0000      -0.490229       -13.3398
  44   2.0000      -0.484062       -13.1720
  45   2.0000      -0.480679       -13.0799
  46   2.0000      -0.474264       -12.9054
  47   2.0000      -0.471680       -12.8351
  48   2.0000      -0.464809       -12.6481
  49   2.0000      -0.448944       -12.2164
  50   2.0000      -0.437573       -11.9070
  51   2.0000      -0.431651       -11.7458
  52   2.0000      -0.427162       -11.6237
  53   2.0000      -0.412375       -11.2213
  54   2.0000      -0.404930       -11.0187
  55   2.0000      -0.395882       -10.7725
  56   2.0000      -0.389194       -10.5905
  57   2.0000      -0.336486        -9.1563
  58   2.0000      -0.327226        -8.9043
  59   2.0000      -0.303075        -8.2471
  60   2.0000      -0.292519        -7.9598
  61   2.0000      -0.288162        -7.8413
  62   2.0000      -0.264909        -7.2086
  63   0.0000       0.005637         0.1534
  64   0.0000       0.023975         0.6524
  65   0.0000       0.039145         1.0652
  66   0.0000       0.072283         1.9669
  67   0.0000       0.101992         2.7753

MULLIKEN ATOMIC CHARGES
-----------------------
   0 N :   -0.617336
   1 C :   -0.189390
   2 C :    0.541534
   3 O :   -0.438062
   4 C :   -0.545801
   5 C :    0.135249
   6 C :   -0.294580
   7 C :   -0.268653
   8 C :   -0.291698
   9 C :   -0.341199
  10 C :    0.353793
  11 O :   -0.606503
  12 H :    0.368377
  13 H :    0.270142
  14 H :    0.270018
  15 H :    0.259936
  16 H :    0.247545
  17 H :    0.221868
  18 H :    0.239468
  19 H :    0.217988
  20 H :    0.429779
  21 N :   -0.655474
  22 H :    0.413032
  23 C :   -0.491951
  24 H :    0.258445
  25 H :    0.218072
  26 H :    0.217245
  27 C :    0.544013
  28 O :   -0.473490
  29 C :   -0.745877
  30 H :    0.223466
  31 H :    0.264883
  32 H :    0.265161
Sum of atomic charges:   -0.0000000

LOEWDIN ATOMIC CHARGES
----------------------
   0 N :   -0.211331
   1 C :   -0.082892
   2 C :    0.100716
   3 O :   -0.289747
   4 C :   -0.225272
   5 C :   -0.073128
   6 C :   -0.124569
   7 C :   -0.122917
   8 C :   -0.164111
   9 C :   -0.192715
  10 C :    0.060680
  11 O :   -0.314048
  12 H :    0.263707
  13 H :    0.148745
  14 H :    0.149490
  15 H :    0.148475
  16 H :    0.147323
  17 H :    0.138146
  18 H :    0.147313
  19 H :    0.133618
  20 H :    0.325262
  21 N :   -0.250131
  22 H :    0.266681
  23 C :   -0.256067
  24 H :    0.149669
  25 H :    0.122638
  26 H :    0.120073
  27 C :    0.117388
  28 O :   -0.303404
  29 C :   -0.383805
  30 H :    0.135202
  31 H :    0.161824
  32 H :    0.157186

  Mayer bond orders larger than 0.100000
B(  0-N ,  1-C ) :   0.9047 B(  0-N , 12-H ) :   0.8276 B(  0-N , 27-C ) :   1.1842
B(  1-C ,  2-C ) :   0.9060 B(  1-C ,  4-C ) :   0.9388 B(  1-C , 13-H ) :   0.8998
B(  2-C ,  3-O ) :   1.9769 B(  2-C , 21-N ) :   1.1882 B(  3-O , 21-N ) :   0.1055
B(  4-C ,  5-C ) :   0.9553 B(  4-C , 14-H ) :   0.8962 B(  4-C , 15-H ) :   0.9044
B(  5-C ,  6-C ) :   1.4078 B(  5-C ,  7-C ) :   1.3924 B(  6-C ,  8-C ) :   1.4383
B(  6-C , 16-H ) :   0.8984 B(  7-C ,  9-C ) :   1.4301 B(  7-C , 17-H ) :   0.9197
B(  8-C , 10-C ) :   1.3688 B(  8-C , 18-H ) :   0.9091 B(  9-C , 10-C ) :   1.3390
B(  9-C , 19-H ) :   0.9168 B( 10-C , 11-O ) :   1.0738 B( 11-O , 20-H ) :   0.7802
B( 21-N , 22-H ) :   0.7136 B( 21-N , 23-C ) :   0.9608 B( 22-H , 28-O ) :   0.1018
B( 23-C , 24-H ) :   0.9024 B( 23-C , 25-H ) :   0.9232 B( 23-C , 26-H ) :   0.9216
B( 27-C , 28-O ) :   1.8433 B( 27-C , 29-C ) :   0.9404 B( 29-C , 30-H ) :   0.9189
B( 29-C , 31-H ) :   0.8979 B( 29-C , 32-H ) :   0.9110

Dispersion correction           -0.022577444
FINAL SINGLE POINT ENERGY      -800.400317088265

DIPOLE MOMENT
-------------
                                X             Y             Z
Electronic contribution:     -6.49405      -2.85646       0.41116
Nuclear contribution   :      5.45435       3.49284       0.46397
                        -----------------------------------------
Total Dipole Moment    :     -1.03970       0.63638       0.87513
                        -----------------------------------------
Magnitude (a.u.)       :      1.50060
Magnitude (Debye)      :      3.81423

Rotational constants in cm-1:     0.030532     0.008751     0.007529
Rotational constants in MHz :   915.315883   262.348497   225.726824

                             ****ORCA TERMINATED NORMALLY****
TOTAL RUN TIME: 0 days 0 hours 4 minutes 40 seconds 226 msec
