                         Program Version 5.0.3 -  RELEASE  -
|  1> ! PBEh-3c def2/J TightSCF DefGrid3
|  2>
|  3> %maxcore 60000
|  4>
|  5> %pal
|  6> nprocs 4
|  7> end
|  8>
|  9> *xyzfile 0 1 150.xyz
| 10>
| 11>                          ****END OF INPUT****

CARTESIAN COORDINATES (ANGSTROEM)
---------------------------------
  C      1.254560    0.045170   -0.223190
  N     -0.030320    0.045060    0.316690
  C      0.075120    0.044970    1.665660
  N      1.369860    0.045000    1.990010
  C      2.126280    0.045140    0.835920
  C     -1.296170    0.045070   -0.434770
  H      1.687550    0.045000    2.956340
  H     -0.722900    0.044890    2.397230
  H      3.207050    0.045200    0.858490
  H      1.426950    0.045260   -1.290400
  H     -1.070740    0.045150   -1.504290
  H     -1.877110   -0.850350   -0.188430
  H     -1.877160    0.940420   -0.188310
  O      2.104420    0.045090    4.464150
  N      1.000030    0.045170    5.174280
  O      1.065540    0.045610    6.411589
  O     -0.117290    0.044790    4.549350

 Total Charge           Charge          ....    0
 Multiplicity           Mult            ....    1
 Number of Electrons    NEL             ....   76
 Basis Dimension        Dim             ....  164

ORBITAL ENERGIES
----------------

  NO   OCC          E(Eh)            E(eV)
   0   2.0000     -19.450464      -529.2740
   1   2.0000     -19.450288      -529.2693
   2   2.0000     -19.448074      -529.2090
   3   2.0000     -14.848568      -404.0501
   4   2.0000     -14.780069      -402.1861
   5   2.0000     -14.734231      -400.9388
   6   2.0000     -10.577051      -287.8162
   7   2.0000     -10.544439      -286.9288
   8   2.0000     -10.543125      -286.8930
   9   2.0000     -10.537125      -286.7298
  10   2.0000      -1.281329       -34.8667
  11   2.0000      -1.207473       -32.8570
  12   2.0000      -1.078636       -29.3512
  13   2.0000      -1.068719       -29.0813
  14   2.0000      -1.047940       -28.5159
  15   2.0000      -0.916964       -24.9519
  16   2.0000      -0.873653       -23.7733
  17   2.0000      -0.760417       -20.6920
  18   2.0000      -0.728545       -19.8247
  19   2.0000      -0.696356       -18.9488
  20   2.0000      -0.633156       -17.2290
  21   2.0000      -0.599626       -16.3166
  22   2.0000      -0.595352       -16.2003
  23   2.0000      -0.571448       -15.5499
  24   2.0000      -0.558724       -15.2037
  25   2.0000      -0.550334       -14.9754
  26   2.0000      -0.536980       -14.6120
  27   2.0000      -0.527982       -14.3671
  28   2.0000      -0.525905       -14.3106
  29   2.0000      -0.517942       -14.0939
  30   2.0000      -0.509934       -13.8760
  31   2.0000      -0.405096       -11.0232
  32   2.0000      -0.343131        -9.3371
  33   2.0000      -0.332918        -9.0592
  34   2.0000      -0.314643        -8.5619
  35   2.0000      -0.297554        -8.0969
  36   2.0000      -0.290738        -7.9114
  37   2.0000      -0.261329        -7.1111
  38   0.0000      -0.021698        -0.5904
  39   0.0000       0.011425         0.3109
  40   0.0000       0.055175         1.5014
  41   0.0000       0.084297         2.2938
  42   0.0000       0.113810         3.0969

MULLIKEN ATOMIC CHARGES
-----------------------
   0 C :   -0.087067
   1 N :   -0.425589
   2 C :    0.236651
   3 N :   -0.565378
   4 C :   -0.042731
   5 C :   -0.499837
   6 H :    0.445905
   7 H :    0.357393
   8 H :    0.287543
   9 H :    0.280825
  10 H :    0.254911
  11 H :    0.270036
  12 H :    0.270037
  13 O :   -0.526772
  14 N :    0.689556
  15 O :   -0.413044
  16 O :   -0.532440
Sum of atomic charges:   -0.0000000

LOEWDIN ATOMIC CHARGES
----------------------
   0 C :   -0.099811
   1 N :   -0.017983
   2 C :    0.040240
   3 N :   -0.075653
   4 C :   -0.074290
   5 C :   -0.233068
   6 H :    0.289491
   7 H :    0.190576
   8 H :    0.165428
   9 H :    0.157321
  10 H :    0.149300
  11 H :    0.151959
  12 H :    0.151958
  13 O :   -0.417928
  14 N :    0.296386
  15 O :   -0.275916
  16 O :   -0.398010

  Mayer bond orders larger than 0.100000
B(  0-C ,  1-N ) :   1.1310 B(  0-C ,  4-C ) :   1.6279 B(  0-C ,  9-H ) :   0.8903
B(  1-N ,  2-C ) :   1.2415 B(  1-N ,  5-C ) :   0.8957 B(  2-C ,  3-N ) :   1.3790
B(  2-C ,  7-H ) :   0.8399 B(  3-N ,  4-C ) :   1.1919 B(  3-N ,  6-H ) :   0.5219
B(  4-C ,  8-H ) :   0.8944 B(  5-C , 10-H ) :   0.9150 B(  5-C , 11-H ) :   0.9007
B(  5-C , 12-H ) :   0.9007 B(  6-H , 13-O ) :   0.2986 B( 13-O , 14-N ) :   1.3038
B( 13-O , 15-O ) :   0.1378 B( 13-O , 16-O ) :   0.1113 B( 14-N , 15-O ) :   1.6603
B( 14-N , 16-O ) :   1.4770 B( 15-O , 16-O ) :   0.1668

Dispersion correction           -0.008262709
FINAL SINGLE POINT ENERGY      -545.249784929180

DIPOLE MOMENT
-------------
                                X             Y             Z
Electronic contribution:      3.22692       0.00011       8.53246
Nuclear contribution   :     -4.16408      -0.00018     -14.08712
                        -----------------------------------------
Total Dipole Moment    :     -0.93716      -0.00007      -5.55467
                        -----------------------------------------
Magnitude (a.u.)       :      5.63317
Magnitude (Debye)      :     14.31838

Rotational constants in cm-1:     0.113181     0.019933     0.017003
Rotational constants in MHz :  3393.079810   597.563688   509.740357

                             ****ORCA TERMINATED NORMALLY****
TOTAL RUN TIME: 0 days 0 hours 1 minutes 44 seconds 569 msec
