                         Program Version 5.0.3 -  RELEASE  -
|  1> ! PBEh-3c def2/J TightSCF DefGrid3
|  2>
|  3> %maxcore 60000
|  4>
|  5> %pal
|  6> nprocs 4
|  7> end
|  8>
|  9> *xyzfile 0 1 06b.xyz
| 10>
| 11>                          ****END OF INPUT****

CARTESIAN COORDINATES (ANGSTROEM)
---------------------------------
  N     -1.296942    0.430345   -0.023396
  N     -1.341392   -1.841930    0.412370
  C      0.794055   -0.735235    0.147058
  C      1.488887    0.439953   -0.060038
  C      0.780267    1.627876   -0.252422
  C     -0.601690    1.561707   -0.224983
  C     -0.614284   -0.713971    0.160665
  H      2.570240    0.432975   -0.073780
  H      1.281389    2.568806   -0.420450
  H     -1.195716    2.455759   -0.374502
  H      1.316217   -1.669762    0.300243
  H     -0.860233   -2.714904    0.286594
  H     -2.320798   -1.841620    0.122641

 Total Charge           Charge          ....    0
 Multiplicity           Mult            ....    1
 Number of Electrons    NEL             ....   50
 Basis Dimension        Dim             ....  117

ORBITAL ENERGIES
----------------

  NO   OCC          E(Eh)            E(eV)
   0   2.0000     -14.644820      -398.5058
   1   2.0000     -14.621994      -397.8847
   2   2.0000     -10.518339      -286.2186
   3   2.0000     -10.473671      -285.0031
   4   2.0000     -10.460333      -284.6401
   5   2.0000     -10.444800      -284.2175
   6   2.0000     -10.436443      -283.9901
   7   2.0000      -1.062851       -28.9216
   8   2.0000      -0.985574       -26.8188
   9   2.0000      -0.889639       -24.2083
  10   2.0000      -0.827167       -22.5083
  11   2.0000      -0.709822       -19.3152
  12   2.0000      -0.694035       -18.8857
  13   2.0000      -0.600288       -16.3347
  14   2.0000      -0.587754       -15.9936
  15   2.0000      -0.546582       -14.8733
  16   2.0000      -0.511872       -13.9287
  17   2.0000      -0.495358       -13.4794
  18   2.0000      -0.466587       -12.6965
  19   2.0000      -0.455274       -12.3886
  20   2.0000      -0.424429       -11.5493
  21   2.0000      -0.372192       -10.1279
  22   2.0000      -0.320313        -8.7162
  23   2.0000      -0.307318        -8.3626
  24   2.0000      -0.252730        -6.8771
  25   0.0000       0.008900         0.2422
  26   0.0000       0.037327         1.0157
  27   0.0000       0.134200         3.6518
  28   0.0000       0.155783         4.2391
  29   0.0000       0.183313         4.9882

MULLIKEN ATOMIC CHARGES
-----------------------
   0 N :   -0.430030
   1 N :   -0.808831
   2 C :   -0.358197
   3 C :   -0.120976
   4 C :   -0.326753
   5 C :   -0.030846
   6 C :    0.477725
   7 H :    0.226514
   8 H :    0.220727
   9 H :    0.226183
  10 H :    0.214942
  11 H :    0.348113
  12 H :    0.361430
Sum of atomic charges:    0.0000000

LOEWDIN ATOMIC CHARGES
----------------------
   0 N :   -0.188782
   1 N :   -0.375181
   2 C :   -0.205836
   3 C :   -0.093613
   4 C :   -0.208196
   5 C :   -0.044602
   6 C :    0.073805
   7 H :    0.138816
   8 H :    0.138113
   9 H :    0.127709
  10 H :    0.133621
  11 H :    0.245773
  12 H :    0.258373

  Mayer bond orders larger than 0.100000
B(  0-N ,  5-C ) :   1.4883 B(  0-N ,  6-C ) :   1.4714 B(  1-N ,  6-C ) :   1.0813
B(  1-N , 11-H ) :   0.8477 B(  1-N , 12-H ) :   0.8314 B(  2-C ,  3-C ) :   1.4829
B(  2-C ,  6-C ) :   1.2838 B(  2-C , 10-H ) :   0.9121 B(  3-C ,  4-C ) :   1.3731
B(  3-C ,  7-H ) :   0.9199 B(  4-C ,  5-C ) :   1.4083 B(  4-C ,  8-H ) :   0.9164
B(  5-C ,  9-H ) :   0.9194

Dispersion correction           -0.006630389
FINAL SINGLE POINT ENERGY      -302.980003730140

DIPOLE MOMENT
-------------
                                X             Y             Z
Electronic contribution:     -1.13877       0.38965       0.03196
Nuclear contribution   :      1.56487      -1.06703      -0.29880
                        -----------------------------------------
Total Dipole Moment    :      0.42610      -0.67738      -0.26684
                        -----------------------------------------
Magnitude (a.u.)       :      0.84357
Magnitude (Debye)      :      2.14419

Rotational constants in cm-1:     0.194289     0.090938     0.062009
Rotational constants in MHz :  5824.635354  2726.242688  1858.984267

                             ****ORCA TERMINATED NORMALLY****
TOTAL RUN TIME: 0 days 0 hours 1 minutes 27 seconds 454 msec
