                         Program Version 5.0.3 -  RELEASE  -
|  1> ! PBEh-3c def2/J TightSCF DefGrid3
|  2>
|  3> %maxcore 60000
|  4>
|  5> %pal
|  6> nprocs 4
|  7> end
|  8>
|  9> *xyzfile -1 1 EA_19.xyz
| 10>
| 11>                          ****END OF INPUT****

CARTESIAN COORDINATES (ANGSTROEM)
---------------------------------
  S      0.000000    0.000000    0.675568
  H      0.000000    0.000000   -0.675568

 Total Charge           Charge          ....   -1
 Multiplicity           Mult            ....    1
 Number of Electrons    NEL             ....   18
 Basis Dimension        Dim             ....   20

ORBITAL ENERGIES
----------------

  NO   OCC          E(Eh)            E(eV)
   0   2.0000     -89.218305     -2427.7535
   1   2.0000      -7.855613      -213.7621
   2   2.0000      -5.748261      -156.4181
   3   2.0000      -5.740984      -156.2201
   4   2.0000      -5.740984      -156.2201
   5   2.0000      -0.435694       -11.8558
   6   2.0000      -0.119868        -3.2618
   7   2.0000       0.030093         0.8189
   8   2.0000       0.030093         0.8189
   9   0.0000       0.374628        10.1942
  10   0.0000       0.687901        18.7187
  11   0.0000       0.895265        24.3614
  12   0.0000       1.059794        28.8385
  13   0.0000       1.059794        28.8385

MULLIKEN ATOMIC CHARGES
-----------------------
   0 S :   -1.004665
   1 H :    0.004665
Sum of atomic charges:   -1.0000000

LOEWDIN ATOMIC CHARGES
----------------------
   0 S :   -0.993307
   1 H :   -0.006693

  Mayer bond orders larger than 0.100000
B(  0-S ,  1-H ) :   0.9548

Dispersion correction           -0.000186057
FINAL SINGLE POINT ENERGY      -398.338784667955

DIPOLE MOMENT
-------------
                                X             Y             Z
Electronic contribution:      0.00000      -0.00000       0.97922
Nuclear contribution   :      0.00000       0.00000      -1.23016
                        -----------------------------------------
Total Dipole Moment    :      0.00000      -0.00000      -0.25093
                        -----------------------------------------
Magnitude (a.u.)       :      0.25093
Magnitude (Debye)      :      0.63782

Rotational constants in cm-1:     0.000000     9.448939     9.448939
Rotational constants in MHz :     0.000000 283272.057716 283272.057716

                             ****ORCA TERMINATED NORMALLY****
TOTAL RUN TIME: 0 days 0 hours 0 minutes 21 seconds 101 msec
