                         Program Version 5.0.3 -  RELEASE  -
|  1> ! PBEh-3c def2/J TightSCF DefGrid3
|  2>
|  3> %maxcore 60000
|  4>
|  5> %pal
|  6> nprocs 4
|  7> end
|  8>
|  9> *xyzfile 0 1 PhBr.xyz
| 10>
| 11>                          ****END OF INPUT****

CARTESIAN COORDINATES (ANGSTROEM)
---------------------------------
  Br     0.000000    0.000000    1.794145
  C      0.000000    0.000000   -0.097650
  C      0.000000    1.207099   -0.775796
  C      0.000000    1.199665   -2.163022
  C      0.000000    0.000000   -2.858018
  C      0.000000   -1.199665   -2.163022
  C      0.000000   -1.207099   -0.775796
  H      0.000000    2.139028   -0.227568
  H      0.000000    2.139500   -2.699981
  H      0.000000    0.000000   -3.940157
  H      0.000000   -2.139500   -2.699981
  H      0.000000   -2.139028   -0.227568

 Total Charge           Charge          ....    0
 Multiplicity           Mult            ....    1
 Number of Electrons    NEL             ....   76
 Basis Dimension        Dim             ....  132

ORBITAL ENERGIES
----------------

  NO   OCC          E(Eh)            E(eV)
   0   2.0000    -484.527804    -13184.6718
   1   2.0000     -63.191008     -1719.5147
   2   2.0000     -56.895010     -1548.1919
   3   2.0000     -56.893196     -1548.1426
   4   2.0000     -56.893143     -1548.1411
   5   2.0000     -10.510984      -286.0184
   6   2.0000     -10.464408      -284.7510
   7   2.0000     -10.464370      -284.7500
   8   2.0000     -10.462687      -284.7042
   9   2.0000     -10.462615      -284.7022
  10   2.0000     -10.459476      -284.6168
  11   2.0000      -9.020232      -245.4530
  12   2.0000      -6.794558      -184.8893
  13   2.0000      -6.782263      -184.5548
  14   2.0000      -6.782172      -184.5523
  15   2.0000      -2.808260       -76.4166
  16   2.0000      -2.804459       -76.3132
  17   2.0000      -2.804344       -76.3101
  18   2.0000      -2.793807       -76.0233
  19   2.0000      -2.793800       -76.0232
  20   2.0000      -0.982898       -26.7460
  21   2.0000      -0.900075       -24.4923
  22   2.0000      -0.855830       -23.2883
  23   2.0000      -0.814597       -22.1663
  24   2.0000      -0.701749       -19.0956
  25   2.0000      -0.679592       -18.4926
  26   2.0000      -0.597436       -16.2570
  27   2.0000      -0.536545       -14.6001
  28   2.0000      -0.529700       -14.4139
  29   2.0000      -0.499509       -13.5923
  30   2.0000      -0.481772       -13.1097
  31   2.0000      -0.451497       -12.2859
  32   2.0000      -0.418785       -11.3957
  33   2.0000      -0.409710       -11.1488
  34   2.0000      -0.367041        -9.9877
  35   2.0000      -0.339168        -9.2292
  36   2.0000      -0.309707        -8.4276
  37   2.0000      -0.287274        -7.8171
  38   0.0000       0.004207         0.1145
  39   0.0000       0.004506         0.1226
  40   0.0000       0.039878         1.0851
  41   0.0000       0.152507         4.1499
  42   0.0000       0.181288         4.9331

MULLIKEN ATOMIC CHARGES
-----------------------
   0 Br:   -0.033380
   1 C :   -0.081669
   2 C :   -0.205233
   3 C :   -0.217221
   4 C :   -0.220066
   5 C :   -0.217220
   6 C :   -0.205233
   7 H :    0.246351
   8 H :    0.230079
   9 H :    0.227162
  10 H :    0.230079
  11 H :    0.246351
Sum of atomic charges:    0.0000000

LOEWDIN ATOMIC CHARGES
----------------------
   0 Br:    0.068981
   1 C :   -0.122601
   2 C :   -0.140638
   3 C :   -0.125585
   4 C :   -0.134633
   5 C :   -0.125585
   6 C :   -0.140638
   7 H :    0.148891
   8 H :    0.141494
   9 H :    0.139929
  10 H :    0.141494
  11 H :    0.148891

  Mayer bond orders larger than 0.100000
B(  0-Br,  1-C ) :   1.0348 B(  1-C ,  2-C ) :   1.3733 B(  1-C ,  6-C ) :   1.3733
B(  2-C ,  3-C ) :   1.4281 B(  2-C ,  7-H ) :   0.9096 B(  3-C ,  4-C ) :   1.4221
B(  3-C ,  8-H ) :   0.9159 B(  4-C ,  5-C ) :   1.4221 B(  4-C ,  9-H ) :   0.9180
B(  5-C ,  6-C ) :   1.4281 B(  5-C , 10-H ) :   0.9159 B(  6-C , 11-H ) :   0.9096

Dispersion correction           -0.006913203
FINAL SINGLE POINT ENERGY     -2804.138923897074

DIPOLE MOMENT
-------------
                                X             Y             Z
Electronic contribution:      0.00000       0.00000      24.33124
Nuclear contribution   :      0.00000       0.00000     -25.04711
                        -----------------------------------------
Total Dipole Moment    :      0.00000       0.00000      -0.71587
                        -----------------------------------------
Magnitude (a.u.)       :      0.71587
Magnitude (Debye)      :      1.81959

Rotational constants in cm-1:     0.191506     0.033188     0.028286
Rotational constants in MHz :  5741.202112   994.956331   847.997481

                             ****ORCA TERMINATED NORMALLY****
TOTAL RUN TIME: 0 days 0 hours 1 minutes 52 seconds 431 msec
