                         Program Version 5.0.3 -  RELEASE  -
|  1> ! PBEh-3c def2/J TightSCF DefGrid3
|  2>
|  3> %maxcore 60000
|  4>
|  5> %pal
|  6> nprocs 4
|  7> end
|  8>
|  9> *xyzfile 1 2 P36.xyz
| 10>
| 11>                          ****END OF INPUT****

CARTESIAN COORDINATES (ANGSTROEM)
---------------------------------
  C     -0.821559    0.191154    0.004069
  S      0.950481    0.295791    0.004969
  H     -1.309579    0.336943    0.957814
  H      1.244029   -0.560848   -1.015899
  H     -1.309753    0.327610   -0.950922
  H      1.246381   -0.590650    0.999969

 Total Charge           Charge          ....    1
 Multiplicity           Mult            ....    2
 Number of Electrons    NEL             ....   25
 Basis Dimension        Dim             ....   41

ORBITAL ENERGIES
----------------
                 SPIN UP ORBITALS
  NO   OCC          E(Eh)            E(eV)
   0   1.0000     -89.936319     -2447.2916
   1   1.0000     -10.735686      -292.1329
   2   1.0000      -8.577107      -233.3949
   3   1.0000      -6.465358      -175.9313
   4   1.0000      -6.465149      -175.9257
   5   1.0000      -6.461278      -175.8203
   6   1.0000      -1.192486       -32.4492
   7   1.0000      -0.994314       -27.0567
   8   1.0000      -0.819017       -22.2866
   9   1.0000      -0.760498       -20.6942
  10   1.0000      -0.726177       -19.7603
  11   1.0000      -0.698982       -19.0203
  12   1.0000      -0.534232       -14.5372
  13   0.0000      -0.214381        -5.8336
  14   0.0000      -0.199183        -5.4201
  15   0.0000      -0.147804        -4.0220
  16   0.0000      -0.030264        -0.8235
  17   0.0000      -0.003501        -0.0953

                 SPIN DOWN ORBITALS
  NO   OCC          E(Eh)            E(eV)
   0   1.0000     -89.936377     -2447.2932
   1   1.0000     -10.718508      -291.6654
   2   1.0000      -8.577120      -233.3953
   3   1.0000      -6.465834      -175.9443
   4   1.0000      -6.465584      -175.9375
   5   1.0000      -6.460699      -175.8046
   6   1.0000      -1.181412       -32.1479
   7   1.0000      -0.953395       -25.9432
   8   1.0000      -0.814031       -22.1509
   9   1.0000      -0.749432       -20.3931
  10   1.0000      -0.715908       -19.4808
  11   1.0000      -0.676522       -18.4091
  12   0.0000      -0.283459        -7.7133
  13   0.0000      -0.211609        -5.7582
  14   0.0000      -0.183589        -4.9957
  15   0.0000      -0.135452        -3.6858
  16   0.0000      -0.016204        -0.4409

MULLIKEN ATOMIC CHARGES AND SPIN POPULATIONS
--------------------------------------------
   0 C :   -0.505046    1.083360
   1 S :    0.107970   -0.026599
   2 H :    0.360604   -0.053169
   3 H :    0.337949    0.023597
   4 H :    0.360481   -0.053371
   5 H :    0.338043    0.026181
Sum of atomic charges         :    1.0000000

LOEWDIN ATOMIC CHARGES AND SPIN POPULATIONS
-------------------------------------------
   0 C :   -0.309698    0.995464
   1 S :    0.518261    0.018191
   2 H :    0.197375   -0.028034
   3 H :    0.198346    0.020135
   4 H :    0.197361   -0.028162
   5 H :    0.198355    0.022406

  Mayer bond orders larger than 0.100000
B(  0-C ,  1-S ) :   1.0060 B(  0-C ,  2-H ) :   0.8424 B(  0-C ,  4-H ) :   0.8424
B(  1-S ,  3-H ) :   0.8434 B(  1-S ,  5-H ) :   0.8421

Dispersion correction           -0.001667101
FINAL SINGLE POINT ENERGY      -437.773206085547

DIPOLE MOMENT
-------------
                                X             Y             Z
Electronic contribution:      1.80038       0.75651       0.01316
Nuclear contribution   :     -1.73346      -1.33924      -0.02403
                        -----------------------------------------
Total Dipole Moment    :      0.06692      -0.58274      -0.01087
                        -----------------------------------------
Magnitude (a.u.)       :      0.58667
Magnitude (Debye)      :      1.49119

Rotational constants in cm-1:     3.138688     0.462798     0.434208
Rotational constants in MHz : 94095.493392 13874.325797 13017.231468

                             ****ORCA TERMINATED NORMALLY****
TOTAL RUN TIME: 0 days 0 hours 2 minutes 29 seconds 153 msec
