                         Program Version 5.0.3 -  RELEASE  -
|  1> ! PBEh-3c def2/J TightSCF DefGrid3
|  2>
|  3> %maxcore 60000
|  4>
|  5> %pal
|  6> nprocs 4
|  7> end
|  8>
|  9> *xyzfile 0 1 li2_ch4.xyz
| 10>
| 11>                          ****END OF INPUT****

CARTESIAN COORDINATES (ANGSTROEM)
---------------------------------
  C      0.142330   -0.104724    0.735495
  Li    -0.429584   -0.947244   -1.095303
  Li     0.041782    1.215099   -0.903438
  H     -0.451238    0.307194   -2.312780
  H      0.442850    0.801310    1.286297
  H      0.962034   -0.801145    0.961599
  H     -0.708175   -0.470490    1.328131

 Total Charge           Charge          ....    0
 Multiplicity           Mult            ....    1
 Number of Electrons    NEL             ....   16
 Basis Dimension        Dim             ....   41

ORBITAL ENERGIES
----------------

  NO   OCC          E(Eh)            E(eV)
   0   2.0000     -10.355628      -281.7910
   1   2.0000      -2.062829       -56.1324
   2   2.0000      -2.060328       -56.0644
   3   2.0000      -0.701188       -19.0803
   4   2.0000      -0.393648       -10.7117
   5   2.0000      -0.389028       -10.5860
   6   2.0000      -0.276887        -7.5345
   7   2.0000      -0.235586        -6.4106
   8   0.0000       0.001968         0.0535
   9   0.0000       0.003360         0.0914
  10   0.0000       0.050448         1.3728
  11   0.0000       0.091482         2.4894
  12   0.0000       0.095763         2.6059

MULLIKEN ATOMIC CHARGES
-----------------------
   0 C :   -1.240873
   1 Li:    0.483647
   2 Li:    0.500910
   3 H :   -0.328808
   4 H :    0.184732
   5 H :    0.200282
   6 H :    0.200109
Sum of atomic charges:   -0.0000000

LOEWDIN ATOMIC CHARGES
----------------------
   0 C :   -0.739417
   1 Li:    0.226687
   2 Li:    0.228504
   3 H :   -0.119888
   4 H :    0.136373
   5 H :    0.133862
   6 H :    0.133878

  Mayer bond orders larger than 0.100000
B(  0-C ,  1-Li) :   0.2990 B(  0-C ,  2-Li) :   0.2670 B(  0-C ,  4-H ) :   0.9148
B(  0-C ,  5-H ) :   0.9198 B(  0-C ,  6-H ) :   0.9197 B(  1-Li,  2-Li) :   0.1267
B(  1-Li,  3-H ) :   0.4456 B(  2-Li,  3-H ) :   0.4437

Dispersion correction           -0.001778231
FINAL SINGLE POINT ENERGY       -55.390239144568

DIPOLE MOMENT
-------------
                                X             Y             Z
Electronic contribution:     -0.59502       0.40960      -3.07587
Nuclear contribution   :      0.62154      -0.41859       3.20024
                        -----------------------------------------
Total Dipole Moment    :      0.02653      -0.00900       0.12437
                        -----------------------------------------
Magnitude (a.u.)       :      0.12749
Magnitude (Debye)      :      0.32405

Rotational constants in cm-1:     0.837741     0.514501     0.338302
Rotational constants in MHz : 25114.851400 15424.354923 10142.026810

                             ****ORCA TERMINATED NORMALLY****
TOTAL RUN TIME: 0 days 0 hours 1 minutes 11 seconds 67 msec
