                         Program Version 5.0.3 -  RELEASE  -
|  1> ! PBEh-3c def2/J TightSCF DefGrid3
|  2>
|  3> %maxcore 60000
|  4>
|  5> %pal
|  6> nprocs 4
|  7> end
|  8>
|  9> *xyzfile 0 1 42A.xyz
| 10>
| 11>                          ****END OF INPUT****

CARTESIAN COORDINATES (ANGSTROEM)
---------------------------------
  N      0.321046   -1.264080    0.000000
  H      0.575731   -2.242575    0.000000
  C     -1.053715   -0.985539    0.000000
  O     -1.868290   -1.892164    0.000000
  C     -1.351369    0.436226    0.000000
  H     -2.381007    0.749494    0.000000
  C     -0.342780    1.331279    0.000000
  H     -0.513092    2.397564    0.000000
  N      0.970962    0.943278    0.000000
  H      1.715092    1.620835    0.000000
  C      1.379640   -0.379905    0.000000
  O      2.547781   -0.714413    0.000000

 Total Charge           Charge          ....    0
 Multiplicity           Mult            ....    1
 Number of Electrons    NEL             ....   58
 Basis Dimension        Dim             ....  128

ORBITAL ENERGIES
----------------

  NO   OCC          E(Eh)            E(eV)
   0   2.0000     -19.483937      -530.1849
   1   2.0000     -19.477304      -530.0044
   2   2.0000     -14.718253      -400.5040
   3   2.0000     -14.697630      -399.9428
   4   2.0000     -10.610155      -288.7170
   5   2.0000     -10.574546      -287.7480
   6   2.0000     -10.538985      -286.7804
   7   2.0000     -10.467785      -284.8429
   8   2.0000      -1.197546       -32.5869
   9   2.0000      -1.158942       -31.5364
  10   2.0000      -1.094138       -29.7730
  11   2.0000      -1.035020       -28.1643
  12   2.0000      -0.900214       -24.4961
  13   2.0000      -0.780383       -21.2353
  14   2.0000      -0.750903       -20.4331
  15   2.0000      -0.678458       -18.4618
  16   2.0000      -0.637044       -17.3348
  17   2.0000      -0.594056       -16.1651
  18   2.0000      -0.553153       -15.0520
  19   2.0000      -0.545046       -14.8314
  20   2.0000      -0.522956       -14.2304
  21   2.0000      -0.491460       -13.3733
  22   2.0000      -0.486467       -13.2374
  23   2.0000      -0.469294       -12.7701
  24   2.0000      -0.431114       -11.7312
  25   2.0000      -0.362288        -9.8584
  26   2.0000      -0.341773        -9.3001
  27   2.0000      -0.329327        -8.9614
  28   2.0000      -0.300828        -8.1860
  29   0.0000      -0.022801        -0.6204
  30   0.0000       0.038884         1.0581
  31   0.0000       0.096173         2.6170
  32   0.0000       0.153179         4.1682
  33   0.0000       0.160527         4.3682

MULLIKEN ATOMIC CHARGES
-----------------------
   0 N :   -0.723974
   1 H :    0.399041
   2 C :    0.567148
   3 O :   -0.391028
   4 C :   -0.452563
   5 H :    0.266724
   6 C :    0.084964
   7 H :    0.272815
   8 N :   -0.680096
   9 H :    0.393132
  10 C :    0.677976
  11 O :   -0.414139
Sum of atomic charges:   -0.0000000

LOEWDIN ATOMIC CHARGES
----------------------
   0 N :   -0.205347
   1 H :    0.286454
   2 C :    0.123880
   3 O :   -0.241227
   4 C :   -0.240519
   5 H :    0.163828
   6 C :   -0.013159
   7 H :    0.150078
   8 N :   -0.190225
   9 H :    0.281976
  10 C :    0.146122
  11 O :   -0.261861

  Mayer bond orders larger than 0.100000
B(  0-N ,  1-H ) :   0.7985 B(  0-N ,  2-C ) :   0.9786 B(  0-N , 10-C ) :   1.0647
B(  2-C ,  3-O ) :   2.0403 B(  2-C ,  4-C ) :   1.0562 B(  4-C ,  5-H ) :   0.9063
B(  4-C ,  6-C ) :   1.6445 B(  6-C ,  7-H ) :   0.8991 B(  6-C ,  8-N ) :   1.0757
B(  8-N ,  9-H ) :   0.8081 B(  8-N , 10-C ) :   1.0239 B( 10-C , 11-O ) :   2.0472

Dispersion correction           -0.006236911
FINAL SINGLE POINT ENERGY      -413.938371872029

DIPOLE MOMENT
-------------
                                X             Y             Z
Electronic contribution:      1.04525      -1.87939      -0.00000
Nuclear contribution   :     -0.95243       3.64268       0.00000
                        -----------------------------------------
Total Dipole Moment    :      0.09282       1.76329      -0.00000
                        -----------------------------------------
Magnitude (a.u.)       :      1.76573
Magnitude (Debye)      :      4.48814

Rotational constants in cm-1:     0.130211     0.067341     0.044386
Rotational constants in MHz :  3903.623815  2018.838470  1330.660383

                             ****ORCA TERMINATED NORMALLY****
TOTAL RUN TIME: 0 days 0 hours 1 minutes 30 seconds 745 msec
