                         Program Version 5.0.3 -  RELEASE  -
|  1> ! PBEh-3c def2/J TightSCF DefGrid3
|  2>
|  3> %maxcore 60000
|  4>
|  5> %pal
|  6> nprocs 4
|  7> end
|  8>
|  9> *xyzfile 0 2 ch3fclts.xyz
| 10>
| 11>                          ****END OF INPUT****

CARTESIAN COORDINATES (ANGSTROEM)
---------------------------------
  Cl     2.913116   -0.000151   -0.000041
  F      1.134779    0.005717    0.000122
  C     -0.929054   -0.001061   -0.000074
  H     -1.036721   -0.854276   -0.649408
  H     -1.038949   -0.137587    1.063137
  H     -1.043171    0.987356   -0.413735

 Total Charge           Charge          ....    0
 Multiplicity           Mult            ....    2
 Number of Electrons    NEL             ....   35
 Basis Dimension        Dim             ....   54

ORBITAL ENERGIES
----------------
                 SPIN UP ORBITALS
  NO   OCC          E(Eh)            E(eV)
   0   1.0000    -102.324889     -2784.4018
   1   1.0000     -25.111356      -683.3147
   2   1.0000     -10.494888      -285.5804
   3   1.0000      -9.787242      -266.3244
   4   1.0000      -7.482726      -203.6153
   5   1.0000      -7.464177      -203.1106
   6   1.0000      -7.464177      -203.1106
   7   1.0000      -1.284594       -34.9556
   8   1.0000      -0.889022       -24.1915
   9   1.0000      -0.800470       -21.7819
  10   1.0000      -0.538593       -14.6559
  11   1.0000      -0.519974       -14.1492
  12   1.0000      -0.519951       -14.1486
  13   1.0000      -0.487075       -13.2540
  14   1.0000      -0.487052       -13.2534
  15   1.0000      -0.353403        -9.6166
  16   1.0000      -0.353403        -9.6166
  17   1.0000      -0.279830        -7.6146
  18   0.0000      -0.070402        -1.9157
  19   0.0000       0.148980         4.0539
  20   0.0000       0.207664         5.6508
  21   0.0000       0.207701         5.6518
  22   0.0000       0.469642        12.7796

                 SPIN DOWN ORBITALS
  NO   OCC          E(Eh)            E(eV)
   0   1.0000    -102.321368     -2784.3060
   1   1.0000     -25.113822      -683.3818
   2   1.0000     -10.482331      -285.2387
   3   1.0000      -9.783797      -266.2306
   4   1.0000      -7.470213      -203.2748
   5   1.0000      -7.462140      -203.0552
   6   1.0000      -7.462140      -203.0552
   7   1.0000      -1.289649       -35.0931
   8   1.0000      -0.865022       -23.5384
   9   1.0000      -0.760963       -20.7069
  10   1.0000      -0.537504       -14.6262
  11   1.0000      -0.514421       -13.9981
  12   1.0000      -0.514404       -13.9977
  13   1.0000      -0.483510       -13.1570
  14   1.0000      -0.483480       -13.1562
  15   1.0000      -0.347117        -9.4455
  16   1.0000      -0.347117        -9.4455
  17   0.0000      -0.095563        -2.6004
  18   0.0000       0.003605         0.0981
  19   0.0000       0.163204         4.4410
  20   0.0000       0.213168         5.8006
  21   0.0000       0.213204         5.8016

MULLIKEN ATOMIC CHARGES AND SPIN POPULATIONS
--------------------------------------------
   0 Cl:    0.126236    0.400918
   1 F :   -0.315567   -0.121877
   2 C :   -0.558867    0.842121
   3 H :    0.249395   -0.040391
   4 H :    0.249404   -0.040388
   5 H :    0.249397   -0.040384
Sum of atomic charges         :   -0.0000000

LOEWDIN ATOMIC CHARGES AND SPIN POPULATIONS
-------------------------------------------
   0 Cl:    0.149749    0.364816
   1 F :   -0.321921   -0.057398
   2 C :   -0.262343    0.756874
   3 H :    0.144839   -0.021436
   4 H :    0.144834   -0.021431
   5 H :    0.144842   -0.021425

  Mayer bond orders larger than 0.100000
B(  0-Cl,  1-F ) :   0.6749 B(  0-Cl,  2-C ) :   0.1863 B(  1-F ,  2-C ) :   0.2850
B(  2-C ,  3-H ) :   0.9123 B(  2-C ,  4-H ) :   0.9123 B(  2-C ,  5-H ) :   0.9122

Dispersion correction           -0.001288171
FINAL SINGLE POINT ENERGY      -599.005175866937

DIPOLE MOMENT
-------------
                                X             Y             Z
Electronic contribution:      7.91740       0.00736       0.00003
Nuclear contribution   :     -8.75565      -0.01000      -0.00006
                        -----------------------------------------
Total Dipole Moment    :     -0.83825      -0.00264      -0.00003
                        -----------------------------------------
Magnitude (a.u.)       :      0.83825
Magnitude (Debye)      :      2.13066

Rotational constants in cm-1:     4.851319     0.102250     0.102249
Rotational constants in MHz : 145438.890704  3065.374620  3065.356916

                             ****ORCA TERMINATED NORMALLY****
TOTAL RUN TIME: 0 days 0 hours 1 minutes 44 seconds 620 msec
