                         Program Version 5.0.3 -  RELEASE  -
|  1> ! PBEh-3c def2/J TightSCF DefGrid3
|  2>
|  3> %maxcore 60000
|  4>
|  5> %pal
|  6> nprocs 4
|  7> end
|  8>
|  9> *xyzfile 0 1 R52.xyz
| 10>
| 11>                          ****END OF INPUT****

CARTESIAN COORDINATES (ANGSTROEM)
---------------------------------
  C     -0.522576   -1.018641    0.000000
  C      0.742069   -1.917288    0.000000
  C      0.000000    0.412015    0.000000
  C      1.882741   -0.935571    0.000000
  C      1.455408    0.330166    0.000000
  C     -0.720211    1.537274    0.000000
  C     -2.213092    1.618926    0.000000
  H     -0.186193    2.482235    0.000000
  H     -1.145145   -1.208038    0.874807
  H     -1.145145   -1.208038   -0.874807
  H      0.779540   -2.573430   -0.873419
  H      0.779540   -2.573430    0.873419
  H      2.918886   -1.243183    0.000000
  H      2.090355    1.205248    0.000000
  H     -2.677541    0.633978    0.000000
  H     -2.580163    2.161686   -0.875938
  H     -2.580163    2.161686    0.875938

 Total Charge           Charge          ....    0
 Multiplicity           Mult            ....    1
 Number of Electrons    NEL             ....   52
 Basis Dimension        Dim             ....  125

ORBITAL ENERGIES
----------------

  NO   OCC          E(Eh)            E(eV)
   0   2.0000     -10.442147      -284.1453
   1   2.0000     -10.441193      -284.1193
   2   2.0000     -10.438852      -284.0556
   3   2.0000     -10.436291      -283.9859
   4   2.0000     -10.436136      -283.9817
   5   2.0000     -10.431341      -283.8512
   6   2.0000     -10.427002      -283.7332
   7   2.0000      -0.946979       -25.7686
   8   2.0000      -0.861060       -23.4306
   9   2.0000      -0.798942       -21.7403
  10   2.0000      -0.775822       -21.1112
  11   2.0000      -0.694083       -18.8869
  12   2.0000      -0.617827       -16.8119
  13   2.0000      -0.587109       -15.9760
  14   2.0000      -0.548422       -14.9233
  15   2.0000      -0.517425       -14.0799
  16   2.0000      -0.486229       -13.2310
  17   2.0000      -0.461883       -12.5685
  18   2.0000      -0.444433       -12.0936
  19   2.0000      -0.425098       -11.5675
  20   2.0000      -0.414590       -11.2816
  21   2.0000      -0.409121       -11.1327
  22   2.0000      -0.399570       -10.8729
  23   2.0000      -0.375343       -10.2136
  24   2.0000      -0.346923        -9.4402
  25   2.0000      -0.242950        -6.6110
  26   0.0000       0.016564         0.4507
  27   0.0000       0.108748         2.9592
  28   0.0000       0.151671         4.1272
  29   0.0000       0.164891         4.4869
  30   0.0000       0.180879         4.9220

MULLIKEN ATOMIC CHARGES
-----------------------
   0 C :   -0.509457
   1 C :   -0.458200
   2 C :    0.130827
   3 C :   -0.234768
   4 C :   -0.185270
   5 C :   -0.290315
   6 C :   -0.688595
   7 H :    0.203080
   8 H :    0.236705
   9 H :    0.236705
  10 H :    0.228589
  11 H :    0.228589
  12 H :    0.216842
  13 H :    0.210477
  14 H :    0.224607
  15 H :    0.225092
  16 H :    0.225092
Sum of atomic charges:   -0.0000000

LOEWDIN ATOMIC CHARGES
----------------------
   0 C :   -0.230869
   1 C :   -0.234368
   2 C :   -0.061584
   3 C :   -0.138049
   4 C :   -0.135205
   5 C :   -0.172599
   6 C :   -0.358132
   7 H :    0.128278
   8 H :    0.137534
   9 H :    0.137534
  10 H :    0.130983
  11 H :    0.130983
  12 H :    0.131511
  13 H :    0.134536
  14 H :    0.131037
  15 H :    0.134205
  16 H :    0.134205

  Mayer bond orders larger than 0.100000
B(  0-C ,  1-C ) :   0.9650 B(  0-C ,  2-C ) :   0.9659 B(  0-C ,  8-H ) :   0.9169
B(  0-C ,  9-H ) :   0.9169 B(  1-C ,  3-C ) :   1.0090 B(  1-C , 10-H ) :   0.9140
B(  1-C , 11-H ) :   0.9140 B(  2-C ,  4-C ) :   1.0870 B(  2-C ,  5-C ) :   1.7686
B(  3-C ,  4-C ) :   1.8031 B(  3-C ,  5-C ) :   0.1037 B(  3-C , 12-H ) :   0.9223
B(  4-C , 13-H ) :   0.9260 B(  5-C ,  6-C ) :   1.0055 B(  5-C ,  7-H ) :   0.9275
B(  6-C , 14-H ) :   0.9272 B(  6-C , 15-H ) :   0.9170 B(  6-C , 16-H ) :   0.9170

Dispersion correction           -0.008368826
FINAL SINGLE POINT ENERGY      -272.130233115785

DIPOLE MOMENT
-------------
                                X             Y             Z
Electronic contribution:      3.82126       0.00462       0.00000
Nuclear contribution   :     -3.88539      -0.16729       0.00000
                        -----------------------------------------
Total Dipole Moment    :     -0.06412      -0.16267       0.00000
                        -----------------------------------------
Magnitude (a.u.)       :      0.17485
Magnitude (Debye)      :      0.44443

Rotational constants in cm-1:     0.212929     0.061047     0.048713
Rotational constants in MHz :  6383.456724  1830.137117  1460.389376

                             ****ORCA TERMINATED NORMALLY****
TOTAL RUN TIME: 0 days 0 hours 1 minutes 9 seconds 691 msec
