                         Program Version 5.0.3 -  RELEASE  -
|  1> ! PBEh-3c def2/J TightSCF DefGrid3
|  2>
|  3> %maxcore 60000
|  4>
|  5> %pal
|  6> nprocs 4
|  7> end
|  8>
|  9> *xyzfile 0 1 alh.xyz
| 10>
| 11>                          ****END OF INPUT****

CARTESIAN COORDINATES (ANGSTROEM)
---------------------------------
  Al     0.059415    0.000000    0.000000
  H     -1.590555    0.000000    0.000000

 Total Charge           Charge          ....    0
 Multiplicity           Mult            ....    1
 Number of Electrons    NEL             ....   14
 Basis Dimension        Dim             ....   20

ORBITAL ENERGIES
----------------

  NO   OCC          E(Eh)            E(eV)
   0   2.0000     -56.617535     -1540.6415
   1   2.0000      -4.356507      -118.5466
   2   2.0000      -2.844373       -77.3993
   3   2.0000      -2.844373       -77.3993
   4   2.0000      -2.838665       -77.2440
   5   2.0000      -0.412874       -11.2349
   6   2.0000      -0.237616        -6.4658
   7   0.0000      -0.048929        -1.3314
   8   0.0000      -0.048929        -1.3314
   9   0.0000       0.106360         2.8942
  10   0.0000       0.127138         3.4596
  11   0.0000       0.350023         9.5246

MULLIKEN ATOMIC CHARGES
-----------------------
   0 Al:    0.179054
   1 H :   -0.179054
Sum of atomic charges:    0.0000000

LOEWDIN ATOMIC CHARGES
----------------------
   0 Al:    0.130602
   1 H :   -0.130602

  Mayer bond orders larger than 0.100000
B(  0-Al,  1-H ) :   0.9405

Dispersion correction           -0.000215028
FINAL SINGLE POINT ENERGY      -242.640595761312

DIPOLE MOMENT
-------------
                                X             Y             Z
Electronic contribution:      1.40007       0.00000       0.00000
Nuclear contribution   :     -1.54596       0.00000       0.00000
                        -----------------------------------------
Total Dipole Moment    :     -0.14589       0.00000       0.00000
                        -----------------------------------------
Magnitude (a.u.)       :      0.14589
Magnitude (Debye)      :      0.37083

Rotational constants in cm-1:     0.000000     6.372540     6.372540
Rotational constants in MHz :     0.000000 191043.938498 191043.938498

                             ****ORCA TERMINATED NORMALLY****
TOTAL RUN TIME: 0 days 0 hours 0 minutes 20 seconds 492 msec
