                         Program Version 5.0.3 -  RELEASE  -
|  1> ! PBEh-3c def2/J TightSCF DefGrid3
|  2>
|  3> %maxcore 60000
|  4>
|  5> %pal
|  6> nprocs 4
|  7> end
|  8>
|  9> *xyzfile 0 3 EA_20n.xyz
| 10>
| 11>                          ****END OF INPUT****

CARTESIAN COORDINATES (ANGSTROEM)
---------------------------------
  O      0.000000    0.000000    0.604490
  O      0.000000    0.000000   -0.604490

 Total Charge           Charge          ....    0
 Multiplicity           Mult            ....    3
 Number of Electrons    NEL             ....   16
 Basis Dimension        Dim             ....   30

ORBITAL ENERGIES
----------------
                 SPIN UP ORBITALS
  NO   OCC          E(Eh)            E(eV)
   0   1.0000     -19.657695      -534.9131
   1   1.0000     -19.657684      -534.9128
   2   1.0000      -1.430962       -38.9384
   3   1.0000      -0.942799       -25.6549
   4   1.0000      -0.646848       -17.6016
   5   1.0000      -0.646848       -17.6016
   6   1.0000      -0.616322       -16.7710
   7   1.0000      -0.379001       -10.3131
   8   1.0000      -0.379001       -10.3131
   9   0.0000       0.256526         6.9804
  10   0.0000       0.772076        21.0093
  11   0.0000       0.866348        23.5745
  12   0.0000       0.866348        23.5745
  13   0.0000       0.938827        25.5468

                 SPIN DOWN ORBITALS
  NO   OCC          E(Eh)            E(eV)
   0   1.0000     -19.622665      -533.9598
   1   1.0000     -19.622407      -533.9528
   2   1.0000      -1.357683       -36.9444
   3   1.0000      -0.826878       -22.5005
   4   1.0000      -0.568844       -15.4790
   5   1.0000      -0.506134       -13.7726
   6   1.0000      -0.506134       -13.7726
   7   0.0000      -0.059484        -1.6186
   8   0.0000      -0.059484        -1.6186
   9   0.0000       0.309065         8.4101
  10   0.0000       0.793347        21.5881
  11   0.0000       0.936412        25.4811

MULLIKEN ATOMIC CHARGES AND SPIN POPULATIONS
--------------------------------------------
   0 O :   -0.000000    1.000000
   1 O :    0.000000    1.000000
Sum of atomic charges         :   -0.0000000

LOEWDIN ATOMIC CHARGES AND SPIN POPULATIONS
-------------------------------------------
   0 O :   -0.000000    1.000000
   1 O :    0.000000    1.000000

  Mayer bond orders larger than 0.100000
B(  0-O ,  1-O ) :   1.9665

Dispersion correction           -0.000143541
FINAL SINGLE POINT ENERGY      -150.012886768162

DIPOLE MOMENT
-------------
                                X             Y             Z
Electronic contribution:     -0.00000      -0.00000      -0.00000
Nuclear contribution   :      0.00000       0.00000       0.00000
                        -----------------------------------------
Total Dipole Moment    :     -0.00000      -0.00000      -0.00000
                        -----------------------------------------
Magnitude (a.u.)       :      0.00000
Magnitude (Debye)      :      0.00000

Rotational constants in cm-1:     0.000000     1.441769     1.441769
Rotational constants in MHz :     0.000000 43223.147073 43223.147073

                             ****ORCA TERMINATED NORMALLY****
TOTAL RUN TIME: 0 days 0 hours 0 minutes 21 seconds 379 msec
