                         Program Version 5.0.3 -  RELEASE  -
|  1> ! PBEh-3c def2/J TightSCF DefGrid3
|  2>
|  3> %maxcore 60000
|  4>
|  5> %pal
|  6> nprocs 4
|  7> end
|  8>
|  9> *xyzfile 0 2 P41.xyz
| 10>
| 11>                          ****END OF INPUT****

CARTESIAN COORDINATES (ANGSTROEM)
---------------------------------
  N     -1.790578   -0.266663    0.037388
  C     -0.612105    0.411897   -0.031964
  C      0.601138   -0.363801   -0.010662
  O      0.577921   -1.599781   -0.014654
  N      1.794815    0.337890   -0.035157
  H     -1.717311   -1.271626   -0.058375
  H     -2.649890    0.170226   -0.248406
  H     -0.638014    1.491478   -0.065881
  H      1.815785    1.299015    0.264972
  H      2.618240   -0.208634    0.162740

 Total Charge           Charge          ....    0
 Multiplicity           Mult            ....    2
 Number of Electrons    NEL             ....   39
 Basis Dimension        Dim             ....   85

ORBITAL ENERGIES
----------------
                 SPIN UP ORBITALS
  NO   OCC          E(Eh)            E(eV)
   0   1.0000     -19.441475      -529.0294
   1   1.0000     -14.659198      -398.8971
   2   1.0000     -14.638166      -398.3247
   3   1.0000     -10.531416      -286.5744
   4   1.0000     -10.475395      -285.0500
   5   1.0000      -1.125283       -30.6205
   6   1.0000      -1.022088       -27.8124
   7   1.0000      -0.984887       -26.8001
   8   1.0000      -0.787954       -21.4413
   9   1.0000      -0.645198       -17.5567
  10   1.0000      -0.621649       -16.9159
  11   1.0000      -0.589270       -16.0349
  12   1.0000      -0.517350       -14.0778
  13   1.0000      -0.511639       -13.9224
  14   1.0000      -0.477462       -12.9924
  15   1.0000      -0.448596       -12.2069
  16   1.0000      -0.401199       -10.9172
  17   1.0000      -0.320095        -8.7102
  18   1.0000      -0.303423        -8.2565
  19   1.0000      -0.205594        -5.5945
  20   0.0000       0.110947         3.0190
  21   0.0000       0.133753         3.6396
  22   0.0000       0.142995         3.8911
  23   0.0000       0.176477         4.8022
  24   0.0000       0.201617         5.4863

                 SPIN DOWN ORBITALS
  NO   OCC          E(Eh)            E(eV)
   0   1.0000     -19.437127      -528.9111
   1   1.0000     -14.652250      -398.7080
   2   1.0000     -14.636968      -398.2921
   3   1.0000     -10.532016      -286.5907
   4   1.0000     -10.465296      -284.7752
   5   1.0000      -1.117493       -30.4085
   6   1.0000      -1.004631       -27.3374
   7   1.0000      -0.980649       -26.6848
   8   1.0000      -0.762465       -20.7477
   9   1.0000      -0.638346       -17.3703
  10   1.0000      -0.616879       -16.7861
  11   1.0000      -0.586519       -15.9600
  12   1.0000      -0.510348       -13.8873
  13   1.0000      -0.505268       -13.7490
  14   1.0000      -0.449437       -12.2298
  15   1.0000      -0.441702       -12.0193
  16   1.0000      -0.350075        -9.5260
  17   1.0000      -0.302322        -8.2266
  18   1.0000      -0.292584        -7.9616
  19   0.0000      -0.022081        -0.6009
  20   0.0000       0.132273         3.5993
  21   0.0000       0.138931         3.7805
  22   0.0000       0.161719         4.4006
  23   0.0000       0.179193         4.8761

MULLIKEN ATOMIC CHARGES AND SPIN POPULATIONS
--------------------------------------------
   0 N :   -0.725997    0.250357
   1 C :   -0.142134    0.653994
   2 C :    0.461560   -0.022370
   3 O :   -0.457556    0.141996
   4 N :   -0.815276    0.041333
   5 H :    0.386075   -0.011091
   6 H :    0.358272   -0.007981
   7 H :    0.225753   -0.040929
   8 H :    0.345528   -0.002244
   9 H :    0.363775   -0.003064
Sum of atomic charges         :    0.0000000

LOEWDIN ATOMIC CHARGES AND SPIN POPULATIONS
-------------------------------------------
   0 N :   -0.330163    0.271577
   1 C :   -0.168680    0.562433
   2 C :    0.069006    0.019525
   3 O :   -0.314067    0.136123
   4 N :   -0.399013    0.043114
   5 H :    0.265605   -0.006526
   6 H :    0.250268   -0.003783
   7 H :    0.127991   -0.019209
   8 H :    0.244145   -0.001368
   9 H :    0.254909   -0.001887

  Mayer bond orders larger than 0.100000
B(  0-N ,  1-C ) :   1.2693 B(  0-N ,  5-H ) :   0.7966 B(  0-N ,  6-H ) :   0.8364
B(  1-C ,  2-C ) :   1.1307 B(  1-C ,  7-H ) :   0.9039 B(  2-C ,  3-O ) :   1.9412
B(  2-C ,  4-N ) :   1.0679 B(  4-N ,  8-H ) :   0.8415 B(  4-N ,  9-H ) :   0.8336

Dispersion correction           -0.003666059
FINAL SINGLE POINT ENERGY      -263.357686346658

DIPOLE MOMENT
-------------
                                X             Y             Z
Electronic contribution:      0.62148      -1.52570      -0.01045
Nuclear contribution   :     -1.08227       2.81970       0.09402
                        -----------------------------------------
Total Dipole Moment    :     -0.46079       1.29400       0.08357
                        -----------------------------------------
Magnitude (a.u.)       :      1.37614
Magnitude (Debye)      :      3.49787

Rotational constants in cm-1:     0.365786     0.135825     0.099298
Rotational constants in MHz : 10965.987889  4071.931207  2976.881532

                             ****ORCA TERMINATED NORMALLY****
TOTAL RUN TIME: 0 days 0 hours 3 minutes 6 seconds 948 msec
