                         Program Version 5.0.3 -  RELEASE  -
|  1> ! PBEh-3c def2/J TightSCF DefGrid3
|  2>
|  3> %maxcore 60000
|  4>
|  5> %pal
|  6> nprocs 4
|  7> end
|  8>
|  9> *xyzfile 0 1 E11.xyz
| 10>
| 11>                          ****END OF INPUT****

CARTESIAN COORDINATES (ANGSTROEM)
---------------------------------
  C     -0.124290    1.431827   -1.357121
  C      0.000000    0.000000   -0.794831
  C      0.000000    0.000000    0.794831
  C     -0.124290   -1.431827    1.357121
  C     -1.177854   -0.823552   -1.357121
  C      1.302144   -0.608275   -1.357121
  C     -1.177854    0.823552    1.357121
  C      1.302144    0.608275    1.357121
  H     -1.095391    1.877015   -1.134855
  H      0.649420    2.097493   -0.969594
  H     -0.018572    1.410699   -2.444932
  H     -1.095391   -1.877015    1.134855
  H      0.649420   -2.097493    0.969594
  H     -0.018572   -1.410699    2.444932
  H     -2.141193   -0.486332   -0.969594
  H     -1.212416   -0.721434   -2.444932
  H     -1.077847   -1.887144   -1.134855
  H      2.173238    0.010129   -1.134855
  H      1.491772   -1.611161   -0.969594
  H      1.230988   -0.689266   -2.444932
  H     -2.141193    0.486332    0.969594
  H     -1.212416    0.721434    2.444932
  H     -1.077847    1.887144    1.134855
  H      2.173238   -0.010129    1.134855
  H      1.491772    1.611161    0.969594
  H      1.230988    0.689266    2.444932

 Total Charge           Charge          ....    0
 Multiplicity           Mult            ....    1
 Number of Electrons    NEL             ....   66
 Basis Dimension        Dim             ....  156

ORBITAL ENERGIES
----------------

  NO   OCC          E(Eh)            E(eV)
   0   2.0000     -10.451860      -284.4096
   1   2.0000     -10.451697      -284.4051
   2   2.0000     -10.417974      -283.4875
   3   2.0000     -10.417973      -283.4875
   4   2.0000     -10.417947      -283.4867
   5   2.0000     -10.417946      -283.4867
   6   2.0000     -10.417906      -283.4856
   7   2.0000     -10.417847      -283.4840
   8   2.0000      -0.925710       -25.1899
   9   2.0000      -0.853469       -23.2241
  10   2.0000      -0.771305       -20.9883
  11   2.0000      -0.771305       -20.9883
  12   2.0000      -0.744944       -20.2709
  13   2.0000      -0.744942       -20.2709
  14   2.0000      -0.657422       -17.8894
  15   2.0000      -0.565862       -15.3979
  16   2.0000      -0.534299       -14.5390
  17   2.0000      -0.497614       -13.5408
  18   2.0000      -0.497609       -13.5406
  19   2.0000      -0.485287       -13.2053
  20   2.0000      -0.485284       -13.2053
  21   2.0000      -0.450314       -12.2537
  22   2.0000      -0.432084       -11.7576
  23   2.0000      -0.432083       -11.7576
  24   2.0000      -0.423450       -11.5227
  25   2.0000      -0.412280       -11.2187
  26   2.0000      -0.412278       -11.2186
  27   2.0000      -0.398333       -10.8392
  28   2.0000      -0.388515       -10.5720
  29   2.0000      -0.388513       -10.5720
  30   2.0000      -0.347962        -9.4685
  31   2.0000      -0.347960        -9.4685
  32   2.0000      -0.340419        -9.2633
  33   0.0000       0.112012         3.0480
  34   0.0000       0.165945         4.5156
  35   0.0000       0.169966         4.6250
  36   0.0000       0.169967         4.6250
  37   0.0000       0.179593         4.8870

MULLIKEN ATOMIC CHARGES
-----------------------
   0 C :   -0.633498
   1 C :   -0.049431
   2 C :   -0.049431
   3 C :   -0.633498
   4 C :   -0.633538
   5 C :   -0.633521
   6 C :   -0.633538
   7 C :   -0.633521
   8 H :    0.220186
   9 H :    0.214339
  10 H :    0.215474
  11 H :    0.220186
  12 H :    0.214339
  13 H :    0.215474
  14 H :    0.214326
  15 H :    0.215469
  16 H :    0.220203
  17 H :    0.220200
  18 H :    0.214313
  19 H :    0.215478
  20 H :    0.214326
  21 H :    0.215469
  22 H :    0.220202
  23 H :    0.220200
  24 H :    0.214313
  25 H :    0.215478
Sum of atomic charges:    0.0000000

LOEWDIN ATOMIC CHARGES
----------------------
   0 C :   -0.345488
   1 C :   -0.085475
   2 C :   -0.085475
   3 C :   -0.345488
   4 C :   -0.345497
   5 C :   -0.345493
   6 C :   -0.345497
   7 C :   -0.345493
   8 H :    0.125595
   9 H :    0.122748
  10 H :    0.125643
  11 H :    0.125595
  12 H :    0.122748
  13 H :    0.125643
  14 H :    0.122744
  15 H :    0.125642
  16 H :    0.125599
  17 H :    0.125598
  18 H :    0.122739
  19 H :    0.125645
  20 H :    0.122744
  21 H :    0.125642
  22 H :    0.125599
  23 H :    0.125598
  24 H :    0.122739
  25 H :    0.125645

  Mayer bond orders larger than 0.100000
B(  0-C ,  1-C ) :   0.9804 B(  0-C ,  8-H ) :   0.9255 B(  0-C ,  9-H ) :   0.9247
B(  0-C , 10-H ) :   0.9260 B(  1-C ,  2-C ) :   0.9245 B(  1-C ,  4-C ) :   0.9804
B(  1-C ,  5-C ) :   0.9804 B(  2-C ,  3-C ) :   0.9804 B(  2-C ,  6-C ) :   0.9804
B(  2-C ,  7-C ) :   0.9804 B(  3-C , 11-H ) :   0.9255 B(  3-C , 12-H ) :   0.9247
B(  3-C , 13-H ) :   0.9260 B(  4-C , 14-H ) :   0.9247 B(  4-C , 15-H ) :   0.9260
B(  4-C , 16-H ) :   0.9255 B(  5-C , 17-H ) :   0.9255 B(  5-C , 18-H ) :   0.9247
B(  5-C , 19-H ) :   0.9260 B(  6-C , 20-H ) :   0.9247 B(  6-C , 21-H ) :   0.9260
B(  6-C , 22-H ) :   0.9255 B(  7-C , 23-H ) :   0.9255 B(  7-C , 24-H ) :   0.9247
B(  7-C , 25-H ) :   0.9260

Dispersion correction           -0.015336262
FINAL SINGLE POINT ENERGY      -315.020955548140

DIPOLE MOMENT
-------------
                                X             Y             Z
Electronic contribution:      0.00003      -0.00000      -0.00000
Nuclear contribution   :      0.00000      -0.00000       0.00000
                        -----------------------------------------
Total Dipole Moment    :      0.00003      -0.00000      -0.00000
                        -----------------------------------------
Magnitude (a.u.)       :      0.00003
Magnitude (Debye)      :      0.00009

Rotational constants in cm-1:     0.077109     0.054939     0.054939
Rotational constants in MHz :  2311.681411  1647.026496  1647.026490

                             ****ORCA TERMINATED NORMALLY****
TOTAL RUN TIME: 0 days 0 hours 1 minutes 38 seconds 408 msec
