                         Program Version 5.0.3 -  RELEASE  -
|  1> ! PBEh-3c def2/J TightSCF DefGrid3
|  2>
|  3> %maxcore 60000
|  4>
|  5> %pal
|  6> nprocs 4
|  7> end
|  8>
|  9> *xyzfile 0 1 24.xyz
| 10>
| 11>                          ****END OF INPUT****

CARTESIAN COORDINATES (ANGSTROEM)
---------------------------------
  N      1.243526    2.976933    0.005775
  C     -0.047852    2.612398    0.325297
  C     -0.150259    1.240872    0.376059
  C      1.155934    0.730233    0.066525
  C      1.688041   -0.569559   -0.031159
  C      3.025230   -0.715350   -0.356327
  C      3.855245    0.404215   -0.586879
  C      3.357306    1.694128   -0.488177
  C      2.004807    1.843452   -0.158019
  H      1.573396    3.920160   -0.084770
  H     -0.805241    3.360289    0.496161
  H      1.082152   -1.451616    0.131801
  H      4.887827    0.235842   -0.861669
  H      3.994647    2.549707   -0.671200
  O      3.550428   -1.988792   -0.499609
  C      4.344216   -2.378402    0.617712
  H      5.190601   -1.702593    0.758539
  H      3.745635   -2.392519    1.531856
  H      4.712269   -3.379169    0.406691
  C     -1.387214    0.440418    0.634970
  C     -1.983234   -0.105365   -0.670684
  N     -3.177585   -0.905682   -0.454949
  C     -4.386266   -0.323177   -0.218190
  C     -5.532817   -1.277549    0.049495
  H     -1.162552   -0.396783    1.301492
  H     -2.142995    1.055605    1.123746
  H     -2.250362    0.730508   -1.315282
  H     -1.250622   -0.718675   -1.195106
  H     -3.095539   -1.902105   -0.370972
  O     -4.541120    0.890795   -0.225510
  H     -6.342317   -1.046352   -0.639367
  H     -5.256979   -2.324985   -0.058851
  H     -5.898304   -1.106876    1.060609

 Total Charge           Charge          ....    0
 Multiplicity           Mult            ....    1
 Number of Electrons    NEL             ....  124
 Basis Dimension        Dim             ....  287

ORBITAL ENERGIES
----------------

  NO   OCC          E(Eh)            E(eV)
   0   2.0000     -19.503199      -530.7090
   1   2.0000     -19.447281      -529.1874
   2   2.0000     -14.683539      -399.5594
   3   2.0000     -14.657129      -398.8408
   4   2.0000     -10.542035      -286.8634
   5   2.0000     -10.491336      -285.4838
   6   2.0000     -10.479308      -285.1565
   7   2.0000     -10.478153      -285.1250
   8   2.0000     -10.476047      -285.0677
   9   2.0000     -10.468135      -284.8524
  10   2.0000     -10.451791      -284.4077
  11   2.0000     -10.444092      -284.1982
  12   2.0000     -10.442364      -284.1512
  13   2.0000     -10.441240      -284.1206
  14   2.0000     -10.439422      -284.0711
  15   2.0000     -10.438648      -284.0501
  16   2.0000     -10.437086      -284.0075
  17   2.0000      -1.151237       -31.3268
  18   2.0000      -1.133938       -30.8560
  19   2.0000      -1.085806       -29.5463
  20   2.0000      -1.016485       -27.6600
  21   2.0000      -0.935785       -25.4640
  22   2.0000      -0.897166       -24.4131
  23   2.0000      -0.848318       -23.0839
  24   2.0000      -0.828704       -22.5502
  25   2.0000      -0.818043       -22.2601
  26   2.0000      -0.794072       -21.6078
  27   2.0000      -0.764268       -20.7968
  28   2.0000      -0.720312       -19.6007
  29   2.0000      -0.696807       -18.9611
  30   2.0000      -0.665136       -18.0993
  31   2.0000      -0.650044       -17.6886
  32   2.0000      -0.627434       -17.0733
  33   2.0000      -0.608904       -16.5691
  34   2.0000      -0.569354       -15.4929
  35   2.0000      -0.566604       -15.4181
  36   2.0000      -0.553684       -15.0665
  37   2.0000      -0.531333       -14.4583
  38   2.0000      -0.521180       -14.1820
  39   2.0000      -0.515220       -14.0199
  40   2.0000      -0.508807       -13.8454
  41   2.0000      -0.504494       -13.7280
  42   2.0000      -0.493431       -13.4269
  43   2.0000      -0.484160       -13.1747
  44   2.0000      -0.478143       -13.0109
  45   2.0000      -0.469792       -12.7837
  46   2.0000      -0.457060       -12.4372
  47   2.0000      -0.454312       -12.3625
  48   2.0000      -0.452896       -12.3239
  49   2.0000      -0.444600       -12.0982
  50   2.0000      -0.433234       -11.7889
  51   2.0000      -0.407444       -11.0871
  52   2.0000      -0.402628       -10.9561
  53   2.0000      -0.399397       -10.8681
  54   2.0000      -0.384128       -10.4527
  55   2.0000      -0.373483       -10.1630
  56   2.0000      -0.325036        -8.8447
  57   2.0000      -0.321864        -8.7584
  58   2.0000      -0.302299        -8.2260
  59   2.0000      -0.295831        -8.0500
  60   2.0000      -0.252720        -6.8768
  61   2.0000      -0.238917        -6.5013
  62   0.0000       0.006658         0.1812
  63   0.0000       0.051466         1.4005
  64   0.0000       0.067368         1.8332
  65   0.0000       0.094846         2.5809
  66   0.0000       0.116994         3.1836

MULLIKEN ATOMIC CHARGES
-----------------------
   0 N :   -0.702066
   1 C :   -0.054960
   2 C :    0.022043
   3 C :    0.070295
   4 C :   -0.434329
   5 C :    0.360067
   6 C :   -0.313437
   7 C :   -0.262392
   8 C :    0.368426
   9 H :    0.358952
  10 H :    0.247768
  11 H :    0.208341
  12 H :    0.226383
  13 H :    0.213996
  14 O :   -0.486929
  15 C :   -0.376245
  16 H :    0.198175
  17 H :    0.201909
  18 H :    0.218567
  19 C :   -0.533238
  20 C :   -0.273801
  21 N :   -0.631946
  22 C :    0.523071
  23 C :   -0.749408
  24 H :    0.213441
  25 H :    0.258846
  26 H :    0.256300
  27 H :    0.234017
  28 H :    0.350794
  29 O :   -0.434463
  30 H :    0.259789
  31 H :    0.207611
  32 H :    0.254423
Sum of atomic charges:    0.0000000

LOEWDIN ATOMIC CHARGES
----------------------
   0 N :   -0.157401
   1 C :   -0.077027
   2 C :   -0.104221
   3 C :   -0.054862
   4 C :   -0.154199
   5 C :    0.041600
   6 C :   -0.161247
   7 C :   -0.152853
   8 C :    0.013085
   9 H :    0.261857
  10 H :    0.139562
  11 H :    0.140686
  12 H :    0.141477
  13 H :    0.136688
  14 O :   -0.221909
  15 C :   -0.172708
  16 H :    0.107779
  17 H :    0.110154
  18 H :    0.123188
  19 C :   -0.234661
  20 C :   -0.143380
  21 N :   -0.243564
  22 C :    0.105354
  23 C :   -0.390516
  24 H :    0.127142
  25 H :    0.147151
  26 H :    0.143576
  27 H :    0.127083
  28 H :    0.251248
  29 O :   -0.285438
  30 H :    0.156934
  31 H :    0.124545
  32 H :    0.154876

  Mayer bond orders larger than 0.100000
B(  0-N ,  1-C ) :   1.1296 B(  0-N ,  8-C ) :   1.0156 B(  0-N ,  9-H ) :   0.8333
B(  1-C ,  2-C ) :   1.5627 B(  1-C , 10-H ) :   0.9074 B(  2-C ,  3-C ) :   1.2349
B(  2-C , 19-C ) :   0.9613 B(  3-C ,  4-C ) :   1.2399 B(  3-C ,  8-C ) :   1.2384
B(  4-C ,  5-C ) :   1.4844 B(  4-C , 11-H ) :   0.9322 B(  5-C ,  6-C ) :   1.3199
B(  5-C , 14-O ) :   0.9510 B(  6-C ,  7-C ) :   1.4832 B(  6-C , 12-H ) :   0.9127
B(  7-C ,  8-C ) :   1.2912 B(  7-C , 13-H ) :   0.9208 B( 14-O , 15-C ) :   0.9536
B( 15-C , 16-H ) :   0.9118 B( 15-C , 17-H ) :   0.9125 B( 15-C , 18-H ) :   0.9288
B( 19-C , 20-C ) :   0.9490 B( 19-C , 24-H ) :   0.9214 B( 19-C , 25-H ) :   0.9125
B( 20-C , 21-N ) :   0.9325 B( 20-C , 26-H ) :   0.9012 B( 20-C , 27-H ) :   0.9177
B( 21-N , 22-C ) :   1.1421 B( 21-N , 28-H ) :   0.8306 B( 22-C , 23-C ) :   0.9266
B( 22-C , 29-O ) :   1.9786 B( 23-C , 30-H ) :   0.9108 B( 23-C , 31-H ) :   0.9229
B( 23-C , 32-H ) :   0.9108

Dispersion correction           -0.020746379
FINAL SINGLE POINT ENERGY      -763.324442186736

DIPOLE MOMENT
-------------
                                X             Y             Z
Electronic contribution:      5.10216       7.27644      -2.37857
Nuclear contribution   :     -4.50294      -7.53400       2.89669
                        -----------------------------------------
Total Dipole Moment    :      0.59921      -0.25756       0.51812
                        -----------------------------------------
Magnitude (a.u.)       :      0.83297
Magnitude (Debye)      :      2.11725

Rotational constants in cm-1:     0.028039     0.007054     0.005812
Rotational constants in MHz :   840.599886   211.477680   174.250638

                             ****ORCA TERMINATED NORMALLY****
TOTAL RUN TIME: 0 days 0 hours 4 minutes 39 seconds 599 msec
