                         Program Version 5.0.3 -  RELEASE  -
|  1> ! PBEh-3c def2/J TightSCF DefGrid3
|  2>
|  3> %maxcore 60000
|  4>
|  5> %pal
|  6> nprocs 4
|  7> end
|  8>
|  9> *xyzfile 0 1 hnco.xyz
| 10>
| 11>                          ****END OF INPUT****

CARTESIAN COORDINATES (ANGSTROEM)
---------------------------------
  C      0.004157   -0.039064    0.000000
  O      1.169674    0.003272    0.000000
  N     -1.207885    0.080653    0.000000
  H     -1.831060   -0.707252    0.000000

 Total Charge           Charge          ....    0
 Multiplicity           Mult            ....    1
 Number of Electrons    NEL             ....   22
 Basis Dimension        Dim             ....   47

ORBITAL ENERGIES
----------------

  NO   OCC          E(Eh)            E(eV)
   0   2.0000     -19.558586      -532.2162
   1   2.0000     -14.665487      -399.0682
   2   2.0000     -10.604812      -288.5716
   3   2.0000      -1.232556       -33.5395
   4   2.0000      -1.048489       -28.5308
   5   2.0000      -0.676599       -18.4112
   6   2.0000      -0.584498       -15.9050
   7   2.0000      -0.533979       -14.5303
   8   2.0000      -0.527445       -14.3525
   9   2.0000      -0.385613       -10.4931
  10   2.0000      -0.357175        -9.7192
  11   0.0000       0.038011         1.0343
  12   0.0000       0.097998         2.6667
  13   0.0000       0.125858         3.4248
  14   0.0000       0.240508         6.5446
  15   0.0000       0.419826        11.4240

MULLIKEN ATOMIC CHARGES
-----------------------
   0 C :    0.530939
   1 O :   -0.301231
   2 N :   -0.615511
   3 H :    0.385803
Sum of atomic charges:   -0.0000000

LOEWDIN ATOMIC CHARGES
----------------------
   0 C :    0.192675
   1 O :   -0.117378
   2 N :   -0.357273
   3 H :    0.281975

  Mayer bond orders larger than 0.100000
B(  0-C ,  1-O ) :   2.1273 B(  0-C ,  2-N ) :   2.0036 B(  1-O ,  2-N ) :   0.2395
B(  2-N ,  3-H ) :   0.7959

Dispersion correction           -0.000818551
FINAL SINGLE POINT ENERGY      -168.317293889683

DIPOLE MOMENT
-------------
                                X             Y             Z
Electronic contribution:      1.09334       0.01261       0.00000
Nuclear contribution   :     -1.70719      -0.66303       0.00000
                        -----------------------------------------
Total Dipole Moment    :     -0.61385      -0.65042       0.00000
                        -----------------------------------------
Magnitude (a.u.)       :      0.89435
Magnitude (Debye)      :      2.27326

Rotational constants in cm-1:    27.463445     0.368839     0.363951
Rotational constants in MHz : 823333.380007 11057.503711 10910.967608

                             ****ORCA TERMINATED NORMALLY****
TOTAL RUN TIME: 0 days 0 hours 0 minutes 50 seconds 274 msec
