                         Program Version 5.0.3 -  RELEASE  -
|  1> ! PBEh-3c def2/J TightSCF DefGrid3
|  2>
|  3> %maxcore 60000
|  4>
|  5> %pal
|  6> nprocs 4
|  7> end
|  8>
|  9> *xyzfile 0 1 04ts.xyz
| 10>
| 11>                          ****END OF INPUT****

CARTESIAN COORDINATES (ANGSTROEM)
---------------------------------
  C     -0.594060   -0.608478   -1.075295
  O     -0.503849   -1.456376    0.000000
  C      1.351470    0.166457   -0.701273
  C     -1.373535    0.513396   -0.687331
  C     -0.594060   -0.608478    1.075295
  C      1.351470    0.166457    0.701273
  C     -1.373535    0.513396    0.687331
  H     -0.565140   -1.091115   -2.041112
  H      1.862713   -0.634064   -1.224167
  H      1.318840    1.105108   -1.240910
  H     -1.748362    1.276884   -1.352180
  H     -0.565140   -1.091115    2.041112
  H      1.862713   -0.634064    1.224167
  H      1.318840    1.105108    1.240910
  H     -1.748362    1.276884    1.352180

 Total Charge           Charge          ....    0
 Multiplicity           Mult            ....    1
 Number of Electrons    NEL             ....   52
 Basis Dimension        Dim             ....  121

ORBITAL ENERGIES
----------------

  NO   OCC          E(Eh)            E(eV)
   0   2.0000     -19.538436      -531.6679
   1   2.0000     -10.508143      -285.9411
   2   2.0000     -10.508063      -285.9389
   3   2.0000     -10.444881      -284.2197
   4   2.0000     -10.444202      -284.2012
   5   2.0000     -10.432370      -283.8792
   6   2.0000     -10.431801      -283.8637
   7   2.0000      -1.207713       -32.8635
   8   2.0000      -0.896182       -24.3863
   9   2.0000      -0.829066       -22.5600
  10   2.0000      -0.822534       -22.3823
  11   2.0000      -0.654845       -17.8192
  12   2.0000      -0.646694       -17.5974
  13   2.0000      -0.644373       -17.5343
  14   2.0000      -0.607282       -16.5250
  15   2.0000      -0.526400       -14.3241
  16   2.0000      -0.505945       -13.7675
  17   2.0000      -0.494527       -13.4568
  18   2.0000      -0.462305       -12.5800
  19   2.0000      -0.451781       -12.2936
  20   2.0000      -0.451770       -12.2933
  21   2.0000      -0.422355       -11.4929
  22   2.0000      -0.394657       -10.7392
  23   2.0000      -0.329040        -8.9536
  24   2.0000      -0.284847        -7.7511
  25   2.0000      -0.264634        -7.2010
  26   0.0000       0.036465         0.9923
  27   0.0000       0.046742         1.2719
  28   0.0000       0.146191         3.9781
  29   0.0000       0.162632         4.4254
  30   0.0000       0.186947         5.0871

MULLIKEN ATOMIC CHARGES
-----------------------
   0 C :   -0.040956
   1 O :   -0.365449
   2 C :   -0.473481
   3 C :   -0.205667
   4 C :   -0.040956
   5 C :   -0.473480
   6 C :   -0.205668
   7 H :    0.227150
   8 H :    0.230496
   9 H :    0.221795
  10 H :    0.223388
  11 H :    0.227150
  12 H :    0.230496
  13 H :    0.221795
  14 H :    0.223388
Sum of atomic charges:   -0.0000000

LOEWDIN ATOMIC CHARGES
----------------------
   0 C :   -0.012489
   1 O :   -0.128112
   2 C :   -0.286980
   3 C :   -0.174198
   4 C :   -0.012489
   5 C :   -0.286980
   6 C :   -0.174198
   7 H :    0.134699
   8 H :    0.133964
   9 H :    0.128261
  10 H :    0.140798
  11 H :    0.134699
  12 H :    0.133964
  13 H :    0.128261
  14 H :    0.140798

  Mayer bond orders larger than 0.100000
B(  0-C ,  1-O ) :   1.0570 B(  0-C ,  2-C ) :   0.4607 B(  0-C ,  3-C ) :   1.2603
B(  0-C ,  7-H ) :   0.9217 B(  1-O ,  4-C ) :   1.0570 B(  2-C ,  5-C ) :   1.4199
B(  2-C ,  8-H ) :   0.9175 B(  2-C ,  9-H ) :   0.9229 B(  3-C ,  6-C ) :   1.5644
B(  3-C , 10-H ) :   0.9195 B(  4-C ,  5-C ) :   0.4607 B(  4-C ,  6-C ) :   1.2603
B(  4-C , 11-H ) :   0.9217 B(  5-C , 12-H ) :   0.9175 B(  5-C , 13-H ) :   0.9229
B(  6-C , 14-H ) :   0.9195

Dispersion correction           -0.007913773
FINAL SINGLE POINT ENERGY      -307.892063362706

DIPOLE MOMENT
-------------
                                X             Y             Z
Electronic contribution:     -3.40206      -2.44280       0.00000
Nuclear contribution   :      3.27289       2.79597       0.00000
                        -----------------------------------------
Total Dipole Moment    :     -0.12917       0.35317       0.00000
                        -----------------------------------------
Magnitude (a.u.)       :      0.37605
Magnitude (Debye)      :      0.95584

Rotational constants in cm-1:     0.136375     0.099797     0.091815
Rotational constants in MHz :  4088.419933  2991.823987  2752.545716

                             ****ORCA TERMINATED NORMALLY****
TOTAL RUN TIME: 0 days 0 hours 1 minutes 35 seconds 627 msec
