                         Program Version 5.0.3 -  RELEASE  -
|  1> ! PBEh-3c def2/J TightSCF DefGrid3
|  2>
|  3> %maxcore 60000
|  4>
|  5> %pal
|  6> nprocs 4
|  7> end
|  8>
|  9> *xyzfile 0 1 12.xyz
| 10>
| 11>                          ****END OF INPUT****

CARTESIAN COORDINATES (ANGSTROEM)
---------------------------------
  N     -0.472418   -0.617684   -0.406553
  H     -0.568105   -1.586515   -0.130700
  H     -1.061558   -0.504250   -1.221313
  C     -0.955863    0.250395    0.673825
  H     -0.851714    1.287461    0.365973
  H     -1.993691    0.076991    0.964955
  H     -0.323977    0.110710    1.547065
  O      2.154314    0.579221   -0.301451
  H      1.336797    0.082948   -0.474604
  H      2.736216    0.320723   -1.017197

 Total Charge           Charge          ....    0
 Multiplicity           Mult            ....    1
 Number of Electrons    NEL             ....   28
 Basis Dimension        Dim             ....   59

ORBITAL ENERGIES
----------------

  NO   OCC          E(Eh)            E(eV)
   0   2.0000     -19.426964      -528.6346
   1   2.0000     -14.632514      -398.1710
   2   2.0000     -10.456378      -284.5325
   3   2.0000      -1.056588       -28.7512
   4   2.0000      -0.987662       -26.8757
   5   2.0000      -0.749115       -20.3845
   6   2.0000      -0.566768       -15.4225
   7   2.0000      -0.545659       -14.8481
   8   2.0000      -0.504806       -13.7365
   9   2.0000      -0.466366       -12.6905
  10   2.0000      -0.429319       -11.6824
  11   2.0000      -0.397779       -10.8241
  12   2.0000      -0.314572        -8.5599
  13   2.0000      -0.310426        -8.4471
  14   0.0000       0.119372         3.2483
  15   0.0000       0.182899         4.9769
  16   0.0000       0.196558         5.3486
  17   0.0000       0.196764         5.3542
  18   0.0000       0.220768         6.0074

MULLIKEN ATOMIC CHARGES
-----------------------
   0 N :   -0.777801
   1 H :    0.331059
   2 H :    0.330295
   3 C :   -0.513468
   4 H :    0.237020
   5 H :    0.197237
   6 H :    0.238676
   7 O :   -0.874207
   8 H :    0.442247
   9 H :    0.388942
Sum of atomic charges:   -0.0000000

LOEWDIN ATOMIC CHARGES
----------------------
   0 N :   -0.471967
   1 H :    0.226735
   2 H :    0.226136
   3 C :   -0.281459
   4 H :    0.130787
   5 H :    0.101508
   6 H :    0.131619
   7 O :   -0.639826
   8 H :    0.288611
   9 H :    0.287856

  Mayer bond orders larger than 0.100000
B(  0-N ,  1-H ) :   0.8584 B(  0-N ,  2-H ) :   0.8589 B(  0-N ,  3-C ) :   0.9910
B(  3-C ,  4-H ) :   0.9201 B(  3-C ,  5-H ) :   0.9206 B(  3-C ,  6-H ) :   0.9196
B(  7-O ,  8-H ) :   0.7211 B(  7-O ,  9-H ) :   0.8303

Dispersion correction           -0.002595217
FINAL SINGLE POINT ENERGY      -171.914167758747

DIPOLE MOMENT
-------------
                                X             Y             Z
Electronic contribution:      1.70860      -0.12464      -0.82334
Nuclear contribution   :     -2.75099      -0.65128       0.34617
                        -----------------------------------------
Total Dipole Moment    :     -1.04239      -0.77592      -0.47718
                        -----------------------------------------
Magnitude (a.u.)       :      1.38432
Magnitude (Debye)      :      3.51865

Rotational constants in cm-1:     0.747308     0.152501     0.132367
Rotational constants in MHz : 22403.716938  4571.863381  3968.260300

                             ****ORCA TERMINATED NORMALLY****
TOTAL RUN TIME: 0 days 0 hours 1 minutes 4 seconds 70 msec
