                         Program Version 5.0.3 -  RELEASE  -
|  1> ! PBEh-3c def2/J TightSCF DefGrid3
|  2>
|  3> %maxcore 60000
|  4>
|  5> %pal
|  6> nprocs 4
|  7> end
|  8>
|  9> *xyzfile 0 1 47B.xyz
| 10>
| 11>                          ****END OF INPUT****

CARTESIAN COORDINATES (ANGSTROEM)
---------------------------------
  C     -1.208510    0.697734    0.000000
  H     -2.144915    1.238367    0.000000
  C     -1.208510   -0.697734    0.000000
  H     -2.144915   -1.238367    0.000000
  C      0.000000   -1.395468    0.000000
  H      0.000000   -2.476735    0.000000
  C      1.208510   -0.697734    0.000000
  H      2.144915   -1.238367    0.000000
  C      1.208510    0.697734    0.000000
  H      2.144915    1.238367    0.000000
  C      0.000000    1.395468    0.000000
  H      0.000000    2.476735    0.000000

 Total Charge           Charge          ....    0
 Multiplicity           Mult            ....    1
 Number of Electrons    NEL             ....   42
 Basis Dimension        Dim             ....  102

ORBITAL ENERGIES
----------------

  NO   OCC          E(Eh)            E(eV)
   0   2.0000     -10.449155      -284.3360
   1   2.0000     -10.448940      -284.3301
   2   2.0000     -10.448938      -284.3300
   3   2.0000     -10.448333      -284.3136
   4   2.0000     -10.448331      -284.3135
   5   2.0000     -10.448107      -284.3074
   6   2.0000      -0.951269       -25.8853
   7   2.0000      -0.835098       -22.7242
   8   2.0000      -0.835098       -22.7242
   9   2.0000      -0.678873       -18.4731
  10   2.0000      -0.678872       -18.4731
  11   2.0000      -0.591676       -16.1003
  12   2.0000      -0.526433       -14.3250
  13   2.0000      -0.507974       -13.8227
  14   2.0000      -0.481717       -13.1082
  15   2.0000      -0.481715       -13.1081
  16   2.0000      -0.420295       -11.4368
  17   2.0000      -0.398439       -10.8421
  18   2.0000      -0.398438       -10.8421
  19   2.0000      -0.292241        -7.9523
  20   2.0000      -0.292238        -7.9522
  21   0.0000       0.018814         0.5119
  22   0.0000       0.018815         0.5120
  23   0.0000       0.140982         3.8363
  24   0.0000       0.195408         5.3173
  25   0.0000       0.201928         5.4947

MULLIKEN ATOMIC CHARGES
-----------------------
   0 C :   -0.220012
   1 H :    0.220013
   2 C :   -0.220013
   3 H :    0.220013
   4 C :   -0.220026
   5 H :    0.220026
   6 C :   -0.220013
   7 H :    0.220013
   8 C :   -0.220012
   9 H :    0.220012
  10 C :   -0.220026
  11 H :    0.220025
Sum of atomic charges:   -0.0000000

LOEWDIN ATOMIC CHARGES
----------------------
   0 C :   -0.135724
   1 H :    0.135727
   2 C :   -0.135724
   3 H :    0.135727
   4 C :   -0.135731
   5 H :    0.135726
   6 C :   -0.135724
   7 H :    0.135727
   8 C :   -0.135724
   9 H :    0.135727
  10 C :   -0.135731
  11 H :    0.135726

  Mayer bond orders larger than 0.100000
B(  0-C ,  1-H ) :   0.9199 B(  0-C ,  2-C ) :   1.4263 B(  0-C , 10-C ) :   1.4263
B(  2-C ,  3-H ) :   0.9199 B(  2-C ,  4-C ) :   1.4263 B(  4-C ,  5-H ) :   0.9199
B(  4-C ,  6-C ) :   1.4263 B(  6-C ,  7-H ) :   0.9199 B(  6-C ,  8-C ) :   1.4263
B(  8-C ,  9-H ) :   0.9199 B(  8-C , 10-C ) :   1.4263 B( 10-C , 11-H ) :   0.9199

Dispersion correction           -0.005878139
FINAL SINGLE POINT ENERGY      -231.725666342527

DIPOLE MOMENT
-------------
                                X             Y             Z
Electronic contribution:      0.00000      -0.00000       0.00000
Nuclear contribution   :      0.00000      -0.00000       0.00000
                        -----------------------------------------
Total Dipole Moment    :      0.00000      -0.00000       0.00000
                        -----------------------------------------
Magnitude (a.u.)       :      0.00000
Magnitude (Debye)      :      0.00000

Rotational constants in cm-1:     0.190014     0.190014     0.095007
Rotational constants in MHz :  5696.470388  5696.470341  2848.235182

                             ****ORCA TERMINATED NORMALLY****
TOTAL RUN TIME: 0 days 0 hours 1 minutes 8 seconds 439 msec
