                         Program Version 5.0.3 -  RELEASE  -
|  1> ! PBEh-3c def2/J TightSCF DefGrid3
|  2>
|  3> %maxcore 60000
|  4>
|  5> %pal
|  6> nprocs 4
|  7> end
|  8>
|  9> *xyzfile -1 1 fch3clcomp2.xyz
| 10>
| 11>                          ****END OF INPUT****

CARTESIAN COORDINATES (ANGSTROEM)
---------------------------------
  F      0.000000    0.000000   -1.889936
  C      0.000000    0.000000   -0.481563
  H     -0.512360    0.887433   -0.127803
  H     -0.512360   -0.887433   -0.127803
  H      1.024720    0.000000   -0.127803
  Cl     0.000000    0.000000    2.754906

 Total Charge           Charge          ....   -1
 Multiplicity           Mult            ....    1
 Number of Electrons    NEL             ....   36
 Basis Dimension        Dim             ....   54

ORBITAL ENERGIES
----------------

  NO   OCC          E(Eh)            E(eV)
   0   2.0000    -101.915273     -2773.2556
   1   2.0000     -24.915759      -677.9923
   2   2.0000     -10.339509      -281.3523
   3   2.0000      -9.378876      -255.2122
   4   2.0000      -7.062185      -192.1718
   5   2.0000      -7.061772      -192.1606
   6   2.0000      -7.061772      -192.1606
   7   2.0000      -1.144871       -31.1535
   8   2.0000      -0.617136       -16.7931
   9   2.0000      -0.511748       -13.9254
  10   2.0000      -0.385814       -10.4985
  11   2.0000      -0.385814       -10.4985
  12   2.0000      -0.384215       -10.4550
  13   2.0000      -0.247438        -6.7331
  14   2.0000      -0.247437        -6.7331
  15   2.0000      -0.030297        -0.8244
  16   2.0000      -0.027621        -0.7516
  17   2.0000      -0.027618        -0.7515
  18   0.0000       0.303460         8.2576
  19   0.0000       0.354409         9.6440
  20   0.0000       0.384348        10.4586
  21   0.0000       0.384349        10.4587
  22   0.0000       0.649656        17.6780

MULLIKEN ATOMIC CHARGES
-----------------------
   0 F :   -0.416484
   1 C :   -0.242559
   2 H :    0.199766
   3 H :    0.199766
   4 H :    0.199763
   5 Cl:   -0.940253
Sum of atomic charges:   -1.0000000

LOEWDIN ATOMIC CHARGES
----------------------
   0 F :   -0.308279
   1 C :   -0.108859
   2 H :    0.116891
   3 H :    0.116891
   4 H :    0.116890
   5 Cl:   -0.933534

  Mayer bond orders larger than 0.100000
B(  0-F ,  1-C ) :   0.8734 B(  1-C ,  2-H ) :   0.9235 B(  1-C ,  3-H ) :   0.9235
B(  1-C ,  4-H ) :   0.9235

Dispersion correction           -0.001339204
FINAL SINGLE POINT ENERGY      -599.213307769080

DIPOLE MOMENT
-------------
                                X             Y             Z
Electronic contribution:      0.00002       0.00000       0.37464
Nuclear contribution   :     -0.00000       0.00000      -2.74294
                        -----------------------------------------
Total Dipole Moment    :      0.00002       0.00000      -2.36831
                        -----------------------------------------
Magnitude (a.u.)       :      2.36831
Magnitude (Debye)      :      6.01975

Rotational constants in cm-1:     5.308902     0.056784     0.056784
Rotational constants in MHz : 159156.890433  1702.348936  1702.348935

                             ****ORCA TERMINATED NORMALLY****
TOTAL RUN TIME: 0 days 0 hours 0 minutes 22 seconds 372 msec
