                         Program Version 5.0.3 -  RELEASE  -
|  1> ! PBEh-3c def2/J TightSCF DefGrid3
|  2>
|  3> %maxcore 60000
|  4>
|  5> %pal
|  6> nprocs 4
|  7> end
|  8>
|  9> *xyzfile 0 3 RKT11.xyz
| 10>
| 11>                          ****END OF INPUT****

CARTESIAN COORDINATES (ANGSTROEM)
---------------------------------
  C      0.000870   -0.505611    0.000000
  H     -1.055377   -0.748058    0.000000
  H      0.520748   -0.770713    0.912450
  H      0.520748   -0.770713   -0.912450
  H      0.012140    0.796775    0.000000
  O      0.000870    1.998318    0.000000

 Total Charge           Charge          ....    0
 Multiplicity           Mult            ....    3
 Number of Electrons    NEL             ....   18
 Basis Dimension        Dim             ....   38

ORBITAL ENERGIES
----------------
                 SPIN UP ORBITALS
  NO   OCC          E(Eh)            E(eV)
   0   1.0000     -19.567253      -532.4520
   1   1.0000     -10.463834      -284.7354
   2   1.0000      -1.097932       -29.8762
   3   1.0000      -0.808270       -21.9941
   4   1.0000      -0.555372       -15.1125
   5   1.0000      -0.494909       -13.4672
   6   1.0000      -0.490934       -13.3590
   7   1.0000      -0.475286       -12.9332
   8   1.0000      -0.398874       -10.8539
   9   1.0000      -0.339732        -9.2446
  10   0.0000       0.154891         4.2148
  11   0.0000       0.200200         5.4477
  12   0.0000       0.201852         5.4927
  13   0.0000       0.277693         7.5564
  14   0.0000       0.472849        12.8669

                 SPIN DOWN ORBITALS
  NO   OCC          E(Eh)            E(eV)
   0   1.0000     -19.522297      -531.2287
   1   1.0000     -10.452888      -284.4375
   2   1.0000      -0.952209       -25.9109
   3   1.0000      -0.771434       -20.9918
   4   1.0000      -0.482698       -13.1349
   5   1.0000      -0.481887       -13.1128
   6   1.0000      -0.447603       -12.1799
   7   1.0000      -0.350391        -9.5346
   8   0.0000      -0.087835        -2.3901
   9   0.0000      -0.068668        -1.8685
  10   0.0000       0.163578         4.4512
  11   0.0000       0.208173         5.6647
  12   0.0000       0.208241         5.6665

MULLIKEN ATOMIC CHARGES AND SPIN POPULATIONS
--------------------------------------------
   0 C :   -0.849166    0.630007
   1 H :    0.251164   -0.020789
   2 H :    0.251362   -0.021899
   3 H :    0.251362   -0.021899
   4 H :    0.361683   -0.119302
   5 O :   -0.266406    1.553881
Sum of atomic charges         :   -0.0000000

LOEWDIN ATOMIC CHARGES AND SPIN POPULATIONS
-------------------------------------------
   0 C :   -0.454467    0.551961
   1 H :    0.145865   -0.011116
   2 H :    0.145394   -0.011958
   3 H :    0.145394   -0.011958
   4 H :    0.226248   -0.056771
   5 O :   -0.208434    1.539843

  Mayer bond orders larger than 0.100000
B(  0-C ,  1-H ) :   0.9121 B(  0-C ,  2-H ) :   0.9105 B(  0-C ,  3-H ) :   0.9105
B(  0-C ,  4-H ) :   0.4522 B(  0-C ,  5-O ) :   0.2116 B(  4-H ,  5-O ) :   0.4050

Dispersion correction           -0.001086051
FINAL SINGLE POINT ENERGY      -115.316602775612

DIPOLE MOMENT
-------------
                                X             Y             Z
Electronic contribution:      0.00402       3.51058       0.00000
Nuclear contribution   :     -0.00428      -4.23906       0.00000
                        -----------------------------------------
Total Dipole Moment    :     -0.00026      -0.72848       0.00000
                        -----------------------------------------
Magnitude (a.u.)       :      0.72848
Magnitude (Debye)      :      1.85166

Rotational constants in cm-1:     5.035094     0.321348     0.321293
Rotational constants in MHz : 150948.310504  9633.758596  9632.129991

                             ****ORCA TERMINATED NORMALLY****
TOTAL RUN TIME: 0 days 0 hours 1 minutes 36 seconds 592 msec
