                         Program Version 5.0.3 -  RELEASE  -
|  1> ! PBEh-3c def2/J TightSCF DefGrid3
|  2>
|  3> %maxcore 60000
|  4>
|  5> %pal
|  6> nprocs 4
|  7> end
|  8>
|  9> *xyzfile 0 1 G.xyz
| 10>
| 11>                          ****END OF INPUT****

CARTESIAN COORDINATES (ANGSTROEM)
---------------------------------
  N     -2.245795   -0.250441    0.039952
  C     -2.667108    1.048703    0.091932
  N     -1.682376    1.895139    0.089924
  C     -0.557352    1.112812    0.033427
  C      0.818202    1.475649    0.007322
  O      1.314479    2.589343    0.028757
  N      1.629823    0.338681   -0.051026
  C      1.195564   -0.957001   -0.079194
  N      2.136110   -1.909019   -0.177638
  N     -0.070075   -1.288650   -0.050839
  C     -0.892883   -0.229164    0.001843
  H     -2.836127   -1.069559    0.032758
  H      3.101256   -1.708133    0.026420
  H      1.846114   -2.863632   -0.043532
  H     -3.716887    1.300146    0.129750
  H      2.627056    0.515125   -0.079858

 Total Charge           Charge          ....    0
 Multiplicity           Mult            ....    1
 Number of Electrons    NEL             ....   78
 Basis Dimension        Dim             ....  175

ORBITAL ENERGIES
----------------

  NO   OCC          E(Eh)            E(eV)
   0   2.0000     -19.450059      -529.2630
   1   2.0000     -14.700226      -400.0135
   2   2.0000     -14.699945      -400.0058
   3   2.0000     -14.683830      -399.5673
   4   2.0000     -14.635423      -398.2501
   5   2.0000     -14.623352      -397.9216
   6   2.0000     -10.587129      -288.0904
   7   2.0000     -10.549987      -287.0797
   8   2.0000     -10.517704      -286.2013
   9   2.0000     -10.502637      -285.7913
  10   2.0000     -10.452244      -284.4200
  11   2.0000      -1.165606       -31.7178
  12   2.0000      -1.136539       -30.9268
  13   2.0000      -1.116360       -30.3777
  14   2.0000      -1.024720       -27.8841
  15   2.0000      -1.012500       -27.5515
  16   2.0000      -0.976506       -26.5721
  17   2.0000      -0.851515       -23.1709
  18   2.0000      -0.759955       -20.6794
  19   2.0000      -0.745743       -20.2927
  20   2.0000      -0.697856       -18.9896
  21   2.0000      -0.680435       -18.5156
  22   2.0000      -0.624639       -16.9973
  23   2.0000      -0.620484       -16.8842
  24   2.0000      -0.588779       -16.0215
  25   2.0000      -0.553074       -15.0499
  26   2.0000      -0.547746       -14.9049
  27   2.0000      -0.527003       -14.3405
  28   2.0000      -0.496179       -13.5017
  29   2.0000      -0.491124       -13.3642
  30   2.0000      -0.472894       -12.8681
  31   2.0000      -0.449687       -12.2366
  32   2.0000      -0.374975       -10.2036
  33   2.0000      -0.367318        -9.9952
  34   2.0000      -0.339088        -9.2271
  35   2.0000      -0.330020        -8.9803
  36   2.0000      -0.321330        -8.7438
  37   2.0000      -0.308469        -8.3939
  38   2.0000      -0.243124        -6.6157
  39   0.0000       0.027419         0.7461
  40   0.0000       0.034457         0.9376
  41   0.0000       0.086830         2.3628
  42   0.0000       0.092922         2.5285
  43   0.0000       0.127813         3.4780

MULLIKEN ATOMIC CHARGES
-----------------------
   0 N :   -0.650611
   1 C :    0.092836
   2 N :   -0.356073
   3 C :   -0.057355
   4 C :    0.501063
   5 O :   -0.396704
   6 N :   -0.723775
   7 C :    0.688031
   8 N :   -0.824026
   9 N :   -0.478402
  10 C :    0.475531
  11 H :    0.371031
  12 H :    0.362638
  13 H :    0.385115
  14 H :    0.237358
  15 H :    0.373342
Sum of atomic charges:    0.0000000

LOEWDIN ATOMIC CHARGES
----------------------
   0 N :   -0.143492
   1 C :   -0.039191
   2 N :   -0.140441
   3 C :   -0.127410
   4 C :    0.110442
   5 O :   -0.255793
   6 N :   -0.189331
   7 C :    0.138469
   8 N :   -0.357748
   9 N :   -0.243447
  10 C :    0.045022
  11 H :    0.271652
  12 H :    0.255722
  13 H :    0.271646
  14 H :    0.132050
  15 H :    0.271851

  Mayer bond orders larger than 0.100000
B(  0-N ,  1-C ) :   1.1295 B(  0-N , 10-C ) :   1.0924 B(  0-N , 11-H ) :   0.8182
B(  1-C ,  2-N ) :   1.7078 B(  1-C , 14-H ) :   0.9107 B(  2-N ,  3-C ) :   1.3075
B(  3-C ,  4-C ) :   1.0605 B(  3-C , 10-C ) :   1.2997 B(  4-C ,  5-O ) :   2.0617
B(  4-C ,  6-N ) :   0.9533 B(  6-N ,  7-C ) :   1.1190 B(  6-N , 15-H ) :   0.8095
B(  7-C ,  8-N ) :   1.1139 B(  7-C ,  9-N ) :   1.5989 B(  8-N , 12-H ) :   0.8344
B(  8-N , 13-H ) :   0.8224 B(  9-N , 10-C ) :   1.3201

Dispersion correction           -0.009527763
FINAL SINGLE POINT ENERGY      -541.397057765492

DIPOLE MOMENT
-------------
                                X             Y             Z
Electronic contribution:     -0.74916       2.29626       0.06028
Nuclear contribution   :      1.17875      -5.12387       0.08943
                        -----------------------------------------
Total Dipole Moment    :      0.42959      -2.82761       0.14972
                        -----------------------------------------
Magnitude (a.u.)       :      2.86397
Magnitude (Debye)      :      7.27964

Rotational constants in cm-1:     0.065425     0.037778     0.023954
Rotational constants in MHz :  1961.402969  1132.545451   718.118080

                             ****ORCA TERMINATED NORMALLY****
TOTAL RUN TIME: 0 days 0 hours 1 minutes 42 seconds 540 msec
