                         Program Version 5.0.3 -  RELEASE  -
|  1> ! PBEh-3c def2/J TightSCF DefGrid3
|  2>
|  3> %maxcore 60000
|  4>
|  5> %pal
|  6> nprocs 4
|  7> end
|  8>
|  9> *xyzfile 0 1 B22.xyz
| 10>
| 11>                          ****END OF INPUT****

CARTESIAN COORDINATES (ANGSTROEM)
---------------------------------
  C      2.040473    0.348045    0.338073
  H      2.025827    0.221367    1.420514
  O      2.400282   -0.928093   -0.184860
  C      0.677782    0.826842   -0.148392
  H      0.496854    1.825699    0.260144
  H      0.707175    0.937716   -1.237662
  C     -0.458699   -0.115172    0.242396
  H     -0.500067   -0.194893    1.333932
  H     -0.262113   -1.115426   -0.142518
  H      2.489833   -0.833670   -1.137237
  H      2.806543    1.092643    0.101643
  C     -1.806426    0.365620   -0.275998
  H     -2.021294    1.368543    0.109908
  H     -1.785176    0.432685   -1.363666
  O     -2.870802   -0.531082    0.026756
  H     -2.912193   -0.613278    0.983302

 Total Charge           Charge          ....    0
 Multiplicity           Mult            ....    1
 Number of Electrons    NEL             ....   50
 Basis Dimension        Dim             ....  110

ORBITAL ENERGIES
----------------

  NO   OCC          E(Eh)            E(eV)
   0   2.0000     -19.487582      -530.2841
   1   2.0000     -19.482183      -530.1371
   2   2.0000     -10.484290      -285.2920
   3   2.0000     -10.478842      -285.1438
   4   2.0000     -10.441458      -284.1265
   5   2.0000     -10.432527      -283.8835
   6   2.0000      -1.124075       -30.5876
   7   2.0000      -1.118937       -30.4478
   8   2.0000      -0.886083       -24.1115
   9   2.0000      -0.797457       -21.6999
  10   2.0000      -0.709344       -19.3022
  11   2.0000      -0.668231       -18.1835
  12   2.0000      -0.570081       -15.5127
  13   2.0000      -0.561469       -15.2784
  14   2.0000      -0.535803       -14.5799
  15   2.0000      -0.504526       -13.7289
  16   2.0000      -0.495038       -13.4707
  17   2.0000      -0.464037       -12.6271
  18   2.0000      -0.440653       -11.9908
  19   2.0000      -0.420690       -11.4475
  20   2.0000      -0.395526       -10.7628
  21   2.0000      -0.377748       -10.2791
  22   2.0000      -0.373938       -10.1754
  23   2.0000      -0.331085        -9.0093
  24   2.0000      -0.318269        -8.6605
  25   0.0000       0.120913         3.2902
  26   0.0000       0.128956         3.5091
  27   0.0000       0.159283         4.3343
  28   0.0000       0.172418         4.6917
  29   0.0000       0.185817         5.0563

MULLIKEN ATOMIC CHARGES
-----------------------
   0 C :   -0.154374
   1 H :    0.208116
   2 O :   -0.620134
   3 C :   -0.464923
   4 H :    0.210020
   5 H :    0.202008
   6 C :   -0.452841
   7 H :    0.193479
   8 H :    0.243144
   9 H :    0.409488
  10 H :    0.192829
  11 C :   -0.128800
  12 H :    0.171850
  13 H :    0.204094
  14 O :   -0.621846
  15 H :    0.407890
Sum of atomic charges:   -0.0000000

LOEWDIN ATOMIC CHARGES
----------------------
   0 C :   -0.093348
   1 H :    0.119092
   2 O :   -0.411342
   3 C :   -0.266298
   4 H :    0.126375
   5 H :    0.118405
   6 C :   -0.266395
   7 H :    0.116515
   8 H :    0.138005
   9 H :    0.306020
  10 H :    0.101031
  11 C :   -0.095455
  12 H :    0.094530
  13 H :    0.117382
  14 O :   -0.410041
  15 H :    0.305523

  Mayer bond orders larger than 0.100000
B(  0-C ,  1-H ) :   0.9160 B(  0-C ,  2-O ) :   1.0181 B(  0-C ,  3-C ) :   0.9690
B(  0-C , 10-H ) :   0.9148 B(  2-O ,  9-H ) :   0.7952 B(  3-C ,  4-H ) :   0.9104
B(  3-C ,  5-H ) :   0.9188 B(  3-C ,  6-C ) :   0.9628 B(  6-C ,  7-H ) :   0.9216
B(  6-C ,  8-H ) :   0.9003 B(  6-C , 11-C ) :   0.9847 B( 11-C , 12-H ) :   0.9093
B( 11-C , 13-H ) :   0.9134 B( 11-C , 14-O ) :   1.0258 B( 14-O , 15-H ) :   0.7953

Dispersion correction           -0.006472874
FINAL SINGLE POINT ENERGY      -308.207360901042

DIPOLE MOMENT
-------------
                                X             Y             Z
Electronic contribution:     -0.73457      -2.45141      -0.26170
Nuclear contribution   :      1.08152       3.22840       0.33954
                        -----------------------------------------
Total Dipole Moment    :      0.34696       0.77699       0.07785
                        -----------------------------------------
Magnitude (a.u.)       :      0.85448
Magnitude (Debye)      :      2.17193

Rotational constants in cm-1:     0.318064     0.045561     0.042556
Rotational constants in MHz :  9535.303858  1365.899360  1275.794604

                             ****ORCA TERMINATED NORMALLY****
TOTAL RUN TIME: 0 days 0 hours 1 minutes 28 seconds 924 msec
