                         Program Version 5.0.3 -  RELEASE  -
|  1> ! PBEh-3c def2/J TightSCF DefGrid3
|  2>
|  3> %maxcore 60000
|  4>
|  5> %pal
|  6> nprocs 4
|  7> end
|  8>
|  9> *xyzfile 0 1 24_benI-Nm3AB.xyz
| 10>
| 11>                          ****END OF INPUT****

CARTESIAN COORDINATES (ANGSTROEM)
---------------------------------
  C      1.037288    0.000539   -0.582102
  C     -0.176487   -0.000271    0.102715
  C     -0.183174   -0.000518    1.498133
  C      1.019880    0.000040    2.205172
  C      2.228616    0.000848    1.511505
  C      2.241753    0.001096    0.118273
  I     -2.004073   -0.001696    2.534377
  H      1.013157   -0.000135    3.286244
  H      3.159115    0.001279    2.063225
  H      3.181398    0.001715   -0.416415
  H      1.038283    0.000729   -1.663869
  H     -1.109304   -0.000688   -0.443732
  N     -4.582592   -0.001975    4.004623
  C     -5.432248    1.033095    3.443517
  C     -5.202064   -1.306091    3.850638
  C     -4.310611    0.268567    5.404935
  H     -5.229215    0.283653    6.011064
  H     -3.647037   -0.497335    5.803030
  H     -3.817378    1.234370    5.501577
  H     -6.408881    1.087511    3.948188
  H     -4.940827    2.000098    3.537088
  H     -5.600716    0.834533    2.386353
  H     -6.166829   -1.372212    4.376310
  H     -5.370060   -1.508609    2.794164
  H     -4.539891   -2.074437    4.246253

 Total Charge           Charge          ....    0
 Multiplicity           Mult            ....    1
 Number of Electrons    NEL             ....  100
 Basis Dimension        Dim             ....  204

ORBITAL ENERGIES
----------------

  NO   OCC          E(Eh)            E(eV)
   0   2.0000     -14.645700      -398.5298
   1   2.0000     -10.482722      -285.2494
   2   2.0000     -10.456209      -284.5279
   3   2.0000     -10.456105      -284.5251
   4   2.0000     -10.456020      -284.5228
   5   2.0000     -10.451502      -284.3998
   6   2.0000     -10.451459      -284.3986
   7   2.0000     -10.450667      -284.3771
   8   2.0000     -10.450563      -284.3743
   9   2.0000     -10.448677      -284.3229
  10   2.0000      -7.076797      -192.5694
  11   2.0000      -5.060330      -137.6986
  12   2.0000      -5.043598      -137.2433
  13   2.0000      -5.043406      -137.2380
  14   2.0000      -2.014240       -54.8103
  15   2.0000      -2.008796       -54.6621
  16   2.0000      -2.008706       -54.6597
  17   2.0000      -1.994345       -54.2689
  18   2.0000      -1.994335       -54.2686
  19   2.0000      -1.034176       -28.1414
  20   2.0000      -0.957216       -26.0472
  21   2.0000      -0.848281       -23.0829
  22   2.0000      -0.838672       -22.8214
  23   2.0000      -0.794260       -21.6129
  24   2.0000      -0.794161       -21.6102
  25   2.0000      -0.749587       -20.3973
  26   2.0000      -0.684136       -18.6163
  27   2.0000      -0.671010       -18.2591
  28   2.0000      -0.659733       -17.9522
  29   2.0000      -0.580296       -15.7906
  30   2.0000      -0.541600       -14.7377
  31   2.0000      -0.533954       -14.5296
  32   2.0000      -0.533908       -14.5284
  33   2.0000      -0.516259       -14.0481
  34   2.0000      -0.514182       -13.9916
  35   2.0000      -0.483991       -13.1701
  36   2.0000      -0.454904       -12.3786
  37   2.0000      -0.454865       -12.3775
  38   2.0000      -0.453962       -12.3529
  39   2.0000      -0.428743       -11.6667
  40   2.0000      -0.426685       -11.6107
  41   2.0000      -0.417587       -11.3631
  42   2.0000      -0.417535       -11.3617
  43   2.0000      -0.402522       -10.9532
  44   2.0000      -0.376356       -10.2412
  45   2.0000      -0.327803        -8.9200
  46   2.0000      -0.294650        -8.0178
  47   2.0000      -0.291884        -7.9426
  48   2.0000      -0.275565        -7.4985
  49   2.0000      -0.262255        -7.1363
  50   0.0000       0.014985         0.4078
  51   0.0000       0.016938         0.4609
  52   0.0000       0.034308         0.9336
  53   0.0000       0.121393         3.3033
  54   0.0000       0.162395         4.4190

MULLIKEN ATOMIC CHARGES
-----------------------
   0 C :   -0.209531
   1 C :   -0.217430
   2 C :   -0.196549
   3 C :   -0.217536
   4 C :   -0.209511
   5 C :   -0.229552
   6 I :    0.083331
   7 H :    0.236210
   8 H :    0.222435
   9 H :    0.221648
  10 H :    0.222447
  11 H :    0.236107
  12 N :   -0.403911
  13 C :   -0.496377
  14 C :   -0.496294
  15 C :   -0.496553
  16 H :    0.191179
  17 H :    0.229311
  18 H :    0.229829
  19 H :    0.190960
  20 H :    0.230348
  21 H :    0.229041
  22 H :    0.190820
  23 H :    0.229409
  24 H :    0.230167
Sum of atomic charges:    0.0000000

LOEWDIN ATOMIC CHARGES
----------------------
   0 C :   -0.131211
   1 C :   -0.143526
   2 C :   -0.190965
   3 C :   -0.143558
   4 C :   -0.131209
   5 C :   -0.138595
   6 I :    0.122376
   7 H :    0.142395
   8 H :    0.137734
   9 H :    0.136858
  10 H :    0.137734
  11 H :    0.142366
  12 N :   -0.222193
  13 C :   -0.262193
  14 C :   -0.262170
  15 C :   -0.262245
  16 H :    0.102020
  17 H :    0.126915
  18 H :    0.127136
  19 H :    0.101931
  20 H :    0.127382
  21 H :    0.126825
  22 H :    0.101874
  23 H :    0.126997
  24 H :    0.127322

  Mayer bond orders larger than 0.100000
B(  0-C ,  1-C ) :   1.4329 B(  0-C ,  5-C ) :   1.4223 B(  0-C , 10-H ) :   0.9181
B(  1-C ,  2-C ) :   1.3779 B(  1-C , 11-H ) :   0.9135 B(  2-C ,  3-C ) :   1.3779
B(  2-C ,  6-I ) :   0.9856 B(  3-C ,  4-C ) :   1.4329 B(  3-C ,  7-H ) :   0.9135
B(  4-C ,  5-C ) :   1.4223 B(  4-C ,  8-H ) :   0.9181 B(  5-C ,  9-H ) :   0.9191
B( 12-N , 13-C ) :   0.9776 B( 12-N , 14-C ) :   0.9776 B( 12-N , 15-C ) :   0.9777
B( 13-C , 19-H ) :   0.9085 B( 13-C , 20-H ) :   0.9242 B( 13-C , 21-H ) :   0.9247
B( 14-C , 22-H ) :   0.9085 B( 14-C , 23-H ) :   0.9245 B( 14-C , 24-H ) :   0.9243
B( 15-C , 16-H ) :   0.9085 B( 15-C , 17-H ) :   0.9245 B( 15-C , 18-H ) :   0.9243

Dispersion correction           -0.014105082
FINAL SINGLE POINT ENERGY      -702.966575566821

DIPOLE MOMENT
-------------
                                X             Y             Z
Electronic contribution:     -5.26805      -0.04893       2.90883
Nuclear contribution   :      4.84070       0.04978      -2.66362
                        -----------------------------------------
Total Dipole Moment    :     -0.42734       0.00086       0.24521
                        -----------------------------------------
Magnitude (a.u.)       :      0.49270
Magnitude (Debye)      :      1.25234

Rotational constants in cm-1:     0.088946     0.009729     0.009256
Rotational constants in MHz :  2666.533774   291.666142   277.488202

                             ****ORCA TERMINATED NORMALLY****
TOTAL RUN TIME: 0 days 0 hours 3 minutes 4 seconds 793 msec
