                         Program Version 5.0.3 -  RELEASE  -
|  1> ! PBEh-3c def2/J TightSCF DefGrid3
|  2>
|  3> %maxcore 60000
|  4>
|  5> %pal
|  6> nprocs 4
|  7> end
|  8>
|  9> *xyzfile 0 2 08.xyz
| 10>
| 11>                          ****END OF INPUT****

CARTESIAN COORDINATES (ANGSTROEM)
---------------------------------
  C     -0.676412    0.034093    1.465717
  O      1.085020    0.342330   -0.156483
  B     -0.039098    1.301956   -0.691055
  F      0.582198    2.346907   -1.401243
  H     -1.000192    0.010926    2.512150
  Al     0.428707    0.747016   -3.364697
  H      1.331613    0.921226    1.827465
  H      1.386703   -0.836230    1.520935
  O     -0.489344   -1.786815   -0.360575
  B     -1.163993   -1.339308    0.717853
  Be     0.489990   -0.855520   -1.025927
  C      0.863310    0.095682    1.285368
  H     -2.097321   -1.950610    1.158480
  H     -0.619653    0.573119   -1.612689
  B     -1.155002    1.225601    0.589827
  F      1.073475   -0.830372   -2.465129

 Total Charge           Charge          ....    0
 Multiplicity           Mult            ....    2
 Number of Electrons    NEL             ....   83
 Basis Dimension        Dim             ....  172

ORBITAL ENERGIES
----------------
                 SPIN UP ORBITALS
  NO   OCC          E(Eh)            E(eV)
   0   1.0000     -56.665472     -1541.9459
   1   1.0000     -25.131378      -683.8596
   2   1.0000     -25.096532      -682.9113
   3   1.0000     -19.552510      -532.0508
   4   1.0000     -19.484960      -530.2127
   5   1.0000     -10.526207      -286.4327
   6   1.0000     -10.430195      -283.8200
   7   1.0000      -7.026052      -191.1886
   8   1.0000      -6.991227      -190.2410
   9   1.0000      -6.983262      -190.0242
  10   1.0000      -4.396245      -119.6279
  11   1.0000      -2.881267       -78.4033
  12   1.0000      -2.882622       -78.4401
  13   1.0000      -2.882129       -78.4267
  14   1.0000      -4.228122      -115.0530
  15   1.0000      -1.335013       -36.3276
  16   1.0000      -1.314650       -35.7734
  17   1.0000      -1.168832       -31.8055
  18   1.0000      -1.086909       -29.5763
  19   1.0000      -0.854931       -23.2639
  20   1.0000      -0.742580       -20.2066
  21   1.0000      -0.645037       -17.5524
  22   1.0000      -0.614492       -16.7212
  23   1.0000      -0.607978       -16.5439
  24   1.0000      -0.588702       -16.0194
  25   1.0000      -0.574378       -15.6296
  26   1.0000      -0.560104       -15.2412
  27   1.0000      -0.550113       -14.9693
  28   1.0000      -0.536249       -14.5921
  29   1.0000      -0.534114       -14.5340
  30   1.0000      -0.512460       -13.9448
  31   1.0000      -0.490054       -13.3351
  32   1.0000      -0.465252       -12.6602
  33   1.0000      -0.450242       -12.2517
  34   1.0000      -0.434404       -11.8207
  35   1.0000      -0.428740       -11.6666
  36   1.0000      -0.409791       -11.1510
  37   1.0000      -0.400334       -10.8936
  38   1.0000      -0.349039        -9.4978
  39   1.0000      -0.318871        -8.6769
  40   1.0000      -0.288523        -7.8511
  41   1.0000      -0.242321        -6.5939
  42   0.0000      -0.055511        -1.5105
  43   0.0000      -0.041710        -1.1350
  44   0.0000      -0.008668        -0.2359
  45   0.0000       0.022290         0.6065
  46   0.0000       0.053217         1.4481

                 SPIN DOWN ORBITALS
  NO   OCC          E(Eh)            E(eV)
   0   1.0000     -56.665472     -1541.9459
   1   1.0000     -25.131378      -683.8596
   2   1.0000     -25.096635      -682.9142
   3   1.0000     -19.551702      -532.0289
   4   1.0000     -19.485032      -530.2147
   5   1.0000     -10.525531      -286.4143
   6   1.0000     -10.430112      -283.8178
   7   1.0000      -7.024699      -191.1518
   8   1.0000      -6.991271      -190.2422
   9   1.0000      -6.970799      -189.6851
  10   1.0000      -4.396246      -119.6279
  11   1.0000      -2.881263       -78.4031
  12   1.0000      -2.882621       -78.4401
  13   1.0000      -2.882128       -78.4267
  14   1.0000      -4.228116      -115.0529
  15   1.0000      -1.335017       -36.3277
  16   1.0000      -1.314876       -35.7796
  17   1.0000      -1.166478       -31.7415
  18   1.0000      -1.087032       -29.5796
  19   1.0000      -0.851897       -23.1813
  20   1.0000      -0.737835       -20.0775
  21   1.0000      -0.643685       -17.5156
  22   1.0000      -0.611812       -16.6482
  23   1.0000      -0.607363       -16.5272
  24   1.0000      -0.585942       -15.9443
  25   1.0000      -0.573917       -15.6171
  26   1.0000      -0.559145       -15.2151
  27   1.0000      -0.549029       -14.9398
  28   1.0000      -0.535554       -14.5732
  29   1.0000      -0.531904       -14.4738
  30   1.0000      -0.510262       -13.8849
  31   1.0000      -0.481761       -13.1094
  32   1.0000      -0.460112       -12.5203
  33   1.0000      -0.446699       -12.1553
  34   1.0000      -0.431751       -11.7485
  35   1.0000      -0.427366       -11.6292
  36   1.0000      -0.409356       -11.1391
  37   1.0000      -0.396131       -10.7793
  38   1.0000      -0.340699        -9.2709
  39   1.0000      -0.315248        -8.5783
  40   1.0000      -0.287117        -7.8128
  41   0.0000      -0.047700        -1.2980
  42   0.0000      -0.035616        -0.9692
  43   0.0000      -0.022872        -0.6224
  44   0.0000      -0.004794        -0.1304
  45   0.0000       0.023064         0.6276

MULLIKEN ATOMIC CHARGES AND SPIN POPULATIONS
--------------------------------------------
   0 C :   -0.628930   -0.035714
   1 O :   -0.610592    0.014232
   2 B :    0.456612   -0.000383
   3 F :   -0.339138   -0.001224
   4 H :    0.258664    0.012121
   5 Al:    0.555656    0.001137
   6 H :    0.251270   -0.002196
   7 H :    0.244887    0.005265
   8 O :   -0.570259   -0.002017
   9 B :    0.375479   -0.003327
  10 Be:    0.781053   -0.000041
  11 C :   -0.201792    0.022821
  12 H :    0.022338    0.000438
  13 H :   -0.182473    0.000164
  14 B :    0.082318    0.988751
  15 F :   -0.495095   -0.000028
Sum of atomic charges         :   -0.0000000

LOEWDIN ATOMIC CHARGES AND SPIN POPULATIONS
-------------------------------------------
   0 C :   -0.358982    0.004314
   1 O :   -0.269332    0.020236
   2 B :   -0.000434    0.049380
   3 F :   -0.197529   -0.001413
   4 H :    0.172151    0.010473
   5 Al:    0.487233    0.001161
   6 H :    0.138598   -0.000384
   7 H :    0.144268    0.002612
   8 O :   -0.317180   -0.001932
   9 B :    0.130935    0.000978
  10 Be:    0.250059    0.003675
  11 C :   -0.009303    0.025809
  12 H :    0.003090    0.000210
  13 H :    0.023504   -0.000977
  14 B :    0.059709    0.885832
  15 F :   -0.256786    0.000025

  Mayer bond orders larger than 0.100000
B(  0-C ,  4-H ) :   0.8916 B(  0-C ,  9-B ) :   0.8465 B(  0-C , 11-C ) :   0.9370
B(  0-C , 14-B ) :   1.0087 B(  1-O ,  2-B ) :   0.5829 B(  1-O , 10-Be) :   0.5985
B(  1-O , 11-C ) :   0.8213 B(  2-B ,  3-F ) :   0.9628 B(  2-B , 13-H ) :   0.6504
B(  2-B , 14-B ) :   0.9517 B(  3-F ,  5-Al) :   0.1044 B(  5-Al, 13-H ) :   0.1961
B(  5-Al, 15-F ) :   0.3878 B(  6-H , 11-C ) :   0.9086 B(  7-H , 11-C ) :   0.9033
B(  8-O ,  9-B ) :   1.2811 B(  8-O , 10-Be) :   0.8401 B(  9-B , 12-H ) :   0.9740
B( 10-Be, 15-F ) :   0.4900

Dispersion correction           -0.010350102
FINAL SINGLE POINT ENERGY      -759.879371550818

DIPOLE MOMENT
-------------
                                X             Y             Z
Electronic contribution:      2.00884       3.07289     -11.11534
Nuclear contribution   :     -1.28727      -3.15747      11.17466
                        -----------------------------------------
Total Dipole Moment    :      0.72157      -0.08459       0.05932
                        -----------------------------------------
Magnitude (a.u.)       :      0.72893
Magnitude (Debye)      :      1.85279

Rotational constants in cm-1:     0.055241     0.030214     0.023776
Rotational constants in MHz :  1656.085908   905.781723   712.775981

                             ****ORCA TERMINATED NORMALLY****
TOTAL RUN TIME: 0 days 0 hours 5 minutes 13 seconds 390 msec
