                         Program Version 5.0.3 -  RELEASE  -
|  1> ! PBEh-3c def2/J TightSCF DefGrid3
|  2>
|  3> %maxcore 60000
|  4>
|  5> %pal
|  6> nprocs 4
|  7> end
|  8>
|  9> *xyzfile 0 2 P23.xyz
| 10>
| 11>                          ****END OF INPUT****

CARTESIAN COORDINATES (ANGSTROEM)
---------------------------------
  C     -1.357359   -0.176503    0.041893
  N     -0.187855    0.549729   -0.109800
  H     -0.206762    1.472264    0.300158
  C      1.092210   -0.125299    0.009429
  H     -2.282492    0.383221    0.037499
  H     -1.356532   -1.184632   -0.351975
  H      1.127523   -0.957476   -0.697486
  H      1.896689    0.565650   -0.245720
  H      1.274579   -0.526953    1.016002

 Total Charge           Charge          ....    0
 Multiplicity           Mult            ....    2
 Number of Electrons    NEL             ....   25
 Basis Dimension        Dim             ....   57

ORBITAL ENERGIES
----------------
                 SPIN UP ORBITALS
  NO   OCC          E(Eh)            E(eV)
   0   1.0000     -14.642752      -398.4495
   1   1.0000     -10.459500      -284.6175
   2   1.0000     -10.438113      -284.0355
   3   1.0000      -1.015622       -27.6365
   4   1.0000      -0.785451       -21.3732
   5   1.0000      -0.695701       -18.9310
   6   1.0000      -0.563936       -15.3455
   7   1.0000      -0.509354       -13.8602
   8   1.0000      -0.491303       -13.3690
   9   1.0000      -0.436211       -11.8699
  10   1.0000      -0.429029       -11.6745
  11   1.0000      -0.364837        -9.9277
  12   1.0000      -0.182242        -4.9591
  13   0.0000       0.135903         3.6981
  14   0.0000       0.185329         5.0431
  15   0.0000       0.198613         5.4045
  16   0.0000       0.206979         5.6322
  17   0.0000       0.229330         6.2404

                 SPIN DOWN ORBITALS
  NO   OCC          E(Eh)            E(eV)
   0   1.0000     -14.636790      -398.2873
   1   1.0000     -10.459670      -284.6221
   2   1.0000     -10.424813      -283.6736
   3   1.0000      -1.000789       -27.2328
   4   1.0000      -0.775103       -21.0916
   5   1.0000      -0.672265       -18.2933
   6   1.0000      -0.556175       -15.1343
   7   1.0000      -0.499690       -13.5972
   8   1.0000      -0.479356       -13.0440
   9   1.0000      -0.433783       -11.8038
  10   1.0000      -0.420854       -11.4520
  11   1.0000      -0.308563        -8.3964
  12   0.0000       0.036394         0.9903
  13   0.0000       0.139530         3.7968
  14   0.0000       0.187496         5.1020
  15   0.0000       0.205772         5.5993
  16   0.0000       0.216138         5.8814

MULLIKEN ATOMIC CHARGES AND SPIN POPULATIONS
--------------------------------------------
   0 C :   -0.378522    0.897935
   1 N :   -0.515179    0.180337
   2 H :    0.339410   -0.006953
   3 C :   -0.482755   -0.016282
   4 H :    0.198935   -0.044258
   5 H :    0.194821   -0.042409
   6 H :    0.220525    0.007007
   7 H :    0.216954   -0.001290
   8 H :    0.205810    0.025914
Sum of atomic charges         :   -0.0000000

LOEWDIN ATOMIC CHARGES AND SPIN POPULATIONS
-------------------------------------------
   0 C :   -0.308371    0.799938
   1 N :   -0.262045    0.221601
   2 H :    0.240354   -0.003292
   3 C :   -0.259981   -0.001780
   4 H :    0.116675   -0.019775
   5 H :    0.116452   -0.018902
   6 H :    0.125586    0.005642
   7 H :    0.123123   -0.000837
   8 H :    0.108206    0.017405

  Mayer bond orders larger than 0.100000
B(  0-C ,  1-N ) :   1.2306 B(  0-C ,  4-H ) :   0.9313 B(  0-C ,  5-H ) :   0.9282
B(  1-N ,  2-H ) :   0.8398 B(  1-N ,  3-C ) :   0.9879 B(  3-C ,  6-H ) :   0.9191
B(  3-C ,  7-H ) :   0.9297 B(  3-C ,  8-H ) :   0.9068

Dispersion correction           -0.002614250
FINAL SINGLE POINT ENERGY      -134.207784711507

DIPOLE MOMENT
-------------
                                X             Y             Z
Electronic contribution:     -0.72911       0.97031      -0.06792
Nuclear contribution   :      1.10908      -0.71856       0.16453
                        -----------------------------------------
Total Dipole Moment    :      0.37996       0.25175       0.09661
                        -----------------------------------------
Magnitude (a.u.)       :      0.46592
Magnitude (Debye)      :      1.18428

Rotational constants in cm-1:     1.438271     0.324324     0.282218
Rotational constants in MHz : 43118.287515  9722.976942  8460.696149

                             ****ORCA TERMINATED NORMALLY****
TOTAL RUN TIME: 0 days 0 hours 2 minutes 42 seconds 168 msec
