                         Program Version 5.0.3 -  RELEASE  -
|  1> ! PBEh-3c def2/J TightSCF DefGrid3
|  2>
|  3> %maxcore 60000
|  4>
|  5> %pal
|  6> nprocs 4
|  7> end
|  8>
|  9> *xyzfile -1 1 EA_12.xyz
| 10>
| 11>                          ****END OF INPUT****

CARTESIAN COORDINATES (ANGSTROEM)
---------------------------------
  N      0.000000    0.000000    0.442069
  H      0.793953    0.000000   -0.221034
  H     -0.793953    0.000000   -0.221034

 Total Charge           Charge          ....   -1
 Multiplicity           Mult            ....    1
 Number of Electrons    NEL             ....   10
 Basis Dimension        Dim             ....   19

ORBITAL ENERGIES
----------------

  NO   OCC          E(Eh)            E(eV)
   0   2.0000     -14.195656      -386.2834
   1   2.0000      -0.496124       -13.5002
   2   2.0000      -0.115865        -3.1529
   3   2.0000       0.036092         0.9821
   4   2.0000       0.117985         3.2105
   5   0.0000       0.446354        12.1459
   6   0.0000       0.524341        14.2680
   7   0.0000       1.105555        30.0837
   8   0.0000       1.178249        32.0618
   9   0.0000       1.196386        32.5553

MULLIKEN ATOMIC CHARGES
-----------------------
   0 N :   -1.179467
   1 H :    0.089733
   2 H :    0.089733
Sum of atomic charges:   -1.0000000

LOEWDIN ATOMIC CHARGES
----------------------
   0 N :   -1.154357
   1 H :    0.077178
   2 H :    0.077178

  Mayer bond orders larger than 0.100000
B(  0-N ,  1-H ) :   0.9500 B(  0-N ,  2-H ) :   0.9500

Dispersion correction           -0.000266176
FINAL SINGLE POINT ENERGY       -55.712494133338

DIPOLE MOMENT
-------------
                                X             Y             Z
Electronic contribution:     -0.00000       0.00000       0.50753
Nuclear contribution   :      0.00000       0.00000      -1.08721
                        -----------------------------------------
Total Dipole Moment    :     -0.00000       0.00000      -0.57968
                        -----------------------------------------
Magnitude (a.u.)       :      0.57968
Magnitude (Debye)      :      1.47343

Rotational constants in cm-1:    21.754205    13.265281     8.240431
Rotational constants in MHz : 652174.667904 397683.122272 247041.895222

                             ****ORCA TERMINATED NORMALLY****
TOTAL RUN TIME: 0 days 0 hours 0 minutes 59 seconds 287 msec
