                         Program Version 5.0.3 -  RELEASE  -
|  1> ! PBEh-3c def2/J TightSCF DefGrid3
|  2>
|  3> %maxcore 60000
|  4>
|  5> %pal
|  6> nprocs 4
|  7> end
|  8>
|  9> *xyzfile 0 1 li2_ch2n_2.xyz
| 10>
| 11>                          ****END OF INPUT****

CARTESIAN COORDINATES (ANGSTROEM)
---------------------------------
  C     -2.267204   -1.233646   -0.002169
  H     -2.807399   -1.522867    0.895229
  C     -1.866434    0.096306    0.001833
  H     -2.795343   -1.521041   -0.907327
  N     -1.416489    1.175251    0.006055
  Li    -0.286136   -1.972687    0.006378
  C      2.267204    1.233646   -0.002169
  H      2.807399    1.522867    0.895229
  C      1.866434   -0.096306    0.001833
  H      2.795343    1.521041   -0.907327
  N      1.416489   -1.175251    0.006055
  Li     0.286136    1.972687    0.006378

 Total Charge           Charge          ....    0
 Multiplicity           Mult            ....    1
 Number of Electrons    NEL             ....   48
 Basis Dimension        Dim             ....  116

ORBITAL ENERGIES
----------------

  NO   OCC          E(Eh)            E(eV)
   0   2.0000     -14.613736      -397.6600
   1   2.0000     -14.613734      -397.6599
   2   2.0000     -10.489331      -285.4292
   3   2.0000     -10.489317      -285.4288
   4   2.0000     -10.406227      -283.1678
   5   2.0000     -10.406217      -283.1676
   6   2.0000      -2.070635       -56.3449
   7   2.0000      -2.070608       -56.3441
   8   2.0000      -0.992776       -27.0148
   9   2.0000      -0.990541       -26.9540
  10   2.0000      -0.797375       -21.6977
  11   2.0000      -0.797132       -21.6911
  12   2.0000      -0.530475       -14.4350
  13   2.0000      -0.528660       -14.3856
  14   2.0000      -0.478184       -13.0121
  15   2.0000      -0.476410       -12.9638
  16   2.0000      -0.457420       -12.4470
  17   2.0000      -0.450163       -12.2496
  18   2.0000      -0.416397       -11.3307
  19   2.0000      -0.400783       -10.9059
  20   2.0000      -0.362053        -9.8520
  21   2.0000      -0.360379        -9.8064
  22   2.0000      -0.255700        -6.9579
  23   2.0000      -0.250264        -6.8100
  24   0.0000       0.004471         0.1217
  25   0.0000       0.008325         0.2265
  26   0.0000       0.049540         1.3480
  27   0.0000       0.057889         1.5752
  28   0.0000       0.081391         2.2148

MULLIKEN ATOMIC CHARGES
-----------------------
   0 C :   -0.908712
   1 H :    0.243382
   2 C :    0.248652
   3 H :    0.243395
   4 N :   -0.495430
   5 Li:    0.668713
   6 C :   -0.908712
   7 H :    0.243382
   8 C :    0.248652
   9 H :    0.243395
  10 N :   -0.495430
  11 Li:    0.668712
Sum of atomic charges:   -0.0000000

LOEWDIN ATOMIC CHARGES
----------------------
   0 C :   -0.567263
   1 H :    0.165651
   2 C :    0.104226
   3 H :    0.165687
   4 N :   -0.185304
   5 Li:    0.317002
   6 C :   -0.567263
   7 H :    0.165651
   8 C :    0.104226
   9 H :    0.165687
  10 N :   -0.185304
  11 Li:    0.317002

  Mayer bond orders larger than 0.100000
B(  0-C ,  1-H ) :   0.8999 B(  0-C ,  2-C ) :   1.2457 B(  0-C ,  3-H ) :   0.8998
B(  0-C ,  5-Li) :   0.2397 B(  2-C ,  4-N ) :   2.6487 B(  4-N , 11-Li) :   0.3113
B(  5-Li, 10-N ) :   0.3113 B(  6-C ,  7-H ) :   0.8999 B(  6-C ,  8-C ) :   1.2457
B(  6-C ,  9-H ) :   0.8998 B(  6-C , 11-Li) :   0.2397 B(  8-C , 10-N ) :   2.6487

Dispersion correction           -0.005389338
FINAL SINGLE POINT ENERGY      -278.792825422468

DIPOLE MOMENT
-------------
                                X             Y             Z
Electronic contribution:      0.00000       0.00000       0.04158
Nuclear contribution   :     -0.00000       0.00000      -0.03869
                        -----------------------------------------
Total Dipole Moment    :      0.00000       0.00000       0.00288
                        -----------------------------------------
Magnitude (a.u.)       :      0.00288
Magnitude (Debye)      :      0.00733

Rotational constants in cm-1:     0.127760     0.054452     0.038755
Rotational constants in MHz :  3830.157712  1632.418059  1161.835330

                             ****ORCA TERMINATED NORMALLY****
TOTAL RUN TIME: 0 days 0 hours 1 minutes 37 seconds 587 msec
