                         Program Version 5.0.3 -  RELEASE  -
|  1> ! PBEh-3c def2/J TightSCF DefGrid3
|  2>
|  3> %maxcore 60000
|  4>
|  5> %pal
|  6> nprocs 4
|  7> end
|  8>
|  9> *xyzfile 0 1 51.xyz
| 10>
| 11>                          ****END OF INPUT****

CARTESIAN COORDINATES (ANGSTROEM)
---------------------------------
  C     -0.605922    0.000000   -2.180940
  H     -1.667940    0.000000   -2.183574
  C      0.605922    0.000000   -2.180940
  H      1.667940    0.000000   -2.183574
  C      0.000000    0.000000    1.577292
  H      0.000000    0.000000    0.513458
  C      0.000000    0.000000    2.789365
  H      0.000000    0.000000    3.850803

 Total Charge           Charge          ....    0
 Multiplicity           Mult            ....    1
 Number of Electrons    NEL             ....   28
 Basis Dimension        Dim             ....   68

ORBITAL ENERGIES
----------------

  NO   OCC          E(Eh)            E(eV)
   0   2.0000     -10.470547      -284.9181
   1   2.0000     -10.468159      -284.8531
   2   2.0000     -10.451093      -284.3887
   3   2.0000     -10.448556      -284.3197
   4   2.0000      -0.852576       -23.1998
   5   2.0000      -0.832913       -22.6647
   6   2.0000      -0.649673       -17.6785
   7   2.0000      -0.631438       -17.1823
   8   2.0000      -0.570590       -15.5266
   9   2.0000      -0.552194       -15.0260
  10   2.0000      -0.350604        -9.5404
  11   2.0000      -0.349168        -9.5014
  12   2.0000      -0.331137        -9.0107
  13   2.0000      -0.330832        -9.0024
  14   0.0000       0.050263         1.3677
  15   0.0000       0.058240         1.5848
  16   0.0000       0.075174         2.0456
  17   0.0000       0.079614         2.1664
  18   0.0000       0.152889         4.1603

MULLIKEN ATOMIC CHARGES
-----------------------
   0 C :   -0.241872
   1 H :    0.246150
   2 C :   -0.241872
   3 H :    0.246150
   4 C :   -0.230055
   5 H :    0.259198
   6 C :   -0.271598
   7 H :    0.233899
Sum of atomic charges:   -0.0000000

LOEWDIN ATOMIC CHARGES
----------------------
   0 C :   -0.163058
   1 H :    0.167187
   2 C :   -0.163058
   3 H :    0.167187
   4 C :   -0.163179
   5 H :    0.167845
   6 C :   -0.173867
   7 H :    0.160943

  Mayer bond orders larger than 0.100000
B(  0-C ,  1-H ) :   0.9246 B(  0-C ,  2-C ) :   2.8248 B(  2-C ,  3-H ) :   0.9246
B(  4-C ,  5-H ) :   0.9044 B(  4-C ,  6-C ) :   2.8307 B(  6-C ,  7-H ) :   0.9307

Dispersion correction           -0.002026456
FINAL SINGLE POINT ENERGY      -154.287258973111

DIPOLE MOMENT
-------------
                                X             Y             Z
Electronic contribution:     -0.00000      -0.00000      -0.12700
Nuclear contribution   :      0.00000       0.00000      -0.00663
                        -----------------------------------------
Total Dipole Moment    :     -0.00000      -0.00000      -0.13364
                        -----------------------------------------
Magnitude (a.u.)       :      0.13364
Magnitude (Debye)      :      0.33967

Rotational constants in cm-1:     1.168396     0.064239     0.060891
Rotational constants in MHz : 35027.634000  1925.843695  1825.477662

                             ****ORCA TERMINATED NORMALLY****
TOTAL RUN TIME: 0 days 0 hours 1 minutes 8 seconds 288 msec
