                         Program Version 5.0.3 -  RELEASE  -
|  1> ! PBEh-3c def2/J TightSCF DefGrid3
|  2>
|  3> %maxcore 60000
|  4>
|  5> %pal
|  6> nprocs 4
|  7> end
|  8>
|  9> *xyzfile 0 1 E23.xyz
| 10>
| 11>                          ****END OF INPUT****

CARTESIAN COORDINATES (ANGSTROEM)
---------------------------------
  C     -0.104106   -0.055709   -1.216915
  N      0.688603   -0.155162    0.000000
  H      1.414007    0.551707    0.000000
  C     -0.104106   -0.055709    1.216915
  H      0.552980   -0.083979   -2.088096
  H     -0.722956    0.856292   -1.278330
  H     -0.777222   -0.914876   -1.284386
  H     -0.777222   -0.914876    1.284386
  H     -0.722956    0.856292    1.278330
  H      0.552980   -0.083979    2.088096

 Total Charge           Charge          ....    0
 Multiplicity           Mult            ....    1
 Number of Electrons    NEL             ....   26
 Basis Dimension        Dim             ....   59

ORBITAL ENERGIES
----------------

  NO   OCC          E(Eh)            E(eV)
   0   2.0000     -14.612531      -397.6272
   1   2.0000     -10.447261      -284.2844
   2   2.0000     -10.447207      -284.2829
   3   2.0000      -0.989033       -26.9130
   4   2.0000      -0.778128       -21.1739
   5   2.0000      -0.698953       -19.0195
   6   2.0000      -0.545815       -14.8524
   7   2.0000      -0.496815       -13.5190
   8   2.0000      -0.488098       -13.2818
   9   2.0000      -0.436655       -11.8820
  10   2.0000      -0.413396       -11.2491
  11   2.0000      -0.410848       -11.1797
  12   2.0000      -0.264797        -7.2055
  13   0.0000       0.134062         3.6480
  14   0.0000       0.191515         5.2114
  15   0.0000       0.201132         5.4731
  16   0.0000       0.205948         5.6041
  17   0.0000       0.230976         6.2852

MULLIKEN ATOMIC CHARGES
-----------------------
   0 C :   -0.491369
   1 N :   -0.548565
   2 H :    0.315967
   3 C :   -0.491369
   4 H :    0.217053
   5 H :    0.176748
   6 H :    0.213868
   7 H :    0.213868
   8 H :    0.176748
   9 H :    0.217053
Sum of atomic charges:   -0.0000000

LOEWDIN ATOMIC CHARGES
----------------------
   0 C :   -0.268958
   1 N :   -0.350524
   2 H :    0.224001
   3 C :   -0.268958
   4 H :    0.121645
   5 H :    0.091080
   6 H :    0.119494
   7 H :    0.119494
   8 H :    0.091080
   9 H :    0.121645

  Mayer bond orders larger than 0.100000
B(  0-C ,  1-N ) :   1.0181 B(  0-C ,  4-H ) :   0.9322 B(  0-C ,  5-H ) :   0.9103
B(  0-C ,  6-H ) :   0.9210 B(  1-N ,  2-H ) :   0.8538 B(  1-N ,  3-C ) :   1.0181
B(  3-C ,  7-H ) :   0.9210 B(  3-C ,  8-H ) :   0.9103 B(  3-C ,  9-H ) :   0.9322

Dispersion correction           -0.002979451
FINAL SINGLE POINT ENERGY      -134.863327715649

DIPOLE MOMENT
-------------
                                X             Y             Z
Electronic contribution:      1.32955      -0.32429      -0.00000
Nuclear contribution   :     -1.41786       0.72201       0.00000
                        -----------------------------------------
Total Dipole Moment    :     -0.08830       0.39772      -0.00000
                        -----------------------------------------
Magnitude (a.u.)       :      0.40740
Magnitude (Debye)      :      1.03553

Rotational constants in cm-1:     1.163659     0.308471     0.272753
Rotational constants in MHz : 34885.619584  9247.726721  8176.931606

                             ****ORCA TERMINATED NORMALLY****
TOTAL RUN TIME: 0 days 0 hours 1 minutes 12 seconds 518 msec
