                         Program Version 5.0.3 -  RELEASE  -
|  1> ! PBEh-3c def2/J TightSCF DefGrid3
|  2>
|  3> %maxcore 60000
|  4>
|  5> %pal
|  6> nprocs 4
|  7> end
|  8>
|  9> *xyzfile 0 1 ethene.xyz
| 10>
| 11>                          ****END OF INPUT****

CARTESIAN COORDINATES (ANGSTROEM)
---------------------------------
  C      0.661441    0.000000    0.000000
  C     -0.661441    0.000000    0.000000
  H      1.230920   -0.923111    0.000000
  H      1.230920    0.923111    0.000000
  H     -1.230920   -0.923111    0.000000
  H     -1.230920    0.923111    0.000000

 Total Charge           Charge          ....    0
 Multiplicity           Mult            ....    1
 Number of Electrons    NEL             ....   16
 Basis Dimension        Dim             ....   38

ORBITAL ENERGIES
----------------

  NO   OCC          E(Eh)            E(eV)
   0   2.0000     -10.440291      -284.0948
   1   2.0000     -10.439274      -284.0671
   2   2.0000      -0.850841       -23.1526
   3   2.0000      -0.650610       -17.7040
   4   2.0000      -0.531104       -14.4521
   5   2.0000      -0.479033       -13.0351
   6   2.0000      -0.406882       -11.0718
   7   2.0000      -0.317874        -8.6498
   8   0.0000       0.041618         1.1325
   9   0.0000       0.169234         4.6051
  10   0.0000       0.194755         5.2996
  11   0.0000       0.209910         5.7120
  12   0.0000       0.319735         8.7004

MULLIKEN ATOMIC CHARGES
-----------------------
   0 C :   -0.428843
   1 C :   -0.428843
   2 H :    0.214421
   3 H :    0.214421
   4 H :    0.214421
   5 H :    0.214421
Sum of atomic charges:    0.0000000

LOEWDIN ATOMIC CHARGES
----------------------
   0 C :   -0.260085
   1 C :   -0.260085
   2 H :    0.130043
   3 H :    0.130043
   4 H :    0.130043
   5 H :    0.130043

  Mayer bond orders larger than 0.100000
B(  0-C ,  1-C ) :   1.9825 B(  0-C ,  2-H ) :   0.9301 B(  0-C ,  3-H ) :   0.9301
B(  1-C ,  4-H ) :   0.9301 B(  1-C ,  5-H ) :   0.9301

Dispersion correction           -0.001302033
FINAL SINGLE POINT ENERGY       -78.405397575465

DIPOLE MOMENT
-------------
                                X             Y             Z
Electronic contribution:     -0.00000      -0.00000      -0.00000
Nuclear contribution   :      0.00000       0.00000       0.00000
                        -----------------------------------------
Total Dipole Moment    :     -0.00000      -0.00000      -0.00000
                        -----------------------------------------
Magnitude (a.u.)       :      0.00000
Magnitude (Debye)      :      0.00000

Rotational constants in cm-1:     4.906467     1.014368     0.840585
Rotational constants in MHz : 147092.186792 30409.996643 25200.100754

                             ****ORCA TERMINATED NORMALLY****
TOTAL RUN TIME: 0 days 0 hours 0 minutes 34 seconds 606 msec
