                         Program Version 5.0.3 -  RELEASE  -
|  1> ! PBEh-3c def2/J TightSCF DefGrid3
|  2>
|  3> %maxcore 60000
|  4>
|  5> %pal
|  6> nprocs 4
|  7> end
|  8>
|  9> *xyzfile 1 2 P22.xyz
| 10>
| 11>                          ****END OF INPUT****

CARTESIAN COORDINATES (ANGSTROEM)
---------------------------------
  C     -0.865304    0.038123    0.000000
  N      0.604374    0.020083    0.000000
  H     -1.349556   -0.052080   -0.958933
  H      0.986433    0.492099    0.828098
  H     -1.349556   -0.052080    0.958933
  H      0.987177   -0.938245    0.000000
  H      0.986433    0.492099   -0.828098

 Total Charge           Charge          ....    1
 Multiplicity           Mult            ....    2
 Number of Electrons    NEL             ....   17
 Basis Dimension        Dim             ....   40

ORBITAL ENERGIES
----------------
                 SPIN UP ORBITALS
  NO   OCC          E(Eh)            E(eV)
   0   1.0000     -15.001040      -408.1990
   1   1.0000     -10.731428      -292.0170
   2   1.0000      -1.344055       -36.5736
   3   1.0000      -1.020980       -27.7823
   4   1.0000      -0.891225       -24.2515
   5   1.0000      -0.883172       -24.0323
   6   1.0000      -0.789952       -21.4957
   7   1.0000      -0.717886       -19.5347
   8   1.0000      -0.530796       -14.4437
   9   0.0000      -0.139220        -3.7884
  10   0.0000      -0.080087        -2.1793
  11   0.0000      -0.078134        -2.1261
  12   0.0000      -0.048083        -1.3084
  13   0.0000       0.003174         0.0864

                 SPIN DOWN ORBITALS
  NO   OCC          E(Eh)            E(eV)
   0   1.0000     -15.002147      -408.2292
   1   1.0000     -10.713479      -291.5286
   2   1.0000      -1.338208       -36.4145
   3   1.0000      -0.978317       -26.6214
   4   1.0000      -0.888848       -24.1868
   5   1.0000      -0.871898       -23.7256
   6   1.0000      -0.777623       -21.1602
   7   1.0000      -0.706984       -19.2380
   8   0.0000      -0.256765        -6.9869
   9   0.0000      -0.135572        -3.6891
  10   0.0000      -0.079142        -2.1536
  11   0.0000      -0.070445        -1.9169
  12   0.0000      -0.021037        -0.5725

MULLIKEN ATOMIC CHARGES AND SPIN POPULATIONS
--------------------------------------------
   0 C :   -0.292611    1.129290
   1 N :   -0.790410   -0.055645
   2 H :    0.332599   -0.060792
   3 H :    0.473050    0.007255
   4 H :    0.332599   -0.060792
   5 H :    0.471723    0.033428
   6 H :    0.473050    0.007255
Sum of atomic charges         :    1.0000000

LOEWDIN ATOMIC CHARGES AND SPIN POPULATIONS
-------------------------------------------
   0 C :   -0.117378    1.023021
   1 N :   -0.210690   -0.010446
   2 H :    0.181950   -0.031264
   3 H :    0.321488    0.007873
   4 H :    0.181950   -0.031264
   5 H :    0.321192    0.034207
   6 H :    0.321488    0.007873

  Mayer bond orders larger than 0.100000
B(  0-C ,  1-N ) :   0.8699 B(  0-C ,  2-H ) :   0.8727 B(  0-C ,  4-H ) :   0.8727
B(  1-N ,  3-H ) :   0.7599 B(  1-N ,  5-H ) :   0.7485 B(  1-N ,  6-H ) :   0.7599

Dispersion correction           -0.001620394
FINAL SINGLE POINT ENERGY       -95.320717039321

DIPOLE MOMENT
-------------
                                X             Y             Z
Electronic contribution:      0.44063       0.07258       0.00000
Nuclear contribution   :      0.49985      -0.15740       0.00000
                        -----------------------------------------
Total Dipole Moment    :      0.94048      -0.08482       0.00000
                        -----------------------------------------
Magnitude (a.u.)       :      0.94430
Magnitude (Debye)      :      2.40021

Rotational constants in cm-1:     3.644512     0.765378     0.706158
Rotational constants in MHz : 109259.717758 22945.443928 21170.085619

                             ****ORCA TERMINATED NORMALLY****
TOTAL RUN TIME: 0 days 0 hours 2 minutes 19 seconds 965 msec
