                         Program Version 5.0.3 -  RELEASE  -
|  1> ! PBEh-3c def2/J TightSCF DefGrid3
|  2>
|  3> %maxcore 60000
|  4>
|  5> %pal
|  6> nprocs 4
|  7> end
|  8>
|  9> *xyzfile 0 1 H2O2.xyz
| 10>
| 11>                          ****END OF INPUT****

CARTESIAN COORDINATES (ANGSTROEM)
---------------------------------
  O     -1.330507    0.999074    0.000000
  H     -1.063546    1.921087    0.000000
  H     -0.505133    0.491942    0.000000
  O      1.005214   -0.751268    0.000000
  H      0.946985   -1.330418   -0.765575
  H      0.946985   -1.330418    0.765575

 Total Charge           Charge          ....    0
 Multiplicity           Mult            ....    1
 Number of Electrons    NEL             ....   20
 Basis Dimension        Dim             ....   38

ORBITAL ENERGIES
----------------

  NO   OCC          E(Eh)            E(eV)
   0   2.0000     -19.509750      -530.8873
   1   2.0000     -19.438085      -528.9372
   2   2.0000      -1.135138       -30.8887
   3   2.0000      -1.065503       -28.9938
   4   2.0000      -0.614731       -16.7277
   5   2.0000      -0.553311       -15.0564
   6   2.0000      -0.469819       -12.7844
   7   2.0000      -0.406321       -11.0566
   8   2.0000      -0.382810       -10.4168
   9   2.0000      -0.324287        -8.8243
  10   0.0000       0.104574         2.8456
  11   0.0000       0.179330         4.8798
  12   0.0000       0.188900         5.1402
  13   0.0000       0.301902         8.2152
  14   0.0000       0.845256        23.0006

MULLIKEN ATOMIC CHARGES
-----------------------
   0 O :   -0.865612
   1 H :    0.396903
   2 H :    0.422712
   3 O :   -0.811637
   4 H :    0.428817
   5 H :    0.428817
Sum of atomic charges:   -0.0000000

LOEWDIN ATOMIC CHARGES
----------------------
   0 O :   -0.629529
   1 H :    0.292320
   2 H :    0.286576
   3 O :   -0.572369
   4 H :    0.311501
   5 H :    0.311501

  Mayer bond orders larger than 0.100000
B(  0-O ,  1-H ) :   0.8250 B(  0-O ,  2-H ) :   0.7463 B(  3-O ,  4-H ) :   0.7970
B(  3-O ,  5-H ) :   0.7970

Dispersion correction           -0.000825232
FINAL SINGLE POINT ENERGY      -152.525509547025

DIPOLE MOMENT
-------------
                                X             Y             Z
Electronic contribution:      0.07491      -0.09996      -0.00000
Nuclear contribution   :      0.81228      -0.61879       0.00000
                        -----------------------------------------
Total Dipole Moment    :      0.88719      -0.71875      -0.00000
                        -----------------------------------------
Magnitude (a.u.)       :      1.14180
Magnitude (Debye)      :      2.90223

Rotational constants in cm-1:     7.177447     0.212896     0.212857
Rotational constants in MHz : 215174.446458  6382.471104  6381.304132

                             ****ORCA TERMINATED NORMALLY****
TOTAL RUN TIME: 0 days 0 hours 0 minutes 50 seconds 768 msec
