                         Program Version 5.0.3 -  RELEASE  -
|  1> ! PBEh-3c def2/J TightSCF DefGrid3
|  2>
|  3> %maxcore 60000
|  4>
|  5> %pal
|  6> nprocs 4
|  7> end
|  8>
|  9> *xyzfile 1 2 IP_76.xyz
| 10>
| 11>                          ****END OF INPUT****

CARTESIAN COORDINATES (ANGSTROEM)
---------------------------------
  P      0.000000    0.000000    0.947685
  P      0.000000    0.000000   -0.947685

 Total Charge           Charge          ....    1
 Multiplicity           Mult            ....    2
 Number of Electrons    NEL             ....   29
 Basis Dimension        Dim             ....   36

ORBITAL ENERGIES
----------------
                 SPIN UP ORBITALS
  NO   OCC          E(Eh)            E(eV)
   0   1.0000     -78.089947     -2124.9355
   1   1.0000     -78.089747     -2124.9301
   2   1.0000      -7.162415      -194.8992
   3   1.0000      -7.161918      -194.8857
   4   1.0000      -5.257684      -143.0689
   5   1.0000      -5.255441      -143.0078
   6   1.0000      -5.249754      -142.8531
   7   1.0000      -5.249754      -142.8531
   8   1.0000      -5.249553      -142.8476
   9   1.0000      -5.249553      -142.8476
  10   1.0000      -1.068401       -29.0727
  11   1.0000      -0.821215       -22.3464
  12   1.0000      -0.656305       -17.8590
  13   1.0000      -0.598551       -16.2874
  14   1.0000      -0.598551       -16.2874
  15   0.0000      -0.347196        -9.4477
  16   0.0000      -0.347196        -9.4477
  17   0.0000      -0.155503        -4.2314
  18   0.0000      -0.040424        -1.1000
  19   0.0000       0.103160         2.8071

                 SPIN DOWN ORBITALS
  NO   OCC          E(Eh)            E(eV)
   0   1.0000     -78.086423     -2124.8396
   1   1.0000     -78.086222     -2124.8341
   2   1.0000      -7.158547      -194.7940
   3   1.0000      -7.158146      -194.7831
   4   1.0000      -5.247620      -142.7950
   5   1.0000      -5.247620      -142.7950
   6   1.0000      -5.247439      -142.7901
   7   1.0000      -5.247439      -142.7901
   8   1.0000      -5.244281      -142.7041
   9   1.0000      -5.242125      -142.6455
  10   1.0000      -1.032373       -28.0923
  11   1.0000      -0.759761       -20.6741
  12   1.0000      -0.592233       -16.1155
  13   1.0000      -0.592233       -16.1155
  14   0.0000      -0.472338       -12.8530
  15   0.0000      -0.332291        -9.0421
  16   0.0000      -0.332291        -9.0421
  17   0.0000      -0.116348        -3.1660
  18   0.0000      -0.020135        -0.5479

MULLIKEN ATOMIC CHARGES AND SPIN POPULATIONS
--------------------------------------------
   0 P :    0.500000    0.500000
   1 P :    0.500000    0.500000
Sum of atomic charges         :    1.0000000

LOEWDIN ATOMIC CHARGES AND SPIN POPULATIONS
-------------------------------------------
   0 P :    0.500000    0.500000
   1 P :    0.500000    0.500000

  Mayer bond orders larger than 0.100000
B(  0-P ,  1-P ) :   2.8676

Dispersion correction           -0.000627134
FINAL SINGLE POINT ENERGY      -681.467419611834

DIPOLE MOMENT
-------------
                                X             Y             Z
Electronic contribution:     -0.00000      -0.00000       0.00000
Nuclear contribution   :      0.00000       0.00000       0.00000
                        -----------------------------------------
Total Dipole Moment    :     -0.00000      -0.00000       0.00000
                        -----------------------------------------
Magnitude (a.u.)       :      0.00000
Magnitude (Debye)      :      0.00000

Rotational constants in cm-1:     0.000000     0.302999     0.302999
Rotational constants in MHz :     0.000000  9083.680339  9083.680339

                             ****ORCA TERMINATED NORMALLY****
TOTAL RUN TIME: 0 days 0 hours 0 minutes 11 seconds 610 msec
