                         Program Version 5.0.3 -  RELEASE  -
|  1> ! PBEh-3c def2/J TightSCF DefGrid3
|  2>
|  3> %maxcore 60000
|  4>
|  5> %pal
|  6> nprocs 4
|  7> end
|  8>
|  9> *xyzfile 0 1 1a.xyz
| 10>
| 11>                          ****END OF INPUT****

CARTESIAN COORDINATES (ANGSTROEM)
---------------------------------
  C      1.586620    1.869466   -0.602154
  C      1.071295    0.542916   -0.165810
  C     -0.251235    0.225275   -0.079655
  C     -0.669177   -1.087510    0.353345
  C     -2.144486   -1.370545    0.426743
  O      2.027122   -0.324410    0.139145
  O      0.151624   -1.967667    0.660546
  H      2.200510    2.298768    0.187307
  H      0.773793    2.548039   -0.838242
  H      2.220002    1.743229   -1.478164
  H     -2.600740   -1.218145   -0.550138
  H     -2.619462   -0.678103    1.120148
  H     -2.308549   -2.390777    0.755460
  H     -0.989453    0.966290   -0.338945
  H      1.552136   -1.156828    0.410416

 Total Charge           Charge          ....    0
 Multiplicity           Mult            ....    1
 Number of Electrons    NEL             ....   54
 Basis Dimension        Dim             ....  121

ORBITAL ENERGIES
----------------

  NO   OCC          E(Eh)            E(eV)
   0   2.0000     -19.524379      -531.2854
   1   2.0000     -19.487053      -530.2697
   2   2.0000     -10.539998      -286.8079
   3   2.0000     -10.539145      -286.7847
   4   2.0000     -10.448912      -284.3293
   5   2.0000     -10.439887      -284.0838
   6   2.0000     -10.433666      -283.9145
   7   2.0000      -1.189979       -32.3810
   8   2.0000      -1.141337       -31.0574
   9   2.0000      -0.893272       -24.3072
  10   2.0000      -0.846702       -23.0399
  11   2.0000      -0.801290       -21.8042
  12   2.0000      -0.677044       -18.4233
  13   2.0000      -0.645207       -17.5570
  14   2.0000      -0.565584       -15.3903
  15   2.0000      -0.546602       -14.8738
  16   2.0000      -0.519366       -14.1327
  17   2.0000      -0.498364       -13.5612
  18   2.0000      -0.489062       -13.3080
  19   2.0000      -0.484749       -13.1907
  20   2.0000      -0.470243       -12.7960
  21   2.0000      -0.444726       -12.1016
  22   2.0000      -0.438910       -11.9434
  23   2.0000      -0.428330       -11.6555
  24   2.0000      -0.409817       -11.1517
  25   2.0000      -0.314453        -8.5567
  26   2.0000      -0.285376        -7.7655
  27   0.0000      -0.016737        -0.4554
  28   0.0000       0.106371         2.8945
  29   0.0000       0.145231         3.9519
  30   0.0000       0.163507         4.4493
  31   0.0000       0.177695         4.8353

MULLIKEN ATOMIC CHARGES
-----------------------
   0 C :   -0.707603
   1 C :    0.415782
   2 C :   -0.520401
   3 C :    0.414753
   4 C :   -0.747958
   5 O :   -0.582442
   6 O :   -0.457966
   7 H :    0.254923
   8 H :    0.234763
   9 H :    0.254910
  10 H :    0.241851
  11 H :    0.242392
  12 H :    0.261286
  13 H :    0.224152
  14 H :    0.471556
Sum of atomic charges:   -0.0000000

LOEWDIN ATOMIC CHARGES
----------------------
   0 C :   -0.356454
   1 C :    0.127776
   2 C :   -0.330815
   3 C :    0.116694
   4 C :   -0.379163
   5 O :   -0.286852
   6 O :   -0.274789
   7 H :    0.155616
   8 H :    0.141345
   9 H :    0.155649
  10 H :    0.149859
  11 H :    0.150303
  12 H :    0.151313
  13 H :    0.143022
  14 H :    0.336497

  Mayer bond orders larger than 0.100000
B(  0-C ,  1-C ) :   0.9903 B(  0-C ,  7-H ) :   0.9025 B(  0-C ,  8-H ) :   0.9256
B(  0-C ,  9-H ) :   0.9024 B(  1-C ,  2-C ) :   1.5215 B(  1-C ,  5-O ) :   1.2819
B(  2-C ,  3-C ) :   1.1116 B(  2-C , 13-H ) :   0.9155 B(  3-C ,  4-C ) :   0.9570
B(  3-C ,  6-O ) :   1.8504 B(  4-C , 10-H ) :   0.9109 B(  4-C , 11-H ) :   0.9105
B(  4-C , 12-H ) :   0.9184 B(  5-O , 14-H ) :   0.6147 B(  6-O , 14-H ) :   0.1730

Dispersion correction           -0.006615258
FINAL SINGLE POINT ENERGY      -345.057519600679

DIPOLE MOMENT
-------------
                                X             Y             Z
Electronic contribution:      3.09525      -3.42140       1.18969
Nuclear contribution   :     -3.75115       4.38528      -1.52139
                        -----------------------------------------
Total Dipole Moment    :     -0.65590       0.96388      -0.33171
                        -----------------------------------------
Magnitude (a.u.)       :      1.21215
Magnitude (Debye)      :      3.08103

Rotational constants in cm-1:     0.194227     0.057397     0.045040
Rotational constants in MHz :  5822.765614  1720.721079  1350.264275

                             ****ORCA TERMINATED NORMALLY****
TOTAL RUN TIME: 0 days 0 hours 1 minutes 48 seconds 873 msec
