                         Program Version 5.0.3 -  RELEASE  -
|  1> ! PBEh-3c def2/J TightSCF DefGrid3
|  2>
|  3> %maxcore 60000
|  4>
|  5> %pal
|  6> nprocs 4
|  7> end
|  8>
|  9> *xyzfile 0 1 64A.xyz
| 10>
| 11>                          ****END OF INPUT****

CARTESIAN COORDINATES (ANGSTROEM)
---------------------------------
  C      1.885391    0.166531    0.077412
  H      1.897250    1.122756   -0.440783
  H      2.570995   -0.520036   -0.410286
  H      2.225422    0.312879    1.101281
  C      0.517504   -0.469343    0.121862
  O      0.354929   -1.646098    0.419140
  N     -0.517826    0.366030   -0.170624
  H     -0.313335    1.330075   -0.358514
  C     -1.894336   -0.070513   -0.097646
  H     -1.889061   -1.155889   -0.091788
  H     -2.384867    0.279339    0.810905
  H     -2.452067    0.284269   -0.960960

 Total Charge           Charge          ....    0
 Multiplicity           Mult            ....    1
 Number of Electrons    NEL             ....   40
 Basis Dimension        Dim             ....   89

ORBITAL ENERGIES
----------------

  NO   OCC          E(Eh)            E(eV)
   0   2.0000     -19.446983      -529.1793
   1   2.0000     -14.660113      -398.9220
   2   2.0000     -10.542620      -286.8793
   3   2.0000     -10.463784      -284.7340
   4   2.0000     -10.439937      -284.0851
   5   2.0000      -1.133869       -30.8541
   6   2.0000      -1.017297       -27.6821
   7   2.0000      -0.840818       -22.8798
   8   2.0000      -0.768321       -20.9071
   9   2.0000      -0.653633       -17.7863
  10   2.0000      -0.568889       -15.4802
  11   2.0000      -0.529331       -14.4038
  12   2.0000      -0.520668       -14.1681
  13   2.0000      -0.482846       -13.1389
  14   2.0000      -0.462223       -12.5777
  15   2.0000      -0.451943       -12.2980
  16   2.0000      -0.441042       -12.0014
  17   2.0000      -0.404019       -10.9939
  18   2.0000      -0.303468        -8.2578
  19   2.0000      -0.297405        -8.0928
  20   0.0000       0.069538         1.8922
  21   0.0000       0.120914         3.2902
  22   0.0000       0.177467         4.8291
  23   0.0000       0.188568         5.1312
  24   0.0000       0.196642         5.3509

MULLIKEN ATOMIC CHARGES
-----------------------
   0 C :   -0.749593
   1 H :    0.208158
   2 H :    0.262657
   3 H :    0.254309
   4 C :    0.517733
   5 O :   -0.430400
   6 N :   -0.626043
   7 H :    0.351944
   8 C :   -0.491465
   9 H :    0.267778
  10 H :    0.218681
  11 H :    0.216240
Sum of atomic charges:   -0.0000000

LOEWDIN ATOMIC CHARGES
----------------------
   0 C :   -0.390548
   1 H :    0.125554
   2 H :    0.157093
   3 H :    0.155703
   4 C :    0.103851
   5 O :   -0.284469
   6 N :   -0.254493
   7 H :    0.249798
   8 C :   -0.259324
   9 H :    0.154956
  10 H :    0.119793
  11 H :    0.122085

  Mayer bond orders larger than 0.100000
B(  0-C ,  1-H ) :   0.9219 B(  0-C ,  2-H ) :   0.9124 B(  0-C ,  3-H ) :   0.9090
B(  0-C ,  4-C ) :   0.9275 B(  4-C ,  5-O ) :   1.9970 B(  4-C ,  6-N ) :   1.1342
B(  6-N ,  7-H ) :   0.8301 B(  6-N ,  8-C ) :   0.9505 B(  8-C ,  9-H ) :   0.8973
B(  8-C , 10-H ) :   0.9201 B(  8-C , 11-H ) :   0.9247

Dispersion correction           -0.004438470
FINAL SINGLE POINT ENERGY      -247.988960670599

DIPOLE MOMENT
-------------
                                X             Y             Z
Electronic contribution:      0.53693      -2.24446       0.46456
Nuclear contribution   :     -0.69908       3.69416      -0.79040
                        -----------------------------------------
Total Dipole Moment    :     -0.16215       1.44971      -0.32584
                        -----------------------------------------
Magnitude (a.u.)       :      1.49470
Magnitude (Debye)      :      3.79922

Rotational constants in cm-1:     0.333934     0.129833     0.096889
Rotational constants in MHz : 10011.077078  3892.309366  2904.669877

                             ****ORCA TERMINATED NORMALLY****
TOTAL RUN TIME: 0 days 0 hours 1 minutes 24 seconds 906 msec
