                         Program Version 5.0.3 -  RELEASE  -
|  1> ! PBEh-3c def2/J TightSCF DefGrid3
|  2>
|  3> %maxcore 60000
|  4>
|  5> %pal
|  6> nprocs 4
|  7> end
|  8>
|  9> *xyzfile 0 1 c2.xyz
| 10>
| 11>                          ****END OF INPUT****

CARTESIAN COORDINATES (ANGSTROEM)
---------------------------------
  C      0.620000    0.000000    0.000000
  C     -0.620000    0.000000    0.000000

 Total Charge           Charge          ....    0
 Multiplicity           Mult            ....    1
 Number of Electrons    NEL             ....   12
 Basis Dimension        Dim             ....   30

ORBITAL ENERGIES
----------------

  NO   OCC          E(Eh)            E(eV)
   0   2.0000     -10.564556      -287.4762
   1   2.0000     -10.562907      -287.4313
   2   2.0000      -0.883750       -24.0481
   3   2.0000      -0.450462       -12.2577
   4   2.0000      -0.379368       -10.3231
   5   2.0000      -0.379368       -10.3231
   6   0.0000      -0.232262        -6.3202
   7   0.0000       0.038987         1.0609
   8   0.0000       0.038987         1.0609
   9   0.0000       0.295049         8.0287
  10   0.0000       0.448825        12.2131

MULLIKEN ATOMIC CHARGES
-----------------------
   0 C :   -0.000000
   1 C :    0.000000
Sum of atomic charges:    0.0000000

LOEWDIN ATOMIC CHARGES
----------------------
   0 C :   -0.000000
   1 C :    0.000000

  Mayer bond orders larger than 0.100000
B(  0-C ,  1-C ) :   3.4376

Dispersion correction           -0.000331936
FINAL SINGLE POINT ENERGY       -75.677419067410

DIPOLE MOMENT
-------------
                                X             Y             Z
Electronic contribution:     -0.00000       0.00000      -0.00000
Nuclear contribution   :      0.00000       0.00000       0.00000
                        -----------------------------------------
Total Dipole Moment    :     -0.00000       0.00000      -0.00000
                        -----------------------------------------
Magnitude (a.u.)       :      0.00000
Magnitude (Debye)      :      0.00000

Rotational constants in cm-1:     0.000000     1.825595     1.825595
Rotational constants in MHz :     0.000000 54729.951378 54729.951378

                             ****ORCA TERMINATED NORMALLY****
TOTAL RUN TIME: 0 days 0 hours 0 minutes 21 seconds 602 msec
