                         Program Version 5.0.3 -  RELEASE  -
|  1> ! PBEh-3c def2/J TightSCF DefGrid3
|  2>
|  3> %maxcore 60000
|  4>
|  5> %pal
|  6> nprocs 4
|  7> end
|  8>
|  9> *xyzfile 0 1 G4.xyz
| 10>
| 11>                          ****END OF INPUT****

CARTESIAN COORDINATES (ANGSTROEM)
---------------------------------
  C      0.836608   -0.224478    1.121311
  C      0.382566   -1.358786    0.181267
  C     -0.591865   -0.889019   -0.925099
  O     -0.152853    0.323162   -1.570757
  C      1.264142    1.012917    0.310633
  C      0.245956    1.425403   -0.779217
  O     -0.811748    2.175096   -0.244494
  O      1.520545   -1.996250   -0.385831
  C     -2.082231   -0.854076   -0.552965
  H     -1.546373    1.565623    0.008152
  O     -2.461222    0.105886    0.434340
  H      2.120426   -1.299294   -0.711423
  H     -1.919648   -0.047228    1.236072
  O     -0.240407    0.058140    2.027844
  O      2.520804    0.641238   -0.276139
  H      0.756759    2.090089   -1.488436
  H     -0.117575   -2.125689    0.783493
  H      2.787060    1.313218   -0.924321
  H     -0.511737   -1.644001   -1.715847
  H     -2.654037   -0.596592   -1.448435
  H     -0.073300    0.897636    2.486105
  H      1.703546   -0.584031    1.688354
  H      1.405047    1.875325    0.979400
  H     -2.380464   -1.864288   -0.234008

 Total Charge           Charge          ....    0
 Multiplicity           Mult            ....    1
 Number of Electrons    NEL             ....   96
 Basis Dimension        Dim             ....  204

ORBITAL ENERGIES
----------------

  NO   OCC          E(Eh)            E(eV)
   0   2.0000     -19.533974      -531.5465
   1   2.0000     -19.525834      -531.3250
   2   2.0000     -19.510642      -530.9116
   3   2.0000     -19.504602      -530.7472
   4   2.0000     -19.486751      -530.2614
   5   2.0000     -19.478974      -530.0498
   6   2.0000     -10.548462      -287.0382
   7   2.0000     -10.517853      -286.2053
   8   2.0000     -10.514442      -286.1125
   9   2.0000     -10.506609      -285.8994
  10   2.0000     -10.502984      -285.8007
  11   2.0000     -10.495477      -285.5965
  12   2.0000      -1.185074       -32.2475
  13   2.0000      -1.161219       -31.5984
  14   2.0000      -1.152667       -31.3657
  15   2.0000      -1.132241       -30.8098
  16   2.0000      -1.124614       -30.6023
  17   2.0000      -1.098145       -29.8820
  18   2.0000      -0.878391       -23.9022
  19   2.0000      -0.861478       -23.4420
  20   2.0000      -0.783847       -21.3296
  21   2.0000      -0.742759       -20.2115
  22   2.0000      -0.722972       -19.6731
  23   2.0000      -0.647509       -17.6196
  24   2.0000      -0.616848       -16.7853
  25   2.0000      -0.609396       -16.5825
  26   2.0000      -0.595074       -16.1928
  27   2.0000      -0.575771       -15.6675
  28   2.0000      -0.561715       -15.2851
  29   2.0000      -0.549594       -14.9552
  30   2.0000      -0.543150       -14.7799
  31   2.0000      -0.531505       -14.4630
  32   2.0000      -0.507813       -13.8183
  33   2.0000      -0.493805       -13.4371
  34   2.0000      -0.487028       -13.2527
  35   2.0000      -0.461215       -12.5503
  36   2.0000      -0.449776       -12.2390
  37   2.0000      -0.439524       -11.9601
  38   2.0000      -0.422384       -11.4937
  39   2.0000      -0.411161       -11.1883
  40   2.0000      -0.405414       -11.0319
  41   2.0000      -0.390652       -10.6302
  42   2.0000      -0.374345       -10.1865
  43   2.0000      -0.363235        -9.8841
  44   2.0000      -0.355415        -9.6713
  45   2.0000      -0.338477        -9.2104
  46   2.0000      -0.316455        -8.6112
  47   2.0000      -0.308456        -8.3935
  48   0.0000       0.073831         2.0090
  49   0.0000       0.106114         2.8875
  50   0.0000       0.137076         3.7300
  51   0.0000       0.144392         3.9291
  52   0.0000       0.151621         4.1258

MULLIKEN ATOMIC CHARGES
-----------------------
   0 C :   -0.011383
   1 C :    0.010893
   2 C :   -0.055524
   3 O :   -0.482099
   4 C :   -0.043594
   5 C :    0.247951
   6 O :   -0.665673
   7 O :   -0.641845
   8 C :   -0.181320
   9 H :    0.446935
  10 O :   -0.660994
  11 H :    0.434284
  12 H :    0.447955
  13 O :   -0.661333
  14 O :   -0.648783
  15 H :    0.196741
  16 H :    0.235891
  17 H :    0.429948
  18 H :    0.253933
  19 H :    0.240077
  20 H :    0.436353
  21 H :    0.255688
  22 H :    0.216626
  23 H :    0.199274
Sum of atomic charges:   -0.0000000

LOEWDIN ATOMIC CHARGES
----------------------
   0 C :   -0.033492
   1 C :   -0.031828
   2 C :   -0.048154
   3 O :   -0.238717
   4 C :   -0.061532
   5 C :    0.067745
   6 O :   -0.414178
   7 O :   -0.396824
   8 C :   -0.105891
   9 H :    0.310322
  10 O :   -0.413286
  11 H :    0.313027
  12 H :    0.309171
  13 O :   -0.389914
  14 O :   -0.393278
  15 H :    0.108559
  16 H :    0.132149
  17 H :    0.319381
  18 H :    0.146326
  19 H :    0.134795
  20 H :    0.323657
  21 H :    0.132292
  22 H :    0.115496
  23 H :    0.114174

  Mayer bond orders larger than 0.100000
B(  0-C ,  1-C ) :   0.9300 B(  0-C ,  4-C ) :   0.9354 B(  0-C , 13-O ) :   0.9380
B(  0-C , 21-H ) :   0.8854 B(  1-C ,  2-C ) :   0.9071 B(  1-C ,  7-O ) :   1.0381
B(  1-C , 16-H ) :   0.8970 B(  2-C ,  3-O ) :   0.9542 B(  2-C ,  8-C ) :   0.9244
B(  2-C , 18-H ) :   0.8930 B(  3-O ,  5-C ) :   1.0043 B(  4-C ,  5-C ) :   0.8780
B(  4-C , 14-O ) :   0.9533 B(  4-C , 22-H ) :   0.8959 B(  5-C ,  6-O ) :   1.0917
B(  5-C , 15-H ) :   0.9122 B(  6-O ,  9-H ) :   0.6664 B(  7-O , 11-H ) :   0.7347
B(  8-C , 10-O ) :   0.9963 B(  8-C , 19-H ) :   0.9061 B(  8-C , 23-H ) :   0.9006
B(  9-H , 10-O ) :   0.1356 B( 10-O , 12-H ) :   0.6949 B( 13-O , 20-H ) :   0.7693
B( 14-O , 17-H ) :   0.7750

Dispersion correction           -0.014798711
FINAL SINGLE POINT ENERGY      -685.709483760429

DIPOLE MOMENT
-------------
                                X             Y             Z
Electronic contribution:      1.39476       1.29620      -0.59554
Nuclear contribution   :     -0.79057      -0.99287       1.07868
                        -----------------------------------------
Total Dipole Moment    :      0.60419       0.30334       0.48314
                        -----------------------------------------
Magnitude (a.u.)       :      0.83095
Magnitude (Debye)      :      2.11212

Rotational constants in cm-1:     0.039940     0.031066     0.027101
Rotational constants in MHz :  1197.361049   931.329019   812.477542

                             ****ORCA TERMINATED NORMALLY****
TOTAL RUN TIME: 0 days 0 hours 2 minutes 14 seconds 957 msec
