                         Program Version 5.0.3 -  RELEASE  -
|  1> ! PBEh-3c def2/J TightSCF DefGrid3
|  2>
|  3> %maxcore 60000
|  4>
|  5> %pal
|  6> nprocs 4
|  7> end
|  8>
|  9> *xyzfile 0 1 E16.xyz
| 10>
| 11>                          ****END OF INPUT****

CARTESIAN COORDINATES (ANGSTROEM)
---------------------------------
  C     -1.880463    0.001114    0.328629
  C     -0.562721    0.008907   -0.425655
  N      0.561758    0.024194    0.344360
  O     -0.515655    0.008948   -1.645642
  H      0.470612   -0.030312    1.344316
  C      1.891725   -0.001847   -0.241761
  H     -2.467630    0.865118    0.014759
  H     -1.766952    0.023778    1.413766
  H     -2.438522   -0.893400    0.048040
  H      1.938869    0.697612   -1.075859
  H      2.149701   -0.995376   -0.619431
  H      2.619278    0.291264    0.514477

 Total Charge           Charge          ....    0
 Multiplicity           Mult            ....    1
 Number of Electrons    NEL             ....   40
 Basis Dimension        Dim             ....   89

ORBITAL ENERGIES
----------------

  NO   OCC          E(Eh)            E(eV)
   0   2.0000     -19.446958      -529.1786
   1   2.0000     -14.660371      -398.9290
   2   2.0000     -10.542156      -286.8666
   3   2.0000     -10.467676      -284.8399
   4   2.0000     -10.440962      -284.1130
   5   2.0000      -1.134748       -30.8781
   6   2.0000      -1.014912       -27.6172
   7   2.0000      -0.836979       -22.7754
   8   2.0000      -0.768135       -20.9020
   9   2.0000      -0.652745       -17.7621
  10   2.0000      -0.567759       -15.4495
  11   2.0000      -0.527030       -14.3412
  12   2.0000      -0.518529       -14.1099
  13   2.0000      -0.478930       -13.0324
  14   2.0000      -0.463666       -12.6170
  15   2.0000      -0.451194       -12.2776
  16   2.0000      -0.444179       -12.0867
  17   2.0000      -0.401929       -10.9370
  18   2.0000      -0.302884        -8.2419
  19   2.0000      -0.297728        -8.1016
  20   0.0000       0.068715         1.8698
  21   0.0000       0.116823         3.1789
  22   0.0000       0.173972         4.7340
  23   0.0000       0.179074         4.8728
  24   0.0000       0.203248         5.5307

MULLIKEN ATOMIC CHARGES
-----------------------
   0 C :   -0.748121
   1 C :    0.520321
   2 N :   -0.628663
   3 O :   -0.425315
   4 H :    0.352889
   5 C :   -0.483418
   6 H :    0.258413
   7 H :    0.205734
   8 H :    0.256406
   9 H :    0.251486
  10 H :    0.228380
  11 H :    0.211887
Sum of atomic charges:   -0.0000000

LOEWDIN ATOMIC CHARGES
----------------------
   0 C :   -0.391899
   1 C :    0.102974
   2 N :   -0.257154
   3 O :   -0.277362
   4 H :    0.250599
   5 C :   -0.253452
   6 H :    0.156440
   7 H :    0.123586
   8 H :    0.155515
   9 H :    0.142099
  10 H :    0.124854
  11 H :    0.123801

  Mayer bond orders larger than 0.100000
B(  0-C ,  1-C ) :   0.9263 B(  0-C ,  6-H ) :   0.9107 B(  0-C ,  7-H ) :   0.9229
B(  0-C ,  8-H ) :   0.9109 B(  1-C ,  2-N ) :   1.1294 B(  1-C ,  3-O ) :   1.9991
B(  2-N ,  4-H ) :   0.8309 B(  2-N ,  5-C ) :   0.9498 B(  5-C ,  9-H ) :   0.9094
B(  5-C , 10-H ) :   0.9158 B(  5-C , 11-H ) :   0.9277

Dispersion correction           -0.004421329
FINAL SINGLE POINT ENERGY      -247.989439652071

DIPOLE MOMENT
-------------
                                X             Y             Z
Electronic contribution:     -0.72990       0.05907      -2.19631
Nuclear contribution   :      1.05498      -0.08703       3.67208
                        -----------------------------------------
Total Dipole Moment    :      0.32508      -0.02796       1.47576
                        -----------------------------------------
Magnitude (a.u.)       :      1.51140
Magnitude (Debye)      :      3.84168

Rotational constants in cm-1:     0.336236     0.128329     0.096211
Rotational constants in MHz : 10080.098055  3847.202705  2884.327537

                             ****ORCA TERMINATED NORMALLY****
TOTAL RUN TIME: 0 days 0 hours 1 minutes 12 seconds 99 msec
