                         Program Version 5.0.3 -  RELEASE  -
|  1> ! PBEh-3c def2/J TightSCF DefGrid3
|  2>
|  3> %maxcore 60000
|  4>
|  5> %pal
|  6> nprocs 4
|  7> end
|  8>
|  9> *xyzfile 0 1 4b.xyz
| 10>
| 11>                          ****END OF INPUT****

CARTESIAN COORDINATES (ANGSTROEM)
---------------------------------
  C     -0.754249    1.168666    0.000000
  C      0.663678    1.263188    0.000000
  C      1.380181    0.108901    0.000000
  N      0.742862   -1.093648    0.000000
  H      1.278334   -1.948819    0.000000
  C     -0.641451   -1.283270    0.000000
  O     -1.111619   -2.414866    0.000000
  C     -1.382256   -0.040674    0.000000
  H     -1.346454    2.073510    0.000000
  H      1.170422    2.213570    0.000000
  H      2.458721    0.076374    0.000000
  H     -2.458169   -0.122933    0.000000

 Total Charge           Charge          ....    0
 Multiplicity           Mult            ....    1
 Number of Electrons    NEL             ....   50
 Basis Dimension        Dim             ....  115

ORBITAL ENERGIES
----------------

  NO   OCC          E(Eh)            E(eV)
   0   2.0000     -19.448366      -529.2169
   1   2.0000     -14.701436      -400.0464
   2   2.0000     -10.549026      -287.0536
   3   2.0000     -10.515753      -286.1482
   4   2.0000     -10.476361      -285.0763
   5   2.0000     -10.458004      -284.5768
   6   2.0000     -10.452754      -284.4339
   7   2.0000      -1.143410       -31.1138
   8   2.0000      -1.063348       -28.9352
   9   2.0000      -0.918857       -25.0034
  10   2.0000      -0.852876       -23.2079
  11   2.0000      -0.737334       -20.0639
  12   2.0000      -0.719330       -19.5740
  13   2.0000      -0.635932       -17.3046
  14   2.0000      -0.576692       -15.6926
  15   2.0000      -0.556904       -15.1541
  16   2.0000      -0.528035       -14.3686
  17   2.0000      -0.503626       -13.7044
  18   2.0000      -0.489734       -13.3263
  19   2.0000      -0.450250       -12.2519
  20   2.0000      -0.436522       -11.8784
  21   2.0000      -0.398139       -10.8339
  22   2.0000      -0.358069        -9.7435
  23   2.0000      -0.309689        -8.4271
  24   2.0000      -0.261048        -7.1035
  25   0.0000      -0.021649        -0.5891
  26   0.0000       0.039173         1.0659
  27   0.0000       0.111513         3.0344
  28   0.0000       0.165233         4.4962
  29   0.0000       0.181276         4.9328

MULLIKEN ATOMIC CHARGES
-----------------------
   0 C :   -0.100127
   1 C :   -0.366552
   2 C :    0.070168
   3 N :   -0.664941
   4 H :    0.379896
   5 C :    0.540481
   6 O :   -0.429014
   7 C :   -0.418596
   8 H :    0.238452
   9 H :    0.236644
  10 H :    0.259705
  11 H :    0.253885
Sum of atomic charges:   -0.0000000

LOEWDIN ATOMIC CHARGES
----------------------
   0 C :   -0.090582
   1 C :   -0.214636
   2 C :   -0.028351
   3 N :   -0.152783
   4 H :    0.273959
   5 C :    0.099159
   6 O :   -0.285807
   7 C :   -0.187890
   8 H :    0.143986
   9 H :    0.146097
  10 H :    0.143045
  11 H :    0.153802

  Mayer bond orders larger than 0.100000
B(  0-C ,  1-C ) :   1.2160 B(  0-C ,  7-C ) :   1.5815 B(  0-C ,  8-H ) :   0.9177
B(  1-C ,  2-C ) :   1.6017 B(  1-C ,  9-H ) :   0.9146 B(  2-C ,  3-N ) :   1.1494
B(  2-C , 10-H ) :   0.9010 B(  3-N ,  4-H ) :   0.8094 B(  3-N ,  5-C ) :   0.9997
B(  5-C ,  6-O ) :   1.9941 B(  5-C ,  7-C ) :   1.1016 B(  7-C , 11-H ) :   0.9123

Dispersion correction           -0.006055420
FINAL SINGLE POINT ENERGY      -322.815662606476

DIPOLE MOMENT
-------------
                                X             Y             Z
Electronic contribution:     -0.53093      -2.76396       0.00000
Nuclear contribution   :      1.76962       3.94265       0.00000
                        -----------------------------------------
Total Dipole Moment    :      1.23869       1.17869       0.00000
                        -----------------------------------------
Magnitude (a.u.)       :      1.70987
Magnitude (Debye)      :      4.34615

Rotational constants in cm-1:     0.190354     0.093265     0.062596
Rotational constants in MHz :  5706.683999  2796.011307  1876.575887

                             ****ORCA TERMINATED NORMALLY****
TOTAL RUN TIME: 0 days 0 hours 1 minutes 43 seconds 686 msec
