                         Program Version 5.0.3 -  RELEASE  -
|  1> ! PBEh-3c def2/J TightSCF DefGrid3
|  2>
|  3> %maxcore 60000
|  4>
|  5> %pal
|  6> nprocs 4
|  7> end
|  8>
|  9> *xyzfile 1 2 P33.xyz
| 10>
| 11>                          ****END OF INPUT****

CARTESIAN COORDINATES (ANGSTROEM)
---------------------------------
  C     -1.084644    0.006873    0.000177
  P      0.687571    0.005620   -0.001058
  H     -1.622940   -0.014519   -0.938549
  H      1.204889    0.812524    1.029654
  H     -1.619874   -0.014769    0.940963
  H      1.242386   -1.279604    0.191307
  H      1.192613    0.483875   -1.222494

 Total Charge           Charge          ....    1
 Multiplicity           Mult            ....    2
 Number of Electrons    NEL             ....   25
 Basis Dimension        Dim             ....   43

ORBITAL ENERGIES
----------------
                 SPIN UP ORBITALS
  NO   OCC          E(Eh)            E(eV)
   0   1.0000     -78.045861     -2123.7358
   1   1.0000     -10.712805      -291.5102
   2   1.0000      -7.125845      -193.9041
   3   1.0000      -5.216511      -141.9485
   4   1.0000      -5.216153      -141.9387
   5   1.0000      -5.215844      -141.9303
   6   1.0000      -1.086569       -29.5671
   7   1.0000      -0.944212       -25.6933
   8   1.0000      -0.762106       -20.7380
   9   1.0000      -0.737244       -20.0614
  10   1.0000      -0.710849       -19.3432
  11   1.0000      -0.696664       -18.9572
  12   1.0000      -0.541699       -14.7404
  13   0.0000      -0.171009        -4.6534
  14   0.0000      -0.167018        -4.5448
  15   0.0000      -0.146164        -3.9773
  16   0.0000      -0.110309        -3.0017
  17   0.0000      -0.009876        -0.2687

                 SPIN DOWN ORBITALS
  NO   OCC          E(Eh)            E(eV)
   0   1.0000     -78.046373     -2123.7498
   1   1.0000     -10.697114      -291.0833
   2   1.0000      -7.126421      -193.9198
   3   1.0000      -5.216970      -141.9610
   4   1.0000      -5.216880      -141.9585
   5   1.0000      -5.216731      -141.9545
   6   1.0000      -1.059187       -28.8219
   7   1.0000      -0.916785       -24.9470
   8   1.0000      -0.755085       -20.5469
   9   1.0000      -0.723564       -19.6892
  10   1.0000      -0.697906       -18.9910
  11   1.0000      -0.689751       -18.7691
  12   0.0000      -0.299390        -8.1468
  13   0.0000      -0.168636        -4.5888
  14   0.0000      -0.160039        -4.3549
  15   0.0000      -0.121697        -3.3115
  16   0.0000      -0.100998        -2.7483

MULLIKEN ATOMIC CHARGES AND SPIN POPULATIONS
--------------------------------------------
   0 C :   -0.609224    1.058020
   1 P :    0.255996   -0.037339
   2 H :    0.350078   -0.053796
   3 H :    0.218926    0.021110
   4 H :    0.348024   -0.053426
   5 H :    0.216792    0.058733
   6 H :    0.219408    0.006696
Sum of atomic charges         :    1.0000000

LOEWDIN ATOMIC CHARGES AND SPIN POPULATIONS
-------------------------------------------
   0 C :   -0.324895    0.971082
   1 P :    0.567941    0.010501
   2 H :    0.198866   -0.027577
   3 H :    0.120508    0.018073
   4 H :    0.197934   -0.027366
   5 H :    0.118592    0.049372
   6 H :    0.121055    0.005915

  Mayer bond orders larger than 0.100000
B(  0-C ,  1-P ) :   1.0767 B(  0-C ,  2-H ) :   0.8524 B(  0-C ,  4-H ) :   0.8528
B(  1-P ,  3-H ) :   0.9109 B(  1-P ,  5-H ) :   0.8905 B(  1-P ,  6-H ) :   0.9183

Dispersion correction           -0.002081625
FINAL SINGLE POINT ENERGY      -381.614918142447

DIPOLE MOMENT
-------------
                                X             Y             Z
Electronic contribution:      1.23968       0.02138      -0.00547
Nuclear contribution   :     -0.92731      -0.03604       0.00412
                        -----------------------------------------
Total Dipole Moment    :      0.31237      -0.01465      -0.00134
                        -----------------------------------------
Magnitude (a.u.)       :      0.31271
Magnitude (Debye)      :      0.79485

Rotational constants in cm-1:     2.427255     0.426624     0.407644
Rotational constants in MHz : 72767.273454 12789.856684 12220.866324

                             ****ORCA TERMINATED NORMALLY****
TOTAL RUN TIME: 0 days 0 hours 2 minutes 23 seconds 153 msec
