                         Program Version 5.0.3 -  RELEASE  -
|  1> ! PBEh-3c def2/J TightSCF DefGrid3
|  2>
|  3> %maxcore 60000
|  4>
|  5> %pal
|  6> nprocs 4
|  7> end
|  8>
|  9> *xyzfile 0 1 2b.xyz
| 10>
| 11>                          ****END OF INPUT****

CARTESIAN COORDINATES (ANGSTROEM)
---------------------------------
  C     -1.031252    0.705010   -0.304834
  C     -0.215232   -0.508208    0.060279
  C      1.246604   -0.186390    0.238138
  O      1.720085    0.912890    0.059911
  O     -1.740059    0.757066   -1.283474
  H     -0.953665    1.557972    0.385357
  H     -0.328164   -1.280128   -0.700997
  H     -0.582652   -0.925906    1.002385
  H      1.884335   -1.032305    0.543235

 Total Charge           Charge          ....    0
 Multiplicity           Mult            ....    1
 Number of Electrons    NEL             ....   38
 Basis Dimension        Dim             ....   83

ORBITAL ENERGIES
----------------

  NO   OCC          E(Eh)            E(eV)
   0   2.0000     -19.520116      -531.1694
   1   2.0000     -19.509378      -530.8772
   2   2.0000     -10.561868      -287.4030
   3   2.0000     -10.549676      -287.0713
   4   2.0000     -10.475470      -285.0520
   5   2.0000      -1.181846       -32.1597
   6   2.0000      -1.168464       -31.7955
   7   2.0000      -0.889957       -24.2169
   8   2.0000      -0.718711       -19.5571
   9   2.0000      -0.647219       -17.6117
  10   2.0000      -0.574382       -15.6297
  11   2.0000      -0.564067       -15.3490
  12   2.0000      -0.533557       -14.5188
  13   2.0000      -0.501431       -13.6446
  14   2.0000      -0.496813       -13.5190
  15   2.0000      -0.446938       -12.1618
  16   2.0000      -0.431533       -11.7426
  17   2.0000      -0.345347        -9.3974
  18   2.0000      -0.318153        -8.6574
  19   0.0000      -0.011764        -0.3201
  20   0.0000      -0.000617        -0.0168
  21   0.0000       0.147326         4.0089
  22   0.0000       0.159109         4.3296
  23   0.0000       0.182346         4.9619

MULLIKEN ATOMIC CHARGES
-----------------------
   0 C :    0.200651
   1 C :   -0.660034
   2 C :    0.163208
   3 O :   -0.309016
   4 O :   -0.308316
   5 H :    0.178276
   6 H :    0.286543
   7 H :    0.265990
   8 H :    0.182698
Sum of atomic charges:    0.0000000

LOEWDIN ATOMIC CHARGES
----------------------
   0 C :    0.078223
   1 C :   -0.336751
   2 C :    0.072482
   3 O :   -0.173626
   4 O :   -0.169369
   5 H :    0.098753
   6 H :    0.169313
   7 H :    0.166449
   8 H :    0.094525

  Mayer bond orders larger than 0.100000
B(  0-C ,  1-C ) :   0.9043 B(  0-C ,  4-O ) :   2.1445 B(  0-C ,  5-H ) :   0.8662
B(  1-C ,  2-C ) :   0.8945 B(  1-C ,  6-H ) :   0.8826 B(  1-C ,  7-H ) :   0.8830
B(  2-C ,  3-O ) :   2.1391 B(  2-C ,  8-H ) :   0.8727

Dispersion correction           -0.003229975
FINAL SINGLE POINT ENERGY      -266.564863435303

DIPOLE MOMENT
-------------
                                X             Y             Z
Electronic contribution:      0.08747       1.80327      -1.17768
Nuclear contribution   :      0.03398      -2.87174       2.10226
                        -----------------------------------------
Total Dipole Moment    :      0.12145      -1.06848       0.92459
                        -----------------------------------------
Magnitude (a.u.)       :      1.41819
Magnitude (Debye)      :      3.60475

Rotational constants in cm-1:     0.451910     0.107759     0.093029
Rotational constants in MHz : 13547.926564  3230.520955  2788.941015

                             ****ORCA TERMINATED NORMALLY****
TOTAL RUN TIME: 0 days 0 hours 1 minutes 29 seconds 372 msec
