                         Program Version 5.0.3 -  RELEASE  -
|  1> ! PBEh-3c def2/J TightSCF DefGrid3
|  2>
|  3> %maxcore 60000
|  4>
|  5> %pal
|  6> nprocs 4
|  7> end
|  8>
|  9> *xyzfile 0 1 pentanediol.xyz
| 10>
| 11>                          ****END OF INPUT****

CARTESIAN COORDINATES (ANGSTROEM)
---------------------------------
  C     -1.932442   -0.919497   -1.551868
  H     -1.592235   -1.966413   -1.531630
  H     -1.621916   -0.479950   -2.513618
  H     -3.031136   -0.929291   -1.555022
  C     -1.392834   -0.134624   -0.352665
  H     -1.731901    0.913684   -0.403202
  H     -1.791337   -0.557377    0.580713
  C      0.135188   -0.141860   -0.257569
  H      0.488281   -1.192111   -0.190179
  C      0.653135    0.598502    0.982874
  H      0.300961    1.647330    0.913960
  C      2.174316    0.580523    1.083662
  H      2.626828    1.048552    0.200285
  H      2.509832    1.135732    1.973965
  H      2.540129   -0.454074    1.162051
  O      0.043776   -0.049214    2.115557
  H      0.452232    0.322656    2.915199
  O      0.748643    0.508565   -1.385172
  H      0.420479    0.068867   -2.187340

 Total Charge           Charge          ....    0
 Multiplicity           Mult            ....    1
 Number of Electrons    NEL             ....   58
 Basis Dimension        Dim             ....  129

ORBITAL ENERGIES
----------------

  NO   OCC          E(Eh)            E(eV)
   0   2.0000     -19.485979      -530.2404
   1   2.0000     -19.485742      -530.2340
   2   2.0000     -10.487173      -285.3705
   3   2.0000     -10.485117      -285.3145
   4   2.0000     -10.433106      -283.8992
   5   2.0000     -10.429792      -283.8091
   6   2.0000     -10.424026      -283.6522
   7   2.0000      -1.123971       -30.5848
   8   2.0000      -1.110851       -30.2278
   9   2.0000      -0.869557       -23.6618
  10   2.0000      -0.834424       -22.7058
  11   2.0000      -0.761357       -20.7176
  12   2.0000      -0.677609       -18.4387
  13   2.0000      -0.639293       -17.3960
  14   2.0000      -0.590245       -16.0614
  15   2.0000      -0.540427       -14.7058
  16   2.0000      -0.515446       -14.0260
  17   2.0000      -0.500455       -13.6181
  18   2.0000      -0.486158       -13.2290
  19   2.0000      -0.459477       -12.5030
  20   2.0000      -0.451253       -12.2792
  21   2.0000      -0.427278       -11.6268
  22   2.0000      -0.417682       -11.3657
  23   2.0000      -0.404347       -11.0029
  24   2.0000      -0.400481       -10.8976
  25   2.0000      -0.386745       -10.5239
  26   2.0000      -0.354657        -9.6507
  27   2.0000      -0.325142        -8.8476
  28   2.0000      -0.317924        -8.6511
  29   0.0000       0.111477         3.0334
  30   0.0000       0.128796         3.5047
  31   0.0000       0.169326         4.6076
  32   0.0000       0.179517         4.8849
  33   0.0000       0.185579         5.0499

MULLIKEN ATOMIC CHARGES
-----------------------
   0 C :   -0.663115
   1 H :    0.214159
   2 H :    0.191440
   3 H :    0.233334
   4 C :   -0.438535
   5 H :    0.211854
   6 H :    0.243930
   7 C :    0.055645
   8 H :    0.180279
   9 C :    0.044423
  10 H :    0.187434
  11 C :   -0.671966
  12 H :    0.247983
  13 H :    0.199745
  14 H :    0.217237
  15 O :   -0.641628
  16 H :    0.415873
  17 O :   -0.647119
  18 H :    0.419027
Sum of atomic charges:   -0.0000000

LOEWDIN ATOMIC CHARGES
----------------------
   0 C :   -0.368195
   1 H :    0.125229
   2 H :    0.113367
   3 H :    0.133983
   4 C :   -0.260598
   5 H :    0.126719
   6 H :    0.142764
   7 C :   -0.019107
   8 H :    0.102170
   9 C :   -0.022948
  10 H :    0.104059
  11 C :   -0.375147
  12 H :    0.146600
  13 H :    0.119754
  14 H :    0.130481
  15 O :   -0.410418
  16 H :    0.310680
  17 O :   -0.409535
  18 H :    0.310140

  Mayer bond orders larger than 0.100000
B(  0-C ,  1-H ) :   0.9252 B(  0-C ,  2-H ) :   0.9265 B(  0-C ,  3-H ) :   0.9291
B(  0-C ,  4-C ) :   0.9853 B(  4-C ,  5-H ) :   0.9134 B(  4-C ,  6-H ) :   0.8966
B(  4-C ,  7-C ) :   0.9609 B(  7-C ,  8-H ) :   0.8906 B(  7-C ,  9-C ) :   0.9680
B(  7-C , 17-O ) :   0.9797 B(  9-C , 10-H ) :   0.8906 B(  9-C , 11-C ) :   0.9807
B(  9-C , 15-O ) :   0.9866 B( 11-C , 12-H ) :   0.9057 B( 11-C , 13-H ) :   0.9300
B( 11-C , 14-H ) :   0.9214 B( 15-O , 16-H ) :   0.7916 B( 17-O , 18-H ) :   0.7849

Dispersion correction           -0.008601212
FINAL SINGLE POINT ENERGY      -347.446697539440

DIPOLE MOMENT
-------------
                                X             Y             Z
Electronic contribution:      1.25078       1.09228       1.68217
Nuclear contribution   :     -1.24651      -1.13435      -1.65748
                        -----------------------------------------
Total Dipole Moment    :      0.00427      -0.04207       0.02469
                        -----------------------------------------
Magnitude (a.u.)       :      0.04897
Magnitude (Debye)      :      0.12446

Rotational constants in cm-1:     0.137055     0.056836     0.043125
Rotational constants in MHz :  4108.795773  1703.914520  1292.858296

                             ****ORCA TERMINATED NORMALLY****
TOTAL RUN TIME: 0 days 0 hours 1 minutes 41 seconds 777 msec
