                         Program Version 5.0.3 -  RELEASE  -
|  1> ! PBEh-3c def2/J TightSCF DefGrid3
|  2>
|  3> %maxcore 60000
|  4>
|  5> %pal
|  6> nprocs 4
|  7> end
|  8>
|  9> *xyzfile 0 2 sih.xyz
| 10>
| 11>                          ****END OF INPUT****

CARTESIAN COORDINATES (ANGSTROEM)
---------------------------------
  H     -1.469409    0.000000    0.000000
  Si     0.052733    0.000000    0.000000

 Total Charge           Charge          ....    0
 Multiplicity           Mult            ....    2
 Number of Electrons    NEL             ....   15
 Basis Dimension        Dim             ....   20

ORBITAL ENERGIES
----------------
                 SPIN UP ORBITALS
  NO   OCC          E(Eh)            E(eV)
   0   1.0000     -66.766445     -1816.8073
   1   1.0000      -5.542616      -150.8223
   2   1.0000      -3.835126      -104.3591
   3   1.0000      -3.834986      -104.3553
   4   1.0000      -3.826818      -104.1330
   5   1.0000      -0.547364       -14.8945
   6   1.0000      -0.319169        -8.6850
   7   1.0000      -0.228085        -6.2065
   8   0.0000      -0.097856        -2.6628
   9   0.0000       0.098538         2.6814
  10   0.0000       0.178519         4.8578
  11   0.0000       0.420209        11.4345
  12   0.0000       0.429495        11.6872

                 SPIN DOWN ORBITALS
  NO   OCC          E(Eh)            E(eV)
   0   1.0000     -66.762915     -1816.7113
   1   1.0000      -5.538627      -150.7137
   2   1.0000      -3.833143      -104.3051
   3   1.0000      -3.824742      -104.0765
   4   1.0000      -3.820298      -103.9556
   5   1.0000      -0.514699       -14.0057
   6   1.0000      -0.303634        -8.2623
   7   0.0000      -0.084584        -2.3016
   8   0.0000      -0.048472        -1.3190
   9   0.0000       0.113318         3.0836
  10   0.0000       0.195144         5.3101
  11   0.0000       0.426764        11.6128

MULLIKEN ATOMIC CHARGES AND SPIN POPULATIONS
--------------------------------------------
   0 H :   -0.056210   -0.029354
   1 Si:    0.056210    1.029354
Sum of atomic charges         :   -0.0000000

LOEWDIN ATOMIC CHARGES AND SPIN POPULATIONS
-------------------------------------------
   0 H :   -0.045602   -0.015320
   1 Si:    0.045602    1.015320

  Mayer bond orders larger than 0.100000
B(  0-H ,  1-Si) :   0.9635

Dispersion correction           -0.000210953
FINAL SINGLE POINT ENERGY      -289.614140715732

DIPOLE MOMENT
-------------
                                X             Y             Z
Electronic contribution:      1.20625      -0.00000       0.00000
Nuclear contribution   :     -1.38156       0.00000       0.00000
                        -----------------------------------------
Total Dipole Moment    :     -0.17531      -0.00000       0.00000
                        -----------------------------------------
Magnitude (a.u.)       :      0.17531
Magnitude (Debye)      :      0.44561

Rotational constants in cm-1:     0.000000     7.477211     7.477211
Rotational constants in MHz :     0.000000 224161.143267 224161.143267

                             ****ORCA TERMINATED NORMALLY****
TOTAL RUN TIME: 0 days 0 hours 0 minutes 31 seconds 550 msec
