                         Program Version 5.0.3 -  RELEASE  -
|  1> ! PBEh-3c def2/J TightSCF DefGrid3
|  2>
|  3> %maxcore 60000
|  4>
|  5> %pal
|  6> nprocs 4
|  7> end
|  8>
|  9> *xyzfile 0 1 B53.xyz
| 10>
| 11>                          ****END OF INPUT****

CARTESIAN COORDINATES (ANGSTROEM)
---------------------------------
  C      1.286818   -0.367432    0.296265
  H      0.785676   -1.273998   -0.040040
  O      2.664580   -0.365658   -0.083259
  C      0.562610    0.877273   -0.208473
  H      1.163647    1.740634    0.083211
  H      0.540735    0.865628   -1.303538
  C     -0.862986    1.053457    0.325711
  H     -1.184477    2.080060    0.134776
  H     -0.876361    0.914941    1.409674
  H      2.696493   -0.477467   -1.036796
  H      1.285622   -0.374736    1.386038
  C     -1.904700    0.136894   -0.291986
  H     -2.900328    0.444670    0.041066
  H     -1.871148    0.224633   -1.383599
  O     -1.640384   -1.206613    0.113544
  H     -2.323878   -1.767339   -0.262179

 Total Charge           Charge          ....    0
 Multiplicity           Mult            ....    1
 Number of Electrons    NEL             ....   50
 Basis Dimension        Dim             ....  110

ORBITAL ENERGIES
----------------

  NO   OCC          E(Eh)            E(eV)
   0   2.0000     -19.489744      -530.3429
   1   2.0000     -19.472041      -529.8612
   2   2.0000     -10.485181      -285.3163
   3   2.0000     -10.463376      -284.7229
   4   2.0000     -10.435585      -283.9667
   5   2.0000     -10.427807      -283.7551
   6   2.0000      -1.125481       -30.6259
   7   2.0000      -1.107556       -30.1381
   8   2.0000      -0.879667       -23.9370
   9   2.0000      -0.792193       -21.5567
  10   2.0000      -0.704539       -19.1715
  11   2.0000      -0.648466       -17.6457
  12   2.0000      -0.587606       -15.9896
  13   2.0000      -0.554550       -15.0901
  14   2.0000      -0.530265       -14.4292
  15   2.0000      -0.502631       -13.6773
  16   2.0000      -0.467159       -12.7120
  17   2.0000      -0.456590       -12.4244
  18   2.0000      -0.444755       -12.1024
  19   2.0000      -0.408834       -11.1249
  20   2.0000      -0.393907       -10.7188
  21   2.0000      -0.381938       -10.3931
  22   2.0000      -0.359484        -9.7821
  23   2.0000      -0.327468        -8.9108
  24   2.0000      -0.310879        -8.4595
  25   0.0000       0.121860         3.3160
  26   0.0000       0.137529         3.7424
  27   0.0000       0.156920         4.2700
  28   0.0000       0.185450         5.0463
  29   0.0000       0.198653         5.4056

MULLIKEN ATOMIC CHARGES
-----------------------
   0 C :   -0.147019
   1 H :    0.209672
   2 O :   -0.628482
   3 C :   -0.457971
   4 H :    0.230731
   5 H :    0.188883
   6 C :   -0.453106
   7 H :    0.218393
   8 H :    0.226972
   9 H :    0.405388
  10 H :    0.201989
  11 C :   -0.148921
  12 H :    0.189970
  13 H :    0.175015
  14 O :   -0.629975
  15 H :    0.418461
Sum of atomic charges:   -0.0000000

LOEWDIN ATOMIC CHARGES
----------------------
   0 C :   -0.101889
   1 H :    0.111417
   2 O :   -0.416650
   3 C :   -0.263755
   4 H :    0.131301
   5 H :    0.113496
   6 C :   -0.252666
   7 H :    0.130179
   8 H :    0.131817
   9 H :    0.303372
  10 H :    0.117200
  11 C :   -0.091661
  12 H :    0.101266
  13 H :    0.095585
  14 O :   -0.418042
  15 H :    0.309030

  Mayer bond orders larger than 0.100000
B(  0-C ,  1-H ) :   0.8977 B(  0-C ,  2-O ) :   1.0045 B(  0-C ,  3-C ) :   0.9775
B(  0-C , 10-H ) :   0.9177 B(  2-O ,  9-H ) :   0.7990 B(  3-C ,  4-H ) :   0.9150
B(  3-C ,  5-H ) :   0.9228 B(  3-C ,  6-C ) :   0.9710 B(  6-C ,  7-H ) :   0.9203
B(  6-C ,  8-H ) :   0.9088 B(  6-C , 11-C ) :   0.9825 B( 11-C , 12-H ) :   0.9105
B( 11-C , 13-H ) :   0.9054 B( 11-C , 14-O ) :   1.0068 B( 14-O , 15-H ) :   0.7917

Dispersion correction           -0.006594856
FINAL SINGLE POINT ENERGY      -308.205199115138

DIPOLE MOMENT
-------------
                                X             Y             Z
Electronic contribution:      1.66663      -2.35778       0.22324
Nuclear contribution   :     -2.77982       2.45094      -1.01165
                        -----------------------------------------
Total Dipole Moment    :     -1.11319       0.09316      -0.78841
                        -----------------------------------------
Magnitude (a.u.)       :      1.36728
Magnitude (Debye)      :      3.47536

Rotational constants in cm-1:     0.218506     0.060938     0.051408
Rotational constants in MHz :  6550.634034  1826.884519  1541.181703

                             ****ORCA TERMINATED NORMALLY****
TOTAL RUN TIME: 0 days 0 hours 1 minutes 38 seconds 267 msec
