                         Program Version 5.0.3 -  RELEASE  -
|  1> ! PBEh-3c def2/J TightSCF DefGrid3
|  2>
|  3> %maxcore 60000
|  4>
|  5> %pal
|  6> nprocs 4
|  7> end
|  8>
|  9> *xyzfile 0 1 02.xyz
| 10>
| 11>                          ****END OF INPUT****

CARTESIAN COORDINATES (ANGSTROEM)
---------------------------------
  O     -1.655420   -0.123300    0.000000
  O      1.246212    0.102689    0.000000
  H     -0.704090    0.031932    0.000000
  H     -2.038673    0.753723    0.000000
  H      1.575985   -0.382521   -0.758561
  H      1.575985   -0.382521    0.758561

 Total Charge           Charge          ....    0
 Multiplicity           Mult            ....    1
 Number of Electrons    NEL             ....   20
 Basis Dimension        Dim             ....   38

ORBITAL ENERGIES
----------------

  NO   OCC          E(Eh)            E(eV)
   0   2.0000     -19.510075      -530.8961
   1   2.0000     -19.438103      -528.9377
   2   2.0000      -1.137599       -30.9557
   3   2.0000      -1.068282       -29.0694
   4   2.0000      -0.614604       -16.7242
   5   2.0000      -0.553362       -15.0577
   6   2.0000      -0.472239       -12.8503
   7   2.0000      -0.408928       -11.1275
   8   2.0000      -0.383854       -10.4452
   9   2.0000      -0.325129        -8.8472
  10   0.0000       0.105246         2.8639
  11   0.0000       0.180354         4.9077
  12   0.0000       0.189474         5.1558
  13   0.0000       0.304155         8.2765
  14   0.0000       0.842013        22.9123

MULLIKEN ATOMIC CHARGES
-----------------------
   0 O :   -0.865172
   1 O :   -0.810585
   2 H :    0.422227
   3 H :    0.396678
   4 H :    0.428426
   5 H :    0.428426
Sum of atomic charges:    0.0000000

LOEWDIN ATOMIC CHARGES
----------------------
   0 O :   -0.628289
   1 O :   -0.570991
   2 H :    0.285175
   3 H :    0.292175
   4 H :    0.310965
   5 H :    0.310965

  Mayer bond orders larger than 0.100000
B(  0-O ,  2-H ) :   0.7468 B(  0-O ,  3-H ) :   0.8258 B(  1-O ,  4-H ) :   0.7977
B(  1-O ,  5-H ) :   0.7977

Dispersion correction           -0.000829530
FINAL SINGLE POINT ENERGY      -152.525570289086

DIPOLE MOMENT
-------------
                                X             Y             Z
Electronic contribution:      0.12017      -0.02321      -0.00000
Nuclear contribution   :      1.02183       0.05147       0.00000
                        -----------------------------------------
Total Dipole Moment    :      1.14199       0.02826      -0.00000
                        -----------------------------------------
Magnitude (a.u.)       :      1.14234
Magnitude (Debye)      :      2.90360

Rotational constants in cm-1:     7.150238     0.214519     0.214417
Rotational constants in MHz : 214358.751088  6431.123147  6428.050745

                             ****ORCA TERMINATED NORMALLY****
TOTAL RUN TIME: 0 days 0 hours 1 minutes 40 seconds 767 msec
