                         Program Version 5.0.3 -  RELEASE  -
|  1> ! PBEh-3c def2/J TightSCF DefGrid3
|  2>
|  3> %maxcore 60000
|  4>
|  5> %pal
|  6> nprocs 4
|  7> end
|  8>
|  9> *xyzfile 0 1 octane1.xyz
| 10>
| 11>                          ****END OF INPUT****

CARTESIAN COORDINATES (ANGSTROEM)
---------------------------------
  C      0.000000    0.000000   -0.782166
  C      0.000000    0.000000    0.782166
  C      1.136859   -0.865730   -1.336796
  C      0.181315    1.417414   -1.336796
  C     -1.318174   -0.551683   -1.336796
  C      1.136859    0.865730    1.336796
  C      0.181315   -1.417414    1.336796
  C     -1.318174    0.551683    1.336796
  H      2.101377   -0.606324   -0.896025
  H      0.956403   -1.928128   -1.165636
  H      1.216424   -0.715059   -2.416381
  H      1.191606    1.792333   -1.165636
  H      0.011047    1.410984   -2.416381
  H     -0.525597    2.123008   -0.896025
  H     -1.575781   -1.516684   -0.896025
  H     -2.148009    0.135794   -1.165636
  H     -1.227472   -0.695925   -2.416381
  H      2.101377    0.606324    0.896025
  H      0.956403    1.928128    1.165636
  H      1.216424    0.715059    2.416381
  H      1.191606   -1.792333    1.165636
  H      0.011047   -1.410984    2.416381
  H     -0.525597   -2.123008    0.896025
  H     -1.575781    1.516684    0.896025
  H     -2.148009   -0.135794    1.165636
  H     -1.227472    0.695925    2.416381

 Total Charge           Charge          ....    0
 Multiplicity           Mult            ....    1
 Number of Electrons    NEL             ....   66
 Basis Dimension        Dim             ....  156

ORBITAL ENERGIES
----------------

  NO   OCC          E(Eh)            E(eV)
   0   2.0000     -10.446836      -284.2729
   1   2.0000     -10.446648      -284.2678
   2   2.0000     -10.417203      -283.4665
   3   2.0000     -10.417201      -283.4664
   4   2.0000     -10.417165      -283.4655
   5   2.0000     -10.417163      -283.4654
   6   2.0000     -10.417135      -283.4647
   7   2.0000     -10.417072      -283.4629
   8   2.0000      -0.933484       -25.4014
   9   2.0000      -0.856208       -23.2986
  10   2.0000      -0.774258       -21.0686
  11   2.0000      -0.774257       -21.0686
  12   2.0000      -0.744383       -20.2557
  13   2.0000      -0.744382       -20.2557
  14   2.0000      -0.659983       -17.9590
  15   2.0000      -0.564708       -15.3665
  16   2.0000      -0.537981       -14.6392
  17   2.0000      -0.502373       -13.6703
  18   2.0000      -0.502368       -13.6701
  19   2.0000      -0.485088       -13.1999
  20   2.0000      -0.485085       -13.1998
  21   2.0000      -0.449461       -12.2305
  22   2.0000      -0.434290       -11.8176
  23   2.0000      -0.434290       -11.8176
  24   2.0000      -0.419974       -11.4281
  25   2.0000      -0.411885       -11.2080
  26   2.0000      -0.411883       -11.2079
  27   2.0000      -0.401258       -10.9188
  28   2.0000      -0.390364       -10.6224
  29   2.0000      -0.390364       -10.6224
  30   2.0000      -0.346808        -9.4371
  31   2.0000      -0.346807        -9.4371
  32   2.0000      -0.341979        -9.3057
  33   0.0000       0.110929         3.0185
  34   0.0000       0.170810         4.6480
  35   0.0000       0.171664         4.6712
  36   0.0000       0.171665         4.6712
  37   0.0000       0.178128         4.8471

MULLIKEN ATOMIC CHARGES
-----------------------
   0 C :   -0.044623
   1 C :   -0.044624
   2 C :   -0.635344
   3 C :   -0.635304
   4 C :   -0.635361
   5 C :   -0.635344
   6 C :   -0.635304
   7 C :   -0.635361
   8 H :    0.213043
   9 H :    0.220789
  10 H :    0.216373
  11 H :    0.220768
  12 H :    0.216378
  13 H :    0.213047
  14 H :    0.213046
  15 H :    0.220805
  16 H :    0.216383
  17 H :    0.213043
  18 H :    0.220789
  19 H :    0.216373
  20 H :    0.220768
  21 H :    0.216378
  22 H :    0.213047
  23 H :    0.213046
  24 H :    0.220805
  25 H :    0.216383
Sum of atomic charges:    0.0000000

LOEWDIN ATOMIC CHARGES
----------------------
   0 C :   -0.092747
   1 C :   -0.092747
   2 C :   -0.343053
   3 C :   -0.343043
   4 C :   -0.343058
   5 C :   -0.343053
   6 C :   -0.343043
   7 C :   -0.343058
   8 H :    0.122154
   9 H :    0.126125
  10 H :    0.125687
  11 H :    0.126118
  12 H :    0.125688
  13 H :    0.122154
  14 H :    0.122154
  15 H :    0.126129
  16 H :    0.125690
  17 H :    0.122154
  18 H :    0.126125
  19 H :    0.125687
  20 H :    0.126118
  21 H :    0.125688
  22 H :    0.122154
  23 H :    0.122154
  24 H :    0.126129
  25 H :    0.125690

  Mayer bond orders larger than 0.100000
B(  0-C ,  1-C ) :   0.9332 B(  0-C ,  2-C ) :   0.9799 B(  0-C ,  3-C ) :   0.9799
B(  0-C ,  4-C ) :   0.9799 B(  1-C ,  5-C ) :   0.9799 B(  1-C ,  6-C ) :   0.9799
B(  1-C ,  7-C ) :   0.9799 B(  2-C ,  8-H ) :   0.9245 B(  2-C ,  9-H ) :   0.9250
B(  2-C , 10-H ) :   0.9262 B(  3-C , 11-H ) :   0.9250 B(  3-C , 12-H ) :   0.9262
B(  3-C , 13-H ) :   0.9245 B(  4-C , 14-H ) :   0.9245 B(  4-C , 15-H ) :   0.9250
B(  4-C , 16-H ) :   0.9262 B(  5-C , 17-H ) :   0.9245 B(  5-C , 18-H ) :   0.9250
B(  5-C , 19-H ) :   0.9262 B(  6-C , 20-H ) :   0.9250 B(  6-C , 21-H ) :   0.9262
B(  6-C , 22-H ) :   0.9245 B(  7-C , 23-H ) :   0.9245 B(  7-C , 24-H ) :   0.9250
B(  7-C , 25-H ) :   0.9262

Dispersion correction           -0.015526281
FINAL SINGLE POINT ENERGY      -315.021081786586

DIPOLE MOMENT
-------------
                                X             Y             Z
Electronic contribution:     -0.00003      -0.00000      -0.00000
Nuclear contribution   :     -0.00000      -0.00000      -0.00000
                        -----------------------------------------
Total Dipole Moment    :     -0.00003      -0.00000      -0.00000
                        -----------------------------------------
Magnitude (a.u.)       :      0.00003
Magnitude (Debye)      :      0.00007

Rotational constants in cm-1:     0.077993     0.056204     0.056204
Rotational constants in MHz :  2338.176594  1684.946032  1684.946030

                             ****ORCA TERMINATED NORMALLY****
TOTAL RUN TIME: 0 days 0 hours 1 minutes 50 seconds 782 msec
