                         Program Version 5.0.3 -  RELEASE  -
|  1> ! PBEh-3c def2/J TightSCF DefGrid3
|  2>
|  3> %maxcore 60000
|  4>
|  5> %pal
|  6> nprocs 4
|  7> end
|  8>
|  9> *xyzfile 0 1 TRP_xag.xyz
| 10>
| 11>                          ****END OF INPUT****

CARTESIAN COORDINATES (ANGSTROEM)
---------------------------------
  N      0.941382    0.672877   -0.141820
  C      1.424183   -0.631067    0.292034
  C      2.741044   -0.976126   -0.419041
  O      2.807692   -1.833009   -1.294984
  C      0.367051   -1.698638    0.015061
  H      0.102706    0.703720   -0.700352
  H      1.612343   -0.555705    1.365900
  H      0.339477   -1.884631   -1.058857
  H      0.700795   -2.629448    0.472651
  C      1.351983    1.821571    0.444006
  O      2.285504    1.859484    1.248674
  N      3.789655   -0.248467    0.022344
  H      3.573356    0.525067    0.642167
  C      5.086782   -0.346310   -0.610137
  H      5.190962    0.355618   -1.438240
  H      5.864938   -0.147648    0.121769
  H      5.202580   -1.353166   -0.999348
  C      0.592625    3.061168    0.045049
  H      1.292451    3.782508   -0.370082
  H      0.159246    3.498707    0.941628
  H     -0.197714    2.863177   -0.675195
  C     -0.977271   -1.294768    0.519628
  C     -1.479730   -1.447074    1.794728
  C     -1.966065   -0.565675   -0.211847
  H     -1.045091   -1.940505    2.648947
  C     -3.044720   -0.296802    0.674369
  C     -2.046271   -0.108231   -1.540129
  H     -3.296495   -0.844479    2.703708
  C     -3.168762    0.603383   -1.935200
  H     -1.258583   -0.327901   -2.251942
  N     -2.715801   -0.850649    1.883847
  C     -4.178299    0.414591    0.275394
  C     -4.222046    0.863996   -1.036308
  H     -4.993325    0.611999    0.959577
  H     -5.084809    1.419314   -1.377589
  H     -3.246126    0.957159   -2.954271

 Total Charge           Charge          ....    0
 Multiplicity           Mult            ....    1
 Number of Electrons    NEL             ....  138
 Basis Dimension        Dim             ....  319

ORBITAL ENERGIES
----------------

  NO   OCC          E(Eh)            E(eV)
   0   2.0000     -19.464449      -529.6546
   1   2.0000     -19.447138      -529.1835
   2   2.0000     -14.695508      -399.8851
   3   2.0000     -14.667327      -399.1183
   4   2.0000     -14.641085      -398.4042
   5   2.0000     -10.554660      -287.2069
   6   2.0000     -10.531765      -286.5839
   7   2.0000     -10.490142      -285.4513
   8   2.0000     -10.487192      -285.3710
   9   2.0000     -10.487083      -285.3680
  10   2.0000     -10.458931      -284.6020
  11   2.0000     -10.456687      -284.5409
  12   2.0000     -10.454187      -284.4729
  13   2.0000     -10.452977      -284.4400
  14   2.0000     -10.452759      -284.4340
  15   2.0000     -10.449537      -284.3464
  16   2.0000     -10.449520      -284.3459
  17   2.0000     -10.447276      -284.2848
  18   2.0000     -10.443141      -284.1723
  19   2.0000      -1.149460       -31.2784
  20   2.0000      -1.128615       -30.7112
  21   2.0000      -1.099630       -29.9224
  22   2.0000      -1.032614       -28.0988
  23   2.0000      -1.004813       -27.3424
  24   2.0000      -0.949245       -25.8303
  25   2.0000      -0.909269       -24.7425
  26   2.0000      -0.866405       -23.5761
  27   2.0000      -0.836805       -22.7706
  28   2.0000      -0.826660       -22.4946
  29   2.0000      -0.808569       -22.0023
  30   2.0000      -0.787224       -21.4215
  31   2.0000      -0.728371       -19.8200
  32   2.0000      -0.711057       -19.3488
  33   2.0000      -0.681598       -18.5472
  34   2.0000      -0.664528       -18.0827
  35   2.0000      -0.641434       -17.4543
  36   2.0000      -0.633395       -17.2356
  37   2.0000      -0.620466       -16.8837
  38   2.0000      -0.586978       -15.9725
  39   2.0000      -0.567474       -15.4418
  40   2.0000      -0.561123       -15.2689
  41   2.0000      -0.551659       -15.0114
  42   2.0000      -0.544218       -14.8089
  43   2.0000      -0.517987       -14.0951
  44   2.0000      -0.509358       -13.8603
  45   2.0000      -0.505605       -13.7582
  46   2.0000      -0.503730       -13.7072
  47   2.0000      -0.499107       -13.5814
  48   2.0000      -0.493402       -13.4261
  49   2.0000      -0.481550       -13.1036
  50   2.0000      -0.475618       -12.9422
  51   2.0000      -0.467682       -12.7263
  52   2.0000      -0.462631       -12.5888
  53   2.0000      -0.445163       -12.1135
  54   2.0000      -0.437854       -11.9146
  55   2.0000      -0.435112       -11.8400
  56   2.0000      -0.426992       -11.6190
  57   2.0000      -0.419625       -11.4186
  58   2.0000      -0.412438       -11.2230
  59   2.0000      -0.401795       -10.9334
  60   2.0000      -0.398762       -10.8509
  61   2.0000      -0.395931       -10.7738
  62   2.0000      -0.336368        -9.1530
  63   2.0000      -0.325967        -8.8700
  64   2.0000      -0.317266        -8.6333
  65   2.0000      -0.290506        -7.9051
  66   2.0000      -0.284803        -7.7499
  67   2.0000      -0.272324        -7.4103
  68   2.0000      -0.249004        -6.7758
  69   0.0000      -0.005755        -0.1566
  70   0.0000       0.034483         0.9383
  71   0.0000       0.050741         1.3807
  72   0.0000       0.069352         1.8872
  73   0.0000       0.082915         2.2562

MULLIKEN ATOMIC CHARGES
-----------------------
   0 N :   -0.627247
   1 C :   -0.201380
   2 C :    0.577045
   3 O :   -0.442790
   4 C :   -0.575731
   5 H :    0.394792
   6 H :    0.264818
   7 H :    0.267149
   8 H :    0.257348
   9 C :    0.539027
  10 O :   -0.470099
  11 N :   -0.656734
  12 H :    0.406210
  13 C :   -0.492767
  14 H :    0.217410
  15 H :    0.218394
  16 H :    0.251798
  17 C :   -0.747141
  18 H :    0.256177
  19 H :    0.258793
  20 H :    0.229604
  21 C :    0.044397
  22 C :   -0.051521
  23 C :    0.016331
  24 H :    0.244372
  25 C :    0.384808
  26 C :   -0.366328
  27 H :    0.362302
  28 C :   -0.233030
  29 H :    0.227496
  30 N :   -0.697571
  31 C :   -0.272313
  32 C :   -0.239861
  33 H :    0.216730
  34 H :    0.219840
  35 H :    0.219673
Sum of atomic charges:   -0.0000000

LOEWDIN ATOMIC CHARGES
----------------------
   0 N :   -0.210494
   1 C :   -0.086721
   2 C :    0.102847
   3 O :   -0.284424
   4 C :   -0.222576
   5 H :    0.266080
   6 H :    0.142982
   7 H :    0.152491
   8 H :    0.151711
   9 C :    0.116169
  10 O :   -0.306817
  11 N :   -0.249986
  12 H :    0.267442
  13 C :   -0.255032
  14 H :    0.119017
  15 H :    0.124255
  16 H :    0.145112
  17 C :   -0.383398
  18 H :    0.156123
  19 H :    0.158384
  20 H :    0.135443
  21 C :   -0.106810
  22 C :   -0.075704
  23 C :   -0.069564
  24 H :    0.138393
  25 C :    0.019628
  26 C :   -0.156850
  27 H :    0.263977
  28 C :   -0.153062
  29 H :    0.138727
  30 N :   -0.150038
  31 C :   -0.155922
  32 C :   -0.142353
  33 H :    0.137660
  34 H :    0.136863
  35 H :    0.136446

  Mayer bond orders larger than 0.100000
B(  0-N ,  1-C ) :   0.9149 B(  0-N ,  5-H ) :   0.7792 B(  0-N ,  9-C ) :   1.1905
B(  1-C ,  2-C ) :   0.8782 B(  1-C ,  4-C ) :   0.9591 B(  1-C ,  6-H ) :   0.8829
B(  2-C ,  3-O ) :   1.9421 B(  2-C , 11-N ) :   1.1886 B(  3-O , 11-N ) :   0.1042
B(  4-C ,  7-H ) :   0.9003 B(  4-C ,  8-H ) :   0.9199 B(  4-C , 21-C ) :   0.9330
B(  9-C , 10-O ) :   1.8713 B(  9-C , 17-C ) :   0.9352 B( 11-N , 12-H ) :   0.7303
B( 11-N , 13-C ) :   0.9637 B( 13-C , 14-H ) :   0.9191 B( 13-C , 15-H ) :   0.9259
B( 13-C , 16-H ) :   0.9082 B( 17-C , 18-H ) :   0.9087 B( 17-C , 19-H ) :   0.9084
B( 17-C , 20-H ) :   0.9159 B( 21-C , 22-C ) :   1.5563 B( 21-C , 23-C ) :   1.2510
B( 22-C , 24-H ) :   0.9104 B( 22-C , 30-N ) :   1.1321 B( 23-C , 25-C ) :   1.2260
B( 23-C , 26-C ) :   1.2743 B( 25-C , 30-N ) :   1.0298 B( 25-C , 31-C ) :   1.2927
B( 26-C , 28-C ) :   1.4996 B( 26-C , 29-H ) :   0.9202 B( 27-H , 30-N ) :   0.8310
B( 28-C , 32-C ) :   1.3625 B( 28-C , 35-H ) :   0.9191 B( 31-C , 32-C ) :   1.4929
B( 31-C , 33-H ) :   0.9188 B( 32-C , 34-H ) :   0.9188

Dispersion correction           -0.025293693
FINAL SINGLE POINT ENERGY      -856.623972090479

DIPOLE MOMENT
-------------
                                X             Y             Z
Electronic contribution:     -6.10532      -4.52796       2.87814
Nuclear contribution   :      4.67876       5.19430      -1.94113
                        -----------------------------------------
Total Dipole Moment    :     -1.42656       0.66634       0.93701
                        -----------------------------------------
Magnitude (a.u.)       :      1.83223
Magnitude (Debye)      :      4.65716

Rotational constants in cm-1:     0.022827     0.007525     0.007005
Rotational constants in MHz :   684.331059   225.604807   209.994915

                             ****ORCA TERMINATED NORMALLY****
TOTAL RUN TIME: 0 days 0 hours 6 minutes 5 seconds 673 msec
