                         Program Version 5.0.3 -  RELEASE  -
|  1> ! PBEh-3c def2/J TightSCF DefGrid3
|  2>
|  3> %maxcore 60000
|  4>
|  5> %pal
|  6> nprocs 4
|  7> end
|  8>
|  9> *xyzfile 1 2 3int1.xyz
| 10>
| 11>                          ****END OF INPUT****

CARTESIAN COORDINATES (ANGSTROEM)
---------------------------------
  C      0.846503    0.187601    0.000000
  C      0.093670    0.024367   -1.241052
  C     -1.219373   -0.352838   -1.223337
  C     -1.874247   -0.527910    0.000000
  C     -1.219373   -0.352838    1.223337
  C      0.093670    0.024367    1.241052
  C      2.084226    0.978804    0.000000
  H      2.576407    1.211096    0.933899
  H      2.576407    1.211096   -0.933899
  H      0.624610    0.160205   -2.177292
  H     -1.756863   -0.502735   -2.151329
  H     -2.918965   -0.820258    0.000000
  H      0.624610    0.160205    2.177292
  H      1.225581   -0.898425    0.000000
  H     -1.756863   -0.502735    2.151329

 Total Charge           Charge          ....    1
 Multiplicity           Mult            ....    2
 Number of Electrons    NEL             ....   49
 Basis Dimension        Dim             ....  121

ORBITAL ENERGIES
----------------
                 SPIN UP ORBITALS
  NO   OCC          E(Eh)            E(eV)
   0   1.0000     -10.691668      -290.9351
   1   1.0000     -10.691659      -290.9348
   2   1.0000     -10.687417      -290.8194
   3   1.0000     -10.685893      -290.7779
   4   1.0000     -10.655980      -289.9640
   5   1.0000     -10.655974      -289.9638
   6   1.0000     -10.642445      -289.5957
   7   1.0000      -1.189669       -32.3725
   8   1.0000      -1.090927       -29.6856
   9   1.0000      -1.062565       -28.9139
  10   1.0000      -0.967633       -26.3306
  11   1.0000      -0.896235       -24.3878
  12   1.0000      -0.881778       -23.9944
  13   1.0000      -0.791934       -21.5496
  14   1.0000      -0.744973       -20.2717
  15   1.0000      -0.743763       -20.2388
  16   1.0000      -0.709095       -19.2955
  17   1.0000      -0.699039       -19.0218
  18   1.0000      -0.677591       -18.4382
  19   1.0000      -0.651903       -17.7392
  20   1.0000      -0.618560       -16.8319
  21   1.0000      -0.600816       -16.3490
  22   1.0000      -0.582749       -15.8574
  23   1.0000      -0.516109       -14.0440
  24   1.0000      -0.444721       -12.1015
  25   0.0000      -0.281844        -7.6694
  26   0.0000      -0.188601        -5.1321
  27   0.0000      -0.079149        -2.1537
  28   0.0000      -0.040849        -1.1116
  29   0.0000      -0.018789        -0.5113

                 SPIN DOWN ORBITALS
  NO   OCC          E(Eh)            E(eV)
   0   1.0000     -10.690568      -290.9051
   1   1.0000     -10.690549      -290.9046
   2   1.0000     -10.687463      -290.8207
   3   1.0000     -10.686031      -290.7817
   4   1.0000     -10.656665      -289.9826
   5   1.0000     -10.656658      -289.9824
   6   1.0000     -10.626627      -289.1652
   7   1.0000      -1.186843       -32.2956
   8   1.0000      -1.083092       -29.4724
   9   1.0000      -1.061879       -28.8952
  10   1.0000      -0.943803       -25.6822
  11   1.0000      -0.895220       -24.3602
  12   1.0000      -0.866065       -23.5668
  13   1.0000      -0.788319       -21.4513
  14   1.0000      -0.742929       -20.2161
  15   1.0000      -0.739927       -20.1344
  16   1.0000      -0.700210       -19.0537
  17   1.0000      -0.698785       -19.0149
  18   1.0000      -0.672780       -18.3073
  19   1.0000      -0.642978       -17.4963
  20   1.0000      -0.615053       -16.7364
  21   1.0000      -0.599732       -16.3196
  22   1.0000      -0.573629       -15.6092
  23   1.0000      -0.514005       -13.9868
  24   0.0000      -0.278972        -7.5912
  25   0.0000      -0.195128        -5.3097
  26   0.0000      -0.185920        -5.0592
  27   0.0000      -0.073323        -1.9952
  28   0.0000      -0.039180        -1.0661

MULLIKEN ATOMIC CHARGES AND SPIN POPULATIONS
--------------------------------------------
   0 C :   -0.406864   -0.073826
   1 C :   -0.099675    0.061086
   2 C :   -0.189202   -0.047855
   3 C :   -0.154576    0.093599
   4 C :   -0.189203   -0.047856
   5 C :   -0.099675    0.061086
   6 C :   -0.397734    1.059900
   7 H :    0.286236   -0.057998
   8 H :    0.286236   -0.057998
   9 H :    0.315648   -0.003642
  10 H :    0.310236    0.002075
  11 H :    0.321368   -0.004881
  12 H :    0.315648   -0.003642
  13 H :    0.391322    0.017876
  14 H :    0.310236    0.002075
Sum of atomic charges         :    1.0000000

LOEWDIN ATOMIC CHARGES AND SPIN POPULATIONS
-------------------------------------------
   0 C :   -0.169599   -0.023941
   1 C :    0.008436    0.053866
   2 C :   -0.118045   -0.031097
   3 C :    0.028459    0.073867
   4 C :   -0.118045   -0.031097
   5 C :    0.008436    0.053866
   6 C :   -0.178322    0.948328
   7 H :    0.165569   -0.028078
   8 H :    0.165569   -0.028078
   9 H :    0.182495   -0.002001
  10 H :    0.180462    0.001087
  11 H :    0.183084   -0.002401
  12 H :    0.182495   -0.002001
  13 H :    0.298542    0.016594
  14 H :    0.180462    0.001087

  Mayer bond orders larger than 0.100000
B(  0-C ,  1-C ) :   1.0440 B(  0-C ,  5-C ) :   1.0440 B(  0-C ,  6-C ) :   0.9973
B(  0-C , 13-H ) :   0.6867 B(  1-C ,  2-C ) :   1.5146 B(  1-C ,  9-H ) :   0.8829
B(  2-C ,  3-C ) :   1.3196 B(  2-C , 10-H ) :   0.8840 B(  3-C ,  4-C ) :   1.3196
B(  3-C , 11-H ) :   0.8782 B(  4-C ,  5-C ) :   1.5146 B(  4-C , 14-H ) :   0.8840
B(  5-C , 12-H ) :   0.8829 B(  6-C ,  7-H ) :   0.9040 B(  6-C ,  8-H ) :   0.9040

Dispersion correction           -0.007896591
FINAL SINGLE POINT ENERGY      -270.575893212337

DIPOLE MOMENT
-------------
                                X             Y             Z
Electronic contribution:     -2.08183      -0.39393      -0.00000
Nuclear contribution   :      2.19201       0.03384       0.00000
                        -----------------------------------------
Total Dipole Moment    :      0.11018      -0.36009      -0.00000
                        -----------------------------------------
Magnitude (a.u.)       :      0.37657
Magnitude (Debye)      :      0.95717

Rotational constants in cm-1:     0.175033     0.088347     0.059844
Rotational constants in MHz :  5247.368172  2648.567974  1794.090320

                             ****ORCA TERMINATED NORMALLY****
TOTAL RUN TIME: 0 days 0 hours 4 minutes 2 seconds 522 msec
