                         Program Version 5.0.3 -  RELEASE  -
|  1> ! PBEh-3c def2/J TightSCF DefGrid3
|  2>
|  3> %maxcore 60000
|  4>
|  5> %pal
|  6> nprocs 4
|  7> end
|  8>
|  9> *xyzfile 0 1 MeI_FCCH.xyz
| 10>
| 11>                          ****END OF INPUT****

CARTESIAN COORDINATES (ANGSTROEM)
---------------------------------
  I      0.000000    0.000000    0.959265
  C      0.000000    0.000000    3.087655
  H      0.000000    1.030172    3.424244
  H      0.892155   -0.515086    3.424244
  H     -0.892155   -0.515086    3.424244
  F      0.000000    0.000000   -2.439388
  C      0.000000    0.000000   -3.715682
  C      0.000000    0.000000   -4.904201
  H      0.000000    0.000000   -5.965896

 Total Charge           Charge          ....    0
 Multiplicity           Mult            ....    1
 Number of Electrons    NEL             ....   56
 Basis Dimension        Dim             ....   94

ORBITAL ENERGIES
----------------

  NO   OCC          E(Eh)            E(eV)
   0   2.0000     -25.184427      -685.3031
   1   2.0000     -10.547477      -287.0115
   2   2.0000     -10.485805      -285.3333
   3   2.0000     -10.459581      -284.6197
   4   2.0000      -7.086041      -192.8210
   5   2.0000      -5.069297      -137.9426
   6   2.0000      -5.052984      -137.4987
   7   2.0000      -5.052983      -137.4987
   8   2.0000      -2.023220       -55.0546
   9   2.0000      -2.018052       -54.9140
  10   2.0000      -2.018052       -54.9140
  11   2.0000      -2.003833       -54.5271
  12   2.0000      -2.003830       -54.5270
  13   2.0000      -1.431062       -38.9412
  14   2.0000      -0.864406       -23.5217
  15   2.0000      -0.840404       -22.8686
  16   2.0000      -0.717143       -19.5145
  17   2.0000      -0.709029       -19.2937
  18   2.0000      -0.600653       -16.3446
  19   2.0000      -0.600653       -16.3446
  20   2.0000      -0.596669       -16.2362
  21   2.0000      -0.500023       -13.6063
  22   2.0000      -0.500023       -13.6063
  23   2.0000      -0.404513       -11.0074
  24   2.0000      -0.340316        -9.2605
  25   2.0000      -0.340316        -9.2605
  26   2.0000      -0.296970        -8.0810
  27   2.0000      -0.296970        -8.0810
  28   0.0000       0.000916         0.0249
  29   0.0000       0.098110         2.6697
  30   0.0000       0.098110         2.6697
  31   0.0000       0.122368         3.3298
  32   0.0000       0.156524         4.2592

MULLIKEN ATOMIC CHARGES
-----------------------
   0 I :   -0.002558
   1 C :   -0.813846
   2 H :    0.270103
   3 H :    0.270102
   4 H :    0.270102
   5 F :   -0.179787
   6 C :    0.343852
   7 C :   -0.408959
   8 H :    0.250991
Sum of atomic charges:   -0.0000000

LOEWDIN ATOMIC CHARGES
----------------------
   0 I :    0.038743
   1 C :   -0.486105
   2 H :    0.147461
   3 H :    0.147461
   4 H :    0.147461
   5 F :   -0.043520
   6 C :    0.140248
   7 C :   -0.263537
   8 H :    0.171789

  Mayer bond orders larger than 0.100000
B(  0-I ,  1-C ) :   1.0186 B(  1-C ,  2-H ) :   0.8952 B(  1-C ,  3-H ) :   0.8952
B(  1-C ,  4-H ) :   0.8952 B(  5-F ,  6-C ) :   1.1786 B(  6-C ,  7-C ) :   2.7739
B(  7-C ,  8-H ) :   0.9240

Dispersion correction           -0.002478865
FINAL SINGLE POINT ENERGY      -513.736490286801

DIPOLE MOMENT
-------------
                                X             Y             Z
Electronic contribution:      0.00000       0.00000      58.69166
Nuclear contribution   :      0.00000      -0.00000     -58.31459
                        -----------------------------------------
Total Dipole Moment    :      0.00000       0.00000       0.37707
                        -----------------------------------------
Magnitude (a.u.)       :      0.37707
Magnitude (Debye)      :      0.95844

Rotational constants in cm-1:     5.252859     0.019354     0.019354
Rotational constants in MHz : 157476.759770   580.211293   580.211292

                             ****ORCA TERMINATED NORMALLY****
TOTAL RUN TIME: 0 days 0 hours 1 minutes 51 seconds 810 msec
