                         Program Version 5.0.3 -  RELEASE  -
|  1> ! PBEh-3c def2/J TightSCF DefGrid3
|  2>
|  3> %maxcore 60000
|  4>
|  5> %pal
|  6> nprocs 4
|  7> end
|  8>
|  9> *xyzfile 0 1 NMe3_TS.xyz
| 10>
| 11>                          ****END OF INPUT****

CARTESIAN COORDINATES (ANGSTROEM)
---------------------------------
  N     -0.020905    0.021302   -0.002300
  C      0.031601    0.114500    1.425061
  C      1.223112   -0.135226   -0.696413
  C     -1.254579    0.028229   -0.735438
  H      1.043408   -0.455120   -1.723543
  H      1.816548    0.792239   -0.731021
  H      1.852654   -0.899996   -0.222568
  H     -1.281953    0.812750   -1.503355
  H     -1.461282   -0.927460   -1.242134
  H     -2.082326    0.221569   -0.053798
  H     -0.969252    0.259593    1.830196
  H      0.454969   -0.791344    1.888341
  H      0.648007    0.958966    1.766970

 Total Charge           Charge          ....    0
 Multiplicity           Mult            ....    1
 Number of Electrons    NEL             ....   34
 Basis Dimension        Dim             ....   78

ORBITAL ENERGIES
----------------

  NO   OCC          E(Eh)            E(eV)
   0   2.0000     -14.609327      -397.5400
   1   2.0000     -10.449507      -284.3455
   2   2.0000     -10.447860      -284.3007
   3   2.0000     -10.446802      -284.2719
   4   2.0000      -1.006467       -27.3873
   5   2.0000      -0.788358       -21.4523
   6   2.0000      -0.785078       -21.3631
   7   2.0000      -0.653982       -17.7958
   8   2.0000      -0.525652       -14.3037
   9   2.0000      -0.524506       -14.2725
  10   2.0000      -0.513534       -13.9740
  11   2.0000      -0.441890       -12.0244
  12   2.0000      -0.432816       -11.7775
  13   2.0000      -0.421588       -11.4720
  14   2.0000      -0.419211       -11.4073
  15   2.0000      -0.415815       -11.3149
  16   2.0000      -0.225015        -6.1230
  17   0.0000       0.132742         3.6121
  18   0.0000       0.174272         4.7422
  19   0.0000       0.200648         5.4599
  20   0.0000       0.203302         5.5321
  21   0.0000       0.210706         5.7336

MULLIKEN ATOMIC CHARGES
-----------------------
   0 N :   -0.402617
   1 C :   -0.458660
   2 C :   -0.465510
   3 C :   -0.463677
   4 H :    0.212338
   5 H :    0.193317
   6 H :    0.197556
   7 H :    0.198318
   8 H :    0.191365
   9 H :    0.207010
  10 H :    0.206763
  11 H :    0.189474
  12 H :    0.194325
Sum of atomic charges:    0.0000000

LOEWDIN ATOMIC CHARGES
----------------------
   0 N :   -0.241214
   1 C :   -0.247799
   2 C :   -0.249199
   3 C :   -0.248324
   4 H :    0.123299
   5 H :    0.102317
   6 H :    0.109635
   7 H :    0.104637
   8 H :    0.099842
   9 H :    0.122252
  10 H :    0.121536
  11 H :    0.100029
  12 H :    0.102987

  Mayer bond orders larger than 0.100000
B(  0-N ,  1-C ) :   1.0070 B(  0-N ,  2-C ) :   0.9952 B(  0-N ,  3-C ) :   1.0015
B(  1-C , 10-H ) :   0.9331 B(  1-C , 11-H ) :   0.9113 B(  1-C , 12-H ) :   0.9130
B(  2-C ,  4-H ) :   0.9315 B(  2-C ,  5-H ) :   0.9110 B(  2-C ,  6-H ) :   0.9179
B(  3-C ,  7-H ) :   0.9156 B(  3-C ,  8-H ) :   0.9122 B(  3-C ,  9-H ) :   0.9318

Dispersion correction           -0.004709773
FINAL SINGLE POINT ENERGY      -174.075552694922

DIPOLE MOMENT
-------------
                                X             Y             Z
Electronic contribution:     -0.13221       0.06198      -0.02848
Nuclear contribution   :      0.05800      -0.07829       0.02346
                        -----------------------------------------
Total Dipole Moment    :     -0.07420      -0.01631      -0.00501
                        -----------------------------------------
Magnitude (a.u.)       :      0.07614
Magnitude (Debye)      :      0.19353

Rotational constants in cm-1:     0.292163     0.276036     0.154218
Rotational constants in MHz :  8758.818113  8275.362351  4623.324546

                             ****ORCA TERMINATED NORMALLY****
TOTAL RUN TIME: 0 days 0 hours 0 minutes 42 seconds 559 msec
