                         Program Version 5.0.3 -  RELEASE  -
|  1> ! PBEh-3c def2/J TightSCF DefGrid3
|  2>
|  3> %maxcore 60000
|  4>
|  5> %pal
|  6> nprocs 4
|  7> end
|  8>
|  9> *xyzfile 0 1 20b.xyz
| 10>
| 11>                          ****END OF INPUT****

CARTESIAN COORDINATES (ANGSTROEM)
---------------------------------
  P     -0.238000    0.470691    0.000000
  H      0.678319    0.660107   -1.052452
  H      0.678319    0.660107    1.052452
  N      0.037607   -1.375252    0.000000
  O      0.074693   -1.935165   -1.077091
  O      0.074693   -1.935165    1.077091

 Total Charge           Charge          ....    0
 Multiplicity           Mult            ....    1
 Number of Electrons    NEL             ....   40
 Basis Dimension        Dim             ....   67

ORBITAL ENERGIES
----------------

  NO   OCC          E(Eh)            E(eV)
   0   2.0000     -77.801902     -2117.0974
   1   2.0000     -19.539248      -531.6900
   2   2.0000     -19.539131      -531.6868
   3   2.0000     -14.886425      -405.0802
   4   2.0000      -6.879401      -187.1980
   5   2.0000      -4.970140      -135.2444
   6   2.0000      -4.968892      -135.2104
   7   2.0000      -4.967128      -135.1624
   8   2.0000      -1.359023       -36.9809
   9   2.0000      -1.177606       -32.0443
  10   2.0000      -0.837690       -22.7947
  11   2.0000      -0.689494       -18.7621
  12   2.0000      -0.613314       -16.6891
  13   2.0000      -0.598772       -16.2934
  14   2.0000      -0.588903       -16.0249
  15   2.0000      -0.492661       -13.4060
  16   2.0000      -0.384003       -10.4493
  17   2.0000      -0.372034       -10.1236
  18   2.0000      -0.367529       -10.0010
  19   2.0000      -0.346708        -9.4344
  20   0.0000      -0.047280        -1.2865
  21   0.0000      -0.015588        -0.4242
  22   0.0000       0.039408         1.0724
  23   0.0000       0.126970         3.4550
  24   0.0000       0.302047         8.2191

MULLIKEN ATOMIC CHARGES
-----------------------
   0 P :    0.154611
   1 H :    0.116295
   2 H :    0.116295
   3 N :    0.284268
   4 O :   -0.335735
   5 O :   -0.335735
Sum of atomic charges:    0.0000000

LOEWDIN ATOMIC CHARGES
----------------------
   0 P :    0.189212
   1 H :    0.053841
   2 H :    0.053841
   3 N :    0.136292
   4 O :   -0.216593
   5 O :   -0.216593

  Mayer bond orders larger than 0.100000
B(  0-P ,  1-H ) :   0.9459 B(  0-P ,  2-H ) :   0.9459 B(  0-P ,  3-N ) :   0.7274
B(  3-N ,  4-O ) :   1.6558 B(  3-N ,  5-O ) :   1.6558 B(  4-O ,  5-O ) :   0.2706

Dispersion correction           -0.002033717
FINAL SINGLE POINT ENERGY      -546.801148390220

DIPOLE MOMENT
-------------
                                X             Y             Z
Electronic contribution:     -1.27633      -0.19065      -0.00000
Nuclear contribution   :      1.52762       1.59436       0.00000
                        -----------------------------------------
Total Dipole Moment    :      0.25129       1.40371      -0.00000
                        -----------------------------------------
Magnitude (a.u.)       :      1.42603
Magnitude (Debye)      :      3.62467

Rotational constants in cm-1:     0.411145     0.163852     0.119906
Rotational constants in MHz : 12325.812593  4912.174086  3594.684746

                             ****ORCA TERMINATED NORMALLY****
TOTAL RUN TIME: 0 days 0 hours 1 minutes 0 seconds 558 msec
