                         Program Version 5.0.3 -  RELEASE  -
|  1> ! PBEh-3c def2/J TightSCF DefGrid3
|  2>
|  3> %maxcore 60000
|  4>
|  5> %pal
|  6> nprocs 4
|  7> end
|  8>
|  9> *xyzfile 0 1 S_C2H5_2.xyz
| 10>
| 11>                          ****END OF INPUT****

CARTESIAN COORDINATES (ANGSTROEM)
---------------------------------
  C      1.370690   -0.488556   -0.000127
  H      1.677939    0.081454   -0.890463
  H      1.679703    0.079300    0.890979
  C      2.008130   -1.875896   -0.002465
  H      1.710359   -2.448632   -0.891963
  H      3.104258   -1.790943   -0.003560
  H      1.712355   -2.450799    0.886300
  C     -0.918284    1.128425    0.001657
  H     -0.484542    1.608814   -0.888731
  H     -0.485066    1.608451    0.892497
  C     -2.438788    1.266834    0.001231
  H     -2.880973    0.795479    0.890053
  H     -2.724193    2.328628    0.001585
  H     -2.880371    0.796186   -0.888258
  S     -0.451218   -0.638746    0.001266

 Total Charge           Charge          ....    0
 Multiplicity           Mult            ....    1
 Number of Electrons    NEL             ....   50
 Basis Dimension        Dim             ....   98

ORBITAL ENERGIES
----------------

  NO   OCC          E(Eh)            E(eV)
   0   2.0000     -89.563989     -2437.1601
   1   2.0000     -10.466763      -284.8151
   2   2.0000     -10.466696      -284.8133
   3   2.0000     -10.436104      -283.9808
   4   2.0000     -10.436092      -283.9805
   5   2.0000      -8.202729      -223.2076
   6   2.0000      -6.093796      -165.8206
   7   2.0000      -6.090997      -165.7444
   8   2.0000      -6.084897      -165.5785
   9   2.0000      -0.898992       -24.4628
  10   2.0000      -0.852224       -23.1902
  11   2.0000      -0.765699       -20.8357
  12   2.0000      -0.685541       -18.6545
  13   2.0000      -0.643886       -17.5210
  14   2.0000      -0.522833       -14.2270
  15   2.0000      -0.508727       -13.8432
  16   2.0000      -0.504473       -13.7274
  17   2.0000      -0.465559       -12.6685
  18   2.0000      -0.446851       -12.1594
  19   2.0000      -0.422627       -11.5003
  20   2.0000      -0.417156       -11.3514
  21   2.0000      -0.400650       -10.9022
  22   2.0000      -0.377623       -10.2756
  23   2.0000      -0.346134        -9.4188
  24   2.0000      -0.256471        -6.9789
  25   0.0000       0.075180         2.0458
  26   0.0000       0.129209         3.5159
  27   0.0000       0.138517         3.7692
  28   0.0000       0.170099         4.6286
  29   0.0000       0.185526         5.0484

MULLIKEN ATOMIC CHARGES
-----------------------
   0 C :   -0.523195
   1 H :    0.235489
   2 H :    0.235525
   3 C :   -0.639865
   4 H :    0.229468
   5 H :    0.224941
   6 H :    0.229455
   7 C :   -0.523258
   8 H :    0.235506
   9 H :    0.235539
  10 C :   -0.639850
  11 H :    0.229469
  12 H :    0.224905
  13 H :    0.229479
  14 S :    0.016393
Sum of atomic charges:    0.0000000

LOEWDIN ATOMIC CHARGES
----------------------
   0 C :   -0.336927
   1 H :    0.123810
   2 H :    0.123813
   3 C :   -0.375243
   4 H :    0.133193
   5 H :    0.132126
   6 H :    0.133185
   7 C :   -0.337014
   8 H :    0.123802
   9 H :    0.123806
  10 C :   -0.375210
  11 H :    0.133187
  12 H :    0.132133
  13 H :    0.133193
  14 S :    0.132146

  Mayer bond orders larger than 0.100000
B(  0-C ,  1-H ) :   0.8926 B(  0-C ,  2-H ) :   0.8926 B(  0-C ,  3-C ) :   0.9728
B(  0-C , 14-S ) :   1.0155 B(  3-C ,  4-H ) :   0.9215 B(  3-C ,  5-H ) :   0.9245
B(  3-C ,  6-H ) :   0.9215 B(  7-C ,  8-H ) :   0.8927 B(  7-C ,  9-H ) :   0.8926
B(  7-C , 10-C ) :   0.9728 B(  7-C , 14-S ) :   1.0155 B( 10-C , 11-H ) :   0.9215
B( 10-C , 12-H ) :   0.9245 B( 10-C , 13-H ) :   0.9215

Dispersion correction           -0.006279090
FINAL SINGLE POINT ENERGY      -555.844353144580

DIPOLE MOMENT
-------------
                                X             Y             Z
Electronic contribution:     -1.48709      -2.10521       0.00548
Nuclear contribution   :      1.84424       2.61067      -0.00592
                        -----------------------------------------
Total Dipole Moment    :      0.35715       0.50547      -0.00044
                        -----------------------------------------
Magnitude (a.u.)       :      0.61891
Magnitude (Debye)      :      1.57315

Rotational constants in cm-1:     0.476573     0.056904     0.052870
Rotational constants in MHz : 14287.297556  1705.930258  1585.012761

                             ****ORCA TERMINATED NORMALLY****
TOTAL RUN TIME: 0 days 0 hours 1 minutes 28 seconds 607 msec
