                         Program Version 5.0.3 -  RELEASE  -
|  1> ! PBEh-3c def2/J TightSCF DefGrid3
|  2>
|  3> %maxcore 60000
|  4>
|  5> %pal
|  6> nprocs 4
|  7> end
|  8>
|  9> *xyzfile 0 2 36.xyz
| 10>
| 11>                          ****END OF INPUT****

CARTESIAN COORDINATES (ANGSTROEM)
---------------------------------
  N      0.910323    1.030799   -3.041919
  H     -0.447386   -1.460866    1.722538
  H      0.224881   -0.598696    3.148210
  C      0.386785   -0.860023    2.096828
  H      1.102080    1.313163   -2.072665
  P      0.493053    0.646336    1.123669
  H      1.318532   -1.423113    1.993267
  H      1.156762    1.602427   -3.848387
  Li    -0.440288   -0.733321   -1.503696
  Cl    -1.763338   -2.209501   -0.564124
  O      0.562227    0.461162   -0.377820
  H     -0.538283    1.491725    1.555436
  H     -2.328721   -0.713625    0.440068
  O      0.125673    0.025970   -3.226152
  H      1.648736    1.303707    1.599761
  F     -2.411036    0.123855    0.954985

 Total Charge           Charge          ....    0
 Multiplicity           Mult            ....    2
 Number of Electrons    NEL             ....   81
 Basis Dimension        Dim             ....  136

ORBITAL ENERGIES
----------------
                 SPIN UP ORBITALS
  NO   OCC          E(Eh)            E(eV)
   0   1.0000    -102.193802     -2780.8347
   1   1.0000     -77.850449     -2118.4184
   2   1.0000     -25.016623      -680.7369
   3   1.0000     -19.556404      -532.1568
   4   1.0000     -19.492320      -530.4130
   5   1.0000     -14.753290      -401.4574
   6   1.0000     -10.465759      -284.7878
   7   1.0000      -9.658854      -262.8308
   8   1.0000      -7.342137      -199.7897
   9   1.0000      -7.341707      -199.7780
  10   1.0000      -7.340587      -199.7475
  11   1.0000      -6.916129      -188.1974
  12   1.0000      -5.007981      -136.2741
  13   1.0000      -5.007751      -136.2678
  14   1.0000      -5.007442      -136.2594
  15   1.0000      -2.047803       -55.7235
  16   1.0000      -1.241810       -33.7914
  17   1.0000      -1.238067       -33.6895
  18   1.0000      -1.110561       -30.2199
  19   1.0000      -0.906559       -24.6687
  20   1.0000      -0.852501       -23.1977
  21   1.0000      -0.792368       -21.5614
  22   1.0000      -0.701446       -19.0873
  23   1.0000      -0.665509       -18.1094
  24   1.0000      -0.582907       -15.8617
  25   1.0000      -0.552315       -15.0292
  26   1.0000      -0.548974       -14.9383
  27   1.0000      -0.543931       -14.8011
  28   1.0000      -0.527013       -14.3407
  29   1.0000      -0.490793       -13.3552
  30   1.0000      -0.478887       -13.0312
  31   1.0000      -0.473274       -12.8784
  32   1.0000      -0.418368       -11.3844
  33   1.0000      -0.418055       -11.3759
  34   1.0000      -0.394779       -10.7425
  35   1.0000      -0.377446       -10.2708
  36   1.0000      -0.374670       -10.1953
  37   1.0000      -0.316968        -8.6251
  38   1.0000      -0.307442        -8.3659
  39   1.0000      -0.300133        -8.1670
  40   1.0000      -0.288374        -7.8471
  41   0.0000       0.022240         0.6052
  42   0.0000       0.065185         1.7738
  43   0.0000       0.092088         2.5058
  44   0.0000       0.099598         2.7102
  45   0.0000       0.106435         2.8962

                 SPIN DOWN ORBITALS
  NO   OCC          E(Eh)            E(eV)
   0   1.0000    -102.193800     -2780.8347
   1   1.0000     -77.850452     -2118.4185
   2   1.0000     -25.016623      -680.7369
   3   1.0000     -19.538204      -531.6616
   4   1.0000     -19.492380      -530.4146
   5   1.0000     -14.740509      -401.1096
   6   1.0000     -10.465761      -284.7878
   7   1.0000      -9.658853      -262.8307
   8   1.0000      -7.342134      -199.7896
   9   1.0000      -7.341706      -199.7780
  10   1.0000      -7.340583      -199.7474
  11   1.0000      -6.916132      -188.1975
  12   1.0000      -5.007986      -136.2742
  13   1.0000      -5.007755      -136.2679
  14   1.0000      -5.007443      -136.2595
  15   1.0000      -2.047911       -55.7265
  16   1.0000      -1.238067       -33.6895
  17   1.0000      -1.205226       -32.7959
  18   1.0000      -1.110607       -30.2211
  19   1.0000      -0.863365       -23.4934
  20   1.0000      -0.852244       -23.1907
  21   1.0000      -0.792358       -21.5611
  22   1.0000      -0.701007       -19.0754
  23   1.0000      -0.656616       -17.8674
  24   1.0000      -0.560877       -15.2622
  25   1.0000      -0.552163       -15.0251
  26   1.0000      -0.544015       -14.8034
  27   1.0000      -0.526594       -14.3293
  28   1.0000      -0.490741       -13.3537
  29   1.0000      -0.478821       -13.0294
  30   1.0000      -0.473186       -12.8761
  31   1.0000      -0.436278       -11.8717
  32   1.0000      -0.418350       -11.3839
  33   1.0000      -0.418041       -11.3755
  34   1.0000      -0.387136       -10.5345
  35   1.0000      -0.375631       -10.2214
  36   1.0000      -0.366104        -9.9622
  37   1.0000      -0.307425        -8.3655
  38   1.0000      -0.300157        -8.1677
  39   1.0000      -0.288394        -7.8476
  40   0.0000      -0.048064        -1.3079
  41   0.0000       0.023205         0.6314
  42   0.0000       0.065524         1.7830
  43   0.0000       0.092451         2.5157
  44   0.0000       0.100563         2.7364

MULLIKEN ATOMIC CHARGES AND SPIN POPULATIONS
--------------------------------------------
   0 N :   -0.355520    0.497545
   1 H :    0.320010    0.000000
   2 H :    0.255546   -0.000026
   3 C :   -0.903119   -0.000062
   4 H :    0.404015   -0.022896
   5 P :    0.727379   -0.000203
   6 H :    0.263095    0.000005
   7 H :    0.376577   -0.025311
   8 Li:    0.520019   -0.006535
   9 Cl:   -0.604960    0.000179
  10 O :   -0.739490   -0.000847
  11 H :    0.114010   -0.000028
  12 H :    0.487400   -0.000002
  13 O :   -0.353324    0.558191
  14 H :    0.051005   -0.000011
  15 F :   -0.562645    0.000001
Sum of atomic charges         :    0.0000000

LOEWDIN ATOMIC CHARGES AND SPIN POPULATIONS
-------------------------------------------
   0 N :   -0.134367    0.484222
   1 H :    0.186643    0.000001
   2 H :    0.156366   -0.000017
   3 C :   -0.538003   -0.000060
   4 H :    0.262585   -0.015026
   5 P :    0.750303   -0.000202
   6 H :    0.158410    0.000002
   7 H :    0.245740   -0.016551
   8 Li:    0.026376   -0.005139
   9 Cl:   -0.354934    0.000182
  10 O :   -0.517450   -0.001003
  11 H :    0.042313   -0.000019
  12 H :    0.335895    0.000006
  13 O :   -0.170225    0.553608
  14 H :    0.003014   -0.000005
  15 F :   -0.452666    0.000001

  Mayer bond orders larger than 0.100000
B(  0-N ,  4-H ) :   0.7234 B(  0-N ,  7-H ) :   0.7971 B(  0-N , 13-O ) :   1.5018
B(  1-H ,  3-C ) :   0.8390 B(  2-H ,  3-C ) :   0.8872 B(  3-C ,  5-P ) :   0.9891
B(  3-C ,  6-H ) :   0.8912 B(  5-P , 10-O ) :   1.4949 B(  5-P , 11-H ) :   0.8800
B(  5-P , 14-H ) :   0.8818 B(  8-Li,  9-Cl) :   0.4261 B(  8-Li, 10-O ) :   0.2153
B(  8-Li, 13-O ) :   0.2015 B(  9-Cl, 12-H ) :   0.2370 B( 12-H , 15-F ) :   0.5534

Dispersion correction           -0.007738256
FINAL SINGLE POINT ENERGY     -1155.478342034394

DIPOLE MOMENT
-------------
                                X             Y             Z
Electronic contribution:     -5.36206      -3.10877      -5.05413
Nuclear contribution   :      8.01458       5.40540       5.44268
                        -----------------------------------------
Total Dipole Moment    :      2.65252       2.29663       0.38855
                        -----------------------------------------
Magnitude (a.u.)       :      3.53006
Magnitude (Debye)      :      8.97270

Rotational constants in cm-1:     0.039338     0.029875     0.020280
Rotational constants in MHz :  1179.331814   895.633627   607.964475

                             ****ORCA TERMINATED NORMALLY****
TOTAL RUN TIME: 0 days 0 hours 3 minutes 50 seconds 562 msec
