                         Program Version 5.0.3 -  RELEASE  -
|  1> ! PBEh-3c def2/J TightSCF DefGrid3
|  2>
|  3> %maxcore 60000
|  4>
|  5> %pal
|  6> nprocs 4
|  7> end
|  8>
|  9> *xyzfile 0 1 E25.xyz
| 10>
| 11>                          ****END OF INPUT****

CARTESIAN COORDINATES (ANGSTROEM)
---------------------------------
  C      0.594646   -0.261969    0.000000
  C     -0.791844    0.318212    0.000000
  O     -1.809092   -0.328430    0.000000
  H      1.141103    0.096932   -0.878112
  H      0.561127   -1.350528    0.000000
  H      1.141103    0.096932    0.878112
  H     -0.837045    1.428853    0.000000

 Total Charge           Charge          ....    0
 Multiplicity           Mult            ....    1
 Number of Electrons    NEL             ....   24
 Basis Dimension        Dim             ....   53

ORBITAL ENERGIES
----------------

  NO   OCC          E(Eh)            E(eV)
   0   2.0000     -19.497712      -530.5597
   1   2.0000     -10.539432      -286.7925
   2   2.0000     -10.449105      -284.3346
   3   2.0000      -1.160726       -31.5850
   4   2.0000      -0.844092       -22.9689
   5   2.0000      -0.655135       -17.8271
   6   2.0000      -0.546699       -14.8764
   7   2.0000      -0.505023       -13.7424
   8   2.0000      -0.502304       -13.6684
   9   2.0000      -0.457119       -12.4388
  10   2.0000      -0.418825       -11.3968
  11   2.0000      -0.314028        -8.5451
  12   0.0000       0.012671         0.3448
  13   0.0000       0.159505         4.3403
  14   0.0000       0.180250         4.9048
  15   0.0000       0.189147         5.1470
  16   0.0000       0.199824         5.4375

MULLIKEN ATOMIC CHARGES
-----------------------
   0 C :   -0.742905
   1 C :    0.171517
   2 O :   -0.311569
   3 H :    0.240059
   4 H :    0.255446
   5 H :    0.240059
   6 H :    0.147394
Sum of atomic charges:    0.0000000

LOEWDIN ATOMIC CHARGES
----------------------
   0 C :   -0.409089
   1 C :    0.058779
   2 O :   -0.180202
   3 H :    0.150227
   4 H :    0.149829
   5 H :    0.150227
   6 H :    0.080227

  Mayer bond orders larger than 0.100000
B(  0-C ,  1-C ) :   0.9299 B(  0-C ,  3-H ) :   0.9069 B(  0-C ,  4-H ) :   0.9123
B(  0-C ,  5-H ) :   0.9069 B(  1-C ,  2-O ) :   2.1417 B(  1-C ,  6-H ) :   0.8692

Dispersion correction           -0.001780137
FINAL SINGLE POINT ENERGY      -153.495703345415

DIPOLE MOMENT
-------------
                                X             Y             Z
Electronic contribution:     -3.35371      -0.19398       0.00000
Nuclear contribution   :      4.36042       0.61865       0.00000
                        -----------------------------------------
Total Dipole Moment    :      1.00671       0.42467       0.00000
                        -----------------------------------------
Magnitude (a.u.)       :      1.09261
Magnitude (Debye)      :      2.77720

Rotational constants in cm-1:     1.912264     0.338039     0.303328
Rotational constants in MHz : 57328.230360 10134.141296  9093.558890

                             ****ORCA TERMINATED NORMALLY****
TOTAL RUN TIME: 0 days 0 hours 0 minutes 48 seconds 586 msec
