                         Program Version 5.0.3 -  RELEASE  -
|  1> ! PBEh-3c def2/J TightSCF DefGrid3
|  2>
|  3> %maxcore 60000
|  4>
|  5> %pal
|  6> nprocs 4
|  7> end
|  8>
|  9> *xyzfile 0 1 07a.xyz
| 10>
| 11>                          ****END OF INPUT****

CARTESIAN COORDINATES (ANGSTROEM)
---------------------------------
  N     -1.951784    0.561067    0.000000
  N     -0.033329    2.023689    0.000000
  N      1.202121   -1.346379    0.000000
  N      2.043243    0.739745    0.000000
  N     -1.815491   -1.757387    0.000000
  C     -1.337577    1.763246    0.000000
  C      0.188216   -0.416977    0.000000
  C      2.296732   -0.604293    0.000000
  C      0.678168    0.888725    0.000000
  C     -1.212826   -0.560267    0.000000
  H     -2.007237    2.613998    0.000000
  H      3.302140   -0.990778    0.000000
  H      2.717433    1.486934    0.000000
  H     -2.827788   -1.821739    0.000000
  H     -1.242022   -2.579585    0.000000

 Total Charge           Charge          ....    0
 Multiplicity           Mult            ....    1
 Number of Electrons    NEL             ....   70
 Basis Dimension        Dim             ....  160

ORBITAL ENERGIES
----------------

  NO   OCC          E(Eh)            E(eV)
   0   2.0000     -14.707292      -400.2058
   1   2.0000     -14.659902      -398.9162
   2   2.0000     -14.640321      -398.3834
   3   2.0000     -14.631156      -398.1340
   4   2.0000     -14.622913      -397.9097
   5   2.0000     -10.535669      -286.6901
   6   2.0000     -10.522699      -286.3372
   7   2.0000     -10.518108      -286.2123
   8   2.0000     -10.505180      -285.8605
   9   2.0000     -10.468117      -284.8520
  10   2.0000      -1.147492       -31.2249
  11   2.0000      -1.082273       -29.4501
  12   2.0000      -1.039098       -28.2753
  13   2.0000      -0.986926       -26.8556
  14   2.0000      -0.951628       -25.8951
  15   2.0000      -0.853660       -23.2293
  16   2.0000      -0.745933       -20.2979
  17   2.0000      -0.727435       -19.7945
  18   2.0000      -0.706796       -19.2329
  19   2.0000      -0.653333       -17.7781
  20   2.0000      -0.621211       -16.9040
  21   2.0000      -0.581957       -15.8358
  22   2.0000      -0.562442       -15.3048
  23   2.0000      -0.530643       -14.4395
  24   2.0000      -0.522514       -14.2183
  25   2.0000      -0.502225       -13.6662
  26   2.0000      -0.479675       -13.0526
  27   2.0000      -0.461335       -12.5536
  28   2.0000      -0.411499       -11.1975
  29   2.0000      -0.378452       -10.2982
  30   2.0000      -0.344871        -9.3844
  31   2.0000      -0.340280        -9.2595
  32   2.0000      -0.307848        -8.3770
  33   2.0000      -0.303216        -8.2509
  34   2.0000      -0.257893        -7.0176
  35   0.0000       0.005995         0.1631
  36   0.0000       0.035566         0.9678
  37   0.0000       0.073026         1.9871
  38   0.0000       0.123515         3.3610
  39   0.0000       0.138440         3.7671

MULLIKEN ATOMIC CHARGES
-----------------------
   0 N :   -0.445173
   1 N :   -0.409631
   2 N :   -0.409045
   3 N :   -0.656326
   4 N :   -0.816316
   5 C :    0.061928
   6 C :    0.007525
   7 C :    0.114039
   8 C :    0.469985
   9 C :    0.472133
  10 H :    0.226576
  11 H :    0.243760
  12 H :    0.378486
  13 H :    0.376008
  14 H :    0.386052
Sum of atomic charges:    0.0000000

LOEWDIN ATOMIC CHARGES
----------------------
   0 N :   -0.225338
   1 N :   -0.205829
   2 N :   -0.188861
   3 N :   -0.148948
   4 N :   -0.338870
   5 C :    0.006886
   6 C :   -0.102945
   7 C :   -0.012923
   8 C :    0.052326
   9 C :    0.094797
  10 H :    0.125340
  11 H :    0.134959
  12 H :    0.275257
  13 H :    0.266782
  14 H :    0.267367

  Mayer bond orders larger than 0.100000
B(  0-N ,  5-C ) :   1.4483 B(  0-N ,  9-C ) :   1.4878 B(  1-N ,  5-C ) :   1.5293
B(  1-N ,  8-C ) :   1.4295 B(  2-N ,  6-C ) :   1.2965 B(  2-N ,  7-C ) :   1.6751
B(  3-N ,  7-C ) :   1.1646 B(  3-N ,  8-C ) :   1.0575 B(  3-N , 12-H ) :   0.8139
B(  4-N ,  9-C ) :   1.1596 B(  4-N , 13-H ) :   0.8222 B(  4-N , 14-H ) :   0.8226
B(  5-C , 10-H ) :   0.9132 B(  6-C ,  8-C ) :   1.2609 B(  6-C ,  9-C ) :   1.1741
B(  7-C , 11-H ) :   0.9085

Dispersion correction           -0.008803215
FINAL SINGLE POINT ENERGY      -466.310427794086

DIPOLE MOMENT
-------------
                                X             Y             Z
Electronic contribution:      0.84957       1.21166       0.00000
Nuclear contribution   :     -0.04036      -1.72158       0.00000
                        -----------------------------------------
Total Dipole Moment    :      0.80921      -0.50992       0.00000
                        -----------------------------------------
Magnitude (a.u.)       :      0.95647
Magnitude (Debye)      :      2.43115

Rotational constants in cm-1:     0.078873     0.052873     0.031654
Rotational constants in MHz :  2364.551561  1585.081646   948.950721

                             ****ORCA TERMINATED NORMALLY****
TOTAL RUN TIME: 0 days 0 hours 1 minutes 48 seconds 339 msec
