                         Program Version 5.0.3 -  RELEASE  -
|  1> ! PBEh-3c def2/J TightSCF DefGrid3
|  2>
|  3> %maxcore 60000
|  4>
|  5> %pal
|  6> nprocs 4
|  7> end
|  8>
|  9> *xyzfile 0 1 11b.xyz
| 10>
| 11>                          ****END OF INPUT****

CARTESIAN COORDINATES (ANGSTROEM)
---------------------------------
  P     -0.110874   -1.775085    0.000000
  H     -1.068952   -1.760698    1.040784
  H     -1.068952   -1.760698   -1.040784
  C      0.110874   -3.550593    0.000000
  N      0.355873   -4.673225    0.000000

 Total Charge           Charge          ....    0
 Multiplicity           Mult            ....    1
 Number of Electrons    NEL             ....   30
 Basis Dimension        Dim             ....   52

ORBITAL ENERGIES
----------------

  NO   OCC          E(Eh)            E(eV)
   0   2.0000     -77.790721     -2116.7931
   1   2.0000     -14.657825      -398.8597
   2   2.0000     -10.495849      -285.6066
   3   2.0000      -6.868446      -186.8999
   4   2.0000      -4.959316      -134.9498
   5   2.0000      -4.958197      -134.9194
   6   2.0000      -4.956534      -134.8741
   7   2.0000      -1.019965       -27.7547
   8   2.0000      -0.794298       -21.6140
   9   2.0000      -0.556442       -15.1416
  10   2.0000      -0.495056       -13.4712
  11   2.0000      -0.441346       -12.0096
  12   2.0000      -0.424296       -11.5457
  13   2.0000      -0.400824       -10.9070
  14   2.0000      -0.344769        -9.3816
  15   0.0000       0.005172         0.1407
  16   0.0000       0.017870         0.4863
  17   0.0000       0.075369         2.0509
  18   0.0000       0.096806         2.6342
  19   0.0000       0.120782         3.2866

MULLIKEN ATOMIC CHARGES
-----------------------
   0 P :    0.057525
   1 H :    0.123595
   2 H :    0.123595
   3 C :   -0.147083
   4 N :   -0.157632
Sum of atomic charges:   -0.0000000

LOEWDIN ATOMIC CHARGES
----------------------
   0 P :    0.146346
   1 H :    0.060345
   2 H :    0.060345
   3 C :   -0.203947
   4 N :   -0.063089

  Mayer bond orders larger than 0.100000
B(  0-P ,  1-H ) :   0.9445 B(  0-P ,  2-H ) :   0.9445 B(  0-P ,  3-C ) :   0.9511
B(  3-C ,  4-N ) :   3.0766

Dispersion correction           -0.001622562
FINAL SINGLE POINT ENERGY      -434.760811831438

DIPOLE MOMENT
-------------
                                X             Y             Z
Electronic contribution:      1.31222       0.17425      -0.00000
Nuclear contribution   :     -1.91689       1.04769       0.00000
                        -----------------------------------------
Total Dipole Moment    :     -0.60467       1.22194      -0.00000
                        -----------------------------------------
Magnitude (a.u.)       :      1.36336
Magnitude (Debye)      :      3.46540

Rotational constants in cm-1:     4.352769     0.177086     0.176171
Rotational constants in MHz : 130492.744152  5308.917784  5281.469532

                             ****ORCA TERMINATED NORMALLY****
TOTAL RUN TIME: 0 days 0 hours 0 minutes 46 seconds 597 msec
