                         Program Version 5.0.3 -  RELEASE  -
|  1> ! PBEh-3c def2/J TightSCF DefGrid3
|  2>
|  3> %maxcore 60000
|  4>
|  5> %pal
|  6> nprocs 4
|  7> end
|  8>
|  9> *xyzfile 0 1 H_x+g-g-.xyz
| 10>
| 11>                          ****END OF INPUT****

CARTESIAN COORDINATES (ANGSTROEM)
---------------------------------
  C      1.739881    1.151321   -0.097556
  C      1.706922   -0.370554   -0.205830
  C      0.590348   -1.041366    0.604392
  C     -0.710029   -1.271658   -0.167408
  C     -1.414890   -0.019136   -0.683009
  C     -1.871734    0.915773    0.430142
  H      1.863261    1.454771    0.942341
  H      0.825819    1.609598   -0.467695
  H      2.572550    1.566358   -0.664407
  H      2.670595   -0.753520    0.133260
  H      1.616295   -0.666673   -1.254173
  H      0.397247   -0.457711    1.507782
  H      0.938783   -2.016777    0.948339
  H     -1.405775   -1.819908    0.473828
  H     -0.490363   -1.927690   -1.013659
  H     -2.284500   -0.329430   -1.265394
  H     -0.764145    0.513993   -1.378032
  H     -2.420786    1.767410    0.030881
  H     -1.030691    1.304209    1.001728
  H     -2.528783    0.390984    1.124471

 Total Charge           Charge          ....    0
 Multiplicity           Mult            ....    1
 Number of Electrons    NEL             ....   50
 Basis Dimension        Dim             ....  118

ORBITAL ENERGIES
----------------

  NO   OCC          E(Eh)            E(eV)
   0   2.0000     -10.427095      -283.7357
   1   2.0000     -10.426540      -283.7206
   2   2.0000     -10.425399      -283.6895
   3   2.0000     -10.424749      -283.6719
   4   2.0000     -10.418399      -283.4991
   5   2.0000     -10.417980      -283.4877
   6   2.0000      -0.897956       -24.4346
   7   2.0000      -0.848450       -23.0875
   8   2.0000      -0.790754       -21.5175
   9   2.0000      -0.723302       -19.6820
  10   2.0000      -0.668173       -18.1819
  11   2.0000      -0.618647       -16.8342
  12   2.0000      -0.534400       -14.5418
  13   2.0000      -0.517140       -14.0721
  14   2.0000      -0.484511       -13.1842
  15   2.0000      -0.476265       -12.9598
  16   2.0000      -0.452994       -12.3266
  17   2.0000      -0.439637       -11.9631
  18   2.0000      -0.432316       -11.7639
  19   2.0000      -0.396699       -10.7947
  20   2.0000      -0.391539       -10.6543
  21   2.0000      -0.388661       -10.5760
  22   2.0000      -0.361365        -9.8332
  23   2.0000      -0.355252        -9.6669
  24   2.0000      -0.352050        -9.5798
  25   0.0000       0.128853         3.5063
  26   0.0000       0.161371         4.3911
  27   0.0000       0.164963         4.4889
  28   0.0000       0.176317         4.7978
  29   0.0000       0.179493         4.8843

MULLIKEN ATOMIC CHARGES
-----------------------
   0 C :   -0.651230
   1 C :   -0.424647
   2 C :   -0.421039
   3 C :   -0.417407
   4 C :   -0.427341
   5 C :   -0.648435
   6 H :    0.209024
   7 H :    0.219741
   8 H :    0.219358
   9 H :    0.215982
  10 H :    0.207831
  11 H :    0.207841
  12 H :    0.219435
  13 H :    0.207338
  14 H :    0.210205
  15 H :    0.217857
  16 H :    0.209635
  17 H :    0.219581
  18 H :    0.215724
  19 H :    0.210545
Sum of atomic charges:   -0.0000000

LOEWDIN ATOMIC CHARGES
----------------------
   0 C :   -0.364906
   1 C :   -0.247670
   2 C :   -0.244249
   3 C :   -0.240495
   4 C :   -0.249824
   5 C :   -0.366150
   6 H :    0.122255
   7 H :    0.123604
   8 H :    0.125537
   9 H :    0.123056
  10 H :    0.119477
  11 H :    0.119388
  12 H :    0.124737
  13 H :    0.120225
  14 H :    0.120418
  15 H :    0.122877
  16 H :    0.118306
  17 H :    0.126675
  18 H :    0.123082
  19 H :    0.123656

  Mayer bond orders larger than 0.100000
B(  0-C ,  1-C ) :   0.9931 B(  0-C ,  6-H ) :   0.9291 B(  0-C ,  7-H ) :   0.9191
B(  0-C ,  8-H ) :   0.9304 B(  1-C ,  2-C ) :   0.9587 B(  1-C ,  9-H ) :   0.9282
B(  1-C , 10-H ) :   0.9223 B(  2-C ,  3-C ) :   0.9920 B(  2-C , 11-H ) :   0.9195
B(  2-C , 12-H ) :   0.9280 B(  3-C ,  4-C ) :   0.9895 B(  3-C , 13-H ) :   0.9219
B(  3-C , 14-H ) :   0.9230 B(  4-C ,  5-C ) :   0.9892 B(  4-C , 15-H ) :   0.9225
B(  4-C , 16-H ) :   0.9140 B(  5-C , 17-H ) :   0.9317 B(  5-C , 18-H ) :   0.9226
B(  5-C , 19-H ) :   0.9289

Dispersion correction           -0.009516820
FINAL SINGLE POINT ENERGY      -236.557214778699

DIPOLE MOMENT
-------------
                                X             Y             Z
Electronic contribution:      0.11617      -1.70607      -0.32311
Nuclear contribution   :     -0.10590       1.66224       0.31191
                        -----------------------------------------
Total Dipole Moment    :      0.01027      -0.04383      -0.01120
                        -----------------------------------------
Magnitude (a.u.)       :      0.04639
Magnitude (Debye)      :      0.11791

Rotational constants in cm-1:     0.151674     0.077491     0.061186
Rotational constants in MHz :  4547.064817  2323.122407  1834.321948

                             ****ORCA TERMINATED NORMALLY****
TOTAL RUN TIME: 0 days 0 hours 1 minutes 37 seconds 853 msec
