                         Program Version 5.0.3 -  RELEASE  -
|  1> ! PBEh-3c def2/J TightSCF DefGrid3
|  2>
|  3> %maxcore 60000
|  4>
|  5> %pal
|  6> nprocs 4
|  7> end
|  8>
|  9> *xyzfile 0 1 39.xyz
| 10>
| 11>                          ****END OF INPUT****

CARTESIAN COORDINATES (ANGSTROEM)
---------------------------------
  Li     1.092863    0.043490   -1.755783
  Cl    -1.227916   -2.892929   -2.139263
  F      1.196230   -1.603503   -2.456176
  H     -0.078529   -0.231100    2.891157
  H      0.664153    1.969890    1.653476
  Na    -1.962567   -0.904570   -0.764404
  B     -0.268769   -0.045845    1.721594
  H      1.036604   -0.368111    0.792605
  C     -0.072021    1.396378    1.065722
  H     -1.077678   -0.814573    1.244811
  H      0.538346    2.384464   -0.748045
  F     -0.642270    0.768086   -1.301791
  C      0.528964    1.369840   -0.323586
  H      0.967099   -0.893946    1.386515
  H     -1.008031    1.982948    1.120113
  H      0.313520   -2.160518   -2.386945

 Total Charge           Charge          ....    0
 Multiplicity           Mult            ....    1
 Number of Electrons    NEL             ....   74
 Basis Dimension        Dim             ....  133

ORBITAL ENERGIES
----------------

  NO   OCC          E(Eh)            E(eV)
   0   2.0000    -102.220203     -2781.5531
   1   2.0000     -38.963095     -1060.2397
   2   2.0000     -25.071045      -682.2178
   3   2.0000     -25.067587      -682.1237
   4   2.0000     -10.471990      -284.9573
   5   2.0000     -10.426915      -283.7308
   6   2.0000      -9.685417      -263.5536
   7   2.0000      -7.369373      -200.5308
   8   2.0000      -7.367820      -200.4886
   9   2.0000      -7.366785      -200.4604
  10   2.0000      -6.968124      -189.6123
  11   2.0000      -2.402171       -65.3664
  12   2.0000      -2.075050       -56.4650
  13   2.0000      -1.282841       -34.9079
  14   2.0000      -1.280615       -34.8473
  15   2.0000      -1.277550       -34.7639
  16   2.0000      -1.276292       -34.7297
  17   2.0000      -1.256265       -34.1847
  18   2.0000      -0.836251       -22.7555
  19   2.0000      -0.820933       -22.3387
  20   2.0000      -0.678263       -18.4565
  21   2.0000      -0.636820       -17.3287
  22   2.0000      -0.591055       -16.0834
  23   2.0000      -0.519360       -14.1325
  24   2.0000      -0.511929       -13.9303
  25   2.0000      -0.498358       -13.5610
  26   2.0000      -0.482612       -13.1325
  27   2.0000      -0.470699       -12.8084
  28   2.0000      -0.467361       -12.7175
  29   2.0000      -0.444471       -12.0947
  30   2.0000      -0.430833       -11.7236
  31   2.0000      -0.381853       -10.3908
  32   2.0000      -0.368432       -10.0255
  33   2.0000      -0.334732        -9.1085
  34   2.0000      -0.325119        -8.8469
  35   2.0000      -0.311537        -8.4773
  36   2.0000      -0.257937        -7.0188
  37   0.0000      -0.012372        -0.3367
  38   0.0000       0.013020         0.3543
  39   0.0000       0.031845         0.8665
  40   0.0000       0.060908         1.6574
  41   0.0000       0.067765         1.8440

MULLIKEN ATOMIC CHARGES
-----------------------
   0 Li:    0.613247
   1 Cl:   -0.556948
   2 F :   -0.541711
   3 H :    0.084812
   4 H :    0.238980
   5 Na:    0.583674
   6 B :   -0.206337
   7 H :    0.125498
   8 C :   -0.602946
   9 H :   -0.012403
  10 H :    0.193303
  11 F :   -0.468937
  12 C :   -0.277707
  13 H :    0.109124
  14 H :    0.225605
  15 H :    0.492748
Sum of atomic charges:   -0.0000000

LOEWDIN ATOMIC CHARGES
----------------------
   0 Li:    0.236067
   1 Cl:   -0.235569
   2 F :   -0.352550
   3 H :    0.024748
   4 H :    0.160609
   5 Na:    0.069641
   6 B :   -0.187124
   7 H :    0.206606
   8 C :   -0.362712
   9 H :    0.042768
  10 H :    0.127032
  11 F :   -0.223865
  12 C :   -0.135410
  13 H :    0.121991
  14 H :    0.145509
  15 H :    0.362260

  Mayer bond orders larger than 0.100000
B(  0-Li,  2-F ) :   0.2976 B(  0-Li, 11-F ) :   0.1411 B(  0-Li, 12-C ) :   0.2731
B(  1-Cl,  5-Na) :   0.4404 B(  1-Cl, 15-H ) :   0.3345 B(  2-F , 15-H ) :   0.4315
B(  3-H ,  6-B ) :   0.9811 B(  4-H ,  8-C ) :   0.8937 B(  5-Na, 11-F ) :   0.2161
B(  6-B ,  7-H ) :   0.2190 B(  6-B ,  8-C ) :   0.9549 B(  6-B ,  9-H ) :   0.9208
B(  6-B , 13-H ) :   0.2800 B(  7-H , 13-H ) :   0.6568 B(  8-C , 12-C ) :   0.9975
B(  8-C , 14-H ) :   0.9026 B( 10-H , 12-C ) :   0.9173 B( 11-F , 12-C ) :   0.5368

Dispersion correction           -0.007484025
FINAL SINGLE POINT ENERGY      -934.235859201127

DIPOLE MOMENT
-------------
                                X             Y             Z
Electronic contribution:     -4.66434      -7.05561     -13.89759
Nuclear contribution   :      4.24060       8.48679      14.60958
                        -----------------------------------------
Total Dipole Moment    :     -0.42375       1.43118       0.71198
                        -----------------------------------------
Magnitude (a.u.)       :      1.65371
Magnitude (Debye)      :      4.20340

Rotational constants in cm-1:     0.064228     0.027234     0.023176
Rotational constants in MHz :  1925.497688   816.463888   694.806210

                             ****ORCA TERMINATED NORMALLY****
TOTAL RUN TIME: 0 days 0 hours 3 minutes 11 seconds 846 msec
