                         Program Version 5.0.3 -  RELEASE  -
|  1> ! PBEh-3c def2/J TightSCF DefGrid3
|  2>
|  3> %maxcore 60000
|  4>
|  5> %pal
|  6> nprocs 4
|  7> end
|  8>
|  9> *xyzfile -1 1 9a.xyz
| 10>
| 11>                          ****END OF INPUT****

CARTESIAN COORDINATES (ANGSTROEM)
---------------------------------
  H     -0.637681    1.729953   -3.147280
  O     -0.794237    0.887459   -2.691626
  C     -1.458153    1.171451   -1.448168
  H     -2.295402    1.861988   -1.603154
  H     -0.763603    1.622641   -0.726711
  C     -1.974361   -0.120149   -0.858149
  H     -2.320245    0.079803    0.164094
  O     -3.094702   -0.619980   -1.639001
  C     -3.106070   -2.037981   -1.630887
  H     -4.054600   -2.417535   -1.249571
  N     -2.996921   -2.517527   -3.037537
  C     -2.375692   -1.770311   -4.006653
  H     -1.993624   -0.811332   -3.669312
  C     -2.262438   -2.194668   -5.290463
  H     -1.771155   -1.582506   -6.035303
  C     -2.802323   -3.472792   -5.679071
  O     -2.771874   -3.975817   -6.809465
  N     -3.396932   -4.176772   -4.620554
  H     -3.779438   -5.093786   -4.837474
  C     -3.525480   -3.777048   -3.307517
  O     -4.056838   -4.472785   -2.442465
  C     -0.987070   -1.288830   -0.832584
  H     -0.374759   -1.320147   -1.736925
  C     -1.923885   -2.504234   -0.767707
  H     -1.469348   -3.422154   -1.155857
  O     -2.388005   -2.689030    0.570495
  H     -1.642251   -2.417470    1.143158
  O     -0.159255   -1.182171    0.321212
  P      1.400657   -1.762869    0.324086
  O      1.728938   -2.254971   -1.054647
  O      1.555398   -2.612587    1.543930
  O      2.193034   -0.373101    0.651244
  C      2.276689    0.628257   -0.385274
  H      1.372545    0.624359   -1.002676
  H      3.137925    0.417394   -1.028244
  C      2.464604    1.982984    0.255497
  H      2.675642    2.709015   -0.541080
  O      1.244597    2.396847    0.930586
  C      1.538664    3.070807    2.136463
  H      0.984828    4.009848    2.190517
  N      1.090267    2.213733    3.289353
  C      0.547962    0.969416    3.091548
  H      0.470840    0.670239    2.055512
  C      0.152324    0.171721    4.115499
  H     -0.262513   -0.808254    3.920814
  C      0.292628    0.620389    5.475225
  O     -0.024663    0.001426    6.499525
  N      0.852250    1.903732    5.584759
  H      0.972612    2.273414    6.524394
  C      1.263703    2.737086    4.566755
  O      1.743403    3.853341    4.768468
  C      3.549263    2.088719    1.322560
  H      3.568606    1.183361    1.937351
  C      3.061146    3.280610    2.159512
  H      3.466846    3.292523    3.173541
  O      3.342602    4.505608    1.479944
  H      4.191997    4.359055    1.017859
  O      4.812915    2.298557    0.693965
  H      5.510634    2.061070    1.327489

 Total Charge           Charge          ....   -1
 Multiplicity           Mult            ....    1
 Number of Electrons    NEL             ....  286
 Basis Dimension        Dim             ....  602

ORBITAL ENERGIES
----------------

  NO   OCC          E(Eh)            E(eV)
   0   2.0000     -77.723774     -2114.9714
   1   2.0000     -19.457806      -529.4738
   2   2.0000     -19.456596      -529.4409
   3   2.0000     -19.440740      -529.0094
   4   2.0000     -19.439033      -528.9630
   5   2.0000     -19.432891      -528.7958
   6   2.0000     -19.405584      -528.0528
   7   2.0000     -19.403608      -527.9990
   8   2.0000     -19.399597      -527.8899
   9   2.0000     -19.396879      -527.8159
  10   2.0000     -19.394322      -527.7463
  11   2.0000     -19.390940      -527.6543
  12   2.0000     -19.385987      -527.5195
  13   2.0000     -19.285565      -524.7869
  14   2.0000     -19.275049      -524.5008
  15   2.0000     -14.637473      -398.3059
  16   2.0000     -14.632989      -398.1839
  17   2.0000     -14.619046      -397.8045
  18   2.0000     -14.618211      -397.7817
  19   2.0000     -10.529300      -286.5168
  20   2.0000     -10.524466      -286.3853
  21   2.0000     -10.489946      -285.4460
  22   2.0000     -10.484529      -285.2985
  23   2.0000     -10.483918      -285.2819
  24   2.0000     -10.462805      -284.7074
  25   2.0000     -10.440161      -284.0912
  26   2.0000     -10.438334      -284.0415
  27   2.0000     -10.435595      -283.9670
  28   2.0000     -10.433008      -283.8966
  29   2.0000     -10.430568      -283.8302
  30   2.0000     -10.424361      -283.6613
  31   2.0000     -10.422431      -283.6088
  32   2.0000     -10.408611      -283.2327
  33   2.0000     -10.407881      -283.2129
  34   2.0000     -10.405626      -283.1515
  35   2.0000     -10.376705      -282.3645
  36   2.0000     -10.366188      -282.0783
  37   2.0000      -6.768077      -184.1687
  38   2.0000      -4.863227      -132.3351
  39   2.0000      -4.861981      -132.3012
  40   2.0000      -4.859428      -132.2318
  41   2.0000      -1.123475       -30.5713
  42   2.0000      -1.112876       -30.2829
  43   2.0000      -1.106166       -30.1003
  44   2.0000      -1.093585       -29.7580
  45   2.0000      -1.087298       -29.5869
  46   2.0000      -1.065436       -28.9920
  47   2.0000      -1.063914       -28.9506
  48   2.0000      -1.061236       -28.8777
  49   2.0000      -1.059424       -28.8284
  50   2.0000      -1.056965       -28.7615
  51   2.0000      -1.031236       -28.0614
  52   2.0000      -1.009482       -27.4694
  53   2.0000      -1.001575       -27.2543
  54   2.0000      -0.999053       -27.1856
  55   2.0000      -0.951546       -25.8929
  56   2.0000      -0.950913       -25.8757
  57   2.0000      -0.913225       -24.8501
  58   2.0000      -0.870184       -23.6789
  59   2.0000      -0.815777       -22.1984
  60   2.0000      -0.813734       -22.1428
  61   2.0000      -0.805204       -21.9107
  62   2.0000      -0.789140       -21.4736
  63   2.0000      -0.776004       -21.1162
  64   2.0000      -0.764165       -20.7940
  65   2.0000      -0.697959       -18.9924
  66   2.0000      -0.695068       -18.9138
  67   2.0000      -0.690973       -18.8023
  68   2.0000      -0.690060       -18.7775
  69   2.0000      -0.649695       -17.6791
  70   2.0000      -0.645785       -17.5727
  71   2.0000      -0.621261       -16.9054
  72   2.0000      -0.604644       -16.4532
  73   2.0000      -0.595623       -16.2077
  74   2.0000      -0.586257       -15.9529
  75   2.0000      -0.569015       -15.4837
  76   2.0000      -0.557344       -15.1661
  77   2.0000      -0.550244       -14.9729
  78   2.0000      -0.548910       -14.9366
  79   2.0000      -0.539781       -14.6882
  80   2.0000      -0.533185       -14.5087
  81   2.0000      -0.516833       -14.0638
  82   2.0000      -0.512379       -13.9426
  83   2.0000      -0.505381       -13.7521
  84   2.0000      -0.503469       -13.7001
  85   2.0000      -0.493793       -13.4368
  86   2.0000      -0.485037       -13.1985
  87   2.0000      -0.477734       -12.9998
  88   2.0000      -0.471768       -12.8375
  89   2.0000      -0.468435       -12.7468
  90   2.0000      -0.466770       -12.7015
  91   2.0000      -0.461268       -12.5517
  92   2.0000      -0.455484       -12.3943
  93   2.0000      -0.448189       -12.1959
  94   2.0000      -0.442135       -12.0311
  95   2.0000      -0.436806       -11.8861
  96   2.0000      -0.434072       -11.8117
  97   2.0000      -0.428702       -11.6656
  98   2.0000      -0.421581       -11.4718
  99   2.0000      -0.415665       -11.3108
 100   2.0000      -0.411196       -11.1892
 101   2.0000      -0.403226       -10.9723
 102   2.0000      -0.402741       -10.9591
 103   2.0000      -0.396289       -10.7836
 104   2.0000      -0.395290       -10.7564
 105   2.0000      -0.392125       -10.6703
 106   2.0000      -0.387265       -10.5380
 107   2.0000      -0.385802       -10.4982
 108   2.0000      -0.384104       -10.4520
 109   2.0000      -0.373566       -10.1652
 110   2.0000      -0.371543       -10.1102
 111   2.0000      -0.370274       -10.0757
 112   2.0000      -0.357237        -9.7209
 113   2.0000      -0.351969        -9.5776
 114   2.0000      -0.344991        -9.3877
 115   2.0000      -0.340479        -9.2649
 116   2.0000      -0.332483        -9.0473
 117   2.0000      -0.332085        -9.0365
 118   2.0000      -0.328987        -8.9522
 119   2.0000      -0.316806        -8.6207
 120   2.0000      -0.298538        -8.1236
 121   2.0000      -0.290352        -7.9009
 122   2.0000      -0.285715        -7.7747
 123   2.0000      -0.284583        -7.7439
 124   2.0000      -0.281231        -7.6527
 125   2.0000      -0.273870        -7.4524
 126   2.0000      -0.271738        -7.3944
 127   2.0000      -0.268054        -7.2941
 128   2.0000      -0.264494        -7.1972
 129   2.0000      -0.263952        -7.1825
 130   2.0000      -0.258873        -7.0443
 131   2.0000      -0.256216        -6.9720
 132   2.0000      -0.254789        -6.9332
 133   2.0000      -0.244566        -6.6550
 134   2.0000      -0.241802        -6.5798
 135   2.0000      -0.239090        -6.5060
 136   2.0000      -0.236663        -6.4399
 137   2.0000      -0.209244        -5.6938
 138   2.0000      -0.203510        -5.5378
 139   2.0000      -0.200043        -5.4435
 140   2.0000      -0.193076        -5.2539
 141   2.0000      -0.173124        -4.7109
 142   2.0000      -0.159444        -4.3387
 143   0.0000       0.064949         1.7674
 144   0.0000       0.071838         1.9548
 145   0.0000       0.115460         3.1418
 146   0.0000       0.118472         3.2238
 147   0.0000       0.151012         4.1093

MULLIKEN ATOMIC CHARGES
-----------------------
   0 H :    0.422080
   1 O :   -0.636612
   2 C :   -0.207926
   3 H :    0.208284
   4 H :    0.228119
   5 C :    0.043011
   6 H :    0.232653
   7 O :   -0.504480
   8 C :    0.186734
   9 H :    0.277188
  10 N :   -0.572040
  11 C :    0.086512
  12 H :    0.322268
  13 C :   -0.482430
  14 H :    0.243642
  15 C :    0.561793
  16 O :   -0.435122
  17 N :   -0.732581
  18 H :    0.387736
  19 C :    0.719318
  20 O :   -0.443468
  21 C :   -0.044030
  22 H :    0.277274
  23 C :   -0.013084
  24 H :    0.253869
  25 O :   -0.651596
  26 H :    0.442921
  27 O :   -0.655692
  28 P :    1.373581
  29 O :   -0.742689
  30 O :   -0.702127
  31 O :   -0.609440
  32 C :   -0.180827
  33 H :    0.236188
  34 H :    0.224104
  35 C :    0.036479
  36 H :    0.216534
  37 O :   -0.502250
  38 C :    0.224815
  39 H :    0.267355
  40 N :   -0.586547
  41 C :    0.076077
  42 H :    0.332819
  43 C :   -0.466542
  44 H :    0.281791
  45 C :    0.554383
  46 O :   -0.430511
  47 N :   -0.730383
  48 H :    0.384627
  49 C :    0.711551
  50 O :   -0.459764
  51 C :   -0.066092
  52 H :    0.270780
  53 C :   -0.043470
  54 H :    0.249360
  55 O :   -0.641931
  56 H :    0.420463
  57 O :   -0.639362
  58 H :    0.426687
Sum of atomic charges:   -1.0000000

LOEWDIN ATOMIC CHARGES
----------------------
   0 H :    0.312772
   1 O :   -0.414264
   2 C :   -0.101773
   3 H :    0.113231
   4 H :    0.123650
   5 C :   -0.017002
   6 H :    0.128715
   7 O :   -0.242402
   8 C :    0.081326
   9 H :    0.146915
  10 N :   -0.090724
  11 C :    0.001435
  12 H :    0.167789
  13 C :   -0.258964
  14 H :    0.155584
  15 C :    0.126429
  16 O :   -0.287155
  17 N :   -0.200315
  18 H :    0.282083
  19 C :    0.160059
  20 O :   -0.282728
  21 C :   -0.043883
  22 H :    0.147741
  23 C :   -0.030859
  24 H :    0.129945
  25 O :   -0.403062
  26 H :    0.323294
  27 O :   -0.357627
  28 P :    0.806967
  29 O :   -0.605721
  30 O :   -0.591092
  31 O :   -0.354984
  32 C :   -0.087326
  33 H :    0.128154
  34 H :    0.129222
  35 C :   -0.014923
  36 H :    0.123087
  37 O :   -0.231193
  38 C :    0.093325
  39 H :    0.139214
  40 N :   -0.102061
  41 C :   -0.001928
  42 H :    0.175620
  43 C :   -0.241137
  44 H :    0.173076
  45 C :    0.124540
  46 O :   -0.282910
  47 N :   -0.200814
  48 H :    0.280139
  49 C :    0.153599
  50 O :   -0.297621
  51 C :   -0.045954
  52 H :    0.141231
  53 C :   -0.047024
  54 H :    0.125932
  55 O :   -0.399174
  56 H :    0.311547
  57 O :   -0.392689
  58 H :    0.320684

  Mayer bond orders larger than 0.100000
B(  0-H ,  1-O ) :   0.7879 B(  1-O ,  2-C ) :   0.9724 B(  2-C ,  3-H ) :   0.9064
B(  2-C ,  4-H ) :   0.8766 B(  2-C ,  5-C ) :   0.9710 B(  5-C ,  6-H ) :   0.8892
B(  5-C ,  7-O ) :   0.9095 B(  5-C , 21-C ) :   0.9073 B(  7-O ,  8-C ) :   0.9984
B(  8-C ,  9-H ) :   0.8753 B(  8-C , 10-N ) :   0.8431 B(  8-C , 23-C ) :   0.9211
B( 10-N , 11-C ) :   1.0886 B( 10-N , 19-C ) :   1.0316 B( 11-C , 12-H ) :   0.8313
B( 11-C , 13-C ) :   1.5862 B( 13-C , 14-H ) :   0.9201 B( 13-C , 15-C ) :   1.0835
B( 15-C , 16-O ) :   1.9952 B( 15-C , 17-N ) :   0.9859 B( 17-N , 18-H ) :   0.8047
B( 17-N , 19-C ) :   1.0621 B( 19-C , 20-O ) :   1.9670 B( 21-C , 22-H ) :   0.8416
B( 21-C , 23-C ) :   0.9429 B( 21-C , 27-O ) :   0.9396 B( 23-C , 24-H ) :   0.8956
B( 23-C , 25-O ) :   1.0123 B( 25-O , 26-H ) :   0.7392 B( 27-O , 28-P ) :   0.7726
B( 28-P , 29-O ) :   1.6725 B( 28-P , 30-O ) :   1.8106 B( 28-P , 31-O ) :   0.8613
B( 31-O , 32-C ) :   0.9370 B( 32-C , 33-H ) :   0.8770 B( 32-C , 34-H ) :   0.8968
B( 32-C , 35-C ) :   0.9566 B( 35-C , 36-H ) :   0.8919 B( 35-C , 37-O ) :   0.8949
B( 35-C , 51-C ) :   0.9291 B( 37-O , 38-C ) :   1.0156 B( 38-C , 39-H ) :   0.8857
B( 38-C , 40-N ) :   0.8320 B( 38-C , 53-C ) :   0.9313 B( 40-N , 41-C ) :   1.0665
B( 40-N , 49-C ) :   1.0414 B( 41-C , 42-H ) :   0.8314 B( 41-C , 43-C ) :   1.6031
B( 43-C , 44-H ) :   0.9010 B( 43-C , 45-C ) :   1.0808 B( 45-C , 46-O ) :   1.9976
B( 45-C , 47-N ) :   0.9708 B( 47-N , 48-H ) :   0.8063 B( 47-N , 49-C ) :   1.0770
B( 49-C , 50-O ) :   1.9382 B( 51-C , 52-H ) :   0.8584 B( 51-C , 53-C ) :   0.9274
B( 51-C , 57-O ) :   0.9919 B( 53-C , 54-H ) :   0.8913 B( 53-C , 55-O ) :   0.9933
B( 55-O , 56-H ) :   0.7594 B( 57-O , 58-H ) :   0.7846

Dispersion correction           -0.048125070
FINAL SINGLE POINT ENERGY     -2308.307878396505

DIPOLE MOMENT
-------------
                                X             Y             Z
Electronic contribution:     -3.95346     -10.81231       4.48878
Nuclear contribution   :      4.32254      15.58831      -5.35005
                        -----------------------------------------
Total Dipole Moment    :      0.36908       4.77600      -0.86128
                        -----------------------------------------
Magnitude (a.u.)       :      4.86705
Magnitude (Debye)      :     12.37105

Rotational constants in cm-1:     0.006320     0.001674     0.001526
Rotational constants in MHz :   189.466097    50.182178    45.747993

                             ****ORCA TERMINATED NORMALLY****
TOTAL RUN TIME: 0 days 0 hours 12 minutes 9 seconds 723 msec
