                         Program Version 5.0.3 -  RELEASE  -
|  1> ! PBEh-3c def2/J TightSCF DefGrid3
|  2>
|  3> %maxcore 60000
|  4>
|  5> %pal
|  6> nprocs 4
|  7> end
|  8>
|  9> *xyzfile 0 1 E3.xyz
| 10>
| 11>                          ****END OF INPUT****

CARTESIAN COORDINATES (ANGSTROEM)
---------------------------------
  N     -2.515494   -0.222850    0.000000
  C     -1.401286    0.077877    0.000000
  C     -0.031823    0.478295    0.000000
  C      0.981294   -0.387497    0.000000
  H      0.143829    1.548584    0.000000
  H      0.818451   -1.457736    0.000000
  H      2.005031   -0.036673    0.000000

 Total Charge           Charge          ....    0
 Multiplicity           Mult            ....    1
 Number of Electrons    NEL             ....   28
 Basis Dimension        Dim             ....   66

ORBITAL ENERGIES
----------------

  NO   OCC          E(Eh)            E(eV)
   0   2.0000     -14.651051      -398.6754
   1   2.0000     -10.505174      -285.8603
   2   2.0000     -10.495628      -285.6005
   3   2.0000     -10.490051      -285.4488
   4   2.0000      -1.016955       -27.6727
   5   2.0000      -0.914426       -24.8828
   6   2.0000      -0.739623       -20.1262
   7   2.0000      -0.609009       -16.5720
   8   2.0000      -0.548828       -14.9344
   9   2.0000      -0.477486       -12.9930
  10   2.0000      -0.439223       -11.9519
  11   2.0000      -0.430842       -11.7238
  12   2.0000      -0.393104       -10.6969
  13   2.0000      -0.338997        -9.2246
  14   0.0000      -0.034941        -0.9508
  15   0.0000       0.057830         1.5736
  16   0.0000       0.149912         4.0793
  17   0.0000       0.164785         4.4840
  18   0.0000       0.166937         4.5426

MULLIKEN ATOMIC CHARGES
-----------------------
   0 N :   -0.183041
   1 C :    0.062834
   2 C :   -0.243406
   3 C :   -0.418984
   4 H :    0.279579
   5 H :    0.257150
   6 H :    0.245867
Sum of atomic charges:    0.0000000

LOEWDIN ATOMIC CHARGES
----------------------
   0 N :   -0.075127
   1 C :   -0.019685
   2 C :   -0.182531
   3 C :   -0.185002
   4 H :    0.163868
   5 H :    0.151533
   6 H :    0.146944

  Mayer bond orders larger than 0.100000
B(  0-N ,  1-C ) :   3.1306 B(  1-C ,  2-C ) :   1.0325 B(  2-C ,  3-C ) :   1.8552
B(  2-C ,  4-H ) :   0.8935 B(  3-C ,  5-H ) :   0.9191 B(  3-C ,  6-H ) :   0.9214

Dispersion correction           -0.002304146
FINAL SINGLE POINT ENERGY      -170.440235734778

DIPOLE MOMENT
-------------
                                X             Y             Z
Electronic contribution:     -3.22792       0.14721      -0.00000
Nuclear contribution   :      4.77196       0.10492       0.00000
                        -----------------------------------------
Total Dipole Moment    :      1.54403       0.25213      -0.00000
                        -----------------------------------------
Magnitude (a.u.)       :      1.56449
Magnitude (Debye)      :      3.97661

Rotational constants in cm-1:     1.709719     0.165594     0.150971
Rotational constants in MHz : 51256.087298  4964.371873  4526.008536

                             ****ORCA TERMINATED NORMALLY****
TOTAL RUN TIME: 0 days 0 hours 1 minutes 15 seconds 362 msec
