                         Program Version 5.0.3 -  RELEASE  -
|  1> ! PBEh-3c def2/J TightSCF DefGrid3
|  2>
|  3> %maxcore 60000
|  4>
|  5> %pal
|  6> nprocs 4
|  7> end
|  8>
|  9> *xyzfile 0 1 PCH_PhBr.xyz
| 10>
| 11>                          ****END OF INPUT****

CARTESIAN COORDINATES (ANGSTROEM)
---------------------------------
  P      0.000000    0.000000    4.090124
  C      0.000000    0.000000    5.615514
  H      0.000000    0.000000    6.687190
  Br     0.000000    0.000000    0.456500
  C      0.000000    0.000000   -1.436207
  C      0.000000    1.206707   -2.115479
  C      0.000000    1.199571   -3.502377
  C      0.000000    0.000000   -4.197678
  C      0.000000   -1.199571   -3.502377
  C      0.000000   -1.206707   -2.115479
  H      0.000000    2.138992   -1.567432
  H      0.000000    2.139733   -4.038684
  H      0.000000    0.000000   -5.279811
  H      0.000000   -2.139733   -4.038684
  H      0.000000   -2.138992   -1.567432

 Total Charge           Charge          ....    0
 Multiplicity           Mult            ....    1
 Number of Electrons    NEL             ....   98
 Basis Dimension        Dim             ....  167

ORBITAL ENERGIES
----------------

  NO   OCC          E(Eh)            E(eV)
   0   2.0000    -484.528577    -13184.6929
   1   2.0000     -77.742353     -2115.4770
   2   2.0000     -63.191367     -1719.5245
   3   2.0000     -56.895432     -1548.2034
   4   2.0000     -56.893528     -1548.1516
   5   2.0000     -56.893467     -1548.1499
   6   2.0000     -10.510290      -285.9995
   7   2.0000     -10.482285      -285.2375
   8   2.0000     -10.464020      -284.7404
   9   2.0000     -10.463983      -284.7394
  10   2.0000     -10.462280      -284.6931
  11   2.0000     -10.462207      -284.6911
  12   2.0000     -10.459187      -284.6089
  13   2.0000      -9.020466      -245.4594
  14   2.0000      -6.820335      -185.5907
  15   2.0000      -6.794826      -184.8966
  16   2.0000      -6.782462      -184.5602
  17   2.0000      -6.782373      -184.5578
  18   2.0000      -4.909740      -133.6008
  19   2.0000      -4.909740      -133.6008
  20   2.0000      -4.909574      -133.5963
  21   2.0000      -2.808565       -76.4249
  22   2.0000      -2.804695       -76.3196
  23   2.0000      -2.804582       -76.3166
  24   2.0000      -2.793998       -76.0285
  25   2.0000      -2.793991       -76.0284
  26   2.0000      -0.982446       -26.7337
  27   2.0000      -0.899774       -24.4841
  28   2.0000      -0.855448       -23.2779
  29   2.0000      -0.814553       -22.1651
  30   2.0000      -0.801399       -21.8072
  31   2.0000      -0.701226       -19.0813
  32   2.0000      -0.679439       -18.4885
  33   2.0000      -0.606374       -16.5003
  34   2.0000      -0.597053       -16.2466
  35   2.0000      -0.536124       -14.5887
  36   2.0000      -0.529428       -14.4065
  37   2.0000      -0.499042       -13.5796
  38   2.0000      -0.482818       -13.1381
  39   2.0000      -0.451067       -12.2741
  40   2.0000      -0.418256       -11.3813
  41   2.0000      -0.418157       -11.3786
  42   2.0000      -0.398190       -10.8353
  43   2.0000      -0.366948        -9.9852
  44   2.0000      -0.339728        -9.2445
  45   2.0000      -0.327073        -8.9001
  46   2.0000      -0.326692        -8.8897
  47   2.0000      -0.309360        -8.4181
  48   2.0000      -0.287072        -7.8116
  49   0.0000      -0.019233        -0.5234
  50   0.0000      -0.019113        -0.5201
  51   0.0000       0.004767         0.1297
  52   0.0000       0.004990         0.1358
  53   0.0000       0.032402         0.8817

MULLIKEN ATOMIC CHARGES
-----------------------
   0 P :    0.162028
   1 C :   -0.413328
   2 H :    0.251721
   3 Br:   -0.039953
   4 C :   -0.075009
   5 C :   -0.205654
   6 C :   -0.216617
   7 C :   -0.220570
   8 C :   -0.216617
   9 C :   -0.205654
  10 H :    0.246281
  11 H :    0.230015
  12 H :    0.227060
  13 H :    0.230015
  14 H :    0.246282
Sum of atomic charges:   -0.0000000

LOEWDIN ATOMIC CHARGES
----------------------
   0 P :    0.233186
   1 C :   -0.384084
   2 H :    0.152248
   3 Br:    0.068425
   4 C :   -0.123388
   5 C :   -0.140434
   6 C :   -0.125760
   7 C :   -0.134480
   8 C :   -0.125760
   9 C :   -0.140434
  10 H :    0.148817
  11 H :    0.141475
  12 H :    0.139896
  13 H :    0.141475
  14 H :    0.148817

  Mayer bond orders larger than 0.100000
B(  0-P ,  1-C ) :   2.8922 B(  1-C ,  2-H ) :   0.8937 B(  3-Br,  4-C ) :   1.0310
B(  4-C ,  5-C ) :   1.3724 B(  4-C ,  9-C ) :   1.3724 B(  5-C ,  6-C ) :   1.4282
B(  5-C , 10-H ) :   0.9095 B(  6-C ,  7-C ) :   1.4220 B(  6-C , 11-H ) :   0.9159
B(  7-C ,  8-C ) :   1.4220 B(  7-C , 12-H ) :   0.9180 B(  8-C ,  9-C ) :   1.4282
B(  8-C , 13-H ) :   0.9159 B(  9-C , 14-H ) :   0.9095

Dispersion correction           -0.008265329
FINAL SINGLE POINT ENERGY     -3183.632606376392

DIPOLE MOMENT
-------------
                                X             Y             Z
Electronic contribution:      0.00000       0.00000      16.18552
Nuclear contribution   :      0.00000       0.00000     -16.68198
                        -----------------------------------------
Total Dipole Moment    :      0.00000       0.00000      -0.49645
                        -----------------------------------------
Magnitude (a.u.)       :      0.49645
Magnitude (Debye)      :      1.26188

Rotational constants in cm-1:     0.191563     0.010146     0.009635
Rotational constants in MHz :  5742.927595   304.162922   288.863816

                             ****ORCA TERMINATED NORMALLY****
TOTAL RUN TIME: 0 days 0 hours 2 minutes 21 seconds 464 msec
