                         Program Version 5.0.3 -  RELEASE  -
|  1> ! PBEh-3c def2/J TightSCF DefGrid3
|  2>
|  3> %maxcore 60000
|  4>
|  5> %pal
|  6> nprocs 4
|  7> end
|  8>
|  9> *xyzfile 0 1 B16.xyz
| 10>
| 11>                          ****END OF INPUT****

CARTESIAN COORDINATES (ANGSTROEM)
---------------------------------
  C     -1.805977    0.363392   -0.270339
  H     -1.773206    0.412343   -1.364272
  O     -2.883357   -0.460151    0.167323
  C     -0.457476   -0.092516    0.267229
  H     -0.509684   -0.132402    1.357836
  H     -0.247840   -1.104980   -0.084091
  C      0.676924    0.832375   -0.169103
  H      0.504464    1.840967    0.216097
  H      0.704030    0.903287   -1.259146
  H     -2.703980   -1.351050   -0.145299
  H     -2.039363    1.363568    0.094848
  C      2.037612    0.361016    0.311441
  H      2.802806    1.093758    0.038919
  H      2.032175    0.263461    1.402230
  O      2.305081   -0.897468   -0.306587
  H      3.150305   -1.213603    0.021626

 Total Charge           Charge          ....    0
 Multiplicity           Mult            ....    1
 Number of Electrons    NEL             ....   50
 Basis Dimension        Dim             ....  110

ORBITAL ENERGIES
----------------

  NO   OCC          E(Eh)            E(eV)
   0   2.0000     -19.486995      -530.2681
   1   2.0000     -19.478277      -530.0308
   2   2.0000     -10.484003      -285.2842
   3   2.0000     -10.474141      -285.0159
   4   2.0000     -10.435273      -283.9582
   5   2.0000     -10.427066      -283.7349
   6   2.0000      -1.123309       -30.5668
   7   2.0000      -1.114839       -30.3363
   8   2.0000      -0.882851       -24.0236
   9   2.0000      -0.795799       -21.6548
  10   2.0000      -0.701450       -19.0874
  11   2.0000      -0.655078       -17.8256
  12   2.0000      -0.586066       -15.9477
  13   2.0000      -0.564198       -15.3526
  14   2.0000      -0.524102       -14.2616
  15   2.0000      -0.509957       -13.8766
  16   2.0000      -0.472225       -12.8499
  17   2.0000      -0.462623       -12.5886
  18   2.0000      -0.439930       -11.9711
  19   2.0000      -0.406772       -11.0688
  20   2.0000      -0.399173       -10.8621
  21   2.0000      -0.379754       -10.3336
  22   2.0000      -0.366224        -9.9655
  23   2.0000      -0.328535        -8.9399
  24   2.0000      -0.315931        -8.5969
  25   0.0000       0.126246         3.4353
  26   0.0000       0.133639         3.6365
  27   0.0000       0.155663         4.2358
  28   0.0000       0.182901         4.9770
  29   0.0000       0.191806         5.2193

MULLIKEN ATOMIC CHARGES
-----------------------
   0 C :   -0.131290
   1 H :    0.175344
   2 O :   -0.623921
   3 C :   -0.461019
   4 H :    0.215547
   5 H :    0.224281
   6 C :   -0.445658
   7 H :    0.209241
   8 H :    0.222986
   9 H :    0.407951
  10 H :    0.202325
  11 C :   -0.149399
  12 H :    0.190166
  13 H :    0.178365
  14 O :   -0.632867
  15 H :    0.417950
Sum of atomic charges:   -0.0000000

LOEWDIN ATOMIC CHARGES
----------------------
   0 C :   -0.095035
   1 H :    0.096248
   2 O :   -0.411643
   3 C :   -0.266823
   4 H :    0.126205
   5 H :    0.128976
   6 C :   -0.252439
   7 H :    0.125529
   8 H :    0.129853
   9 H :    0.305519
  10 H :    0.116283
  11 C :   -0.088863
  12 H :    0.100439
  13 H :    0.097478
  14 O :   -0.420663
  15 H :    0.308937

  Mayer bond orders larger than 0.100000
B(  0-C ,  1-H ) :   0.9090 B(  0-C ,  2-O ) :   1.0238 B(  0-C ,  3-C ) :   0.9865
B(  0-C , 10-H ) :   0.9139 B(  2-O ,  9-H ) :   0.7953 B(  3-C ,  4-H ) :   0.9129
B(  3-C ,  5-H ) :   0.9084 B(  3-C ,  6-C ) :   0.9674 B(  6-C ,  7-H ) :   0.9186
B(  6-C ,  8-H ) :   0.9097 B(  6-C , 11-C ) :   0.9883 B( 11-C , 12-H ) :   0.9101
B( 11-C , 13-H ) :   0.9061 B( 11-C , 14-O ) :   1.0081 B( 14-O , 15-H ) :   0.7928

Dispersion correction           -0.006415303
FINAL SINGLE POINT ENERGY      -308.206801073465

DIPOLE MOMENT
-------------
                                X             Y             Z
Electronic contribution:     -0.96747      -2.14403      -0.20924
Nuclear contribution   :      1.99076       2.14013       0.28816
                        -----------------------------------------
Total Dipole Moment    :      1.02329      -0.00390       0.07891
                        -----------------------------------------
Magnitude (a.u.)       :      1.02634
Magnitude (Debye)      :      2.60874

Rotational constants in cm-1:     0.321273     0.046118     0.042901
Rotational constants in MHz :  9631.519412  1382.595267  1286.148338

                             ****ORCA TERMINATED NORMALLY****
TOTAL RUN TIME: 0 days 0 hours 1 minutes 15 seconds 38 msec
