                         Program Version 5.0.3 -  RELEASE  -
|  1> ! PBEh-3c def2/J TightSCF DefGrid3
|  2>
|  3> %maxcore 60000
|  4>
|  5> %pal
|  6> nprocs 4
|  7> end
|  8>
|  9> *xyzfile 0 1 P46.xyz
| 10>
| 11>                          ****END OF INPUT****

CARTESIAN COORDINATES (ANGSTROEM)
---------------------------------
  C     -0.290932    0.340423   -0.432825
  C      0.469147    1.679512   -0.093144
  C      1.019703   -0.349053   -0.046765
  C      1.649456    0.793605    0.240830
  H      0.036235    2.241171    0.736395
  H      0.591746    2.351237   -0.944655
  H      2.651122    1.016488    0.584620
  H     -0.544891    0.246727   -1.491577
  C     -1.472249    0.018890    0.414636
  H     -1.322980    0.138420    1.484795
  C     -2.645912   -0.407124   -0.035596
  H     -2.828534   -0.541036   -1.095122
  H     -3.464269   -0.633843    0.634263
  C      1.362705   -1.791562   -0.022020
  H      2.375343   -1.954597    0.346980
  H      0.668004   -2.344490    0.615204
  H      1.286712   -2.228229   -1.021598

 Total Charge           Charge          ....    0
 Multiplicity           Mult            ....    1
 Number of Electrons    NEL             ....   52
 Basis Dimension        Dim             ....  125

ORBITAL ENERGIES
----------------

  NO   OCC          E(Eh)            E(eV)
   0   2.0000     -10.447911      -284.3021
   1   2.0000     -10.447425      -284.2889
   2   2.0000     -10.442893      -284.1656
   3   2.0000     -10.437877      -284.0291
   4   2.0000     -10.435198      -283.9562
   5   2.0000     -10.431806      -283.8639
   6   2.0000     -10.430614      -283.8314
   7   2.0000      -0.963032       -26.2054
   8   2.0000      -0.859061       -23.3762
   9   2.0000      -0.817499       -22.2453
  10   2.0000      -0.732388       -19.9293
  11   2.0000      -0.699445       -19.0329
  12   2.0000      -0.630673       -17.1615
  13   2.0000      -0.577936       -15.7264
  14   2.0000      -0.527670       -14.3586
  15   2.0000      -0.516341       -14.0503
  16   2.0000      -0.497375       -13.5343
  17   2.0000      -0.486039       -13.2258
  18   2.0000      -0.464060       -12.6277
  19   2.0000      -0.442132       -12.0310
  20   2.0000      -0.412841       -11.2340
  21   2.0000      -0.391467       -10.6523
  22   2.0000      -0.383698       -10.4409
  23   2.0000      -0.359813        -9.7910
  24   2.0000      -0.296940        -8.0801
  25   2.0000      -0.280143        -7.6231
  26   0.0000       0.039573         1.0768
  27   0.0000       0.061346         1.6693
  28   0.0000       0.163720         4.4550
  29   0.0000       0.171310         4.6616
  30   0.0000       0.175138         4.7657

MULLIKEN ATOMIC CHARGES
-----------------------
   0 C :   -0.379281
   1 C :   -0.416835
   2 C :    0.193549
   3 C :   -0.276581
   4 H :    0.222016
   5 H :    0.224728
   6 H :    0.196568
   7 H :    0.224817
   8 C :   -0.089714
   9 H :    0.215665
  10 C :   -0.500019
  11 H :    0.209213
  12 H :    0.214452
  13 C :   -0.729326
  14 H :    0.228883
  15 H :    0.233926
  16 H :    0.227939
Sum of atomic charges:   -0.0000000

LOEWDIN ATOMIC CHARGES
----------------------
   0 C :   -0.126353
   1 C :   -0.212897
   2 C :   -0.049427
   3 C :   -0.154645
   4 H :    0.125437
   5 H :    0.126897
   6 H :    0.121589
   7 H :    0.128698
   8 C :   -0.133063
   9 H :    0.130073
  10 C :   -0.276231
  11 H :    0.127660
  12 H :    0.131376
  13 C :   -0.360303
  14 H :    0.138819
  15 H :    0.142438
  16 H :    0.139929

  Mayer bond orders larger than 0.100000
B(  0-C ,  1-C ) :   0.9459 B(  0-C ,  2-C ) :   0.9748 B(  0-C ,  7-H ) :   0.9076
B(  0-C ,  8-C ) :   0.9837 B(  1-C ,  3-C ) :   1.0163 B(  1-C ,  4-H ) :   0.9136
B(  1-C ,  5-H ) :   0.9107 B(  2-C ,  3-C ) :   1.8132 B(  2-C , 13-C ) :   0.9654
B(  3-C ,  6-H ) :   0.9340 B(  8-C ,  9-H ) :   0.9160 B(  8-C , 10-C ) :   1.9165
B( 10-C , 11-H ) :   0.9305 B( 10-C , 12-H ) :   0.9296 B( 13-C , 14-H ) :   0.9303
B( 13-C , 15-H ) :   0.9158 B( 13-C , 16-H ) :   0.9184

Dispersion correction           -0.008129491
FINAL SINGLE POINT ENERGY      -272.083963862829

DIPOLE MOMENT
-------------
                                X             Y             Z
Electronic contribution:      0.67273       1.65570       0.14311
Nuclear contribution   :     -0.57203      -1.77170      -0.15630
                        -----------------------------------------
Total Dipole Moment    :      0.10070      -0.11599      -0.01319
                        -----------------------------------------
Magnitude (a.u.)       :      0.15417
Magnitude (Debye)      :      0.39187

Rotational constants in cm-1:     0.133541     0.072249     0.051023
Rotational constants in MHz :  4003.470945  2165.963189  1529.630854

                             ****ORCA TERMINATED NORMALLY****
TOTAL RUN TIME: 0 days 0 hours 1 minutes 2 seconds 64 msec
