                         Program Version 5.0.3 -  RELEASE  -
|  1> ! PBEh-3c def2/J TightSCF DefGrid3
|  2>
|  3> %maxcore 60000
|  4>
|  5> %pal
|  6> nprocs 4
|  7> end
|  8>
|  9> *xyzfile 0 1 H2CO.xyz
| 10>
| 11>                          ****END OF INPUT****

CARTESIAN COORDINATES (ANGSTROEM)
---------------------------------
  C     -0.001427    0.004588    0.000000
  H      0.712274    0.865668    0.000000
  H     -1.087168    0.272938    0.000000
  O      0.376321   -1.143195    0.000000

 Total Charge           Charge          ....    0
 Multiplicity           Mult            ....    1
 Number of Electrons    NEL             ....   16
 Basis Dimension        Dim             ....   34

ORBITAL ENERGIES
----------------

  NO   OCC          E(Eh)            E(eV)
   0   2.0000     -19.516577      -531.0731
   1   2.0000     -10.546577      -286.9870
   2   2.0000      -1.170366       -31.8473
   3   2.0000      -0.711256       -19.3543
   4   2.0000      -0.560927       -15.2636
   5   2.0000      -0.517773       -14.0893
   6   2.0000      -0.453007       -12.3269
   7   2.0000      -0.327088        -8.9005
   8   0.0000      -0.008722        -0.2374
   9   0.0000       0.149211         4.0602
  10   0.0000       0.249203         6.7811
  11   0.0000       0.252359         6.8670
  12   0.0000       0.502870        13.6838

MULLIKEN ATOMIC CHARGES
-----------------------
   0 C :   -0.029154
   1 H :    0.158940
   2 H :    0.158927
   3 O :   -0.288713
Sum of atomic charges:    0.0000000

LOEWDIN ATOMIC CHARGES
----------------------
   0 C :   -0.001497
   1 H :    0.084860
   2 H :    0.084847
   3 O :   -0.168210

  Mayer bond orders larger than 0.100000
B(  0-C ,  1-H ) :   0.8596 B(  0-C ,  2-H ) :   0.8596 B(  0-C ,  3-O ) :   2.1271

Dispersion correction           -0.000600773
FINAL SINGLE POINT ENERGY      -114.250465064430

DIPOLE MOMENT
-------------
                                X             Y             Z
Electronic contribution:      0.41026      -1.24558       0.00000
Nuclear contribution   :     -0.70048       2.12751       0.00000
                        -----------------------------------------
Total Dipole Moment    :     -0.29022       0.88193       0.00000
                        -----------------------------------------
Magnitude (a.u.)       :      0.92846
Magnitude (Debye)      :      2.35996

Rotational constants in cm-1:     9.318668     1.284756     1.129089
Rotational constants in MHz : 279366.629170 38516.006437 33849.243973

                             ****ORCA TERMINATED NORMALLY****
TOTAL RUN TIME: 0 days 0 hours 0 minutes 57 seconds 98 msec
