                         Program Version 5.0.3 -  RELEASE  -
|  1> ! PBEh-3c def2/J TightSCF DefGrid3
|  2>
|  3> %maxcore 60000
|  4>
|  5> %pal
|  6> nprocs 4
|  7> end
|  8>
|  9> *xyzfile 0 2 P40.xyz
| 10>
| 11>                          ****END OF INPUT****

CARTESIAN COORDINATES (ANGSTROEM)
---------------------------------
  C      0.050132    0.492999    0.038405
  C      1.370478    0.074310    0.051392
  N      2.482182   -0.278692    0.050541
  N     -0.997954   -0.398929    0.091272
  H     -1.907957   -0.069092   -0.187189
  H     -0.812681   -1.366769   -0.122012
  H     -0.184200    1.546174    0.077591

 Total Charge           Charge          ....    0
 Multiplicity           Mult            ....    2
 Number of Electrons    NEL             ....   29
 Basis Dimension        Dim             ....   66

ORBITAL ENERGIES
----------------
                 SPIN UP ORBITALS
  NO   OCC          E(Eh)            E(eV)
   0   1.0000     -14.684637      -399.5893
   1   1.0000     -14.638998      -398.3474
   2   1.0000     -10.515812      -286.1498
   3   1.0000     -10.477434      -285.1055
   4   1.0000      -1.053213       -28.6594
   5   1.0000      -0.998742       -27.1772
   6   1.0000      -0.819259       -22.2932
   7   1.0000      -0.651961       -17.7408
   8   1.0000      -0.600300       -16.3350
   9   1.0000      -0.526092       -14.3157
  10   1.0000      -0.472870       -12.8674
  11   1.0000      -0.425826       -11.5873
  12   1.0000      -0.394226       -10.7274
  13   1.0000      -0.381607       -10.3840
  14   1.0000      -0.231611        -6.3025
  15   0.0000       0.046743         1.2719
  16   0.0000       0.129720         3.5299
  17   0.0000       0.140700         3.8286
  18   0.0000       0.154215         4.1964
  19   0.0000       0.185742         5.0543

                 SPIN DOWN ORBITALS
  NO   OCC          E(Eh)            E(eV)
   0   1.0000     -14.678419      -399.4201
   1   1.0000     -14.630757      -398.1231
   2   1.0000     -10.504794      -285.8500
   3   1.0000     -10.481145      -285.2065
   4   1.0000      -1.036920       -28.2160
   5   1.0000      -0.984999       -26.8032
   6   1.0000      -0.791309       -21.5326
   7   1.0000      -0.645450       -17.5636
   8   1.0000      -0.593488       -16.1496
   9   1.0000      -0.519344       -14.1321
  10   1.0000      -0.422268       -11.4905
  11   1.0000      -0.412478       -11.2241
  12   1.0000      -0.377381       -10.2691
  13   1.0000      -0.347990        -9.4693
  14   0.0000      -0.040958        -1.1145
  15   0.0000       0.052031         1.4158
  16   0.0000       0.136065         3.7025
  17   0.0000       0.157211         4.2779
  18   0.0000       0.178521         4.8578

MULLIKEN ATOMIC CHARGES AND SPIN POPULATIONS
--------------------------------------------
   0 C :   -0.108502    0.688139
   1 C :    0.023744   -0.219539
   2 N :   -0.204768    0.374990
   3 N :   -0.724224    0.214080
   4 H :    0.367574   -0.006192
   5 H :    0.375584   -0.008505
   6 H :    0.270592   -0.042973
Sum of atomic charges         :   -0.0000000

LOEWDIN ATOMIC CHARGES AND SPIN POPULATIONS
-------------------------------------------
   0 C :   -0.154305    0.571390
   1 C :   -0.070538   -0.111154
   2 N :   -0.100195    0.331662
   3 N :   -0.343987    0.236950
   4 H :    0.255485   -0.002755
   5 H :    0.259026   -0.004555
   6 H :    0.154514   -0.021539

  Mayer bond orders larger than 0.100000
B(  0-C ,  1-C ) :   1.1728 B(  0-C ,  3-N ) :   1.2273 B(  0-C ,  6-H ) :   0.8925
B(  1-C ,  2-N ) :   2.9918 B(  3-N ,  4-H ) :   0.8318 B(  3-N ,  5-H ) :   0.8290

Dispersion correction           -0.002224755
FINAL SINGLE POINT ENERGY      -187.037926738096

DIPOLE MOMENT
-------------
                                X             Y             Z
Electronic contribution:      2.53589      -0.10611       0.05120
Nuclear contribution   :     -4.50931       0.23146      -0.36181
                        -----------------------------------------
Total Dipole Moment    :     -1.97343       0.12534      -0.31062
                        -----------------------------------------
Magnitude (a.u.)       :      2.00165
Magnitude (Debye)      :      5.08779

Rotational constants in cm-1:     1.591350     0.160291     0.145907
Rotational constants in MHz : 47707.481376  4805.406823  4374.184669

                             ****ORCA TERMINATED NORMALLY****
TOTAL RUN TIME: 0 days 0 hours 3 minutes 12 seconds 165 msec
