                         Program Version 5.0.3 -  RELEASE  -
|  1> ! PBEh-3c def2/J TightSCF DefGrid3
|  2>
|  3> %maxcore 60000
|  4>
|  5> %pal
|  6> nprocs 4
|  7> end
|  8>
|  9> *xyzfile 0 1 li2.xyz
| 10>
| 11>                          ****END OF INPUT****

CARTESIAN COORDINATES (ANGSTROEM)
---------------------------------
  Li     0.000000    0.000000    1.394718
  Li     0.000000    0.000000   -1.394718

 Total Charge           Charge          ....    0
 Multiplicity           Mult            ....    1
 Number of Electrons    NEL             ....    6
 Basis Dimension        Dim             ....   18

ORBITAL ENERGIES
----------------

  NO   OCC          E(Eh)            E(eV)
   0   2.0000      -2.117887       -57.6306
   1   2.0000      -2.117635       -57.6238
   2   2.0000      -0.151773        -4.1300
   3   0.0000      -0.039378        -1.0715
   4   0.0000       0.009049         0.2462
   5   0.0000       0.009049         0.2462
   6   0.0000       0.010400         0.2830
   7   0.0000       0.065811         1.7908

MULLIKEN ATOMIC CHARGES
-----------------------
   0 Li:    0.000000
   1 Li:   -0.000000
Sum of atomic charges:   -0.0000000

LOEWDIN ATOMIC CHARGES
----------------------
   0 Li:    0.000000
   1 Li:   -0.000000

  Mayer bond orders larger than 0.100000
B(  0-Li,  1-Li) :   0.9979

Dispersion correction           -0.000215999
FINAL SINGLE POINT ENERGY       -14.935260138394

DIPOLE MOMENT
-------------
                                X             Y             Z
Electronic contribution:      0.00000       0.00000       0.00000
Nuclear contribution   :      0.00000       0.00000       0.00000
                        -----------------------------------------
Total Dipole Moment    :      0.00000       0.00000       0.00000
                        -----------------------------------------
Magnitude (a.u.)       :      0.00000
Magnitude (Debye)      :      0.00000

Rotational constants in cm-1:     0.000000     0.624270     0.624270
Rotational constants in MHz :     0.000000 18715.139280 18715.139280

                             ****ORCA TERMINATED NORMALLY****
TOTAL RUN TIME: 0 days 0 hours 0 minutes 57 seconds 164 msec
