                         Program Version 5.0.3 -  RELEASE  -
|  1> ! PBEh-3c def2/J TightSCF DefGrid3
|  2>
|  3> %maxcore 60000
|  4>
|  5> %pal
|  6> nprocs 4
|  7> end
|  8>
|  9> *xyzfile 0 1 Pentahelicene.xyz
| 10>
| 11>                          ****END OF INPUT****

CARTESIAN COORDINATES (ANGSTROEM)
---------------------------------
  C      2.762393   -0.486466   -2.031281
  C      3.351933   -0.368590   -0.812047
  C      2.561903   -0.264728    0.361584
  C      1.148522   -0.302634    0.273429
  C      0.559048   -0.735421   -0.969787
  C      1.363039   -0.692264   -2.135674
  C      0.779527   -0.890172   -3.421675
  C     -0.534705   -1.188085   -3.558835
  C     -1.334365   -1.450235   -2.410299
  C     -0.773325   -1.298533   -1.109825
  C      3.197732   -0.096083    1.627503
  C      2.475186    0.095846    2.758201
  C      1.066054    0.292043    2.682709
  C      0.405160    0.173664    1.427011
  C      0.336468    0.693853    3.822300
  C     -0.982625    1.060839    3.724790
  C     -1.602054    1.074862    2.465017
  C     -0.923207    0.649037    1.348498
  C     -1.507517   -1.830978   -0.026201
  C     -2.771354   -2.343474   -0.194650
  C     -3.368884   -2.366052   -1.464706
  C     -2.648254   -1.945859   -2.554365
  H      3.354299   -0.480707   -2.937559
  H      4.428128   -0.299038   -0.720228
  H      1.415361   -0.786159   -4.291245
  H     -0.976942   -1.306863   -4.539436
  H      4.278769   -0.140010    1.664278
  H      2.962681    0.183978    3.720814
  H      0.849712    0.742193    4.774249
  H     -1.529522    1.377623    4.602795
  H     -2.617421    1.435385    2.367471
  H     -1.415375    0.689714    0.390476
  H     -1.066199   -1.847351    0.956470
  H     -3.302317   -2.744758    0.658344
  H     -4.371019   -2.754802   -1.587216
  H     -3.064832   -2.022772   -3.550910

 Total Charge           Charge          ....    0
 Multiplicity           Mult            ....    1
 Number of Electrons    NEL             ....  146
 Basis Dimension        Dim             ....  358

ORBITAL ENERGIES
----------------

  NO   OCC          E(Eh)            E(eV)
   0   2.0000     -10.471640      -284.9478
   1   2.0000     -10.471176      -284.9352
   2   2.0000     -10.465933      -284.7925
   3   2.0000     -10.465812      -284.7892
   4   2.0000     -10.464480      -284.7530
   5   2.0000     -10.464281      -284.7476
   6   2.0000     -10.461987      -284.6851
   7   2.0000     -10.461755      -284.6788
   8   2.0000     -10.453650      -284.4583
   9   2.0000     -10.453300      -284.4487
  10   2.0000     -10.452924      -284.4385
  11   2.0000     -10.452875      -284.4372
  12   2.0000     -10.452492      -284.4268
  13   2.0000     -10.452099      -284.4161
  14   2.0000     -10.450709      -284.3783
  15   2.0000     -10.450498      -284.3725
  16   2.0000     -10.449741      -284.3519
  17   2.0000     -10.449508      -284.3456
  18   2.0000     -10.448227      -284.3107
  19   2.0000     -10.447935      -284.3028
  20   2.0000     -10.447542      -284.2921
  21   2.0000     -10.447157      -284.2816
  22   2.0000      -0.998744       -27.1772
  23   2.0000      -0.975274       -26.5385
  24   2.0000      -0.952079       -25.9074
  25   2.0000      -0.922366       -25.0988
  26   2.0000      -0.896211       -24.3871
  27   2.0000      -0.883607       -24.0442
  28   2.0000      -0.856080       -23.2951
  29   2.0000      -0.841240       -22.8913
  30   2.0000      -0.828862       -22.5545
  31   2.0000      -0.810415       -22.0525
  32   2.0000      -0.801341       -21.8056
  33   2.0000      -0.724447       -19.7132
  34   2.0000      -0.720970       -19.6186
  35   2.0000      -0.694863       -18.9082
  36   2.0000      -0.690252       -18.7827
  37   2.0000      -0.690006       -18.7760
  38   2.0000      -0.653732       -17.7889
  39   2.0000      -0.628373       -17.0989
  40   2.0000      -0.602651       -16.3990
  41   2.0000      -0.599123       -16.3030
  42   2.0000      -0.571294       -15.5457
  43   2.0000      -0.567155       -15.4331
  44   2.0000      -0.561596       -15.2818
  45   2.0000      -0.532945       -14.5022
  46   2.0000      -0.529496       -14.4083
  47   2.0000      -0.517656       -14.0861
  48   2.0000      -0.496377       -13.5071
  49   2.0000      -0.495626       -13.4867
  50   2.0000      -0.494962       -13.4686
  51   2.0000      -0.488087       -13.2815
  52   2.0000      -0.482150       -13.1200
  53   2.0000      -0.477141       -12.9837
  54   2.0000      -0.463073       -12.6009
  55   2.0000      -0.460463       -12.5298
  56   2.0000      -0.449695       -12.2368
  57   2.0000      -0.446878       -12.1602
  58   2.0000      -0.427648       -11.6369
  59   2.0000      -0.422817       -11.5054
  60   2.0000      -0.417606       -11.3636
  61   2.0000      -0.405283       -11.0283
  62   2.0000      -0.399549       -10.8723
  63   2.0000      -0.385030       -10.4772
  64   2.0000      -0.381432       -10.3793
  65   2.0000      -0.375894       -10.2286
  66   2.0000      -0.347026        -9.4431
  67   2.0000      -0.335518        -9.1299
  68   2.0000      -0.322818        -8.7843
  69   2.0000      -0.293793        -7.9945
  70   2.0000      -0.268981        -7.3193
  71   2.0000      -0.248170        -6.7530
  72   2.0000      -0.242452        -6.5975
  73   0.0000      -0.037623        -1.0238
  74   0.0000      -0.037566        -1.0222
  75   0.0000      -0.007254        -0.1974
  76   0.0000       0.015748         0.4285
  77   0.0000       0.044379         1.2076

MULLIKEN ATOMIC CHARGES
-----------------------
   0 C :   -0.282954
   1 C :   -0.283853
   2 C :    0.094322
   3 C :    0.092202
   4 C :    0.096011
   5 C :    0.092587
   6 C :   -0.276101
   7 C :   -0.293064
   8 C :    0.113837
   9 C :    0.019954
  10 C :   -0.275921
  11 C :   -0.292155
  12 C :    0.114340
  13 C :    0.014258
  14 C :   -0.275964
  15 C :   -0.228693
  16 C :   -0.215102
  17 C :   -0.306077
  18 C :   -0.309172
  19 C :   -0.214623
  20 C :   -0.229526
  21 C :   -0.275296
  22 H :    0.215109
  23 H :    0.215142
  24 H :    0.214952
  25 H :    0.214474
  26 H :    0.215198
  27 H :    0.214664
  28 H :    0.214186
  29 H :    0.220368
  30 H :    0.222938
  31 H :    0.257911
  32 H :    0.258908
  33 H :    0.222854
  34 H :    0.220184
  35 H :    0.214100
Sum of atomic charges:    0.0000000

LOEWDIN ATOMIC CHARGES
----------------------
   0 C :   -0.121187
   1 C :   -0.121219
   2 C :   -0.030581
   3 C :   -0.009224
   4 C :   -0.009982
   5 C :   -0.030482
   6 C :   -0.124118
   7 C :   -0.120243
   8 C :   -0.032976
   9 C :   -0.030114
  10 C :   -0.123929
  11 C :   -0.120344
  12 C :   -0.033105
  13 C :   -0.030727
  14 C :   -0.125740
  15 C :   -0.134433
  16 C :   -0.137095
  17 C :   -0.116167
  18 C :   -0.116428
  19 C :   -0.136906
  20 C :   -0.134393
  21 C :   -0.125691
  22 H :    0.139133
  23 H :    0.139187
  24 H :    0.139060
  25 H :    0.138886
  26 H :    0.139164
  27 H :    0.138986
  28 H :    0.137116
  29 H :    0.137321
  30 H :    0.138397
  31 H :    0.152404
  32 H :    0.152736
  33 H :    0.138350
  34 H :    0.137257
  35 H :    0.137087

  Mayer bond orders larger than 0.100000
B(  0-C ,  1-C ) :   1.5701 B(  0-C ,  5-C ) :   1.2090 B(  0-C , 22-H ) :   0.9246
B(  1-C ,  2-C ) :   1.2091 B(  1-C , 23-H ) :   0.9246 B(  2-C ,  3-C ) :   1.3406
B(  2-C , 10-C ) :   1.1735 B(  3-C ,  4-C ) :   1.1412 B(  3-C , 13-C ) :   1.1012
B(  4-C ,  5-C ) :   1.3378 B(  4-C ,  9-C ) :   1.1012 B(  5-C ,  6-C ) :   1.1742
B(  6-C ,  7-C ) :   1.6120 B(  6-C , 24-H ) :   0.9243 B(  7-C ,  8-C ) :   1.1777
B(  7-C , 25-H ) :   0.9243 B(  8-C ,  9-C ) :   1.2925 B(  8-C , 21-C ) :   1.2555
B(  9-C , 18-C ) :   1.2933 B( 10-C , 11-C ) :   1.6125 B( 10-C , 26-H ) :   0.9243
B( 11-C , 12-C ) :   1.1770 B( 11-C , 27-H ) :   0.9243 B( 12-C , 13-C ) :   1.2931
B( 12-C , 14-C ) :   1.2560 B( 13-C , 17-C ) :   1.2958 B( 14-C , 15-C ) :   1.5144
B( 14-C , 28-H ) :   0.9251 B( 15-C , 16-C ) :   1.3239 B( 15-C , 29-H ) :   0.9186
B( 16-C , 17-C ) :   1.5175 B( 16-C , 30-H ) :   0.9184 B( 17-C , 31-H ) :   0.9056
B( 18-C , 19-C ) :   1.5185 B( 18-C , 32-H ) :   0.9051 B( 19-C , 20-C ) :   1.3237
B( 19-C , 33-H ) :   0.9185 B( 20-C , 21-C ) :   1.5144 B( 20-C , 34-H ) :   0.9187
B( 21-C , 35-H ) :   0.9252

Dispersion correction           -0.031271636
FINAL SINGLE POINT ENERGY      -844.933317905112

DIPOLE MOMENT
-------------
                                X             Y             Z
Electronic contribution:      2.94917       0.15169      -1.44681
Nuclear contribution   :     -2.95733      -0.15814       1.45570
                        -----------------------------------------
Total Dipole Moment    :     -0.00816      -0.00645       0.00889
                        -----------------------------------------
Magnitude (a.u.)       :      0.01368
Magnitude (Debye)      :      0.03478

Rotational constants in cm-1:     0.014981     0.009504     0.006215
Rotational constants in MHz :   449.126491   284.926461   186.310692

                             ****ORCA TERMINATED NORMALLY****
TOTAL RUN TIME: 0 days 0 hours 5 minutes 55 seconds 299 msec
