                         Program Version 5.0.3 -  RELEASE  -
|  1> ! PBEh-3c def2/J TightSCF DefGrid3
|  2>
|  3> %maxcore 60000
|  4>
|  5> %pal
|  6> nprocs 4
|  7> end
|  8>
|  9> *xyzfile 0 1 nh3-cbh22.xyz
| 10>
| 11>                          ****END OF INPUT****

CARTESIAN COORDINATES (ANGSTROEM)
---------------------------------
  C      0.000000    0.226832    0.000000
  N      0.017638   -1.296580    0.000000
  B     -1.362339    0.811082    0.000000
  B      1.342205    0.863774    0.000000
  H     -0.942803   -1.639934    0.000000
  H      0.493646   -1.664768    0.820615
  H      0.493646   -1.664768   -0.820615
  H     -1.520296    1.991253    0.000000
  H     -2.326657    0.080338    0.000000
  H      2.342054    0.187816    0.000000
  H      1.437612    2.050849    0.000000

 Total Charge           Charge          ....    0
 Multiplicity           Mult            ....    1
 Number of Electrons    NEL             ....   30
 Basis Dimension        Dim             ....   74

ORBITAL ENERGIES
----------------

  NO   OCC          E(Eh)            E(eV)
   0   2.0000     -14.761107      -401.6701
   1   2.0000     -10.413528      -283.3665
   2   2.0000      -6.908095      -187.9788
   3   2.0000      -6.907329      -187.9580
   4   2.0000      -1.099688       -29.9240
   5   2.0000      -0.741229       -20.1699
   6   2.0000      -0.664019       -18.0689
   7   2.0000      -0.651322       -17.7234
   8   2.0000      -0.544191       -14.8082
   9   2.0000      -0.523290       -14.2394
  10   2.0000      -0.428018       -11.6469
  11   2.0000      -0.363473        -9.8906
  12   2.0000      -0.353768        -9.6265
  13   2.0000      -0.330540        -8.9944
  14   2.0000      -0.260575        -7.0906
  15   0.0000       0.002737         0.0745
  16   0.0000       0.066425         1.8075
  17   0.0000       0.088943         2.4203
  18   0.0000       0.127014         3.4562
  19   0.0000       0.158824         4.3218

MULLIKEN ATOMIC CHARGES
-----------------------
   0 C :   -0.169436
   1 N :   -0.815786
   2 B :   -0.158700
   3 B :   -0.174581
   4 H :    0.417182
   5 H :    0.415610
   6 H :    0.415610
   7 H :    0.049373
   8 H :   -0.024664
   9 H :   -0.001738
  10 H :    0.047130
Sum of atomic charges:   -0.0000000

LOEWDIN ATOMIC CHARGES
----------------------
   0 C :   -0.266487
   1 N :   -0.205253
   2 B :   -0.198850
   3 B :   -0.189340
   4 H :    0.284143
   5 H :    0.280972
   6 H :    0.280972
   7 H :    0.022587
   8 H :   -0.018980
   9 H :   -0.012619
  10 H :    0.022856

  Mayer bond orders larger than 0.100000
B(  0-C ,  1-N ) :   0.7216 B(  0-C ,  2-B ) :   1.3898 B(  0-C ,  3-B ) :   1.3568
B(  1-N ,  4-H ) :   0.7849 B(  1-N ,  5-H ) :   0.7999 B(  1-N ,  6-H ) :   0.7999
B(  2-B ,  3-B ) :   0.1035 B(  2-B ,  7-H ) :   0.9893 B(  2-B ,  8-H ) :   0.9689
B(  3-B ,  9-H ) :   0.9865 B(  3-B , 10-H ) :   0.9884

Dispersion correction           -0.003892658
FINAL SINGLE POINT ENERGY      -146.376447520670

DIPOLE MOMENT
-------------
                                X             Y             Z
Electronic contribution:      0.07881      -0.54498      -0.00000
Nuclear contribution   :     -0.00666      -2.07719       0.00000
                        -----------------------------------------
Total Dipole Moment    :      0.07215      -2.62217      -0.00000
                        -----------------------------------------
Magnitude (a.u.)       :      2.62316
Magnitude (Debye)      :      6.66754

Rotational constants in cm-1:     0.295626     0.291328     0.150282
Rotational constants in MHz :  8862.629665  8733.802373  4505.348140

                             ****ORCA TERMINATED NORMALLY****
TOTAL RUN TIME: 0 days 0 hours 1 minutes 12 seconds 524 msec
