                         Program Version 5.0.3 -  RELEASE  -
|  1> ! PBEh-3c def2/J TightSCF DefGrid3
|  2>
|  3> %maxcore 60000
|  4>
|  5> %pal
|  6> nprocs 4
|  7> end
|  8>
|  9> *xyzfile 1 1 A1.xyz
| 10>
| 11>                          ****END OF INPUT****

CARTESIAN COORDINATES (ANGSTROEM)
---------------------------------
  N     -1.978745    0.388062    0.000000
  N     -0.097512    1.786442    0.000000
  N      1.191411   -1.501539    0.000000
  N      2.044869    0.552808    0.000000
  N     -1.812635   -1.897588    0.000000
  C      2.280179   -0.807050    0.000000
  C      0.706765    0.696355    0.000000
  C     -1.215035   -0.730339    0.000000
  C     -1.431440    1.555813    0.000000
  C      0.188209   -0.580626    0.000000
  H      2.751473    1.274361    0.000000
  H     -2.820532   -1.949181    0.000000
  H     -1.280186   -2.754916    0.000000
  H     -2.064613    2.435301    0.000000
  H      3.284992   -1.203274    0.000000
  H      0.252800    2.735371    0.000000

 Total Charge           Charge          ....    1
 Multiplicity           Mult            ....    1
 Number of Electrons    NEL             ....   70
 Basis Dimension        Dim             ....  162

ORBITAL ENERGIES
----------------

  NO   OCC          E(Eh)            E(eV)
   0   2.0000     -14.907669      -405.6583
   1   2.0000     -14.887872      -405.1196
   2   2.0000     -14.837950      -403.7611
   3   2.0000     -14.819126      -403.2489
   4   2.0000     -14.802450      -402.7951
   5   2.0000     -10.727399      -291.9074
   6   2.0000     -10.724250      -291.8217
   7   2.0000     -10.723199      -291.7931
   8   2.0000     -10.683490      -290.7125
   9   2.0000     -10.651426      -289.8400
  10   2.0000      -1.346853       -36.6497
  11   2.0000      -1.298523       -35.3346
  12   2.0000      -1.250365       -34.0242
  13   2.0000      -1.174929       -31.9714
  14   2.0000      -1.163171       -31.6515
  15   2.0000      -1.054595       -28.6970
  16   2.0000      -0.946482       -25.7551
  17   2.0000      -0.933510       -25.4021
  18   2.0000      -0.895002       -24.3542
  19   2.0000      -0.869422       -23.6582
  20   2.0000      -0.820857       -22.3367
  21   2.0000      -0.806220       -21.9384
  22   2.0000      -0.759884       -20.6775
  23   2.0000      -0.755082       -20.5468
  24   2.0000      -0.729056       -19.8386
  25   2.0000      -0.691596       -18.8193
  26   2.0000      -0.679991       -18.5035
  27   2.0000      -0.671398       -18.2697
  28   2.0000      -0.653441       -17.7810
  29   2.0000      -0.624516       -16.9940
  30   2.0000      -0.521775       -14.1982
  31   2.0000      -0.518376       -14.1057
  32   2.0000      -0.511643       -13.9225
  33   2.0000      -0.509699       -13.8696
  34   2.0000      -0.445757       -12.1297
  35   0.0000      -0.191996        -5.2245
  36   0.0000      -0.150556        -4.0968
  37   0.0000      -0.097735        -2.6595
  38   0.0000      -0.056899        -1.5483
  39   0.0000      -0.034058        -0.9268

MULLIKEN ATOMIC CHARGES
-----------------------
   0 N :   -0.394448
   1 N :   -0.657379
   2 N :   -0.359142
   3 N :   -0.657003
   4 N :   -0.765977
   5 C :    0.143805
   6 C :    0.637693
   7 C :    0.527309
   8 C :    0.180709
   9 C :    0.050496
  10 H :    0.411298
  11 H :    0.420122
  12 H :    0.426935
  13 H :    0.312650
  14 H :    0.302369
  15 H :    0.420563
Sum of atomic charges:    1.0000000

LOEWDIN ATOMIC CHARGES
----------------------
   0 N :   -0.149768
   1 N :   -0.122095
   2 N :   -0.134134
   3 N :   -0.130705
   4 N :   -0.250897
   5 C :    0.029387
   6 C :    0.094313
   7 C :    0.138832
   8 C :    0.080306
   9 C :   -0.074205
  10 H :    0.295071
  11 H :    0.293360
  12 H :    0.294239
  13 H :    0.168953
  14 H :    0.165460
  15 H :    0.301884

  Mayer bond orders larger than 0.100000
B(  0-N ,  7-C ) :   1.3256 B(  0-N ,  8-C ) :   1.6786 B(  1-N ,  6-C ) :   1.0293
B(  1-N ,  8-C ) :   1.1933 B(  1-N , 15-H ) :   0.7884 B(  2-N ,  5-C ) :   1.7093
B(  2-N ,  9-C ) :   1.3188 B(  3-N ,  5-C ) :   1.1170 B(  3-N ,  6-C ) :   1.1344
B(  3-N , 10-H ) :   0.7947 B(  4-N ,  7-C ) :   1.2979 B(  4-N , 11-H ) :   0.7946
B(  4-N , 12-H ) :   0.7954 B(  5-C , 14-H ) :   0.8815 B(  6-C ,  9-C ) :   1.2920
B(  7-C ,  9-C ) :   1.1439 B(  8-C , 13-H ) :   0.8706

Dispersion correction           -0.009301744
FINAL SINGLE POINT ENERGY      -466.682297955039

DIPOLE MOMENT
-------------
                                X             Y             Z
Electronic contribution:      0.41644       0.67809       0.00000
Nuclear contribution   :      0.22346       0.80225       0.00000
                        -----------------------------------------
Total Dipole Moment    :      0.63990       1.48034       0.00000
                        -----------------------------------------
Magnitude (a.u.)       :      1.61272
Magnitude (Debye)      :      4.09922

Rotational constants in cm-1:     0.078822     0.052146     0.031383
Rotational constants in MHz :  2363.023955  1563.282923   940.852335

                             ****ORCA TERMINATED NORMALLY****
TOTAL RUN TIME: 0 days 0 hours 2 minutes 0 seconds 595 msec
