                         Program Version 5.0.3 -  RELEASE  -
|  1> ! PBEh-3c def2/J TightSCF DefGrid3
|  2>
|  3> %maxcore 60000
|  4>
|  5> %pal
|  6> nprocs 4
|  7> end
|  8>
|  9> *xyzfile 0 1 propene.xyz
| 10>
| 11>                          ****END OF INPUT****

CARTESIAN COORDINATES (ANGSTROEM)
---------------------------------
  C     -1.255465   -0.178715    0.000000
  C      0.105079    0.451669    0.000000
  C      1.253350   -0.229970    0.000000
  H      1.261741   -1.313923    0.000000
  H      2.209888    0.275562    0.000000
  H      0.139511    1.537194    0.000000
  H     -1.181940   -1.266648    0.000000
  H     -1.828107    0.127789    0.878203
  H     -1.828107    0.127789   -0.878203

 Total Charge           Charge          ....    0
 Multiplicity           Mult            ....    1
 Number of Electrons    NEL             ....   24
 Basis Dimension        Dim             ....   57

ORBITAL ENERGIES
----------------

  NO   OCC          E(Eh)            E(eV)
   0   2.0000     -10.446528      -284.2645
   1   2.0000     -10.431261      -283.8491
   2   2.0000     -10.429956      -283.8135
   3   2.0000      -0.875826       -23.8324
   4   2.0000      -0.765803       -20.8386
   5   2.0000      -0.622873       -16.9492
   6   2.0000      -0.527462       -14.3530
   7   2.0000      -0.477079       -12.9820
   8   2.0000      -0.468036       -12.7359
   9   2.0000      -0.423896       -11.5348
  10   2.0000      -0.397601       -10.8193
  11   2.0000      -0.297380        -8.0921
  12   0.0000       0.049836         1.3561
  13   0.0000       0.164328         4.4716
  14   0.0000       0.191305         5.2057
  15   0.0000       0.198607         5.4044
  16   0.0000       0.218978         5.9587

MULLIKEN ATOMIC CHARGES
-----------------------
   0 C :   -0.683982
   1 C :   -0.147938
   2 C :   -0.474016
   3 H :    0.206529
   4 H :    0.213494
   5 H :    0.212202
   6 H :    0.222393
   7 H :    0.225659
   8 H :    0.225659
Sum of atomic charges:    0.0000000

LOEWDIN ATOMIC CHARGES
----------------------
   0 C :   -0.361188
   1 C :   -0.145388
   2 C :   -0.281410
   3 H :    0.126818
   4 H :    0.131118
   5 H :    0.127125
   6 H :    0.132345
   7 H :    0.135290
   8 H :    0.135290

  Mayer bond orders larger than 0.100000
B(  0-C ,  1-C ) :   0.9981 B(  0-C ,  6-H ) :   0.9308 B(  0-C ,  7-H ) :   0.9163
B(  0-C ,  8-H ) :   0.9163 B(  1-C ,  2-C ) :   1.9447 B(  1-C ,  5-H ) :   0.9208
B(  2-C ,  3-H ) :   0.9307 B(  2-C ,  4-H ) :   0.9303

Dispersion correction           -0.002687925
FINAL SINGLE POINT ENERGY      -117.639384321551

DIPOLE MOMENT
-------------
                                X             Y             Z
Electronic contribution:      1.00831       0.51074       0.00000
Nuclear contribution   :     -1.15114      -0.48056       0.00000
                        -----------------------------------------
Total Dipole Moment    :     -0.14283       0.03018       0.00000
                        -----------------------------------------
Magnitude (a.u.)       :      0.14598
Magnitude (Debye)      :      0.37105

Rotational constants in cm-1:     1.550452     0.311144     0.272149
Rotational constants in MHz : 46481.368799  9327.854791  8158.822871

                             ****ORCA TERMINATED NORMALLY****
TOTAL RUN TIME: 0 days 0 hours 0 minutes 43 seconds 768 msec
