                         Program Version 5.0.3 -  RELEASE  -
|  1> ! PBEh-3c def2/J TightSCF DefGrid3
|  2>
|  3> %maxcore 60000
|  4>
|  5> %pal
|  6> nprocs 4
|  7> end
|  8>
|  9> *xyzfile 0 1 45.xyz
| 10>
| 11>                          ****END OF INPUT****

CARTESIAN COORDINATES (ANGSTROEM)
---------------------------------
  N      1.130751   -2.667378   -0.116917
  C     -0.111233   -2.069812   -0.151839
  C      0.030460   -0.698637   -0.124122
  C      1.441300   -0.441754   -0.069545
  C      2.193524    0.752151   -0.021829
  C      3.576252    0.651982    0.025333
  C      4.219189   -0.610930    0.026038
  C      3.496873   -1.787668   -0.019466
  C      2.099212   -1.691223   -0.067134
  H      1.297078   -3.656582   -0.132685
  H     -1.001513   -2.675076   -0.195136
  H      1.691622    1.708257   -0.021314
  H      5.299504   -0.625164    0.064022
  H      4.002379   -2.744670   -0.017769
  O      4.434357    1.718014    0.074701
  C      3.838116    3.003868    0.077517
  H      3.193939    3.140658    0.949022
  H      3.256703    3.173624   -0.831548
  H      4.657976    3.714399    0.119518
  C     -1.046592    0.342905   -0.139735
  C     -2.449587   -0.243197   -0.249193
  N     -3.432822    0.826630   -0.264591
  C     -4.775127    0.708057   -0.015508
  C     -5.229278   -0.596487    0.607260
  H     -0.880033    1.023798   -0.981654
  H     -0.994242    0.952650    0.766568
  H     -2.638467   -0.885494    0.609661
  H     -2.516521   -0.863044   -1.149695
  H     -3.195539    1.665511   -0.772219
  O     -5.551142    1.619730   -0.260320
  H     -4.736020   -0.763562    1.564785
  H     -4.999157   -1.442074   -0.041291
  H     -6.301962   -0.539489    0.759082

 Total Charge           Charge          ....    0
 Multiplicity           Mult            ....    1
 Number of Electrons    NEL             ....  124
 Basis Dimension        Dim             ....  287

ORBITAL ENERGIES
----------------

  NO   OCC          E(Eh)            E(eV)
   0   2.0000     -19.522254      -531.2275
   1   2.0000     -19.449272      -529.2416
   2   2.0000     -14.688144      -399.6847
   3   2.0000     -14.655374      -398.7930
   4   2.0000     -10.544312      -286.9253
   5   2.0000     -10.503494      -285.8146
   6   2.0000     -10.488321      -285.4017
   7   2.0000     -10.487301      -285.3740
   8   2.0000     -10.484088      -285.2865
   9   2.0000     -10.479266      -285.1553
  10   2.0000     -10.456696      -284.5412
  11   2.0000     -10.455357      -284.5047
  12   2.0000     -10.448762      -284.3253
  13   2.0000     -10.448164      -284.3090
  14   2.0000     -10.444818      -284.2179
  15   2.0000     -10.443248      -284.1752
  16   2.0000     -10.439691      -284.0784
  17   2.0000      -1.170663       -31.8553
  18   2.0000      -1.135260       -30.8920
  19   2.0000      -1.090646       -29.6780
  20   2.0000      -1.021307       -27.7912
  21   2.0000      -0.940672       -25.5970
  22   2.0000      -0.906047       -24.6548
  23   2.0000      -0.850851       -23.1528
  24   2.0000      -0.835798       -22.7432
  25   2.0000      -0.824969       -22.4485
  26   2.0000      -0.806022       -21.9330
  27   2.0000      -0.779159       -21.2020
  28   2.0000      -0.735464       -20.0130
  29   2.0000      -0.695755       -18.9325
  30   2.0000      -0.669709       -18.2237
  31   2.0000      -0.655327       -17.8324
  32   2.0000      -0.632826       -17.2201
  33   2.0000      -0.614653       -16.7256
  34   2.0000      -0.582154       -15.8412
  35   2.0000      -0.565860       -15.3978
  36   2.0000      -0.554254       -15.0820
  37   2.0000      -0.547675       -14.9030
  38   2.0000      -0.532403       -14.4874
  39   2.0000      -0.531147       -14.4532
  40   2.0000      -0.524415       -14.2701
  41   2.0000      -0.505284       -13.7495
  42   2.0000      -0.503423       -13.6988
  43   2.0000      -0.485557       -13.2127
  44   2.0000      -0.482355       -13.1256
  45   2.0000      -0.468529       -12.7493
  46   2.0000      -0.462470       -12.5845
  47   2.0000      -0.455630       -12.3983
  48   2.0000      -0.453620       -12.3436
  49   2.0000      -0.443931       -12.0800
  50   2.0000      -0.438678       -11.9370
  51   2.0000      -0.420790       -11.4503
  52   2.0000      -0.417937       -11.3727
  53   2.0000      -0.411669       -11.2021
  54   2.0000      -0.408210       -11.1080
  55   2.0000      -0.382183       -10.3997
  56   2.0000      -0.353232        -9.6119
  57   2.0000      -0.322580        -8.7779
  58   2.0000      -0.303787        -8.2665
  59   2.0000      -0.295448        -8.0396
  60   2.0000      -0.248343        -6.7577
  61   2.0000      -0.241868        -6.5816
  62   0.0000       0.003926         0.1068
  63   0.0000       0.056150         1.5279
  64   0.0000       0.065189         1.7739
  65   0.0000       0.089327         2.4307
  66   0.0000       0.120301         3.2736

MULLIKEN ATOMIC CHARGES
-----------------------
   0 N :   -0.706258
   1 C :   -0.057962
   2 C :    0.007081
   3 C :    0.094267
   4 C :   -0.486344
   5 C :    0.394142
   6 C :   -0.316876
   7 C :   -0.251593
   8 C :    0.349887
   9 H :    0.358756
  10 H :    0.236327
  11 H :    0.222465
  12 H :    0.235614
  13 H :    0.214709
  14 O :   -0.466616
  15 C :   -0.405123
  16 H :    0.205415
  17 H :    0.204649
  18 H :    0.241518
  19 C :   -0.524249
  20 C :   -0.238390
  21 N :   -0.621345
  22 C :    0.497710
  23 C :   -0.780999
  24 H :    0.221900
  25 H :    0.242683
  26 H :    0.225281
  27 H :    0.216397
  28 H :    0.357997
  29 O :   -0.416217
  30 H :    0.239131
  31 H :    0.233155
  32 H :    0.272883
Sum of atomic charges:   -0.0000000

LOEWDIN ATOMIC CHARGES
----------------------
   0 N :   -0.157779
   1 C :   -0.092606
   2 C :   -0.105803
   3 C :   -0.050085
   4 C :   -0.195382
   5 C :    0.060311
   6 C :   -0.155480
   7 C :   -0.146289
   8 C :    0.004740
   9 H :    0.262018
  10 H :    0.133729
  11 H :    0.140382
  12 H :    0.146726
  13 H :    0.137893
  14 O :   -0.190403
  15 C :   -0.179955
  16 H :    0.113239
  17 H :    0.112891
  18 H :    0.130523
  19 C :   -0.230762
  20 C :   -0.141450
  21 N :   -0.251673
  22 C :    0.107804
  23 C :   -0.397973
  24 H :    0.131920
  25 H :    0.141022
  26 H :    0.128140
  27 H :    0.114518
  28 H :    0.257746
  29 O :   -0.271521
  30 H :    0.145011
  31 H :    0.142222
  32 H :    0.156327

  Mayer bond orders larger than 0.100000
B(  0-N ,  1-C ) :   1.1311 B(  0-N ,  8-C ) :   1.0052 B(  0-N ,  9-H ) :   0.8338
B(  1-C ,  2-C ) :   1.5356 B(  1-C , 10-H ) :   0.9125 B(  2-C ,  3-C ) :   1.2675
B(  2-C , 19-C ) :   0.9744 B(  3-C ,  4-C ) :   1.2523 B(  3-C ,  8-C ) :   1.2510
B(  4-C ,  5-C ) :   1.4188 B(  4-C , 11-H ) :   0.9150 B(  5-C ,  6-C ) :   1.2998
B(  5-C , 14-O ) :   1.0268 B(  6-C ,  7-C ) :   1.5289 B(  6-C , 12-H ) :   0.9083
B(  7-C ,  8-C ) :   1.2721 B(  7-C , 13-H ) :   0.9197 B( 14-O , 15-C ) :   0.9560
B( 15-C , 16-H ) :   0.9067 B( 15-C , 17-H ) :   0.9069 B( 15-C , 18-H ) :   0.9230
B( 19-C , 20-C ) :   1.0060 B( 19-C , 24-H ) :   0.9047 B( 19-C , 25-H ) :   0.8978
B( 20-C , 21-N ) :   0.9475 B( 20-C , 26-H ) :   0.8983 B( 20-C , 27-H ) :   0.8970
B( 21-N , 22-C ) :   1.1501 B( 21-N , 28-H ) :   0.8197 B( 22-C , 23-C ) :   0.9287
B( 22-C , 29-O ) :   2.0387 B( 23-C , 30-H ) :   0.9095 B( 23-C , 31-H ) :   0.9104
B( 23-C , 32-H ) :   0.9156

Dispersion correction           -0.020709091
FINAL SINGLE POINT ENERGY      -763.321615872283

DIPOLE MOMENT
-------------
                                X             Y             Z
Electronic contribution:      6.71154      -2.75920      -1.18998
Nuclear contribution   :     -5.82330       1.36932       1.23068
                        -----------------------------------------
Total Dipole Moment    :      0.88823      -1.38988       0.04069
                        -----------------------------------------
Magnitude (a.u.)       :      1.64996
Magnitude (Debye)      :      4.19387

Rotational constants in cm-1:     0.030160     0.006189     0.005188
Rotational constants in MHz :   904.159939   185.540798   155.527495

                             ****ORCA TERMINATED NORMALLY****
TOTAL RUN TIME: 0 days 0 hours 4 minutes 5 seconds 282 msec
