                         Program Version 5.0.3 -  RELEASE  -
|  1> ! PBEh-3c def2/J TightSCF DefGrid3
|  2>
|  3> %maxcore 60000
|  4>
|  5> %pal
|  6> nprocs 4
|  7> end
|  8>
|  9> *xyzfile 0 1 01.xyz
| 10>
| 11>                          ****END OF INPUT****

CARTESIAN COORDINATES (ANGSTROEM)
---------------------------------
  Na    -0.981773    1.898003   -1.279359
  H      2.329322    0.012377   -2.621850
  O     -1.580684    2.520217    0.672284
  H      0.423241    0.746687   -2.670521
  F     -2.225970    0.975145    2.407958
  H     -1.875172   -1.687206    0.773869
  H      1.428949    0.565259   -0.916718
  O      1.974435   -1.095405    1.180917
  N     -0.927684    0.190247    0.557347
  H      2.866848   -0.835475    0.928145
  H     -1.182515   -1.131680    2.174507
  Cl     0.537463   -1.703697   -1.778305
  B      1.281240    0.140901   -2.073647
  B     -1.600899    1.342353    1.225918
  N     -1.060677   -1.213060    1.163040
  Al     0.593877   -0.724666    0.256413

 Total Charge           Charge          ....    0
 Multiplicity           Mult            ....    1
 Number of Electrons    NEL             ....   96
 Basis Dimension        Dim             ....  168

ORBITAL ENERGIES
----------------

  NO   OCC          E(Eh)            E(eV)
   0   2.0000    -102.339164     -2784.7902
   1   2.0000     -56.652780     -1541.6005
   2   2.0000     -38.958683     -1060.1197
   3   2.0000     -25.034676      -681.2282
   4   2.0000     -19.479670      -530.0688
   5   2.0000     -19.387014      -527.5475
   6   2.0000     -14.706783      -400.1919
   7   2.0000     -14.633514      -398.1982
   8   2.0000      -9.805587      -266.8236
   9   2.0000      -7.489995      -203.8131
  10   2.0000      -7.488228      -203.7650
  11   2.0000      -7.485255      -203.6841
  12   2.0000      -6.997654      -190.4158
  13   2.0000      -6.970897      -189.6878
  14   2.0000      -4.381901      -119.2376
  15   2.0000      -2.873821       -78.2007
  16   2.0000      -2.872402       -78.1620
  17   2.0000      -2.869400       -78.0803
  18   2.0000      -2.397735       -65.2457
  19   2.0000      -1.273422       -34.6516
  20   2.0000      -1.272866       -34.6364
  21   2.0000      -1.270374       -34.5686
  22   2.0000      -1.257768       -34.2256
  23   2.0000      -1.076383       -29.2899
  24   2.0000      -1.056658       -28.7531
  25   2.0000      -0.980366       -26.6771
  26   2.0000      -0.951626       -25.8951
  27   2.0000      -0.831534       -22.6272
  28   2.0000      -0.638293       -17.3688
  29   2.0000      -0.611330       -16.6351
  30   2.0000      -0.600170       -16.3314
  31   2.0000      -0.559136       -15.2149
  32   2.0000      -0.537046       -14.6138
  33   2.0000      -0.507863       -13.8197
  34   2.0000      -0.471819       -12.8389
  35   2.0000      -0.462686       -12.5903
  36   2.0000      -0.458677       -12.4812
  37   2.0000      -0.448442       -12.2027
  38   2.0000      -0.430504       -11.7146
  39   2.0000      -0.422311       -11.4917
  40   2.0000      -0.396486       -10.7889
  41   2.0000      -0.387758       -10.5514
  42   2.0000      -0.384061       -10.4508
  43   2.0000      -0.373611       -10.1665
  44   2.0000      -0.361938        -9.8488
  45   2.0000      -0.339901        -9.2492
  46   2.0000      -0.286104        -7.7853
  47   2.0000      -0.281599        -7.6627
  48   0.0000      -0.017840        -0.4854
  49   0.0000       0.015581         0.4240
  50   0.0000       0.035493         0.9658
  51   0.0000       0.067306         1.8315
  52   0.0000       0.075977         2.0674

MULLIKEN ATOMIC CHARGES
-----------------------
   0 Na:    0.627532
   1 H :    0.094659
   2 O :   -0.610959
   3 H :    0.015557
   4 F :   -0.367041
   5 H :    0.385958
   6 H :   -0.022311
   7 O :   -0.777055
   8 N :   -0.585137
   9 H :    0.439852
  10 H :    0.405868
  11 Cl:   -0.248501
  12 B :   -0.275911
  13 B :    0.551759
  14 N :   -0.676290
  15 Al:    1.042021
Sum of atomic charges:   -0.0000000

LOEWDIN ATOMIC CHARGES
----------------------
   0 Na:    0.229766
   1 H :    0.034712
   2 O :   -0.322486
   3 H :    0.054366
   4 F :   -0.214284
   5 H :    0.259158
   6 H :    0.057731
   7 O :   -0.468736
   8 N :   -0.214773
   9 H :    0.330420
  10 H :    0.273112
  11 Cl:    0.132183
  12 B :   -0.291905
  13 B :    0.098468
  14 N :   -0.232967
  15 Al:    0.275233

  Mayer bond orders larger than 0.100000
B(  0-Na,  2-O ) :   0.3755 B(  0-Na,  8-N ) :   0.1503 B(  1-H , 12-B ) :   0.9784
B(  2-O , 13-B ) :   1.6340 B(  3-H , 12-B ) :   0.9135 B(  4-F , 13-B ) :   0.9833
B(  5-H , 14-N ) :   0.8112 B(  6-H , 12-B ) :   0.7979 B(  6-H , 15-Al) :   0.1465
B(  7-O ,  9-H ) :   0.7567 B(  7-O , 15-Al) :   1.1121 B(  8-N , 13-B ) :   0.8683
B(  8-N , 14-N ) :   0.8725 B(  8-N , 15-Al) :   0.7833 B( 10-H , 14-N ) :   0.7877
B( 11-Cl, 12-B ) :   0.6060 B( 11-Cl, 15-Al) :   0.5548 B( 12-B , 15-Al) :   0.1092
B( 14-N , 15-Al) :   0.4807

Dispersion correction           -0.008785982
FINAL SINGLE POINT ENERGY     -1276.403354053195

DIPOLE MOMENT
-------------
                                X             Y             Z
Electronic contribution:     -5.36082       2.08888      -1.54277
Nuclear contribution   :      5.70141      -2.99241      -0.41633
                        -----------------------------------------
Total Dipole Moment    :      0.34059      -0.90353      -1.95910
                        -----------------------------------------
Magnitude (a.u.)       :      2.18414
Magnitude (Debye)      :      5.55164

Rotational constants in cm-1:     0.040815     0.021298     0.016838
Rotational constants in MHz :  1223.589273   638.497293   504.804839

                             ****ORCA TERMINATED NORMALLY****
TOTAL RUN TIME: 0 days 0 hours 2 minutes 15 seconds 706 msec
