                         Program Version 5.0.3 -  RELEASE  -
|  1> ! PBEh-3c def2/J TightSCF DefGrid3
|  2>
|  3> %maxcore 60000
|  4>
|  5> %pal
|  6> nprocs 4
|  7> end
|  8>
|  9> *xyzfile 0 2 seh.xyz
| 10>
| 11>                          ****END OF INPUT****

CARTESIAN COORDINATES (ANGSTROEM)
---------------------------------
  Se     0.000000    0.000000    0.058191
  H      0.000000    0.000000    1.529341

 Total Charge           Charge          ....    0
 Multiplicity           Mult            ....    2
 Number of Electrons    NEL             ....   35
 Basis Dimension        Dim             ....   34

ORBITAL ENERGIES
----------------
                 SPIN UP ORBITALS
  NO   OCC          E(Eh)            E(eV)
   0   1.0000    -455.527782    -12395.5411
   1   1.0000     -58.757445     -1598.8714
   2   1.0000     -52.702820     -1434.1166
   3   1.0000     -52.698973     -1434.0119
   4   1.0000     -52.697621     -1433.9752
   5   1.0000      -8.144193      -221.6148
   6   1.0000      -6.039180      -164.3344
   7   1.0000      -6.030681      -164.1032
   8   1.0000      -6.020271      -163.8199
   9   1.0000      -2.291783       -62.3626
  10   1.0000      -2.290582       -62.3299
  11   1.0000      -2.281471       -62.0820
  12   1.0000      -2.276414       -61.9444
  13   1.0000      -2.275008       -61.9061
  14   1.0000      -0.784952       -21.3596
  15   1.0000      -0.441842       -12.0231
  16   1.0000      -0.347626        -9.4594
  17   1.0000      -0.299405        -8.1472
  18   0.0000       0.051481         1.4009
  19   0.0000       0.267766         7.2863
  20   0.0000       0.464717        12.6456
  21   0.0000       0.477624        12.9968
  22   0.0000       0.495337        13.4788

                 SPIN DOWN ORBITALS
  NO   OCC          E(Eh)            E(eV)
   0   1.0000    -455.525232    -12395.4717
   1   1.0000     -58.756222     -1598.8381
   2   1.0000     -52.698092     -1433.9880
   3   1.0000     -52.697135     -1433.9620
   4   1.0000     -52.696786     -1433.9525
   5   1.0000      -8.140078      -221.5028
   6   1.0000      -6.029116      -164.0606
   7   1.0000      -6.026394      -163.9865
   8   1.0000      -6.018764      -163.7789
   9   1.0000      -2.285786       -62.1994
  10   1.0000      -2.284920       -62.1758
  11   1.0000      -2.275906       -61.9306
  12   1.0000      -2.275601       -61.9223
  13   1.0000      -2.272920       -61.8493
  14   1.0000      -0.736376       -20.0378
  15   1.0000      -0.428447       -11.6586
  16   1.0000      -0.283762        -7.7216
  17   0.0000      -0.135097        -3.6762
  18   0.0000       0.062710         1.7064
  19   0.0000       0.287011         7.8100
  20   0.0000       0.491570        13.3763
  21   0.0000       0.506680        13.7875

MULLIKEN ATOMIC CHARGES AND SPIN POPULATIONS
--------------------------------------------
   0 Se:   -0.153577    1.034942
   1 H :    0.153577   -0.034942
Sum of atomic charges         :   -0.0000000

LOEWDIN ATOMIC CHARGES AND SPIN POPULATIONS
-------------------------------------------
   0 Se:   -0.101209    1.021427
   1 H :    0.101209   -0.021427

  Mayer bond orders larger than 0.100000
B(  0-Se,  1-H ) :   0.9498

Dispersion correction           -0.000193915
FINAL SINGLE POINT ENERGY     -2401.011934165238

DIPOLE MOMENT
-------------
                                X             Y             Z
Electronic contribution:      0.00000       0.00000      -1.25257
Nuclear contribution   :      0.00000       0.00000       1.55357
                        -----------------------------------------
Total Dipole Moment    :      0.00000       0.00000       0.30100
                        -----------------------------------------
Magnitude (a.u.)       :      0.30100
Magnitude (Debye)      :      0.76507

Rotational constants in cm-1:     0.000000     7.825848     7.825848
Rotational constants in MHz :     0.000000 234613.034277 234613.034277

                             ****ORCA TERMINATED NORMALLY****
TOTAL RUN TIME: 0 days 0 hours 1 minutes 44 seconds 823 msec
