                         Program Version 5.0.3 -  RELEASE  -
|  1> ! PBEh-3c def2/J TightSCF DefGrid3
|  2>
|  3> %maxcore 60000
|  4>
|  5> %pal
|  6> nprocs 4
|  7> end
|  8>
|  9> *xyzfile 0 1 215.xyz
| 10>
| 11>                          ****END OF INPUT****

CARTESIAN COORDINATES (ANGSTROEM)
---------------------------------
  O      3.393081   -2.138865    0.346540
  C      3.286081   -0.973865    0.039540
  O      3.455081   -0.544865   -1.212460
  H      3.405081    0.442135   -1.218459
  C      2.996081    0.114135    1.072540
  H      3.904081    0.711135    1.189540
  H      2.776081   -0.377865    2.014541
  N      1.890081    0.999135    0.746541
  H      1.047081    0.999135    1.312541
  C      2.001081    1.953135   -0.189459
  O      2.986081    2.062135   -0.932459
  C      0.825081    2.913135   -0.283459
  H      1.038081    3.605135   -1.091460
  H      0.739081    3.462135    0.655540
  N     -0.430919    2.245135   -0.545459
  H     -0.851919    2.236135   -1.464460
  C     -1.161919    1.684135    0.433540
  O     -0.783919    1.623135    1.608540
  C     -2.512919    1.138135   -0.017459
  N     -2.567919    1.084135   -1.477459
  H     -3.529919    1.062135   -1.789459
  H     -2.137919    0.220135   -1.794459
  H     -3.248919    1.876135    0.313540
  C     -2.808919   -0.192865    0.701541
  H     -2.808919   -0.008865    1.775540
  H     -3.810919   -0.511865    0.410540
  C     -1.797919   -1.246865    0.356540
  C     -1.911919   -2.006865   -0.814459
  H     -2.797919   -1.906865   -1.431460
  C     -0.916919   -2.913865   -1.179460
  H     -1.019919   -3.485865   -2.091460
  C      0.201081   -3.086865   -0.367459
  H      0.987081   -3.772865   -0.650459
  C      0.302081   -2.372865    0.825540
  H      1.158081   -2.530865    1.465540
  C     -0.683919   -1.457865    1.179541
  H     -0.606919   -0.899865    2.103541

 Total Charge           Charge          ....    0
 Multiplicity           Mult            ....    1
 Number of Electrons    NEL             ....  148
 Basis Dimension        Dim             ....  334

ORBITAL ENERGIES
----------------

  NO   OCC          E(Eh)            E(eV)
   0   2.0000     -19.513864      -530.9992
   1   2.0000     -19.491921      -530.4021
   2   2.0000     -19.484530      -530.2010
   3   2.0000     -19.469072      -529.7804
   4   2.0000     -14.684417      -399.5833
   5   2.0000     -14.682329      -399.5265
   6   2.0000     -14.647750      -398.5855
   7   2.0000     -10.573047      -287.7072
   8   2.0000     -10.570633      -287.6416
   9   2.0000     -10.567875      -287.5665
  10   2.0000     -10.504494      -285.8418
  11   2.0000     -10.503900      -285.8257
  12   2.0000     -10.497546      -285.6528
  13   2.0000     -10.463583      -284.7286
  14   2.0000     -10.457424      -284.5610
  15   2.0000     -10.454589      -284.4838
  16   2.0000     -10.451505      -284.3999
  17   2.0000     -10.448064      -284.3063
  18   2.0000     -10.445856      -284.2462
  19   2.0000     -10.445124      -284.2263
  20   2.0000      -1.200001       -32.6537
  21   2.0000      -1.173401       -31.9299
  22   2.0000      -1.164839       -31.6969
  23   2.0000      -1.109801       -30.1992
  24   2.0000      -1.055342       -28.7173
  25   2.0000      -1.044277       -28.4162
  26   2.0000      -1.015915       -27.6444
  27   2.0000      -0.959380       -26.1060
  28   2.0000      -0.881708       -23.9925
  29   2.0000      -0.867482       -23.6054
  30   2.0000      -0.838607       -22.8197
  31   2.0000      -0.825020       -22.4499
  32   2.0000      -0.807250       -21.9664
  33   2.0000      -0.740571       -20.1519
  34   2.0000      -0.692597       -18.8465
  35   2.0000      -0.686741       -18.6872
  36   2.0000      -0.672596       -18.3023
  37   2.0000      -0.663840       -18.0640
  38   2.0000      -0.659813       -17.9544
  39   2.0000      -0.630170       -17.1478
  40   2.0000      -0.615118       -16.7382
  41   2.0000      -0.595997       -16.2179
  42   2.0000      -0.578046       -15.7294
  43   2.0000      -0.574202       -15.6248
  44   2.0000      -0.569240       -15.4898
  45   2.0000      -0.559681       -15.2297
  46   2.0000      -0.529777       -14.4160
  47   2.0000      -0.528218       -14.3736
  48   2.0000      -0.524624       -14.2758
  49   2.0000      -0.505849       -13.7649
  50   2.0000      -0.503234       -13.6937
  51   2.0000      -0.501893       -13.6572
  52   2.0000      -0.491037       -13.3618
  53   2.0000      -0.489138       -13.3101
  54   2.0000      -0.480591       -13.0775
  55   2.0000      -0.478256       -13.0140
  56   2.0000      -0.463649       -12.6165
  57   2.0000      -0.459357       -12.4997
  58   2.0000      -0.449881       -12.2419
  59   2.0000      -0.442471       -12.0403
  60   2.0000      -0.437705       -11.9106
  61   2.0000      -0.432450       -11.7676
  62   2.0000      -0.417159       -11.3515
  63   2.0000      -0.395609       -10.7651
  64   2.0000      -0.394518       -10.7354
  65   2.0000      -0.359779        -9.7901
  66   2.0000      -0.354373        -9.6430
  67   2.0000      -0.350211        -9.5297
  68   2.0000      -0.345833        -9.4106
  69   2.0000      -0.323301        -8.7975
  70   2.0000      -0.320520        -8.7218
  71   2.0000      -0.305692        -8.3183
  72   2.0000      -0.294369        -8.0102
  73   2.0000      -0.286420        -7.7939
  74   0.0000       0.010200         0.2775
  75   0.0000       0.013025         0.3544
  76   0.0000       0.018296         0.4979
  77   0.0000       0.037313         1.0153
  78   0.0000       0.051692         1.4066

MULLIKEN ATOMIC CHARGES
-----------------------
   0 O :   -0.400929
   1 C :    0.556797
   2 O :   -0.587823
   3 H :    0.476020
   4 C :   -0.451400
   5 H :    0.271784
   6 H :    0.268170
   7 N :   -0.628907
   8 H :    0.427004
   9 C :    0.558699
  10 O :   -0.486338
  11 C :   -0.407596
  12 H :    0.277607
  13 H :    0.270836
  14 N :   -0.623660
  15 H :    0.404089
  16 C :    0.584145
  17 O :   -0.483051
  18 C :   -0.221632
  19 N :   -0.780950
  20 H :    0.340219
  21 H :    0.355544
  22 H :    0.267435
  23 C :   -0.509627
  24 H :    0.262418
  25 H :    0.234359
  26 C :    0.130179
  27 C :   -0.318917
  28 H :    0.209497
  29 C :   -0.209361
  30 H :    0.220707
  31 C :   -0.227546
  32 H :    0.245041
  33 C :   -0.217630
  34 H :    0.248385
  35 C :   -0.288374
  36 H :    0.234806
Sum of atomic charges:    0.0000000

LOEWDIN ATOMIC CHARGES
----------------------
   0 O :   -0.225977
   1 C :    0.124716
   2 O :   -0.296607
   3 H :    0.327637
   4 C :   -0.189195
   5 H :    0.152568
   6 H :    0.152882
   7 N :   -0.218338
   8 H :    0.278486
   9 C :    0.113946
  10 O :   -0.301522
  11 C :   -0.161795
  12 H :    0.154274
  13 H :    0.155464
  14 N :   -0.215937
  15 H :    0.276752
  16 C :    0.117083
  17 O :   -0.310549
  18 C :   -0.102532
  19 N :   -0.462097
  20 H :    0.235059
  21 H :    0.238597
  22 H :    0.148198
  23 C :   -0.228976
  24 H :    0.151903
  25 H :    0.133705
  26 C :   -0.060108
  27 C :   -0.161243
  28 H :    0.127866
  29 C :   -0.132384
  30 H :    0.137276
  31 C :   -0.123758
  32 H :    0.148073
  33 C :   -0.129084
  34 H :    0.146732
  35 C :   -0.141802
  36 H :    0.140687

  Mayer bond orders larger than 0.100000
B(  0-O ,  1-C ) :   2.0181 B(  1-C ,  2-O ) :   1.2257 B(  1-C ,  4-C ) :   0.9064
B(  2-O ,  3-H ) :   0.6284 B(  3-H , 10-O ) :   0.1437 B(  4-C ,  5-H ) :   0.8851
B(  4-C ,  6-H ) :   0.9034 B(  4-C ,  7-N ) :   0.9321 B(  7-N ,  8-H ) :   0.7146
B(  7-N ,  9-C ) :   1.2457 B(  9-C , 10-O ) :   1.8055 B(  9-C , 11-C ) :   0.8978
B( 11-C , 12-H ) :   0.9063 B( 11-C , 13-H ) :   0.8888 B( 11-C , 14-N ) :   0.9483
B( 14-N , 15-H ) :   0.7580 B( 14-N , 16-C ) :   1.2077 B( 16-C , 17-O ) :   1.8288
B( 16-C , 18-C ) :   0.9096 B( 18-C , 19-N ) :   1.0355 B( 18-C , 22-H ) :   0.8900
B( 18-C , 23-C ) :   0.9424 B( 19-N , 20-H ) :   0.8511 B( 19-N , 21-H ) :   0.8217
B( 23-C , 24-H ) :   0.8996 B( 23-C , 25-H ) :   0.9186 B( 23-C , 26-C ) :   0.9577
B( 26-C , 27-C ) :   1.3841 B( 26-C , 35-C ) :   1.4093 B( 27-C , 28-H ) :   0.9224
B( 27-C , 29-C ) :   1.4188 B( 29-C , 30-H ) :   0.9196 B( 29-C , 31-C ) :   1.4262
B( 31-C , 32-H ) :   0.9098 B( 31-C , 33-C ) :   1.4254 B( 33-C , 34-H ) :   0.8995
B( 33-C , 35-C ) :   1.4121 B( 35-C , 36-H ) :   0.9065

Dispersion correction           -0.027922234
FINAL SINGLE POINT ENERGY      -968.746830421098

DIPOLE MOMENT
-------------
                                X             Y             Z
Electronic contribution:      8.67511       0.26340       0.16573
Nuclear contribution   :    -10.85413       1.07050      -0.27665
                        -----------------------------------------
Total Dipole Moment    :     -2.17902       1.33390      -0.11091
                        -----------------------------------------
Magnitude (a.u.)       :      2.55729
Magnitude (Debye)      :      6.50011

Rotational constants in cm-1:     0.014223     0.010839     0.007428
Rotational constants in MHz :   426.406218   324.956166   222.673503

                             ****ORCA TERMINATED NORMALLY****
TOTAL RUN TIME: 0 days 0 hours 6 minutes 21 seconds 190 msec
