                         Program Version 5.0.3 -  RELEASE  -
|  1> ! PBEh-3c def2/J TightSCF DefGrid3
|  2>
|  3> %maxcore 60000
|  4>
|  5> %pal
|  6> nprocs 4
|  7> end
|  8>
|  9> *xyzfile 0 1 03A.xyz
| 10>
| 11>                          ****END OF INPUT****

CARTESIAN COORDINATES (ANGSTROEM)
---------------------------------
  O     -0.200962   -0.342134    0.000000
  H     -0.559640    0.546129    0.000000
  H      0.760602   -0.203995    0.000000

 Total Charge           Charge          ....    0
 Multiplicity           Mult            ....    1
 Number of Electrons    NEL             ....   10
 Basis Dimension        Dim             ....   19

ORBITAL ENERGIES
----------------

  NO   OCC          E(Eh)            E(eV)
   0   2.0000     -19.475327      -529.9506
   1   2.0000      -1.101101       -29.9625
   2   2.0000      -0.578816       -15.7504
   3   2.0000      -0.435246       -11.8437
   4   2.0000      -0.356313        -9.6958
   5   0.0000       0.129791         3.5318
   6   0.0000       0.207577         5.6484
   7   0.0000       0.870059        23.6755
   8   0.0000       0.978495        26.6262
   9   0.0000       0.991556        26.9816

MULLIKEN ATOMIC CHARGES
-----------------------
   0 O :   -0.814860
   1 H :    0.408492
   2 H :    0.406367
Sum of atomic charges:   -0.0000000

LOEWDIN ATOMIC CHARGES
----------------------
   0 O :   -0.597373
   1 H :    0.297777
   2 H :    0.299596

  Mayer bond orders larger than 0.100000
B(  0-O ,  1-H ) :   0.8153 B(  0-O ,  2-H ) :   0.8176

Dispersion correction           -0.000209587
FINAL SINGLE POINT ENERGY       -76.257837642514

DIPOLE MOMENT
-------------
                                X             Y             Z
Electronic contribution:     -0.07279      -0.11492      -0.00000
Nuclear contribution   :      0.50182       0.85434       0.00000
                        -----------------------------------------
Total Dipole Moment    :      0.42903       0.73941      -0.00000
                        -----------------------------------------
Magnitude (a.u.)       :      0.85487
Magnitude (Debye)      :      2.17290

Rotational constants in cm-1:    26.591627    14.502751     9.384538
Rotational constants in MHz : 797196.930802 434781.527603 281341.363568

                             ****ORCA TERMINATED NORMALLY****
TOTAL RUN TIME: 0 days 0 hours 0 minutes 46 seconds 379 msec
