                         Program Version 5.0.3 -  RELEASE  -
|  1> ! PBEh-3c def2/J TightSCF DefGrid3
|  2>
|  3> %maxcore 60000
|  4>
|  5> %pal
|  6> nprocs 4
|  7> end
|  8>
|  9> *xyzfile 0 1 C4H9CO2H.xyz
| 10>
| 11>                          ****END OF INPUT****

CARTESIAN COORDINATES (ANGSTROEM)
---------------------------------
  C     -1.976899   -1.060025   -1.359737
  H     -1.627217   -2.101864   -1.306095
  H     -1.642079   -0.647027   -2.323045
  H     -3.075793   -1.077587   -1.368241
  C     -1.441631   -0.234583   -0.187191
  H     -1.833622    0.794792   -0.249629
  H     -1.821706   -0.648811    0.761633
  C      0.089386   -0.187824   -0.140607
  H      0.486796   -1.213107   -0.058557
  H      0.477643    0.225978   -1.084395
  C      0.616095    0.655045    1.038065
  H      0.252555    0.249764    1.991233
  H      0.252808    1.689694    0.937508
  O      2.811834    0.076284    1.911270
  O      2.667880    1.440746    0.111425
  H      3.639146    1.366831    0.220838
  C      2.124804    0.671693    1.105526

 Total Charge           Charge          ....    0
 Multiplicity           Mult            ....    1
 Number of Electrons    NEL             ....   56
 Basis Dimension        Dim             ....  125

ORBITAL ENERGIES
----------------

  NO   OCC          E(Eh)            E(eV)
   0   2.0000     -19.540856      -531.7337
   1   2.0000     -19.485885      -530.2379
   2   2.0000     -10.583304      -287.9863
   3   2.0000     -10.456257      -284.5292
   4   2.0000     -10.450220      -284.3650
   5   2.0000     -10.444285      -284.2035
   6   2.0000     -10.432180      -283.8740
   7   2.0000      -1.211077       -32.9551
   8   2.0000      -1.118202       -30.4278
   9   2.0000      -0.903865       -24.5954
  10   2.0000      -0.839921       -22.8554
  11   2.0000      -0.747063       -20.3286
  12   2.0000      -0.670526       -18.2459
  13   2.0000      -0.659259       -17.9393
  14   2.0000      -0.563168       -15.3246
  15   2.0000      -0.546185       -14.8624
  16   2.0000      -0.532710       -14.4958
  17   2.0000      -0.517813       -14.0904
  18   2.0000      -0.479894       -13.0586
  19   2.0000      -0.473167       -12.8755
  20   2.0000      -0.465630       -12.6704
  21   2.0000      -0.435695       -11.8559
  22   2.0000      -0.415304       -11.3010
  23   2.0000      -0.398393       -10.8408
  24   2.0000      -0.392204       -10.6724
  25   2.0000      -0.382431       -10.4065
  26   2.0000      -0.371632       -10.1126
  27   2.0000      -0.330681        -8.9983
  28   0.0000       0.040181         1.0934
  29   0.0000       0.122345         3.3292
  30   0.0000       0.136441         3.7128
  31   0.0000       0.164894         4.4870
  32   0.0000       0.175974         4.7885

MULLIKEN ATOMIC CHARGES
-----------------------
   0 C :   -0.637094
   1 H :    0.212131
   2 H :    0.211528
   3 H :    0.221915
   4 C :   -0.409521
   5 H :    0.208023
   6 H :    0.210276
   7 C :   -0.416823
   8 H :    0.222651
   9 H :    0.228981
  10 C :   -0.517922
  11 H :    0.250796
  12 H :    0.241991
  13 O :   -0.390891
  14 O :   -0.595594
  15 H :    0.439988
  16 C :    0.519568
Sum of atomic charges:   -0.0000000

LOEWDIN ATOMIC CHARGES
----------------------
   0 C :   -0.360818
   1 H :    0.125473
   2 H :    0.125168
   3 H :    0.128932
   4 C :   -0.244748
   5 H :    0.121227
   6 H :    0.122145
   7 C :   -0.232756
   8 H :    0.128265
   9 H :    0.131040
  10 C :   -0.264889
  11 H :    0.146575
  12 H :    0.146118
  13 O :   -0.233665
  14 O :   -0.317257
  15 H :    0.332590
  16 C :    0.146601

  Mayer bond orders larger than 0.100000
B(  0-C ,  1-H ) :   0.9279 B(  0-C ,  2-H ) :   0.9281 B(  0-C ,  3-H ) :   0.9301
B(  0-C ,  4-C ) :   0.9949 B(  4-C ,  5-H ) :   0.9192 B(  4-C ,  6-H ) :   0.9185
B(  4-C ,  7-C ) :   0.9821 B(  7-C ,  8-H ) :   0.9133 B(  7-C ,  9-H ) :   0.9098
B(  7-C , 10-C ) :   0.9627 B( 10-C , 11-H ) :   0.9109 B( 10-C , 12-H ) :   0.8992
B( 10-C , 16-C ) :   0.9286 B( 13-O , 16-C ) :   2.0668 B( 14-O , 15-H ) :   0.7626
B( 14-O , 16-C ) :   1.1193

Dispersion correction           -0.007293906
FINAL SINGLE POINT ENERGY      -346.283529322242

DIPOLE MOMENT
-------------
                                X             Y             Z
Electronic contribution:     11.07388       3.43509       5.01581
Nuclear contribution   :    -11.48121      -3.19249      -5.55212
                        -----------------------------------------
Total Dipole Moment    :     -0.40734       0.24260      -0.53631
                        -----------------------------------------
Magnitude (a.u.)       :      0.71582
Magnitude (Debye)      :      1.81948

Rotational constants in cm-1:     0.226997     0.035070     0.033247
Rotational constants in MHz :  6805.213605  1051.371856   996.714124

                             ****ORCA TERMINATED NORMALLY****
TOTAL RUN TIME: 0 days 0 hours 1 minutes 42 seconds 853 msec
