                         Program Version 5.0.3 -  RELEASE  -
|  1> ! PBEh-3c def2/J TightSCF DefGrid3
|  2>
|  3> %maxcore 60000
|  4>
|  5> %pal
|  6> nprocs 4
|  7> end
|  8>
|  9> *xyzfile 0 2 hcnh.xyz
| 10>
| 11>                          ****END OF INPUT****

CARTESIAN COORDINATES (ANGSTROEM)
---------------------------------
  C      0.646925    0.119368    0.000000
  H      1.423652   -0.649696    0.000000
  N     -0.571033   -0.105768    0.000000
  H     -1.197361    0.697059    0.000000

 Total Charge           Charge          ....    0
 Multiplicity           Mult            ....    2
 Number of Electrons    NEL             ....   15
 Basis Dimension        Dim             ....   34

ORBITAL ENERGIES
----------------
                 SPIN UP ORBITALS
  NO   OCC          E(Eh)            E(eV)
   0   1.0000     -14.658001      -398.8645
   1   1.0000     -10.502292      -285.7819
   2   1.0000      -1.023916       -27.8622
   3   1.0000      -0.699654       -19.0385
   4   1.0000      -0.544729       -14.8228
   5   1.0000      -0.468229       -12.7412
   6   1.0000      -0.398379       -10.8405
   7   1.0000      -0.258092        -7.0230
   8   0.0000       0.023038         0.6269
   9   0.0000       0.149112         4.0575
  10   0.0000       0.209177         5.6920
  11   0.0000       0.310909         8.4603
  12   0.0000       0.531083        14.4515

                 SPIN DOWN ORBITALS
  NO   OCC          E(Eh)            E(eV)
   0   1.0000     -14.653427      -398.7400
   1   1.0000     -10.488742      -285.4132
   2   1.0000      -1.009336       -27.4654
   3   1.0000      -0.673620       -18.3301
   4   1.0000      -0.523894       -14.2559
   5   1.0000      -0.393381       -10.7045
   6   1.0000      -0.391811       -10.6617
   7   0.0000      -0.029226        -0.7953
   8   0.0000       0.041879         1.1396
   9   0.0000       0.158438         4.3113
  10   0.0000       0.226863         6.1733
  11   0.0000       0.328203         8.9309

MULLIKEN ATOMIC CHARGES AND SPIN POPULATIONS
--------------------------------------------
   0 C :   -0.128096    0.760547
   1 H :    0.222102    0.067182
   2 N :   -0.441701    0.130938
   3 H :    0.347695    0.041334
Sum of atomic charges         :    0.0000000

LOEWDIN ATOMIC CHARGES AND SPIN POPULATIONS
-------------------------------------------
   0 C :   -0.124380    0.732506
   1 H :    0.129249    0.049735
   2 N :   -0.252488    0.182373
   3 H :    0.247619    0.035386

  Mayer bond orders larger than 0.100000
B(  0-C ,  1-H ) :   0.8927 B(  0-C ,  2-N ) :   2.2583 B(  2-N ,  3-H ) :   0.8177

Dispersion correction           -0.000683095
FINAL SINGLE POINT ENERGY       -93.749888235842

DIPOLE MOMENT
-------------
                                X             Y             Z
Electronic contribution:     -0.14308       0.19291       0.00000
Nuclear contribution   :      0.20917       0.04385       0.00000
                        -----------------------------------------
Total Dipole Moment    :      0.06609       0.23676       0.00000
                        -----------------------------------------
Magnitude (a.u.)       :      0.24582
Magnitude (Debye)      :      0.62481

Rotational constants in cm-1:    13.561033     1.288587     1.176769
Rotational constants in MHz : 406549.527433 38630.860717 35278.638922

                             ****ORCA TERMINATED NORMALLY****
TOTAL RUN TIME: 0 days 0 hours 1 minutes 12 seconds 388 msec
