                         Program Version 5.0.3 -  RELEASE  -
|  1> ! PBEh-3c def2/J TightSCF DefGrid3
|  2>
|  3> %maxcore 60000
|  4>
|  5> %pal
|  6> nprocs 4
|  7> end
|  8>
|  9> *xyzfile 0 1 R21.xyz
| 10>
| 11>                          ****END OF INPUT****

CARTESIAN COORDINATES (ANGSTROEM)
---------------------------------
  C     -1.502398    0.491708    0.000000
  C      0.000000    0.422623    0.000000
  C     -0.504298    1.615404    0.000000
  C      1.115336   -0.472395    0.000000
  C      0.979866   -1.800211    0.000000
  H     -2.049528    0.256827    0.911542
  H     -2.049528    0.256827   -0.911542
  H     -0.372885    2.681257    0.000000
  H      2.102714   -0.023598    0.000000
  H     -0.000401   -2.257895    0.000000
  H      1.838596   -2.456194    0.000000

 Total Charge           Charge          ....    0
 Multiplicity           Mult            ....    1
 Number of Electrons    NEL             ....   36
 Basis Dimension        Dim             ....   87

ORBITAL ENERGIES
----------------

  NO   OCC          E(Eh)            E(eV)
   0   2.0000     -10.462083      -284.6878
   1   2.0000     -10.460875      -284.6549
   2   2.0000     -10.455694      -284.5139
   3   2.0000     -10.450202      -284.3644
   4   2.0000     -10.446609      -284.2667
   5   2.0000      -0.973507       -26.4905
   6   2.0000      -0.871928       -23.7264
   7   2.0000      -0.707729       -19.2583
   8   2.0000      -0.662938       -18.0395
   9   2.0000      -0.601159       -16.3584
  10   2.0000      -0.561938       -15.2911
  11   2.0000      -0.510399       -13.8887
  12   2.0000      -0.497194       -13.5293
  13   2.0000      -0.440379       -11.9833
  14   2.0000      -0.392937       -10.6924
  15   2.0000      -0.361745        -9.8436
  16   2.0000      -0.339362        -9.2345
  17   2.0000      -0.268793        -7.3142
  18   0.0000      -0.012282        -0.3342
  19   0.0000       0.119742         3.2583
  20   0.0000       0.159360         4.3364
  21   0.0000       0.161011         4.3813
  22   0.0000       0.191458         5.2098

MULLIKEN ATOMIC CHARGES
-----------------------
   0 C :   -0.463026
   1 C :    0.180103
   2 C :   -0.279163
   3 C :   -0.279213
   4 C :   -0.473808
   5 H :    0.208015
   6 H :    0.208015
   7 H :    0.210892
   8 H :    0.229099
   9 H :    0.233282
  10 H :    0.225804
Sum of atomic charges:    0.0000000

LOEWDIN ATOMIC CHARGES
----------------------
   0 C :   -0.244468
   1 C :   -0.033026
   2 C :   -0.129815
   3 C :   -0.149894
   4 C :   -0.228369
   5 H :    0.112012
   6 H :    0.112012
   7 H :    0.143480
   8 H :    0.141767
   9 H :    0.140215
  10 H :    0.136084

  Mayer bond orders larger than 0.100000
B(  0-C ,  1-C ) :   0.9184 B(  0-C ,  2-C ) :   0.9606 B(  0-C ,  5-H ) :   0.9120
B(  0-C ,  6-H ) :   0.9120 B(  1-C ,  2-C ) :   1.7122 B(  1-C ,  3-C ) :   1.0946
B(  2-C ,  4-C ) :   0.1196 B(  2-C ,  7-H ) :   0.9305 B(  3-C ,  4-C ) :   1.8374
B(  3-C ,  8-H ) :   0.9166 B(  4-C ,  9-H ) :   0.9244 B(  4-C , 10-H ) :   0.9259

Dispersion correction           -0.004241914
FINAL SINGLE POINT ENERGY      -193.588028644381

DIPOLE MOMENT
-------------
                                X             Y             Z
Electronic contribution:      0.76643       1.53195       0.00000
Nuclear contribution   :     -0.54314      -1.57796       0.00000
                        -----------------------------------------
Total Dipole Moment    :      0.22328      -0.04601       0.00000
                        -----------------------------------------
Magnitude (a.u.)       :      0.22798
Magnitude (Debye)      :      0.57947

Rotational constants in cm-1:     0.520790     0.119855     0.099355
Rotational constants in MHz : 15612.897826  3593.148419  2978.602245

                             ****ORCA TERMINATED NORMALLY****
TOTAL RUN TIME: 0 days 0 hours 0 minutes 45 seconds 534 msec
