                         Program Version 5.0.3 -  RELEASE  -
|  1> ! PBEh-3c def2/J TightSCF DefGrid3
|  2>
|  3> %maxcore 60000
|  4>
|  5> %pal
|  6> nprocs 4
|  7> end
|  8>
|  9> *xyzfile 0 1 19a.xyz
| 10>
| 11>                          ****END OF INPUT****

CARTESIAN COORDINATES (ANGSTROEM)
---------------------------------
  C     -1.207742   -0.697290    0.000000
  C     -1.207742    0.697290    0.000000
  C      0.000000    1.394581    0.000000
  C      1.207742    0.697290    0.000000
  C      1.207742   -0.697290    0.000000
  C      0.000000   -1.394581    0.000000
  H     -2.144071    1.237880    0.000000
  H      0.000000    2.475760    0.000000
  H      2.144071    1.237880    0.000000
  H      2.144071   -1.237880    0.000000
  H      0.000000   -2.475760    0.000000
  H     -2.144071   -1.237880    0.000000

 Total Charge           Charge          ....    0
 Multiplicity           Mult            ....    1
 Number of Electrons    NEL             ....   42
 Basis Dimension        Dim             ....  102

ORBITAL ENERGIES
----------------

  NO   OCC          E(Eh)            E(eV)
   0   2.0000     -10.448897      -284.3289
   1   2.0000     -10.448680      -284.3230
   2   2.0000     -10.448678      -284.3230
   3   2.0000     -10.448070      -284.3064
   4   2.0000     -10.448068      -284.3064
   5   2.0000     -10.447841      -284.3002
   6   2.0000      -0.951725       -25.8978
   7   2.0000      -0.835320       -22.7302
   8   2.0000      -0.835320       -22.7302
   9   2.0000      -0.678969       -18.4757
  10   2.0000      -0.678969       -18.4757
  11   2.0000      -0.591904       -16.1065
  12   2.0000      -0.526232       -14.3195
  13   2.0000      -0.508231       -13.8297
  14   2.0000      -0.481785       -13.1100
  15   2.0000      -0.481782       -13.1100
  16   2.0000      -0.420603       -11.4452
  17   2.0000      -0.398394       -10.8409
  18   2.0000      -0.398393       -10.8408
  19   2.0000      -0.292363        -7.9556
  20   2.0000      -0.292360        -7.9555
  21   0.0000       0.019019         0.5175
  22   0.0000       0.019020         0.5176
  23   0.0000       0.140967         3.8359
  24   0.0000       0.195868         5.3298
  25   0.0000       0.201937         5.4950

MULLIKEN ATOMIC CHARGES
-----------------------
   0 C :   -0.219931
   1 C :   -0.219931
   2 C :   -0.219945
   3 C :   -0.219931
   4 C :   -0.219931
   5 C :   -0.219945
   6 H :    0.219931
   7 H :    0.219944
   8 H :    0.219932
   9 H :    0.219931
  10 H :    0.219944
  11 H :    0.219932
Sum of atomic charges:    0.0000000

LOEWDIN ATOMIC CHARGES
----------------------
   0 C :   -0.135692
   1 C :   -0.135692
   2 C :   -0.135698
   3 C :   -0.135692
   4 C :   -0.135692
   5 C :   -0.135698
   6 H :    0.135695
   7 H :    0.135694
   8 H :    0.135695
   9 H :    0.135695
  10 H :    0.135694
  11 H :    0.135695

  Mayer bond orders larger than 0.100000
B(  0-C ,  1-C ) :   1.4265 B(  0-C ,  5-C ) :   1.4264 B(  0-C , 11-H ) :   0.9200
B(  1-C ,  2-C ) :   1.4264 B(  1-C ,  6-H ) :   0.9200 B(  2-C ,  3-C ) :   1.4264
B(  2-C ,  7-H ) :   0.9200 B(  3-C ,  4-C ) :   1.4265 B(  3-C ,  8-H ) :   0.9200
B(  4-C ,  5-C ) :   1.4264 B(  4-C ,  9-H ) :   0.9200 B(  5-C , 10-H ) :   0.9200

Dispersion correction           -0.005879746
FINAL SINGLE POINT ENERGY      -231.725741722533

DIPOLE MOMENT
-------------
                                X             Y             Z
Electronic contribution:      0.00000      -0.00000       0.00000
Nuclear contribution   :      0.00000      -0.00000       0.00000
                        -----------------------------------------
Total Dipole Moment    :      0.00000      -0.00000       0.00000
                        -----------------------------------------
Magnitude (a.u.)       :      0.00000
Magnitude (Debye)      :      0.00000

Rotational constants in cm-1:     0.190236     0.190236     0.095118
Rotational constants in MHz :  5703.141737  5703.141201  2851.570734

                             ****ORCA TERMINATED NORMALLY****
TOTAL RUN TIME: 0 days 0 hours 1 minutes 6 seconds 341 msec
