                         Program Version 5.0.3 -  RELEASE  -
|  1> ! PBEh-3c def2/J TightSCF DefGrid3
|  2>
|  3> %maxcore 60000
|  4>
|  5> %pal
|  6> nprocs 4
|  7> end
|  8>
|  9> *xyzfile 0 1 100.xyz
| 10>
| 11>                          ****END OF INPUT****

CARTESIAN COORDINATES (ANGSTROEM)
---------------------------------
  N      0.000000    0.000000   -2.116358
  C      0.000000    0.000000   -0.966708
  C      0.000000    0.000000    0.489493
  H      0.511451    0.885859    0.864524
  H      0.511451   -0.885859    0.864524
  H     -1.022902    0.000000    0.864524

 Total Charge           Charge          ....    0
 Multiplicity           Mult            ....    1
 Number of Electrons    NEL             ....   22
 Basis Dimension        Dim             ....   51

ORBITAL ENERGIES
----------------

  NO   OCC          E(Eh)            E(eV)
   0   2.0000     -14.641721      -398.4215
   1   2.0000     -10.491678      -285.4931
   2   2.0000     -10.491409      -285.4857
   3   2.0000      -1.011291       -27.5186
   4   2.0000      -0.867405       -23.6033
   5   2.0000      -0.582283       -15.8447
   6   2.0000      -0.526531       -14.3276
   7   2.0000      -0.526531       -14.3276
   8   2.0000      -0.425863       -11.5883
   9   2.0000      -0.383286       -10.4297
  10   2.0000      -0.383286       -10.4297
  11   0.0000       0.070687         1.9235
  12   0.0000       0.070688         1.9235
  13   0.0000       0.135942         3.6992
  14   0.0000       0.210485         5.7276
  15   0.0000       0.213025         5.7967

MULLIKEN ATOMIC CHARGES
-----------------------
   0 N :   -0.191691
   1 C :    0.086425
   2 C :   -0.723588
   3 H :    0.276287
   4 H :    0.276287
   5 H :    0.276281
Sum of atomic charges:    0.0000000

LOEWDIN ATOMIC CHARGES
----------------------
   0 N :   -0.091622
   1 C :   -0.031150
   2 C :   -0.380758
   3 H :    0.167844
   4 H :    0.167844
   5 H :    0.167842

  Mayer bond orders larger than 0.100000
B(  0-N ,  1-C ) :   3.1831 B(  1-C ,  2-C ) :   0.9672 B(  2-C ,  3-H ) :   0.8971
B(  2-C ,  4-H ) :   0.8971 B(  2-C ,  5-H ) :   0.8971

Dispersion correction           -0.001534578
FINAL SINGLE POINT ENERGY      -132.453952883535

DIPOLE MOMENT
-------------
                                X             Y             Z
Electronic contribution:      0.00000      -0.00000      -3.13997
Nuclear contribution   :      0.00000       0.00000       4.67203
                        -----------------------------------------
Total Dipole Moment    :      0.00000      -0.00000       1.53206
                        -----------------------------------------
Magnitude (a.u.)       :      1.53206
Magnitude (Debye)      :      3.89419

Rotational constants in cm-1:     5.327787     0.309104     0.309104
Rotational constants in MHz : 159723.047270  9266.690882  9266.690876

                             ****ORCA TERMINATED NORMALLY****
TOTAL RUN TIME: 0 days 0 hours 0 minutes 12 seconds 975 msec
