                         Program Version 5.0.3 -  RELEASE  -
|  1> ! PBEh-3c def2/J TightSCF DefGrid3
|  2>
|  3> %maxcore 60000
|  4>
|  5> %pal
|  6> nprocs 4
|  7> end
|  8>
|  9> *xyzfile 0 1 i14e.xyz
| 10>
| 11>                          ****END OF INPUT****

CARTESIAN COORDINATES (ANGSTROEM)
---------------------------------
  C     -3.249362   -0.212182    0.190882
  C     -3.018011   -0.080260    1.553112
  C     -1.718702    0.143077    2.046501
  C     -0.658905    0.237377    1.158051
  C     -0.850360    0.110814   -0.240083
  C     -2.180862   -0.127187   -0.722042
  C      0.257368    0.192893   -1.200909
  O     -2.461793   -0.277404   -2.026652
  O      0.063752    0.021523   -2.421059
  C      1.686996    0.513911   -0.736396
  C      1.829647    1.961646   -0.236582
  C      2.264307   -0.537731    0.241396
  O      2.838010   -0.218511    1.265028
  C      2.095624   -1.984350   -0.184810
  H     -4.247297   -0.390066   -0.201691
  H     -3.854852   -0.151744    2.245533
  H     -1.545192    0.241445    3.114997
  H      0.337705    0.411287    1.548601
  H     -1.589102   -0.204256   -2.508987
  H      2.286691    0.397982   -1.651007
  H      1.230534    2.142353    0.660044
  H      1.507283    2.658249   -1.019499
  H      2.878009    2.159781    0.011184
  H      2.381477   -2.113431   -1.237121
  H      1.031936   -2.253890   -0.109562
  H      2.685096   -2.641326    0.461071

 Total Charge           Charge          ....    0
 Multiplicity           Mult            ....    1
 Number of Electrons    NEL             ....  102
 Basis Dimension        Dim             ....  234

ORBITAL ENERGIES
----------------

  NO   OCC          E(Eh)            E(eV)
   0   2.0000     -19.524526      -531.2894
   1   2.0000     -19.516630      -531.0745
   2   2.0000     -19.505687      -530.7767
   3   2.0000     -10.569442      -287.6091
   4   2.0000     -10.559163      -287.3294
   5   2.0000     -10.540228      -286.8142
   6   2.0000     -10.480232      -285.1816
   7   2.0000     -10.477829      -285.1162
   8   2.0000     -10.477000      -285.0937
   9   2.0000     -10.476788      -285.0879
  10   2.0000     -10.460427      -284.6427
  11   2.0000     -10.459783      -284.6252
  12   2.0000     -10.454143      -284.4717
  13   2.0000     -10.448798      -284.3263
  14   2.0000      -1.188296       -32.3352
  15   2.0000      -1.167914       -31.7806
  16   2.0000      -1.158562       -31.5261
  17   2.0000      -0.968418       -26.3520
  18   2.0000      -0.912633       -24.8340
  19   2.0000      -0.865525       -23.5521
  20   2.0000      -0.844192       -22.9716
  21   2.0000      -0.839238       -22.8368
  22   2.0000      -0.755680       -20.5631
  23   2.0000      -0.733361       -19.9558
  24   2.0000      -0.694573       -18.9003
  25   2.0000      -0.674323       -18.3493
  26   2.0000      -0.624553       -16.9949
  27   2.0000      -0.599296       -16.3077
  28   2.0000      -0.576705       -15.6930
  29   2.0000      -0.559684       -15.2298
  30   2.0000      -0.547440       -14.8966
  31   2.0000      -0.541655       -14.7392
  32   2.0000      -0.526625       -14.3302
  33   2.0000      -0.516119       -14.0443
  34   2.0000      -0.504743       -13.7348
  35   2.0000      -0.497879       -13.5480
  36   2.0000      -0.490389       -13.3442
  37   2.0000      -0.476897       -12.9770
  38   2.0000      -0.466777       -12.7016
  39   2.0000      -0.460613       -12.5339
  40   2.0000      -0.447826       -12.1860
  41   2.0000      -0.440269       -11.9803
  42   2.0000      -0.432320       -11.7640
  43   2.0000      -0.429057       -11.6752
  44   2.0000      -0.423667       -11.5286
  45   2.0000      -0.406625       -11.0648
  46   2.0000      -0.403542       -10.9809
  47   2.0000      -0.338618        -9.2143
  48   2.0000      -0.317481        -8.6391
  49   2.0000      -0.314752        -8.5648
  50   2.0000      -0.277412        -7.5488
  51   0.0000      -0.057720        -1.5706
  52   0.0000      -0.002366        -0.0644
  53   0.0000       0.017277         0.4701
  54   0.0000       0.050184         1.3656
  55   0.0000       0.122284         3.3275

MULLIKEN ATOMIC CHARGES
-----------------------
   0 C :   -0.302236
   1 C :   -0.204068
   2 C :   -0.237271
   3 C :   -0.286463
   4 C :   -0.165482
   5 C :    0.379591
   6 C :    0.447746
   7 O :   -0.600065
   8 O :   -0.430276
   9 C :   -0.500608
  10 C :   -0.625810
  11 C :    0.392345
  12 O :   -0.336490
  13 C :   -0.752525
  14 H :    0.249425
  15 H :    0.234313
  16 H :    0.231915
  17 H :    0.256430
  18 H :    0.469505
  19 H :    0.289423
  20 H :    0.234319
  21 H :    0.235942
  22 H :    0.251258
  23 H :    0.246172
  24 H :    0.256167
  25 H :    0.266744
Sum of atomic charges:   -0.0000000

LOEWDIN ATOMIC CHARGES
----------------------
   0 C :   -0.167575
   1 C :   -0.090373
   2 C :   -0.167815
   3 C :   -0.100687
   4 C :   -0.162069
   5 C :    0.118534
   6 C :    0.146073
   7 O :   -0.302680
   8 O :   -0.245302
   9 C :   -0.207499
  10 C :   -0.341127
  11 C :    0.113404
  12 O :   -0.187463
  13 C :   -0.390090
  14 H :    0.153015
  15 H :    0.143916
  16 H :    0.142540
  17 H :    0.153371
  18 H :    0.335363
  19 H :    0.167872
  20 H :    0.137442
  21 H :    0.138445
  22 H :    0.146865
  23 H :    0.151176
  24 H :    0.159792
  25 H :    0.154874

  Mayer bond orders larger than 0.100000
B(  0-C ,  1-C ) :   1.4688 B(  0-C ,  5-C ) :   1.3279 B(  0-C , 14-H ) :   0.9046
B(  1-C ,  2-C ) :   1.3581 B(  1-C , 15-H ) :   0.9150 B(  2-C ,  3-C ) :   1.5056
B(  2-C , 16-H ) :   0.9158 B(  3-C ,  4-C ) :   1.2768 B(  3-C , 17-H ) :   0.8932
B(  4-C ,  5-C ) :   1.2268 B(  4-C ,  6-C ) :   1.0216 B(  5-C ,  7-O ) :   1.2262
B(  6-C ,  8-O ) :   1.8683 B(  6-C ,  9-C ) :   0.9260 B(  7-O , 18-H ) :   0.6358
B(  8-O , 18-H ) :   0.1477 B(  9-C , 10-C ) :   0.9823 B(  9-C , 11-C ) :   0.8849
B(  9-C , 19-H ) :   0.8766 B( 10-C , 20-H ) :   0.9143 B( 10-C , 21-H ) :   0.9180
B( 10-C , 22-H ) :   0.9123 B( 11-C , 12-O ) :   2.1052 B( 11-C , 13-C ) :   0.9381
B( 13-C , 23-H ) :   0.9059 B( 13-C , 24-H ) :   0.8948 B( 13-C , 25-H ) :   0.9147

Dispersion correction           -0.017380748
FINAL SINGLE POINT ENERGY      -650.671417506931

DIPOLE MOMENT
-------------
                                X             Y             Z
Electronic contribution:     -4.87339      -0.60939      -2.42789
Nuclear contribution   :      4.82099       0.51064       2.78149
                        -----------------------------------------
Total Dipole Moment    :     -0.05241      -0.09875       0.35360
                        -----------------------------------------
Magnitude (a.u.)       :      0.37085
Magnitude (Debye)      :      0.94263

Rotational constants in cm-1:     0.035310     0.017551     0.014511
Rotational constants in MHz :  1058.573455   526.171384   435.026734

                             ****ORCA TERMINATED NORMALLY****
TOTAL RUN TIME: 0 days 0 hours 3 minutes 50 seconds 485 msec
