                         Program Version 5.0.3 -  RELEASE  -
|  1> ! PBEh-3c def2/J TightSCF DefGrid3
|  2>
|  3> %maxcore 60000
|  4>
|  5> %pal
|  6> nprocs 4
|  7> end
|  8>
|  9> *xyzfile 0 1 C2H5CONH2.xyz
| 10>
| 11>                          ****END OF INPUT****

CARTESIAN COORDINATES (ANGSTROEM)
---------------------------------
  C      0.737128    0.635446   -0.014660
  O      1.415237    0.651131   -1.036791
  C     -0.227466   -0.502303    0.325142
  H     -1.006387   -0.151128    1.020532
  H      0.361606   -1.256114    0.875310
  N      0.814698    1.633382    0.921559
  H      0.270478    1.620084    1.774591
  H      1.486485    2.379307    0.776914
  C     -0.846674   -1.134003   -0.921434
  H     -1.435360   -2.022753   -0.656431
  H     -1.509513   -0.425455   -1.437211
  H     -0.060233   -1.427593   -1.627518

 Total Charge           Charge          ....    0
 Multiplicity           Mult            ....    1
 Number of Electrons    NEL             ....   40
 Basis Dimension        Dim             ....   89

ORBITAL ENERGIES
----------------

  NO   OCC          E(Eh)            E(eV)
   0   2.0000     -19.452493      -529.3292
   1   2.0000     -14.655898      -398.8073
   2   2.0000     -10.548046      -287.0269
   3   2.0000     -10.452132      -284.4170
   4   2.0000     -10.428849      -283.7834
   5   2.0000      -1.132895       -30.8276
   6   2.0000      -0.996307       -27.1109
   7   2.0000      -0.861948       -23.4548
   8   2.0000      -0.730423       -19.8758
   9   2.0000      -0.643859       -17.5203
  10   2.0000      -0.597085       -16.2475
  11   2.0000      -0.543193       -14.7810
  12   2.0000      -0.516710       -14.0604
  13   2.0000      -0.472065       -12.8455
  14   2.0000      -0.453220       -12.3328
  15   2.0000      -0.421817       -11.4782
  16   2.0000      -0.413840       -11.2612
  17   2.0000      -0.393697       -10.7130
  18   2.0000      -0.315974        -8.5981
  19   2.0000      -0.303859        -8.2684
  20   0.0000       0.065334         1.7778
  21   0.0000       0.120046         3.2666
  22   0.0000       0.158947         4.3252
  23   0.0000       0.177016         4.8169
  24   0.0000       0.197512         5.3746

MULLIKEN ATOMIC CHARGES
-----------------------
   0 C :    0.536133
   1 O :   -0.419418
   2 C :   -0.549953
   3 H :    0.212325
   4 H :    0.249476
   5 N :   -0.807957
   6 H :    0.359678
   7 H :    0.371141
   8 C :   -0.634784
   9 H :    0.213962
  10 H :    0.220572
  11 H :    0.248828
Sum of atomic charges:   -0.0000000

LOEWDIN ATOMIC CHARGES
----------------------
   0 C :    0.114043
   1 O :   -0.276811
   2 C :   -0.282145
   3 H :    0.124363
   4 H :    0.148185
   5 N :   -0.382877
   6 H :    0.251228
   7 H :    0.259222
   8 C :   -0.356324
   9 H :    0.125852
  10 H :    0.130273
  11 H :    0.144991

  Mayer bond orders larger than 0.100000
B(  0-C ,  1-O ) :   2.0186 B(  0-C ,  2-C ) :   0.9053 B(  0-C ,  5-N ) :   1.1292
B(  2-C ,  3-H ) :   0.9162 B(  2-C ,  4-H ) :   0.9025 B(  2-C ,  8-C ) :   0.9860
B(  5-N ,  6-H ) :   0.8312 B(  5-N ,  7-H ) :   0.8249 B(  8-C ,  9-H ) :   0.9276
B(  8-C , 10-H ) :   0.9301 B(  8-C , 11-H ) :   0.9130

Dispersion correction           -0.004524772
FINAL SINGLE POINT ENERGY      -247.995515004691

DIPOLE MOMENT
-------------
                                X             Y             Z
Electronic contribution:      3.66580       3.22272      -0.26142
Nuclear contribution   :     -4.28275      -2.98641       1.59799
                        -----------------------------------------
Total Dipole Moment    :     -0.61694       0.23631       1.33657
                        -----------------------------------------
Magnitude (a.u.)       :      1.49093
Magnitude (Debye)      :      3.78965

Rotational constants in cm-1:     0.313586     0.125380     0.095483
Rotational constants in MHz :  9401.083440  3758.783250  2862.511777

                             ****ORCA TERMINATED NORMALLY****
TOTAL RUN TIME: 0 days 0 hours 1 minutes 15 seconds 223 msec
