                         Program Version 5.0.3 -  RELEASE  -
|  1> ! PBEh-3c def2/J TightSCF DefGrid3
|  2>
|  3> %maxcore 60000
|  4>
|  5> %pal
|  6> nprocs 4
|  7> end
|  8>
|  9> *xyzfile 0 2 fo2.xyz
| 10>
| 11>                          ****END OF INPUT****

CARTESIAN COORDINATES (ANGSTROEM)
---------------------------------
  F     -1.199090   -0.156524    0.000000
  O      0.289525    0.513370    0.000000
  O      1.134327   -0.327507    0.000000

 Total Charge           Charge          ....    0
 Multiplicity           Mult            ....    2
 Number of Electrons    NEL             ....   25
 Basis Dimension        Dim             ....   45

ORBITAL ENERGIES
----------------
                 SPIN UP ORBITALS
  NO   OCC          E(Eh)            E(eV)
   0   1.0000     -25.090606      -682.7501
   1   1.0000     -19.745508      -537.3026
   2   1.0000     -19.687756      -535.7311
   3   1.0000      -1.496636       -40.7255
   4   1.0000      -1.233780       -33.5729
   5   1.0000      -0.965874       -26.2828
   6   1.0000      -0.701121       -19.0785
   7   1.0000      -0.682221       -18.5642
   8   1.0000      -0.667075       -18.1520
   9   1.0000      -0.473231       -12.8773
  10   1.0000      -0.457978       -12.4622
  11   1.0000      -0.422231       -11.4895
  12   1.0000      -0.402425       -10.9505
  13   0.0000      -0.086864        -2.3637
  14   0.0000       0.245032         6.6677
  15   0.0000       0.752136        20.4667
  16   0.0000       0.825792        22.4709
  17   0.0000       0.849853        23.1257

                 SPIN DOWN ORBITALS
  NO   OCC          E(Eh)            E(eV)
   0   1.0000     -25.110648      -683.2955
   1   1.0000     -19.723083      -536.6924
   2   1.0000     -19.657281      -534.9018
   3   1.0000      -1.446730       -39.3675
   4   1.0000      -1.283710       -34.9315
   5   1.0000      -0.890388       -24.2287
   6   1.0000      -0.659446       -17.9444
   7   1.0000      -0.616997       -16.7894
   8   1.0000      -0.579142       -15.7593
   9   1.0000      -0.476476       -12.9656
  10   1.0000      -0.469546       -12.7770
  11   1.0000      -0.442492       -12.0408
  12   0.0000      -0.100184        -2.7261
  13   0.0000      -0.084511        -2.2997
  14   0.0000       0.284524         7.7423
  15   0.0000       0.766770        20.8649
  16   0.0000       0.859851        23.3977

MULLIKEN ATOMIC CHARGES AND SPIN POPULATIONS
--------------------------------------------
   0 F :   -0.221773   -0.524408
   1 O :    0.177484    0.640123
   2 O :    0.044288    0.884285
Sum of atomic charges         :    0.0000000

LOEWDIN ATOMIC CHARGES AND SPIN POPULATIONS
-------------------------------------------
   0 F :   -0.239155   -0.491440
   1 O :    0.200055    0.622381
   2 O :    0.039101    0.869059

  Mayer bond orders larger than 0.100000
B(  0-F ,  1-O ) :   0.5480 B(  0-F ,  2-O ) :   0.1549 B(  1-O ,  2-O ) :   1.8486

Dispersion correction           -0.000350237
FINAL SINGLE POINT ENERGY      -249.551933815094

DIPOLE MOMENT
-------------
                                X             Y             Z
Electronic contribution:     -0.61799      -0.00228      -0.00000
Nuclear contribution   :      1.13205       0.14777       0.00000
                        -----------------------------------------
Total Dipole Moment    :      0.51406       0.14550      -0.00000
                        -----------------------------------------
Magnitude (a.u.)       :      0.53426
Magnitude (Debye)      :      1.35797

Rotational constants in cm-1:     2.634814     0.342338     0.302973
Rotational constants in MHz : 78989.750060 10263.043456  9082.911644

                             ****ORCA TERMINATED NORMALLY****
TOTAL RUN TIME: 0 days 0 hours 1 minutes 24 seconds 385 msec
