                         Program Version 5.0.3 -  RELEASE  -
|  1> ! PBEh-3c def2/J TightSCF DefGrid3
|  2>
|  3> %maxcore 60000
|  4>
|  5> %pal
|  6> nprocs 4
|  7> end
|  8>
|  9> *xyzfile -1 1 5z.xyz
| 10>
| 11>                          ****END OF INPUT****

CARTESIAN COORDINATES (ANGSTROEM)
---------------------------------
  H     -0.341749    3.119939    1.776486
  O     -0.427603    2.167725    1.938851
  C      0.290803    1.838858    3.137941
  H     -0.213155    2.252637    4.020397
  H      1.316864    2.226852    3.102257
  C      0.372623    0.333189    3.245794
  H      0.955679    0.072627    4.138106
  O     -0.956331   -0.238990    3.359695
  C     -1.007339   -1.503578    2.714363
  H     -1.309520   -2.286449    3.410556
  N     -2.063559   -1.448789    1.664860
  C     -2.338107   -0.285428    0.988326
  H     -1.754695    0.575722    1.300555
  C     -3.287596   -0.208955    0.022108
  H     -3.474052    0.723799   -0.492769
  C     -4.059451   -1.375105   -0.329879
  O     -4.952078   -1.444579   -1.182281
  N     -3.688709   -2.524233    0.387082
  H     -4.177669   -3.385858    0.158524
  C     -2.726567   -2.639457    1.367410
  O     -2.466867   -3.701762    1.930274
  C      0.981348   -0.365433    2.031792
  H      0.663952    0.120884    1.106353
  C      0.394356   -1.781746    2.142634
  H      0.353207   -2.308073    1.185179
  O      1.117862   -2.538983    3.112951
  H      2.051987   -2.266663    3.022440
  O      2.402451   -0.338057    2.151682
  P      3.361931   -0.375547    0.813287
  O      3.083715   -1.619668    0.017912
  O      4.746711   -0.062563    1.289717
  O      2.697460    0.910837    0.039339
  C      3.436589    1.499825   -1.053232
  H      4.073099    0.749131   -1.534935
  H      4.068560    2.307687   -0.667405
  C      2.465309    2.061127   -2.073915
  H      3.038413    2.616295   -2.824432
  O      1.780333    0.969480   -2.762066
  C      0.374485    1.090552   -2.610539
  H     -0.103983    1.505311   -3.501580
  N     -0.173715   -0.270401   -2.445653
  C      0.522128   -1.213352   -1.730875
  H      1.478232   -0.894899   -1.328512
  C      0.067455   -2.478200   -1.548622
  H      0.661180   -3.198535   -1.002078
  C     -1.196261   -2.879016   -2.108592
  O     -1.727748   -3.992122   -2.021931
  N     -1.848552   -1.847187   -2.802957
  H     -2.753514   -2.070509   -3.208833
  C     -1.418206   -0.551015   -3.009884
  O     -2.077661    0.273000   -3.638072
  C      1.363512    2.955824   -1.491111
  H      1.642048    3.386761   -0.526838
  C      0.165200    2.003975   -1.380837
  H      0.261319    1.410954   -0.469564
  O     -1.081803    2.665302   -1.341345
  H     -0.966959    3.463311   -1.895742
  O      0.969481    3.987808   -2.413784
  H      1.435158    4.805741   -2.178604

 Total Charge           Charge          ....   -1
 Multiplicity           Mult            ....    1
 Number of Electrons    NEL             ....  286
 Basis Dimension        Dim             ....  602

ORBITAL ENERGIES
----------------

  NO   OCC          E(Eh)            E(eV)
   0   2.0000     -77.731709     -2115.1873
   1   2.0000     -19.456477      -529.4377
   2   2.0000     -19.436867      -528.9040
   3   2.0000     -19.435643      -528.8707
   4   2.0000     -19.433715      -528.8183
   5   2.0000     -19.421802      -528.4941
   6   2.0000     -19.403879      -528.0064
   7   2.0000     -19.402491      -527.9686
   8   2.0000     -19.394164      -527.7420
   9   2.0000     -19.383551      -527.4532
  10   2.0000     -19.381752      -527.4043
  11   2.0000     -19.376441      -527.2598
  12   2.0000     -19.368986      -527.0569
  13   2.0000     -19.292707      -524.9813
  14   2.0000     -19.282644      -524.7074
  15   2.0000     -14.618955      -397.8020
  16   2.0000     -14.616984      -397.7484
  17   2.0000     -14.600647      -397.3038
  18   2.0000     -14.595307      -397.1585
  19   2.0000     -10.508825      -285.9597
  20   2.0000     -10.507068      -285.9119
  21   2.0000     -10.474580      -285.0278
  22   2.0000     -10.466396      -284.8051
  23   2.0000     -10.458602      -284.5930
  24   2.0000     -10.454373      -284.4780
  25   2.0000     -10.442610      -284.1579
  26   2.0000     -10.431925      -283.8671
  27   2.0000     -10.424021      -283.6520
  28   2.0000     -10.423446      -283.6364
  29   2.0000     -10.423434      -283.6361
  30   2.0000     -10.419984      -283.5422
  31   2.0000     -10.413433      -283.3639
  32   2.0000     -10.411283      -283.3054
  33   2.0000     -10.410510      -283.2844
  34   2.0000     -10.402664      -283.0709
  35   2.0000     -10.359869      -281.9064
  36   2.0000     -10.349297      -281.6187
  37   2.0000      -6.775954      -184.3831
  38   2.0000      -4.871193      -132.5519
  39   2.0000      -4.869814      -132.5144
  40   2.0000      -4.867242      -132.4444
  41   2.0000      -1.106734       -30.1158
  42   2.0000      -1.100586       -29.9485
  43   2.0000      -1.089604       -29.6496
  44   2.0000      -1.084130       -29.5007
  45   2.0000      -1.075194       -29.2575
  46   2.0000      -1.062762       -28.9192
  47   2.0000      -1.060591       -28.8602
  48   2.0000      -1.051375       -28.6094
  49   2.0000      -1.049861       -28.5682
  50   2.0000      -1.043274       -28.3889
  51   2.0000      -1.030450       -28.0400
  52   2.0000      -1.011650       -27.5284
  53   2.0000      -0.984509       -26.7899
  54   2.0000      -0.982735       -26.7416
  55   2.0000      -0.934741       -25.4356
  56   2.0000      -0.930039       -25.3076
  57   2.0000      -0.920366       -25.0444
  58   2.0000      -0.875440       -23.8219
  59   2.0000      -0.803308       -21.8591
  60   2.0000      -0.801540       -21.8110
  61   2.0000      -0.794138       -21.6096
  62   2.0000      -0.786018       -21.3886
  63   2.0000      -0.763324       -20.7711
  64   2.0000      -0.757616       -20.6158
  65   2.0000      -0.692249       -18.8371
  66   2.0000      -0.688788       -18.7429
  67   2.0000      -0.675296       -18.3757
  68   2.0000      -0.669095       -18.2070
  69   2.0000      -0.634979       -17.2786
  70   2.0000      -0.633086       -17.2271
  71   2.0000      -0.609038       -16.5728
  72   2.0000      -0.600013       -16.3272
  73   2.0000      -0.592596       -16.1254
  74   2.0000      -0.583350       -15.8738
  75   2.0000      -0.559910       -15.2359
  76   2.0000      -0.550018       -14.9667
  77   2.0000      -0.540696       -14.7131
  78   2.0000      -0.538892       -14.6640
  79   2.0000      -0.530024       -14.4227
  80   2.0000      -0.525143       -14.2899
  81   2.0000      -0.519587       -14.1387
  82   2.0000      -0.507071       -13.7981
  83   2.0000      -0.491341       -13.3701
  84   2.0000      -0.490678       -13.3520
  85   2.0000      -0.479969       -13.0606
  86   2.0000      -0.474550       -12.9131
  87   2.0000      -0.465582       -12.6691
  88   2.0000      -0.461583       -12.5603
  89   2.0000      -0.458409       -12.4739
  90   2.0000      -0.454021       -12.3545
  91   2.0000      -0.450671       -12.2634
  92   2.0000      -0.441525       -12.0145
  93   2.0000      -0.434353       -11.8193
  94   2.0000      -0.430290       -11.7088
  95   2.0000      -0.422230       -11.4895
  96   2.0000      -0.417482       -11.3603
  97   2.0000      -0.414695       -11.2844
  98   2.0000      -0.413901       -11.2628
  99   2.0000      -0.413416       -11.2496
 100   2.0000      -0.404289       -11.0013
 101   2.0000      -0.401721       -10.9314
 102   2.0000      -0.395789       -10.7700
 103   2.0000      -0.389943       -10.6109
 104   2.0000      -0.384327       -10.4581
 105   2.0000      -0.378347       -10.2953
 106   2.0000      -0.374592       -10.1932
 107   2.0000      -0.371423       -10.1069
 108   2.0000      -0.369846       -10.0640
 109   2.0000      -0.366365        -9.9693
 110   2.0000      -0.358453        -9.7540
 111   2.0000      -0.355718        -9.6796
 112   2.0000      -0.351623        -9.5681
 113   2.0000      -0.347953        -9.4683
 114   2.0000      -0.344445        -9.3728
 115   2.0000      -0.334421        -9.1001
 116   2.0000      -0.322611        -8.7787
 117   2.0000      -0.321224        -8.7409
 118   2.0000      -0.316510        -8.6127
 119   2.0000      -0.310054        -8.4370
 120   2.0000      -0.303552        -8.2601
 121   2.0000      -0.299334        -8.1453
 122   2.0000      -0.294739        -8.0203
 123   2.0000      -0.285782        -7.7765
 124   2.0000      -0.270351        -7.3566
 125   2.0000      -0.268946        -7.3184
 126   2.0000      -0.264850        -7.2069
 127   2.0000      -0.257278        -7.0009
 128   2.0000      -0.255469        -6.9517
 129   2.0000      -0.248952        -6.7743
 130   2.0000      -0.246283        -6.7017
 131   2.0000      -0.242859        -6.6085
 132   2.0000      -0.240320        -6.5394
 133   2.0000      -0.235874        -6.4185
 134   2.0000      -0.233130        -6.3438
 135   2.0000      -0.227048        -6.1783
 136   2.0000      -0.220347        -5.9960
 137   2.0000      -0.213892        -5.8203
 138   2.0000      -0.205589        -5.5944
 139   2.0000      -0.189259        -5.1500
 140   2.0000      -0.181507        -4.9391
 141   2.0000      -0.177185        -4.8215
 142   2.0000      -0.161933        -4.4064
 143   0.0000       0.078262         2.1296
 144   0.0000       0.086208         2.3458
 145   0.0000       0.131365         3.5746
 146   0.0000       0.140819         3.8319
 147   0.0000       0.148786         4.0487

MULLIKEN ATOMIC CHARGES
-----------------------
   0 H :    0.427158
   1 O :   -0.632004
   2 C :   -0.180607
   3 H :    0.199280
   4 H :    0.215361
   5 C :    0.041622
   6 H :    0.234214
   7 O :   -0.499721
   8 C :    0.183634
   9 H :    0.278329
  10 N :   -0.573029
  11 C :    0.061062
  12 H :    0.338518
  13 C :   -0.495556
  14 H :    0.272618
  15 C :    0.557955
  16 O :   -0.436160
  17 N :   -0.729115
  18 H :    0.392561
  19 C :    0.725296
  20 O :   -0.443990
  21 C :   -0.061304
  22 H :    0.262618
  23 C :   -0.014217
  24 H :    0.269653
  25 O :   -0.650034
  26 H :    0.439694
  27 O :   -0.613901
  28 P :    1.363951
  29 O :   -0.733293
  30 O :   -0.709971
  31 O :   -0.646785
  32 C :   -0.154039
  33 H :    0.245299
  34 H :    0.195780
  35 C :    0.023632
  36 H :    0.216718
  37 O :   -0.487223
  38 C :    0.219248
  39 H :    0.256712
  40 N :   -0.573405
  41 C :    0.061622
  42 H :    0.355237
  43 C :   -0.514091
  44 H :    0.284674
  45 C :    0.559012
  46 O :   -0.433892
  47 N :   -0.737405
  48 H :    0.395260
  49 C :    0.726714
  50 O :   -0.450841
  51 C :   -0.080106
  52 H :    0.230420
  53 C :   -0.036947
  54 H :    0.300091
  55 O :   -0.632356
  56 H :    0.420203
  57 O :   -0.656783
  58 H :    0.422631
Sum of atomic charges:   -1.0000000

LOEWDIN ATOMIC CHARGES
----------------------
   0 H :    0.314455
   1 O :   -0.407023
   2 C :   -0.093866
   3 H :    0.109659
   4 H :    0.122518
   5 C :   -0.015574
   6 H :    0.129940
   7 O :   -0.240733
   8 C :    0.081693
   9 H :    0.148368
  10 N :   -0.093133
  11 C :   -0.008424
  12 H :    0.168078
  13 C :   -0.255896
  14 H :    0.166531
  15 C :    0.122673
  16 O :   -0.287363
  17 N :   -0.194171
  18 H :    0.285247
  19 C :    0.161796
  20 O :   -0.282743
  21 C :   -0.036312
  22 H :    0.127510
  23 C :   -0.031952
  24 H :    0.133282
  25 O :   -0.400471
  26 H :    0.321952
  27 O :   -0.334588
  28 P :    0.808394
  29 O :   -0.606814
  30 O :   -0.596609
  31 O :   -0.377479
  32 C :   -0.083472
  33 H :    0.137864
  34 H :    0.114852
  35 C :   -0.018237
  36 H :    0.122953
  37 O :   -0.237702
  38 C :    0.072358
  39 H :    0.137969
  40 N :   -0.088349
  41 C :   -0.006968
  42 H :    0.180814
  43 C :   -0.253664
  44 H :    0.171186
  45 C :    0.119061
  46 O :   -0.284160
  47 N :   -0.198352
  48 H :    0.285560
  49 C :    0.161885
  50 O :   -0.289512
  51 C :   -0.039337
  52 H :    0.121456
  53 C :   -0.047741
  54 H :    0.144348
  55 O :   -0.383231
  56 H :    0.310984
  57 O :   -0.405526
  58 H :    0.316014

  Mayer bond orders larger than 0.100000
B(  0-H ,  1-O ) :   0.7807 B(  1-O ,  2-C ) :   0.9836 B(  2-C ,  3-H ) :   0.9021
B(  2-C ,  4-H ) :   0.8938 B(  2-C ,  5-C ) :   0.9725 B(  5-C ,  6-H ) :   0.8869
B(  5-C ,  7-O ) :   0.9234 B(  5-C , 21-C ) :   0.9214 B(  7-O ,  8-C ) :   0.9896
B(  8-C ,  9-H ) :   0.8730 B(  8-C , 10-N ) :   0.8577 B(  8-C , 23-C ) :   0.9185
B( 10-N , 11-C ) :   1.0731 B( 10-N , 19-C ) :   1.0261 B( 11-C , 12-H ) :   0.8197
B( 11-C , 13-C ) :   1.6004 B( 13-C , 14-H ) :   0.9040 B( 13-C , 15-C ) :   1.0777
B( 15-C , 16-O ) :   1.9901 B( 15-C , 17-N ) :   0.9853 B( 17-N , 18-H ) :   0.8022
B( 17-N , 19-C ) :   1.0626 B( 19-C , 20-O ) :   1.9678 B( 21-C , 22-H ) :   0.8392
B( 21-C , 23-C ) :   0.9368 B( 21-C , 27-O ) :   0.9432 B( 23-C , 24-H ) :   0.8816
B( 23-C , 25-O ) :   1.0055 B( 25-O , 26-H ) :   0.7463 B( 27-O , 28-P ) :   0.8377
B( 28-P , 29-O ) :   1.6761 B( 28-P , 30-O ) :   1.7834 B( 28-P , 31-O ) :   0.8248
B( 31-O , 32-C ) :   0.9305 B( 32-C , 33-H ) :   0.8880 B( 32-C , 34-H ) :   0.9033
B( 32-C , 35-C ) :   0.9352 B( 35-C , 36-H ) :   0.9047 B( 35-C , 37-O ) :   0.9395
B( 35-C , 51-C ) :   0.9233 B( 37-O , 38-C ) :   0.9790 B( 38-C , 39-H ) :   0.8723
B( 38-C , 40-N ) :   0.9064 B( 38-C , 53-C ) :   0.8865 B( 40-N , 41-C ) :   1.0454
B( 40-N , 49-C ) :   1.0235 B( 41-C , 42-H ) :   0.7884 B( 41-C , 43-C ) :   1.6128
B( 43-C , 44-H ) :   0.8977 B( 43-C , 45-C ) :   1.0714 B( 45-C , 46-O ) :   1.9889
B( 45-C , 47-N ) :   0.9799 B( 47-N , 48-H ) :   0.7969 B( 47-N , 49-C ) :   1.0663
B( 49-C , 50-O ) :   1.9632 B( 51-C , 52-H ) :   0.9025 B( 51-C , 53-C ) :   0.9519
B( 51-C , 57-O ) :   0.9541 B( 53-C , 54-H ) :   0.8434 B( 53-C , 55-O ) :   1.0406
B( 55-O , 56-H ) :   0.7571 B( 57-O , 58-H ) :   0.7894

Dispersion correction           -0.053688358
FINAL SINGLE POINT ENERGY     -2308.315532058579

DIPOLE MOMENT
-------------
                                X             Y             Z
Electronic contribution:     -4.69691     -13.64996      -3.56969
Nuclear contribution   :      4.03463      18.68800       3.66809
                        -----------------------------------------
Total Dipole Moment    :     -0.66228       5.03804       0.09840
                        -----------------------------------------
Magnitude (a.u.)       :      5.08234
Magnitude (Debye)      :     12.91828

Rotational constants in cm-1:     0.004382     0.003502     0.002753
Rotational constants in MHz :   131.382000   104.999448    82.529247

                             ****ORCA TERMINATED NORMALLY****
TOTAL RUN TIME: 0 days 0 hours 16 minutes 31 seconds 619 msec
