                         Program Version 5.0.3 -  RELEASE  -
|  1> ! PBEh-3c def2/J TightSCF DefGrid3
|  2>
|  3> %maxcore 60000
|  4>
|  5> %pal
|  6> nprocs 4
|  7> end
|  8>
|  9> *xyzfile 0 1 sbh3.xyz
| 10>
| 11>                          ****END OF INPUT****

CARTESIAN COORDINATES (ANGSTROEM)
---------------------------------
  Sb     0.000000    0.000000    0.709630
  H     -0.695221    1.204158   -0.236543
  H     -0.695221   -1.204158   -0.236543
  H      1.390442    0.000000   -0.236543

 Total Charge           Charge          ....    0
 Multiplicity           Mult            ....    1
 Number of Electrons    NEL             ....   26
 Basis Dimension        Dim             ....   32

ORBITAL ENERGIES
----------------

  NO   OCC          E(Eh)            E(eV)
   0   2.0000      -5.935387      -161.5101
   1   2.0000      -4.121816      -112.1603
   2   2.0000      -4.121816      -112.1603
   3   2.0000      -4.116660      -112.0200
   4   2.0000      -1.394752       -37.9531
   5   2.0000      -1.394751       -37.9531
   6   2.0000      -1.389468       -37.8094
   7   2.0000      -1.389468       -37.8094
   8   2.0000      -1.385993       -37.7148
   9   2.0000      -0.649360       -17.6700
  10   2.0000      -0.390519       -10.6266
  11   2.0000      -0.390517       -10.6265
  12   2.0000      -0.302247        -8.2246
  13   0.0000       0.030281         0.8240
  14   0.0000       0.030288         0.8242
  15   0.0000       0.124285         3.3820
  16   0.0000       0.277211         7.5433
  17   0.0000       0.302177         8.2227

MULLIKEN ATOMIC CHARGES
-----------------------
   0 Sb:   -0.036163
   1 H :    0.012051
   2 H :    0.012051
   3 H :    0.012061
Sum of atomic charges:   -0.0000000

LOEWDIN ATOMIC CHARGES
----------------------
   0 Sb:   -0.024165
   1 H :    0.008053
   2 H :    0.008053
   3 H :    0.008060

  Mayer bond orders larger than 0.100000
B(  0-Sb,  1-H ) :   0.9846 B(  0-Sb,  2-H ) :   0.9846 B(  0-Sb,  3-H ) :   0.9846

Dispersion correction           -0.000779638
FINAL SINGLE POINT ENERGY      -242.039425045074

DIPOLE MOMENT
-------------
                                X             Y             Z
Electronic contribution:      0.00006      -0.00000       4.21822
Nuclear contribution   :     -0.00000       0.00000      -4.23734
                        -----------------------------------------
Total Dipole Moment    :      0.00006      -0.00000      -0.01912
                        -----------------------------------------
Magnitude (a.u.)       :      0.01912
Magnitude (Debye)      :      0.04861

Rotational constants in cm-1:     3.029337     3.029337     2.883430
Rotational constants in MHz : 90817.241231 90817.238318 86443.056923

                             ****ORCA TERMINATED NORMALLY****
TOTAL RUN TIME: 0 days 0 hours 0 minutes 52 seconds 747 msec
