                         Program Version 5.0.3 -  RELEASE  -
|  1> ! PBEh-3c def2/J TightSCF DefGrid3
|  2>
|  3> %maxcore 60000
|  4>
|  5> %pal
|  6> nprocs 4
|  7> end
|  8>
|  9> *xyzfile 0 1 27_CH3Br-benA.xyz
| 10>
| 11>                          ****END OF INPUT****

CARTESIAN COORDINATES (ANGSTROEM)
---------------------------------
  H      0.007708    0.214277    0.052325
  C      0.010386    0.200474    1.133645
  C      1.217878    0.246169    1.828432
  C      1.221256    0.223183    3.221704
  C      0.017504    0.154434    3.920526
  C     -1.189795    0.108384    3.226223
  C     -1.193621    0.131422    1.832737
  H      2.152051    0.294829    1.285815
  H      2.158359    0.255184    3.760584
  H      0.020469    0.133278    5.001768
  H     -2.123727    0.050629    3.768358
  H     -2.130145    0.090892    1.293508

 Total Charge           Charge          ....    0
 Multiplicity           Mult            ....    1
 Number of Electrons    NEL             ....   42
 Basis Dimension        Dim             ....  102

ORBITAL ENERGIES
----------------

  NO   OCC          E(Eh)            E(eV)
   0   2.0000     -10.448685      -284.3232
   1   2.0000     -10.448465      -284.3172
   2   2.0000     -10.448458      -284.3170
   3   2.0000     -10.447855      -284.3006
   4   2.0000     -10.447842      -284.3002
   5   2.0000     -10.447616      -284.2941
   6   2.0000      -0.952197       -25.9106
   7   2.0000      -0.835554       -22.7366
   8   2.0000      -0.835500       -22.7351
   9   2.0000      -0.679034       -18.4775
  10   2.0000      -0.679007       -18.4767
  11   2.0000      -0.592067       -16.1110
  12   2.0000      -0.525916       -14.3109
  13   2.0000      -0.508507       -13.8372
  14   2.0000      -0.481831       -13.1113
  15   2.0000      -0.481780       -13.1099
  16   2.0000      -0.420931       -11.4541
  17   2.0000      -0.398335       -10.8392
  18   2.0000      -0.398294       -10.8381
  19   2.0000      -0.292520        -7.9599
  20   2.0000      -0.292472        -7.9586
  21   0.0000       0.019202         0.5225
  22   0.0000       0.019245         0.5237
  23   0.0000       0.140804         3.8315
  24   0.0000       0.196329         5.3424
  25   0.0000       0.201816         5.4917

MULLIKEN ATOMIC CHARGES
-----------------------
   0 H :    0.219867
   1 C :   -0.219956
   2 C :   -0.219813
   3 C :   -0.219789
   4 C :   -0.219807
   5 C :   -0.219782
   6 C :   -0.219899
   7 H :    0.219841
   8 H :    0.219822
   9 H :    0.219834
  10 H :    0.219835
  11 H :    0.219847
Sum of atomic charges:   -0.0000000

LOEWDIN ATOMIC CHARGES
----------------------
   0 H :    0.135665
   1 C :   -0.135663
   2 C :   -0.135681
   3 C :   -0.135670
   4 C :   -0.135671
   5 C :   -0.135681
   6 C :   -0.135664
   7 H :    0.135673
   8 H :    0.135675
   9 H :    0.135673
  10 H :    0.135675
  11 H :    0.135669

  Mayer bond orders larger than 0.100000
B(  0-H ,  1-C ) :   0.9200 B(  1-C ,  2-C ) :   1.4264 B(  1-C ,  6-C ) :   1.4266
B(  2-C ,  3-C ) :   1.4267 B(  2-C ,  7-H ) :   0.9200 B(  3-C ,  4-C ) :   1.4264
B(  3-C ,  8-H ) :   0.9200 B(  4-C ,  5-C ) :   1.4266 B(  4-C ,  9-H ) :   0.9200
B(  5-C ,  6-C ) :   1.4265 B(  5-C , 10-H ) :   0.9200 B(  6-C , 11-H ) :   0.9200

Dispersion correction           -0.005881041
FINAL SINGLE POINT ENERGY      -231.725807933463

DIPOLE MOMENT
-------------
                                X             Y             Z
Electronic contribution:     -0.00066       0.01480       0.00056
Nuclear contribution   :      0.00096      -0.02162      -0.00079
                        -----------------------------------------
Total Dipole Moment    :      0.00030      -0.00682      -0.00022
                        -----------------------------------------
Magnitude (a.u.)       :      0.00683
Magnitude (Debye)      :      0.01736

Rotational constants in cm-1:     0.190469     0.190439     0.095227
Rotational constants in MHz :  5710.106683  5709.207028  2854.831624

                             ****ORCA TERMINATED NORMALLY****
TOTAL RUN TIME: 0 days 0 hours 1 minutes 26 seconds 796 msec
