                         Program Version 5.0.3 -  RELEASE  -
|  1> ! PBEh-3c def2/J TightSCF DefGrid3
|  2>
|  3> %maxcore 60000
|  4>
|  5> %pal
|  6> nprocs 4
|  7> end
|  8>
|  9> *xyzfile 1 1 H3OpH2O2.xyz
| 10>
| 11>                          ****END OF INPUT****

CARTESIAN COORDINATES (ANGSTROEM)
---------------------------------
  O      0.427712    0.167195    2.099489
  H      0.910223   -0.513736    2.580987
  H      0.202663    0.868803    2.721137
  O      0.427712    0.167195   -2.099489
  H      0.910223   -0.513736   -2.580987
  H      0.202663    0.868803   -2.721137
  O     -0.892667   -0.107072    0.000000
  H     -0.340915   -0.042131    0.880691
  H     -0.340915   -0.042131   -0.880691
  H     -1.506697   -0.853187    0.000000

 Total Charge           Charge          ....    1
 Multiplicity           Mult            ....    1
 Number of Electrons    NEL             ....   30
 Basis Dimension        Dim             ....   59

ORBITAL ENERGIES
----------------

  NO   OCC          E(Eh)            E(eV)
   0   2.0000     -19.761556      -537.7393
   1   2.0000     -19.706749      -536.2479
   2   2.0000     -19.706726      -536.2473
   3   2.0000      -1.399292       -38.0767
   4   2.0000      -1.330432       -36.2029
   5   2.0000      -1.325908       -36.0798
   6   2.0000      -0.867937       -23.6178
   7   2.0000      -0.866871       -23.5888
   8   2.0000      -0.809465       -22.0267
   9   2.0000      -0.809087       -22.0164
  10   2.0000      -0.696741       -18.9593
  11   2.0000      -0.659194       -17.9376
  12   2.0000      -0.648908       -17.6577
  13   2.0000      -0.590680       -16.0732
  14   2.0000      -0.586664       -15.9639
  15   0.0000      -0.085031        -2.3138
  16   0.0000      -0.051737        -1.4078
  17   0.0000      -0.033085        -0.9003
  18   0.0000       0.029262         0.7962
  19   0.0000       0.029363         0.7990

MULLIKEN ATOMIC CHARGES
-----------------------
   0 O :   -0.837312
   1 H :    0.483390
   2 H :    0.486138
   3 O :   -0.837312
   4 H :    0.483390
   5 H :    0.486138
   6 O :   -0.829554
   7 H :    0.530190
   8 H :    0.530190
   9 H :    0.504740
Sum of atomic charges:    1.0000000

LOEWDIN ATOMIC CHARGES
----------------------
   0 O :   -0.532195
   1 H :    0.347944
   2 H :    0.350570
   3 O :   -0.532195
   4 H :    0.347944
   5 H :    0.350570
   6 O :   -0.421492
   7 H :    0.358759
   8 H :    0.358759
   9 H :    0.371338

  Mayer bond orders larger than 0.100000
B(  0-O ,  1-H ) :   0.7492 B(  0-O ,  2-H ) :   0.7467 B(  0-O ,  7-H ) :   0.2306
B(  3-O ,  4-H ) :   0.7492 B(  3-O ,  5-H ) :   0.7467 B(  3-O ,  8-H ) :   0.2306
B(  6-O ,  7-H ) :   0.5042 B(  6-O ,  8-H ) :   0.5042 B(  6-O ,  9-H ) :   0.7293

Dispersion correction           -0.001991395
FINAL SINGLE POINT ENERGY      -229.161863452780

DIPOLE MOMENT
-------------
                                X             Y             Z
Electronic contribution:     -0.21408      -0.04047       0.00000
Nuclear contribution   :      0.10144      -0.61915       0.00000
                        -----------------------------------------
Total Dipole Moment    :     -0.11264      -0.65962       0.00000
                        -----------------------------------------
Magnitude (a.u.)       :      0.66917
Magnitude (Debye)      :      1.70089

Rotational constants in cm-1:     0.635404     0.097116     0.086505
Rotational constants in MHz : 19048.944655  2911.477992  2593.344072

                             ****ORCA TERMINATED NORMALLY****
TOTAL RUN TIME: 0 days 0 hours 1 minutes 3 seconds 641 msec
