                         Program Version 5.0.3 -  RELEASE  -
|  1> ! PBEh-3c def2/J TightSCF DefGrid3
|  2>
|  3> %maxcore 60000
|  4>
|  5> %pal
|  6> nprocs 4
|  7> end
|  8>
|  9> *xyzfile 0 1 bih3_hbr.xyz
| 10>
| 11>                          ****END OF INPUT****

CARTESIAN COORDINATES (ANGSTROEM)
---------------------------------
  Bi     0.000000    0.000000    1.032005
  H     -0.718722    1.244863    2.050298
  H     -0.718722   -1.244863    2.050298
  H      1.437444    0.000000    2.050298
  Br     0.000000    0.000000   -2.883569
  H      0.000000    0.000000   -4.299331

 Total Charge           Charge          ....    0
 Multiplicity           Mult            ....    1
 Number of Electrons    NEL             ....   62
 Basis Dimension        Dim             ....   66

ORBITAL ENERGIES
----------------

  NO   OCC          E(Eh)            E(eV)
   0   2.0000    -484.535370    -13184.8777
   1   2.0000     -63.199087     -1719.7346
   2   2.0000     -56.902882     -1548.4061
   3   2.0000     -56.901275     -1548.3624
   4   2.0000     -56.901275     -1548.3624
   5   2.0000      -9.028556      -245.6795
   6   2.0000      -6.803265      -185.1262
   7   2.0000      -6.790362      -184.7751
   8   2.0000      -6.790362      -184.7751
   9   2.0000      -6.169711      -167.8864
  10   2.0000      -3.860308      -105.0443
  11   2.0000      -3.860308      -105.0443
  12   2.0000      -3.856165      -104.9316
  13   2.0000      -2.817173       -76.6592
  14   2.0000      -2.812676       -76.5368
  15   2.0000      -2.812676       -76.5368
  16   2.0000      -2.801898       -76.2435
  17   2.0000      -2.801895       -76.2434
  18   2.0000      -1.141137       -31.0519
  19   2.0000      -1.141134       -31.0518
  20   2.0000      -1.134330       -30.8667
  21   2.0000      -1.134328       -30.8666
  22   2.0000      -1.130800       -30.7706
  23   2.0000      -0.876487       -23.8504
  24   2.0000      -0.683110       -18.5884
  25   2.0000      -0.500357       -13.6154
  26   2.0000      -0.369151       -10.0451
  27   2.0000      -0.369149       -10.0451
  28   2.0000      -0.353568        -9.6211
  29   2.0000      -0.353568        -9.6211
  30   2.0000      -0.309534        -8.4228
  31   0.0000       0.026415         0.7188
  32   0.0000       0.030481         0.8294
  33   0.0000       0.030483         0.8295
  34   0.0000       0.109846         2.9890
  35   0.0000       0.295522         8.0416

MULLIKEN ATOMIC CHARGES
-----------------------
   0 Bi:    0.009546
   1 H :   -0.002325
   2 H :   -0.002325
   3 H :   -0.002305
   4 Br:   -0.251417
   5 H :    0.248827
Sum of atomic charges:   -0.0000000

LOEWDIN ATOMIC CHARGES
----------------------
   0 Bi:    0.001310
   1 H :   -0.001488
   2 H :   -0.001488
   3 H :   -0.001477
   4 Br:   -0.158295
   5 H :    0.161438

  Mayer bond orders larger than 0.100000
B(  0-Bi,  1-H ) :   0.9832 B(  0-Bi,  2-H ) :   0.9832 B(  0-Bi,  3-H ) :   0.9832
B(  4-Br,  5-H ) :   0.9087

Dispersion correction           -0.001438898
FINAL SINGLE POINT ENERGY     -2790.002806648390

DIPOLE MOMENT
-------------
                                X             Y             Z
Electronic contribution:      0.00003      -0.00000     136.52944
Nuclear contribution   :     -0.00000       0.00000    -137.22203
                        -----------------------------------------
Total Dipole Moment    :      0.00003      -0.00000      -0.69259
                        -----------------------------------------
Magnitude (a.u.)       :      0.69259
Magnitude (Debye)      :      1.76042

Rotational constants in cm-1:     2.697946     0.018307     0.018307
Rotational constants in MHz : 80882.396458   548.823915   548.823915

                             ****ORCA TERMINATED NORMALLY****
TOTAL RUN TIME: 0 days 0 hours 1 minutes 32 seconds 748 msec
