                         Program Version 5.0.3 -  RELEASE  -
|  1> ! PBEh-3c def2/J TightSCF DefGrid3
|  2>
|  3> %maxcore 60000
|  4>
|  5> %pal
|  6> nprocs 4
|  7> end
|  8>
|  9> *xyzfile 0 1 ts7h2o.xyz
| 10>
| 11>                          ****END OF INPUT****

CARTESIAN COORDINATES (ANGSTROEM)
---------------------------------
  C      0.627797    0.946896    0.015842
  H      1.453147    1.665092    0.043487
  H     -0.603290   -1.048827   -0.044513
  H     -1.420608    0.330827   -0.042148
  O     -1.731070   -0.710273   -0.096039
  H     -2.183268   -0.955641    0.721700
  O     -0.534895    1.408612   -0.003248
  S      1.069685   -0.703721    0.001295

 Total Charge           Charge          ....    0
 Multiplicity           Mult            ....    1
 Number of Electrons    NEL             ....   42
 Basis Dimension        Dim             ....   71

ORBITAL ENERGIES
----------------

  NO   OCC          E(Eh)            E(eV)
   0   2.0000     -89.562553     -2437.1210
   1   2.0000     -19.561439      -532.2938
   2   2.0000     -19.519464      -531.1516
   3   2.0000     -10.566744      -287.5357
   4   2.0000      -8.204670      -223.2604
   5   2.0000      -6.094912      -165.8510
   6   2.0000      -6.090201      -165.7228
   7   2.0000      -6.089823      -165.7125
   8   2.0000      -1.197764       -32.5928
   9   2.0000      -1.161076       -31.5945
  10   2.0000      -0.842581       -22.9278
  11   2.0000      -0.701313       -19.0837
  12   2.0000      -0.623093       -16.9552
  13   2.0000      -0.600281       -16.3345
  14   2.0000      -0.541881       -14.7453
  15   2.0000      -0.495198       -13.4750
  16   2.0000      -0.471894       -12.8409
  17   2.0000      -0.465143       -12.6572
  18   2.0000      -0.344002        -9.3608
  19   2.0000      -0.309229        -8.4145
  20   2.0000      -0.300675        -8.1818
  21   0.0000      -0.005929        -0.1613
  22   0.0000       0.090759         2.4697
  23   0.0000       0.127372         3.4660
  24   0.0000       0.175403         4.7730
  25   0.0000       0.220805         6.0084

MULLIKEN ATOMIC CHARGES
-----------------------
   0 C :    0.016101
   1 H :    0.241135
   2 H :    0.372005
   3 H :    0.489343
   4 O :   -0.806130
   5 H :    0.453298
   6 O :   -0.471813
   7 S :   -0.293938
Sum of atomic charges:   -0.0000000

LOEWDIN ATOMIC CHARGES
----------------------
   0 C :   -0.092900
   1 H :    0.121110
   2 H :    0.276617
   3 H :    0.353300
   4 O :   -0.533305
   5 H :    0.332347
   6 O :   -0.310689
   7 S :   -0.146480

  Mayer bond orders larger than 0.100000
B(  0-C ,  1-H ) :   0.8694 B(  0-C ,  6-O ) :   1.6499 B(  0-C ,  7-S ) :   1.3695
B(  2-H ,  4-O ) :   0.3983 B(  2-H ,  7-S ) :   0.4698 B(  3-H ,  4-O ) :   0.4927
B(  3-H ,  6-O ) :   0.2730 B(  4-O ,  5-H ) :   0.7699 B(  6-O ,  7-S ) :   0.1504

Dispersion correction           -0.002922246
FINAL SINGLE POINT ENERGY      -588.269690869166

DIPOLE MOMENT
-------------
                                X             Y             Z
Electronic contribution:      2.08898      -0.16799      -0.04021
Nuclear contribution   :     -2.77969       0.02381       0.66659
                        -----------------------------------------
Total Dipole Moment    :     -0.69071      -0.14418       0.62639
                        -----------------------------------------
Magnitude (a.u.)       :      0.94352
Magnitude (Debye)      :      2.39823

Rotational constants in cm-1:     0.236157     0.161297     0.096552
Rotational constants in MHz :  7079.806700  4835.547584  2894.547975

                             ****ORCA TERMINATED NORMALLY****
TOTAL RUN TIME: 0 days 0 hours 1 minutes 16 seconds 323 msec
