                         Program Version 5.0.3 -  RELEASE  -
|  1> ! PBEh-3c def2/J TightSCF DefGrid3
|  2>
|  3> %maxcore 60000
|  4>
|  5> %pal
|  6> nprocs 4
|  7> end
|  8>
|  9> *xyzfile 0 1 pxylene.xyz
| 10>
| 11>                          ****END OF INPUT****

CARTESIAN COORDINATES (ANGSTROEM)
---------------------------------
  C      0.000000    1.421761    0.006875
  C      0.000000    0.696642   -1.195452
  C      0.000000   -0.696642   -1.195452
  C      0.000000   -1.421761    0.006875
  C      0.000000   -0.699210    1.204565
  C      0.000000    0.699210    1.204565
  C      0.000000    2.928395   -0.000876
  C      0.000000   -2.928395   -0.000876
  H      0.000000    1.236154   -2.145392
  H      0.000000   -1.236154   -2.145392
  H      0.000000   -1.240217    2.153347
  H      0.000000    1.240217    2.153347
  H      0.000000    3.329708    1.021698
  H     -0.885590    3.323221   -0.522382
  H      0.885590    3.323221   -0.522382
  H      0.000000   -3.329708    1.021698
  H     -0.885590   -3.323221   -0.522382
  H      0.885590   -3.323221   -0.522382

 Total Charge           Charge          ....    0
 Multiplicity           Mult            ....    1
 Number of Electrons    NEL             ....   58
 Basis Dimension        Dim             ....  140

ORBITAL ENERGIES
----------------

  NO   OCC          E(Eh)            E(eV)
   0   2.0000     -10.452925      -284.4386
   1   2.0000     -10.452878      -284.4373
   2   2.0000     -10.443137      -284.1722
   3   2.0000     -10.442729      -284.1611
   4   2.0000     -10.442576      -284.1569
   5   2.0000     -10.442192      -284.1465
   6   2.0000     -10.435038      -283.9518
   7   2.0000     -10.435026      -283.9515
   8   2.0000      -0.952087       -25.9076
   9   2.0000      -0.874629       -23.7999
  10   2.0000      -0.827467       -22.5165
  11   2.0000      -0.800953       -21.7950
  12   2.0000      -0.731586       -19.9075
  13   2.0000      -0.678855       -18.4726
  14   2.0000      -0.641378       -17.4528
  15   2.0000      -0.552093       -15.0232
  16   2.0000      -0.530213       -14.4278
  17   2.0000      -0.509312       -13.8591
  18   2.0000      -0.476939       -12.9782
  19   2.0000      -0.471168       -12.8211
  20   2.0000      -0.467529       -12.7221
  21   2.0000      -0.453208       -12.3324
  22   2.0000      -0.449500       -12.2315
  23   2.0000      -0.423721       -11.5300
  24   2.0000      -0.391900       -10.6641
  25   2.0000      -0.389564       -10.6006
  26   2.0000      -0.383063       -10.4237
  27   2.0000      -0.286593        -7.7986
  28   2.0000      -0.268244        -7.2993
  29   0.0000       0.021582         0.5873
  30   0.0000       0.025747         0.7006
  31   0.0000       0.142995         3.8911
  32   0.0000       0.163837         4.4582
  33   0.0000       0.176847         4.8123

MULLIKEN ATOMIC CHARGES
-----------------------
   0 C :    0.108598
   1 C :   -0.249551
   2 C :   -0.249551
   3 C :    0.108597
   4 C :   -0.254372
   5 C :   -0.254372
   6 C :   -0.704206
   7 C :   -0.704206
   8 H :    0.207838
   9 H :    0.207838
  10 H :    0.206815
  11 H :    0.206815
  12 H :    0.224785
  13 H :    0.230047
  14 H :    0.230047
  15 H :    0.224785
  16 H :    0.230047
  17 H :    0.230047
Sum of atomic charges:    0.0000000

LOEWDIN ATOMIC CHARGES
----------------------
   0 C :   -0.058565
   1 C :   -0.132444
   2 C :   -0.132444
   3 C :   -0.058565
   4 C :   -0.136720
   5 C :   -0.136720
   6 C :   -0.347129
   7 C :   -0.347129
   8 H :    0.133252
   9 H :    0.133252
  10 H :    0.132519
  11 H :    0.132519
  12 H :    0.133110
  13 H :    0.137988
  14 H :    0.137988
  15 H :    0.133110
  16 H :    0.137988
  17 H :    0.137988

  Mayer bond orders larger than 0.100000
B(  0-C ,  1-C ) :   1.3682 B(  0-C ,  5-C ) :   1.4316 B(  0-C ,  6-C ) :   0.9541
B(  1-C ,  2-C ) :   1.4520 B(  1-C ,  8-H ) :   0.9267 B(  2-C ,  3-C ) :   1.3682
B(  2-C ,  9-H ) :   0.9267 B(  3-C ,  4-C ) :   1.4316 B(  3-C ,  7-C ) :   0.9541
B(  4-C ,  5-C ) :   1.4190 B(  4-C , 10-H ) :   0.9208 B(  5-C , 11-H ) :   0.9208
B(  6-C , 12-H ) :   0.9330 B(  6-C , 13-H ) :   0.9192 B(  6-C , 14-H ) :   0.9192
B(  7-C , 15-H ) :   0.9330 B(  7-C , 16-H ) :   0.9192 B(  7-C , 17-H ) :   0.9192

Dispersion correction           -0.009554756
FINAL SINGLE POINT ENERGY      -310.191489405978

DIPOLE MOMENT
-------------
                                X             Y             Z
Electronic contribution:     -0.00000      -0.00000       0.01394
Nuclear contribution   :      0.00000      -0.00000      -0.05774
                        -----------------------------------------
Total Dipole Moment    :     -0.00000      -0.00000      -0.04380
                        -----------------------------------------
Magnitude (a.u.)       :      0.04380
Magnitude (Debye)      :      0.11133

Rotational constants in cm-1:     0.178995     0.047596     0.038136
Rotational constants in MHz :  5366.137224  1426.881266  1143.289793

                             ****ORCA TERMINATED NORMALLY****
TOTAL RUN TIME: 0 days 0 hours 1 minutes 46 seconds 146 msec
