                         Program Version 5.0.3 -  RELEASE  -
|  1> ! PBEh-3c def2/J TightSCF DefGrid3
|  2>
|  3> %maxcore 60000
|  4>
|  5> %pal
|  6> nprocs 4
|  7> end
|  8>
|  9> *xyzfile -1 1 10.xyz
| 10>
| 11>                          ****END OF INPUT****

CARTESIAN COORDINATES (ANGSTROEM)
---------------------------------
  O      1.235834   -0.091774   -0.067936
  H      1.547558    0.571928    0.556913
  O     -1.231110    0.097904   -0.053724
  H     -0.117738    0.033669   -0.065283
  H     -1.468970   -0.655920    0.493103

 Total Charge           Charge          ....   -1
 Multiplicity           Mult            ....    1
 Number of Electrons    NEL             ....   20
 Basis Dimension        Dim             ....   36

ORBITAL ENERGIES
----------------

  NO   OCC          E(Eh)            E(eV)
   0   2.0000     -19.170364      -521.6521
   1   2.0000     -19.115497      -520.1591
   2   2.0000      -0.785535       -21.3755
   3   2.0000      -0.703471       -19.1424
   4   2.0000      -0.268714        -7.3121
   5   2.0000      -0.179849        -4.8939
   6   2.0000      -0.132287        -3.5997
   7   2.0000      -0.064553        -1.7566
   8   2.0000      -0.008946        -0.2434
   9   2.0000      -0.005664        -0.1541
  10   0.0000       0.383480        10.4350
  11   0.0000       0.426292        11.6000
  12   0.0000       0.642132        17.4733
  13   0.0000       1.103953        30.0401
  14   0.0000       1.186972        32.2992

MULLIKEN ATOMIC CHARGES
-----------------------
   0 O :   -1.023999
   1 H :    0.275039
   2 O :   -0.971389
   3 H :    0.409209
   4 H :    0.311141
Sum of atomic charges:   -1.0000000

LOEWDIN ATOMIC CHARGES
----------------------
   0 O :   -0.928523
   1 H :    0.200018
   2 O :   -0.805852
   3 H :    0.303267
   4 H :    0.231090

  Mayer bond orders larger than 0.100000
B(  0-O ,  1-H ) :   0.8889 B(  0-O ,  3-H ) :   0.3815 B(  2-O ,  3-H ) :   0.4792
B(  2-O ,  4-H ) :   0.8739

Dispersion correction           -0.000696786
FINAL SINGLE POINT ENERGY      -151.893654506595

DIPOLE MOMENT
-------------
                                X             Y             Z
Electronic contribution:     -0.31877      -0.00316      -0.31533
Nuclear contribution   :     -0.03959      -0.05097       0.99951
                        -----------------------------------------
Total Dipole Moment    :     -0.35837      -0.05413       0.68419
                        -----------------------------------------
Magnitude (a.u.)       :      0.77425
Magnitude (Debye)      :      1.96800

Rotational constants in cm-1:    10.276255     0.312117     0.310226
Rotational constants in MHz : 308074.382317  9357.037798  9300.355618

                             ****ORCA TERMINATED NORMALLY****
TOTAL RUN TIME: 0 days 0 hours 1 minutes 0 seconds 901 msec
