                         Program Version 5.0.3 -  RELEASE  -
|  1> ! PBEh-3c def2/J TightSCF DefGrid3
|  2>
|  3> %maxcore 60000
|  4>
|  5> %pal
|  6> nprocs 4
|  7> end
|  8>
|  9> *xyzfile 0 1 17.xyz
| 10>
| 11>                          ****END OF INPUT****

CARTESIAN COORDINATES (ANGSTROEM)
---------------------------------
  N      0.629766    2.847754    0.591709
  C      1.721464    2.298733   -0.045087
  C      1.340485    1.178725   -0.751521
  C     -0.075782    1.036939   -0.547349
  C     -1.035708    0.111826   -0.999266
  C     -2.351230    0.271747   -0.600494
  C     -2.743638    1.339682    0.236409
  C     -1.820896    2.268373    0.690756
  C     -0.488300    2.100617    0.294831
  H      0.637505    3.697059    1.126267
  H      2.696563    2.749382    0.049999
  H     -0.773963   -0.717548   -1.641631
  H     -3.787938    1.422007    0.505587
  H     -2.124693    3.089981    1.326644
  O     -3.316756   -0.611771   -1.041700
  C     -3.429001   -1.751500   -0.181159
  H     -2.477647   -2.278388   -0.102205
  H     -3.751785   -1.447597    0.817764
  H     -4.182468   -2.397708   -0.624150
  C      2.256248    0.267744   -1.508423
  C      2.688184   -0.969305   -0.701001
  N      1.605724   -1.892120   -0.419130
  C      0.831812   -1.981630    0.705826
  C      1.255331   -1.160888    1.905326
  H      1.780174   -0.065211   -2.434667
  H      3.158981    0.813252   -1.796395
  H      3.459088   -1.509011   -1.255799
  H      3.132930   -0.651734    0.240046
  H      1.252103   -2.444636   -1.185037
  O     -0.144859   -2.720151    0.735704
  H      2.263166   -1.428182    2.224866
  H      1.238720   -0.096363    1.674540
  H      0.556421   -1.370071    2.708736

 Total Charge           Charge          ....    0
 Multiplicity           Mult            ....    1
 Number of Electrons    NEL             ....  124
 Basis Dimension        Dim             ....  287

ORBITAL ENERGIES
----------------

  NO   OCC          E(Eh)            E(eV)
   0   2.0000     -19.491154      -530.3813
   1   2.0000     -19.446182      -529.1575
   2   2.0000     -14.688063      -399.6825
   3   2.0000     -14.653795      -398.7500
   4   2.0000     -10.541577      -286.8509
   5   2.0000     -10.485749      -285.3317
   6   2.0000     -10.485194      -285.3166
   7   2.0000     -10.482469      -285.2425
   8   2.0000     -10.479467      -285.1608
   9   2.0000     -10.459880      -284.6278
  10   2.0000     -10.452768      -284.4343
  11   2.0000     -10.449450      -284.3440
  12   2.0000     -10.446115      -284.2533
  13   2.0000     -10.445677      -284.2413
  14   2.0000     -10.439037      -284.0606
  15   2.0000     -10.437710      -284.0245
  16   2.0000     -10.429877      -283.8114
  17   2.0000      -1.139324       -31.0026
  18   2.0000      -1.131543       -30.7908
  19   2.0000      -1.089840       -29.6561
  20   2.0000      -1.017681       -27.6925
  21   2.0000      -0.933865       -25.4118
  22   2.0000      -0.900219       -24.4962
  23   2.0000      -0.845297       -23.0017
  24   2.0000      -0.822903       -22.3923
  25   2.0000      -0.817810       -22.2537
  26   2.0000      -0.802286       -21.8313
  27   2.0000      -0.753024       -20.4908
  28   2.0000      -0.733785       -19.9673
  29   2.0000      -0.694375       -18.8949
  30   2.0000      -0.664298       -18.0765
  31   2.0000      -0.645957       -17.5774
  32   2.0000      -0.631315       -17.1790
  33   2.0000      -0.611450       -16.6384
  34   2.0000      -0.563134       -15.3237
  35   2.0000      -0.556671       -15.1478
  36   2.0000      -0.551426       -15.0051
  37   2.0000      -0.540494       -14.7076
  38   2.0000      -0.520971       -14.1763
  39   2.0000      -0.514610       -14.0033
  40   2.0000      -0.500595       -13.6219
  41   2.0000      -0.496320       -13.5055
  42   2.0000      -0.490942       -13.3592
  43   2.0000      -0.485123       -13.2009
  44   2.0000      -0.478821       -13.0294
  45   2.0000      -0.469308       -12.7705
  46   2.0000      -0.460773       -12.5383
  47   2.0000      -0.452011       -12.2999
  48   2.0000      -0.448023       -12.1913
  49   2.0000      -0.444545       -12.0967
  50   2.0000      -0.434112       -11.8128
  51   2.0000      -0.413288       -11.2461
  52   2.0000      -0.406046       -11.0491
  53   2.0000      -0.394413       -10.7325
  54   2.0000      -0.392024       -10.6675
  55   2.0000      -0.367850       -10.0097
  56   2.0000      -0.323016        -8.7897
  57   2.0000      -0.311329        -8.4717
  58   2.0000      -0.299592        -8.1523
  59   2.0000      -0.293391        -7.9836
  60   2.0000      -0.253120        -6.8877
  61   2.0000      -0.240203        -6.5363
  62   0.0000       0.006460         0.1758
  63   0.0000       0.051502         1.4015
  64   0.0000       0.070041         1.9059
  65   0.0000       0.083898         2.2830
  66   0.0000       0.121903         3.3171

MULLIKEN ATOMIC CHARGES
-----------------------
   0 N :   -0.695225
   1 C :   -0.063176
   2 C :    0.017051
   3 C :    0.061590
   4 C :   -0.400855
   5 C :    0.360462
   6 C :   -0.312803
   7 C :   -0.265495
   8 C :    0.352680
   9 H :    0.358247
  10 H :    0.237926
  11 H :    0.210071
  12 H :    0.229305
  13 H :    0.212355
  14 O :   -0.491298
  15 C :   -0.400772
  16 H :    0.249119
  17 H :    0.194355
  18 H :    0.209927
  19 C :   -0.525005
  20 C :   -0.278533
  21 N :   -0.607072
  22 C :    0.520846
  23 C :   -0.781677
  24 H :    0.230741
  25 H :    0.226818
  26 H :    0.233082
  27 H :    0.233132
  28 H :    0.355823
  29 O :   -0.434293
  30 H :    0.228286
  31 H :    0.266750
  32 H :    0.267638
Sum of atomic charges:   -0.0000000

LOEWDIN ATOMIC CHARGES
----------------------
   0 N :   -0.157055
   1 C :   -0.090113
   2 C :   -0.111964
   3 C :   -0.061103
   4 C :   -0.141743
   5 C :    0.046156
   6 C :   -0.152197
   7 C :   -0.157460
   8 C :    0.009497
   9 H :    0.262033
  10 H :    0.134251
  11 H :    0.142617
  12 H :    0.143898
  13 H :    0.136097
  14 O :   -0.225326
  15 C :   -0.178069
  16 H :    0.129631
  17 H :    0.107182
  18 H :    0.119471
  19 C :   -0.235411
  20 C :   -0.143425
  21 N :   -0.243084
  22 C :    0.115524
  23 C :   -0.396999
  24 H :    0.134386
  25 H :    0.135915
  26 H :    0.123986
  27 H :    0.132119
  28 H :    0.255442
  29 O :   -0.284537
  30 H :    0.139875
  31 H :    0.155376
  32 H :    0.155031

  Mayer bond orders larger than 0.100000
B(  0-N ,  1-C ) :   1.1379 B(  0-N ,  8-C ) :   1.0098 B(  0-N ,  9-H ) :   0.8341
B(  1-C ,  2-C ) :   1.5562 B(  1-C , 10-H ) :   0.9118 B(  2-C ,  3-C ) :   1.2380
B(  2-C , 19-C ) :   0.9511 B(  3-C ,  4-C ) :   1.2476 B(  3-C ,  8-C ) :   1.2473
B(  4-C ,  5-C ) :   1.4881 B(  4-C , 11-H ) :   0.9245 B(  5-C ,  6-C ) :   1.3284
B(  5-C , 14-O ) :   0.9694 B(  6-C ,  7-C ) :   1.4798 B(  6-C , 12-H ) :   0.9128
B(  7-C ,  8-C ) :   1.2889 B(  7-C , 13-H ) :   0.9216 B( 14-O , 15-C ) :   0.9318
B( 15-C , 16-H ) :   0.8836 B( 15-C , 17-H ) :   0.9166 B( 15-C , 18-H ) :   0.9307
B( 19-C , 20-C ) :   0.9535 B( 19-C , 24-H ) :   0.9186 B( 19-C , 25-H ) :   0.9208
B( 20-C , 21-N ) :   0.9638 B( 20-C , 26-H ) :   0.9127 B( 20-C , 27-H ) :   0.9072
B( 21-N , 22-C ) :   1.1474 B( 21-N , 28-H ) :   0.8230 B( 22-C , 23-C ) :   0.9334
B( 22-C , 29-O ) :   1.9921 B( 23-C , 30-H ) :   0.9110 B( 23-C , 31-H ) :   0.8918
B( 23-C , 32-H ) :   0.9176

Dispersion correction           -0.023595929
FINAL SINGLE POINT ENERGY      -763.324207759911

DIPOLE MOMENT
-------------
                                X             Y             Z
Electronic contribution:     -3.92743       4.91888      -2.28415
Nuclear contribution   :      5.64735      -3.65699       2.75209
                        -----------------------------------------
Total Dipole Moment    :      1.71992       1.26189       0.46794
                        -----------------------------------------
Magnitude (a.u.)       :      2.18391
Magnitude (Debye)      :      5.55105

Rotational constants in cm-1:     0.019305     0.015478     0.010569
Rotational constants in MHz :   578.750315   464.008070   316.842437

                             ****ORCA TERMINATED NORMALLY****
TOTAL RUN TIME: 0 days 0 hours 4 minutes 38 seconds 242 msec
