                         Program Version 5.0.3 -  RELEASE  -
|  1> ! PBEh-3c def2/J TightSCF DefGrid3
|  2>
|  3> %maxcore 60000
|  4>
|  5> %pal
|  6> nprocs 4
|  7> end
|  8>
|  9> *xyzfile 0 1 cys.xyz
| 10>
| 11>                          ****END OF INPUT****

CARTESIAN COORDINATES (ANGSTROEM)
---------------------------------
  C      0.280164    0.236380    0.472118
  H      0.732259    0.431317    1.452944
  C      1.186212   -0.804442   -0.187030
  O      2.017600   -0.297060   -1.066215
  H      1.789160    0.665162   -1.117936
  O      1.174237   -1.979319    0.079556
  N      0.351313    1.459024   -0.302360
  H     -0.389993    1.495566   -0.994916
  H      0.270829    2.280208    0.281382
  C     -1.120488   -0.310604    0.726071
  H     -1.091038   -1.210523    1.338583
  H     -1.700252    0.434196    1.272533
  S     -2.059256   -0.634179   -0.798363
  H     -1.440749   -1.765725   -1.156367

 Total Charge           Charge          ....    0
 Multiplicity           Mult            ....    1
 Number of Electrons    NEL             ....   64
 Basis Dimension        Dim             ....  122

ORBITAL ENERGIES
----------------

  NO   OCC          E(Eh)            E(eV)
   0   2.0000     -89.591138     -2437.8988
   1   2.0000     -19.526187      -531.3346
   2   2.0000     -19.470692      -529.8245
   3   2.0000     -14.659417      -398.9030
   4   2.0000     -10.570653      -287.6421
   5   2.0000     -10.508239      -285.9437
   6   2.0000     -10.491257      -285.4816
   7   2.0000      -8.232063      -224.0058
   8   2.0000      -6.123116      -166.6184
   9   2.0000      -6.119833      -166.5291
  10   2.0000      -6.114498      -166.3839
  11   2.0000      -1.216549       -33.1040
  12   2.0000      -1.119895       -30.4739
  13   2.0000      -1.030944       -28.0534
  14   2.0000      -0.896061       -24.3831
  15   2.0000      -0.807574       -21.9752
  16   2.0000      -0.722520       -19.6608
  17   2.0000      -0.669033       -18.2053
  18   2.0000      -0.622538       -16.9401
  19   2.0000      -0.582584       -15.8529
  20   2.0000      -0.554598       -15.0914
  21   2.0000      -0.521874       -14.2009
  22   2.0000      -0.513997       -13.9866
  23   2.0000      -0.489673       -13.3247
  24   2.0000      -0.477618       -12.9966
  25   2.0000      -0.451544       -12.2871
  26   2.0000      -0.422996       -11.5103
  27   2.0000      -0.385951       -10.5023
  28   2.0000      -0.362415        -9.8618
  29   2.0000      -0.361043        -9.8245
  30   2.0000      -0.315930        -8.5969
  31   2.0000      -0.299575        -8.1518
  32   0.0000       0.042889         1.1671
  33   0.0000       0.067405         1.8342
  34   0.0000       0.103171         2.8074
  35   0.0000       0.114896         3.1265
  36   0.0000       0.153551         4.1783

MULLIKEN ATOMIC CHARGES
-----------------------
   0 C :   -0.232038
   1 H :    0.272906
   2 C :    0.542950
   3 O :   -0.559249
   4 H :    0.461585
   5 O :   -0.396735
   6 N :   -0.804185
   7 H :    0.359445
   8 H :    0.349517
   9 C :   -0.567424
  10 H :    0.293854
  11 H :    0.261215
  12 S :   -0.197319
  13 H :    0.215479
Sum of atomic charges:   -0.0000000

LOEWDIN ATOMIC CHARGES
----------------------
   0 C :   -0.153306
   1 H :    0.152438
   2 C :    0.097987
   3 O :   -0.274503
   4 H :    0.332094
   5 O :   -0.229800
   6 N :   -0.456641
   7 H :    0.240136
   8 H :    0.240553
   9 C :   -0.344475
  10 H :    0.157031
  11 H :    0.140569
  12 S :   -0.022038
  13 H :    0.119957

  Mayer bond orders larger than 0.100000
B(  0-C ,  1-H ) :   0.8825 B(  0-C ,  2-C ) :   0.8989 B(  0-C ,  6-N ) :   0.9984
B(  0-C ,  9-C ) :   0.9201 B(  2-C ,  3-O ) :   1.2324 B(  2-C ,  5-O ) :   2.0346
B(  3-O ,  4-H ) :   0.6731 B(  4-H ,  6-N ) :   0.1173 B(  6-N ,  7-H ) :   0.8212
B(  6-N ,  8-H ) :   0.8481 B(  9-C , 10-H ) :   0.8718 B(  9-C , 11-H ) :   0.8952
B(  9-C , 12-S ) :   1.0451 B( 12-S , 13-H ) :   0.9068

Dispersion correction           -0.007510511
FINAL SINGLE POINT ENERGY      -720.803305122904

DIPOLE MOMENT
-------------
                                X             Y             Z
Electronic contribution:      0.56302      -2.90819      -2.13455
Nuclear contribution   :     -1.18890       4.59435       2.77371
                        -----------------------------------------
Total Dipole Moment    :     -0.62588       1.68617       0.63916
                        -----------------------------------------
Magnitude (a.u.)       :      1.90877
Magnitude (Debye)      :      4.85170

Rotational constants in cm-1:     0.103461     0.053088     0.044299
Rotational constants in MHz :  3101.676278  1591.547010  1328.039931

                             ****ORCA TERMINATED NORMALLY****
TOTAL RUN TIME: 0 days 0 hours 1 minutes 42 seconds 945 msec
