                         Program Version 5.0.3 -  RELEASE  -
|  1> ! PBEh-3c def2/J TightSCF DefGrid3
|  2>
|  3> %maxcore 60000
|  4>
|  5> %pal
|  6> nprocs 4
|  7> end
|  8>
|  9> *xyzfile 0 1 ethanol.xyz
| 10>
| 11>                          ****END OF INPUT****

CARTESIAN COORDINATES (ANGSTROEM)
---------------------------------
  C     -0.808738   -0.430167    0.066888
  C      0.662049   -0.061633    0.070237
  O      0.887668    1.327671    0.163279
  H     -0.928390   -1.514827    0.037935
  H     -1.313246   -0.060566    0.961374
  H     -1.321301   -0.020361   -0.806755
  H      1.147947   -0.487577   -0.817131
  H      1.150215   -0.510820    0.938628
  H      0.523796    1.758280   -0.614456

 Total Charge           Charge          ....    0
 Multiplicity           Mult            ....    1
 Number of Electrons    NEL             ....   26
 Basis Dimension        Dim             ....   57

ORBITAL ENERGIES
----------------

  NO   OCC          E(Eh)            E(eV)
   0   2.0000     -19.481956      -530.1310
   1   2.0000     -10.479793      -285.1697
   2   2.0000     -10.425760      -283.6993
   3   2.0000      -1.122521       -30.5453
   4   2.0000      -0.833641       -22.6845
   5   2.0000      -0.697429       -18.9780
   6   2.0000      -0.566406       -15.4127
   7   2.0000      -0.512611       -13.9488
   8   2.0000      -0.489120       -13.3096
   9   2.0000      -0.436212       -11.8699
  10   2.0000      -0.423383       -11.5208
  11   2.0000      -0.373169       -10.1545
  12   2.0000      -0.323600        -8.8056
  13   0.0000       0.129899         3.5347
  14   0.0000       0.175900         4.7865
  15   0.0000       0.198916         5.4128
  16   0.0000       0.211808         5.7636
  17   0.0000       0.217833         5.9275

MULLIKEN ATOMIC CHARGES
-----------------------
   0 C :   -0.669622
   1 C :   -0.150064
   2 O :   -0.617954
   3 H :    0.211412
   4 H :    0.229378
   5 H :    0.202236
   6 H :    0.175851
   7 H :    0.209385
   8 H :    0.409376
Sum of atomic charges:    0.0000000

LOEWDIN ATOMIC CHARGES
----------------------
   0 C :   -0.389159
   1 C :   -0.103643
   2 O :   -0.408214
   3 H :    0.129794
   4 H :    0.132545
   5 H :    0.120306
   6 H :    0.094082
   7 H :    0.118050
   8 H :    0.306240

  Mayer bond orders larger than 0.100000
B(  0-C ,  1-C ) :   0.9782 B(  0-C ,  3-H ) :   0.9201 B(  0-C ,  4-H ) :   0.9218
B(  0-C ,  5-H ) :   0.9306 B(  1-C ,  2-O ) :   1.0284 B(  1-C ,  6-H ) :   0.9126
B(  1-C ,  7-H ) :   0.9153 B(  2-O ,  8-H ) :   0.7943

Dispersion correction           -0.002458804
FINAL SINGLE POINT ENERGY      -154.701452977212

DIPOLE MOMENT
-------------
                                X             Y             Z
Electronic contribution:      1.77078       2.27375       0.26065
Nuclear contribution   :     -2.11454      -2.53993      -0.76412
                        -----------------------------------------
Total Dipole Moment    :     -0.34376      -0.26618      -0.50348
                        -----------------------------------------
Magnitude (a.u.)       :      0.66521
Magnitude (Debye)      :      1.69084

Rotational constants in cm-1:     1.163799     0.307269     0.272175
Rotational constants in MHz : 34889.820666  9211.703322  8159.598631

                             ****ORCA TERMINATED NORMALLY****
TOTAL RUN TIME: 0 days 0 hours 1 minutes 13 seconds 903 msec
