                         Program Version 5.0.3 -  RELEASE  -
|  1> ! PBEh-3c def2/J TightSCF DefGrid3
|  2>
|  3> %maxcore 60000
|  4>
|  5> %pal
|  6> nprocs 4
|  7> end
|  8>
|  9> *xyzfile 0 2 hco.xyz
| 10>
| 11>                          ****END OF INPUT****

CARTESIAN COORDINATES (ANGSTROEM)
---------------------------------
  O     -0.550872    0.029356    0.000000
  C      0.620309   -0.101661    0.000000
  H      1.352411    0.745479   -0.000000

 Total Charge           Charge          ....    0
 Multiplicity           Mult            ....    2
 Number of Electrons    NEL             ....   15
 Basis Dimension        Dim             ....   32

ORBITAL ENERGIES
----------------
                 SPIN UP ORBITALS
  NO   OCC          E(Eh)            E(eV)
   0   1.0000     -19.563993      -532.3633
   1   1.0000     -10.554459      -287.2014
   2   1.0000      -1.222208       -33.2580
   3   1.0000      -0.697135       -18.9700
   4   1.0000      -0.572290       -15.5728
   5   1.0000      -0.508966       -13.8497
   6   1.0000      -0.489226       -13.3125
   7   1.0000      -0.272133        -7.4051
   8   0.0000      -0.010258        -0.2791
   9   0.0000       0.182987         4.9793
  10   0.0000       0.264845         7.2068
  11   0.0000       0.498685        13.5699
  12   0.0000       0.501585        13.6488

                 SPIN DOWN ORBITALS
  NO   OCC          E(Eh)            E(eV)
   0   1.0000     -19.554136      -532.0951
   1   1.0000     -10.542696      -286.8813
   2   1.0000      -1.201831       -32.7035
   3   1.0000      -0.661985       -18.0135
   4   1.0000      -0.541595       -14.7376
   5   1.0000      -0.480932       -13.0868
   6   1.0000      -0.437238       -11.8979
   7   0.0000      -0.035773        -0.9734
   8   0.0000       0.009940         0.2705
   9   0.0000       0.210019         5.7149
  10   0.0000       0.279153         7.5961
  11   0.0000       0.513932        13.9848

MULLIKEN ATOMIC CHARGES AND SPIN POPULATIONS
--------------------------------------------
   0 O :   -0.215390    0.248324
   1 C :    0.020851    0.583481
   2 H :    0.194539    0.168195
Sum of atomic charges         :   -0.0000000

LOEWDIN ATOMIC CHARGES AND SPIN POPULATIONS
-------------------------------------------
   0 O :   -0.069044    0.275161
   1 C :   -0.040856    0.607569
   2 H :    0.109900    0.117270

  Mayer bond orders larger than 0.100000
B(  0-O ,  1-C ) :   2.2949 B(  1-C ,  2-H ) :   0.8509

Dispersion correction           -0.000375808
FINAL SINGLE POINT ENERGY      -113.602352916067

DIPOLE MOMENT
-------------
                                X             Y             Z
Electronic contribution:     -0.65280      -0.38345      -0.00000
Nuclear contribution   :      1.26064       0.69982       0.00000
                        -----------------------------------------
Total Dipole Moment    :      0.60784       0.31637      -0.00000
                        -----------------------------------------
Magnitude (a.u.)       :      0.68525
Magnitude (Debye)      :      1.74176

Rotational constants in cm-1:    24.147716     1.489146     1.402647
Rotational constants in MHz : 723930.319875 44643.474642 42050.308127

                             ****ORCA TERMINATED NORMALLY****
TOTAL RUN TIME: 0 days 0 hours 1 minutes 4 seconds 85 msec
