                         Program Version 5.0.3 -  RELEASE  -
|  1> ! PBEh-3c def2/J TightSCF DefGrid3
|  2>
|  3> %maxcore 60000
|  4>
|  5> %pal
|  6> nprocs 4
|  7> end
|  8>
|  9> *xyzfile 0 1 propyloxirane.xyz
| 10>
| 11>                          ****END OF INPUT****

CARTESIAN COORDINATES (ANGSTROEM)
---------------------------------
  C     -2.494115   -0.014772   -0.987347
  C     -1.025141   -0.015207   -1.064504
  O     -1.761187    1.223927   -0.927589
  H     -3.090577   -0.161649   -1.893835
  H     -2.979474   -0.313611   -0.051882
  H     -0.575960   -0.138437   -2.059360
  C     -0.149060   -0.415154    0.095990
  H      0.066676   -1.495853    0.017536
  H     -0.712689   -0.270467    1.032255
  C      1.168144    0.371266    0.152519
  H      0.936389    1.446639    0.206210
  H      1.720250    0.221180   -0.790606
  C      2.052276   -0.030324    1.335390
  H      2.317720   -1.097829    1.292722
  H      2.988206    0.545582    1.349691
  H      1.538542    0.144708    2.292810

 Total Charge           Charge          ....    0
 Multiplicity           Mult            ....    1
 Number of Electrons    NEL             ....   48
 Basis Dimension        Dim             ....  110

ORBITAL ENERGIES
----------------

  NO   OCC          E(Eh)            E(eV)
   0   2.0000     -19.500152      -530.6261
   1   2.0000     -10.496454      -285.6230
   2   2.0000     -10.489769      -285.4411
   3   2.0000     -10.442860      -284.1647
   4   2.0000     -10.438145      -284.0364
   5   2.0000     -10.428649      -283.7780
   6   2.0000      -1.167825       -31.7781
   7   2.0000      -0.884540       -24.0696
   8   2.0000      -0.799793       -21.7635
   9   2.0000      -0.740466       -20.1491
  10   2.0000      -0.681119       -18.5342
  11   2.0000      -0.651536       -17.7292
  12   2.0000      -0.567425       -15.4404
  13   2.0000      -0.533827       -14.5262
  14   2.0000      -0.518148       -14.0995
  15   2.0000      -0.474784       -12.9195
  16   2.0000      -0.456677       -12.4268
  17   2.0000      -0.445165       -12.1136
  18   2.0000      -0.416147       -11.3239
  19   2.0000      -0.404675       -11.0118
  20   2.0000      -0.394932       -10.7466
  21   2.0000      -0.379075       -10.3152
  22   2.0000      -0.344188        -9.3658
  23   2.0000      -0.322284        -8.7698
  24   0.0000       0.135495         3.6870
  25   0.0000       0.144416         3.9298
  26   0.0000       0.154168         4.1951
  27   0.0000       0.161753         4.4015
  28   0.0000       0.176209         4.7949

MULLIKEN ATOMIC CHARGES
-----------------------
   0 C :   -0.218541
   1 C :    0.023219
   2 O :   -0.454203
   3 H :    0.211406
   4 H :    0.208097
   5 H :    0.218268
   6 C :   -0.436796
   7 H :    0.207524
   8 H :    0.218904
   9 C :   -0.415932
  10 H :    0.231824
  11 H :    0.204722
  12 C :   -0.638438
  13 H :    0.206708
  14 H :    0.221923
  15 H :    0.211314
Sum of atomic charges:    0.0000000

LOEWDIN ATOMIC CHARGES
----------------------
   0 C :   -0.097842
   1 C :   -0.021270
   2 O :   -0.278939
   3 H :    0.121605
   4 H :    0.120357
   5 H :    0.120812
   6 C :   -0.245527
   7 H :    0.127947
   8 H :    0.131209
   9 C :   -0.244346
  10 H :    0.131632
  11 H :    0.119978
  12 C :   -0.361600
  13 H :    0.122498
  14 H :    0.128660
  15 H :    0.124825

  Mayer bond orders larger than 0.100000
B(  0-C ,  1-C ) :   0.9652 B(  0-C ,  2-O ) :   0.9801 B(  0-C ,  3-H ) :   0.9081
B(  0-C ,  4-H ) :   0.9087 B(  1-C ,  2-O ) :   0.9167 B(  1-C ,  5-H ) :   0.9057
B(  1-C ,  6-C ) :   0.9774 B(  6-C ,  7-H ) :   0.9094 B(  6-C ,  8-H ) :   0.9169
B(  6-C ,  9-C ) :   0.9741 B(  9-C , 10-H ) :   0.9121 B(  9-C , 11-H ) :   0.9213
B(  9-C , 12-C ) :   0.9924 B( 12-C , 13-H ) :   0.9296 B( 12-C , 14-H ) :   0.9309
B( 12-C , 15-H ) :   0.9283

Dispersion correction           -0.006428161
FINAL SINGLE POINT ENERGY      -271.142393516862

DIPOLE MOMENT
-------------
                                X             Y             Z
Electronic contribution:     -5.35342       2.12615      -3.36684
Nuclear contribution   :      5.46434      -2.90896       3.37423
                        -----------------------------------------
Total Dipole Moment    :      0.11092      -0.78280       0.00739
                        -----------------------------------------
Magnitude (a.u.)       :      0.79066
Magnitude (Debye)      :      2.00969

Rotational constants in cm-1:     0.377454     0.054502     0.052188
Rotational constants in MHz : 11315.793906  1633.934085  1564.567320

                             ****ORCA TERMINATED NORMALLY****
TOTAL RUN TIME: 0 days 0 hours 1 minutes 34 seconds 79 msec
