                         Program Version 5.0.3 -  RELEASE  -
|  1> ! PBEh-3c def2/J TightSCF DefGrid3
|  2>
|  3> %maxcore 60000
|  4>
|  5> %pal
|  6> nprocs 4
|  7> end
|  8>
|  9> *xyzfile 0 1 44.xyz
| 10>
| 11>                          ****END OF INPUT****

CARTESIAN COORDINATES (ANGSTROEM)
---------------------------------
  C      0.205607    2.764220    0.666268
  H      0.600936    1.930292    1.228498
  H     -0.188593    3.598919    1.228153
  C      0.205607    2.764220   -0.666268
  H      0.600936    1.930292   -1.228498
  H     -0.188593    3.598919   -1.228153
  C      0.225015   -1.005813   -2.532906
  H      0.964277   -0.204937   -2.562869
  H      0.765588   -1.951545   -2.569383
  H     -0.382431   -0.932715   -3.433691
  C     -0.622811   -0.915428   -1.270930
  H     -1.368822   -1.713483   -1.270862
  H     -1.176918    0.025692   -1.262190
  C      0.210362   -1.012360    0.000000
  H      0.763833   -1.956186    0.000000
  H      0.963370   -0.218130    0.000000
  C     -0.622811   -0.915428    1.270930
  H     -1.368822   -1.713483    1.270862
  H     -1.176918    0.025692    1.262190
  C      0.225015   -1.005813    2.532906
  H      0.964277   -0.204937    2.562869
  H     -0.382431   -0.932715    3.433691
  H      0.765588   -1.951545    2.569383

 Total Charge           Charge          ....    0
 Multiplicity           Mult            ....    1
 Number of Electrons    NEL             ....   58
 Basis Dimension        Dim             ....  137

ORBITAL ENERGIES
----------------

  NO   OCC          E(Eh)            E(eV)
   0   2.0000     -10.442061      -284.1429
   1   2.0000     -10.441111      -284.1171
   2   2.0000     -10.426030      -283.7067
   3   2.0000     -10.426026      -283.7066
   4   2.0000     -10.425361      -283.6885
   5   2.0000     -10.420128      -283.5461
   6   2.0000     -10.420118      -283.5458
   7   2.0000      -0.893522       -24.3140
   8   2.0000      -0.850567       -23.1451
   9   2.0000      -0.837452       -22.7882
  10   2.0000      -0.755486       -20.5578
  11   2.0000      -0.670884       -18.2557
  12   2.0000      -0.653432       -17.7808
  13   2.0000      -0.644352       -17.5337
  14   2.0000      -0.545272       -14.8376
  15   2.0000      -0.525237       -14.2924
  16   2.0000      -0.495417       -13.4810
  17   2.0000      -0.489378       -13.3167
  18   2.0000      -0.477815       -13.0020
  19   2.0000      -0.458209       -12.4685
  20   2.0000      -0.448214       -12.1965
  21   2.0000      -0.429089       -11.6761
  22   2.0000      -0.410978       -11.1833
  23   2.0000      -0.401951       -10.9376
  24   2.0000      -0.382489       -10.4080
  25   2.0000      -0.373246       -10.1565
  26   2.0000      -0.366824        -9.9818
  27   2.0000      -0.361741        -9.8435
  28   2.0000      -0.316729        -8.6186
  29   0.0000       0.036418         0.9910
  30   0.0000       0.108712         2.9582
  31   0.0000       0.139405         3.7934
  32   0.0000       0.168661         4.5895
  33   0.0000       0.177878         4.8403

MULLIKEN ATOMIC CHARGES
-----------------------
   0 C :   -0.438393
   1 H :    0.221846
   2 H :    0.217633
   3 C :   -0.438393
   4 H :    0.221846
   5 H :    0.217633
   6 C :   -0.642044
   7 H :    0.205009
   8 H :    0.210927
   9 H :    0.219711
  10 C :   -0.419275
  11 H :    0.207933
  12 H :    0.214445
  13 C :   -0.392880
  14 H :    0.202106
  15 H :    0.195191
  16 C :   -0.419275
  17 H :    0.207933
  18 H :    0.214445
  19 C :   -0.642044
  20 H :    0.205009
  21 H :    0.219711
  22 H :    0.210927
Sum of atomic charges:   -0.0000000

LOEWDIN ATOMIC CHARGES
----------------------
   0 C :   -0.260132
   1 H :    0.129753
   2 H :    0.130874
   3 C :   -0.260132
   4 H :    0.129753
   5 H :    0.130874
   6 C :   -0.361588
   7 H :    0.119475
   8 H :    0.123924
   9 H :    0.126354
  10 C :   -0.248395
  11 H :    0.120132
  12 H :    0.123142
  13 C :   -0.239934
  14 H :    0.118231
  15 H :    0.114626
  16 C :   -0.248395
  17 H :    0.120132
  18 H :    0.123142
  19 C :   -0.361588
  20 H :    0.119475
  21 H :    0.126354
  22 H :    0.123924

  Mayer bond orders larger than 0.100000
B(  0-C ,  1-H ) :   0.9207 B(  0-C ,  2-H ) :   0.9295 B(  0-C ,  3-C ) :   1.9745
B(  3-C ,  4-H ) :   0.9207 B(  3-C ,  5-H ) :   0.9295 B(  6-C ,  7-H ) :   0.9278
B(  6-C ,  8-H ) :   0.9287 B(  6-C ,  9-H ) :   0.9321 B(  6-C , 10-C ) :   0.9965
B( 10-C , 11-H ) :   0.9198 B( 10-C , 12-H ) :   0.9143 B( 10-C , 13-C ) :   0.9905
B( 13-C , 14-H ) :   0.9176 B( 13-C , 15-H ) :   0.9153 B( 13-C , 16-C ) :   0.9905
B( 16-C , 17-H ) :   0.9198 B( 16-C , 18-H ) :   0.9143 B( 16-C , 19-C ) :   0.9965
B( 19-C , 20-H ) :   0.9278 B( 19-C , 21-H ) :   0.9321 B( 19-C , 22-H ) :   0.9287

Dispersion correction           -0.010398216
FINAL SINGLE POINT ENERGY      -275.742517846006

DIPOLE MOMENT
-------------
                                X             Y             Z
Electronic contribution:     -0.49466       1.74696      -0.00000
Nuclear contribution   :      0.43533      -1.73929      -0.00000
                        -----------------------------------------
Total Dipole Moment    :     -0.05933       0.00767      -0.00000
                        -----------------------------------------
Magnitude (a.u.)       :      0.05983
Magnitude (Debye)      :      0.15207

Rotational constants in cm-1:     0.058301     0.053179     0.030063
Rotational constants in MHz :  1747.812986  1594.271148   901.252569

                             ****ORCA TERMINATED NORMALLY****
TOTAL RUN TIME: 0 days 0 hours 1 minutes 34 seconds 447 msec
