                         Program Version 5.0.3 -  RELEASE  -
|  1> ! PBEh-3c def2/J TightSCF DefGrid3
|  2>
|  3> %maxcore 60000
|  4>
|  5> %pal
|  6> nprocs 4
|  7> end
|  8>
|  9> *xyzfile 0 1 n-hexane.xyz
| 10>
| 11>                          ****END OF INPUT****

CARTESIAN COORDINATES (ANGSTROEM)
---------------------------------
  C     -2.358225   -1.103795   -1.910368
  H     -2.018994   -2.150137   -1.948632
  H     -2.018668   -0.613090   -2.835224
  H     -3.457594   -1.109727   -1.920681
  C     -1.810670   -0.389618   -0.672019
  H     -2.195433    0.644268   -0.642505
  H     -2.195674   -0.881319    0.237620
  C     -0.279408   -0.358275   -0.616722
  H      0.106711    0.133099   -1.527520
  H      0.106503   -1.393026   -0.646073
  C      0.279413    0.355197    0.618496
  H     -0.106304   -0.136072    1.529513
  H     -0.106896    1.389814    0.647649
  C      1.810684    0.387321    0.673345
  H      2.195196    0.875124   -0.238608
  H      2.195950   -0.646483    0.648367
  C      2.358213    1.107544    1.908200
  H      2.018752    0.621505    2.835558
  H      3.457583    1.113652    1.918442
  H      2.018860    2.154018    1.941162

 Total Charge           Charge          ....    0
 Multiplicity           Mult            ....    1
 Number of Electrons    NEL             ....   50
 Basis Dimension        Dim             ....  118

ORBITAL ENERGIES
----------------

  NO   OCC          E(Eh)            E(eV)
   0   2.0000     -10.431451      -283.8542
   1   2.0000     -10.431426      -283.8535
   2   2.0000     -10.429598      -283.8038
   3   2.0000     -10.429384      -283.7980
   4   2.0000     -10.423496      -283.6377
   5   2.0000     -10.423488      -283.6375
   6   2.0000      -0.893076       -24.3018
   7   2.0000      -0.851981       -23.1836
   8   2.0000      -0.788280       -21.4502
   9   2.0000      -0.712244       -19.3811
  10   2.0000      -0.650165       -17.6919
  11   2.0000      -0.641106       -17.4454
  12   2.0000      -0.535646       -14.5757
  13   2.0000      -0.499930       -13.6038
  14   2.0000      -0.490049       -13.3349
  15   2.0000      -0.474356       -12.9079
  16   2.0000      -0.450245       -12.2518
  17   2.0000      -0.432818       -11.7776
  18   2.0000      -0.428344       -11.6558
  19   2.0000      -0.402216       -10.9448
  20   2.0000      -0.388066       -10.5598
  21   2.0000      -0.371891       -10.1197
  22   2.0000      -0.370198       -10.0736
  23   2.0000      -0.363255        -9.8847
  24   2.0000      -0.356304        -9.6955
  25   0.0000       0.134291         3.6542
  26   0.0000       0.146903         3.9974
  27   0.0000       0.174474         4.7477
  28   0.0000       0.177079         4.8186
  29   0.0000       0.184742         5.0271

MULLIKEN ATOMIC CHARGES
-----------------------
   0 C :   -0.635748
   1 H :    0.207591
   2 H :    0.207570
   3 H :    0.216817
   4 C :   -0.405728
   5 H :    0.202815
   6 H :    0.202876
   7 C :   -0.392437
   8 H :    0.198125
   9 H :    0.198118
  10 C :   -0.392438
  11 H :    0.198193
  12 H :    0.198050
  13 C :   -0.405730
  14 H :    0.202833
  15 H :    0.202862
  16 C :   -0.635749
  17 H :    0.207577
  18 H :    0.216816
  19 H :    0.207585
Sum of atomic charges:   -0.0000000

LOEWDIN ATOMIC CHARGES
----------------------
   0 C :   -0.361730
   1 H :    0.122945
   2 H :    0.122943
   3 H :    0.125912
   4 C :   -0.244757
   5 H :    0.118946
   6 H :    0.118963
   7 C :   -0.239334
   8 H :    0.118051
   9 H :    0.118060
  10 C :   -0.239333
  11 H :    0.118079
  12 H :    0.118032
  13 C :   -0.244757
  14 H :    0.118945
  15 H :    0.118964
  16 C :   -0.361731
  17 H :    0.122948
  18 H :    0.125912
  19 H :    0.122941

  Mayer bond orders larger than 0.100000
B(  0-C ,  1-H ) :   0.9295 B(  0-C ,  2-H ) :   0.9295 B(  0-C ,  3-H ) :   0.9319
B(  0-C ,  4-C ) :   0.9946 B(  4-C ,  5-H ) :   0.9205 B(  4-C ,  6-H ) :   0.9205
B(  4-C ,  7-C ) :   0.9871 B(  7-C ,  8-H ) :   0.9184 B(  7-C ,  9-H ) :   0.9184
B(  7-C , 10-C ) :   0.9926 B( 10-C , 11-H ) :   0.9184 B( 10-C , 12-H ) :   0.9184
B( 10-C , 13-C ) :   0.9871 B( 13-C , 14-H ) :   0.9205 B( 13-C , 15-H ) :   0.9205
B( 13-C , 16-C ) :   0.9946 B( 16-C , 17-H ) :   0.9295 B( 16-C , 18-H ) :   0.9319
B( 16-C , 19-H ) :   0.9295

Dispersion correction           -0.008446274
FINAL SINGLE POINT ENERGY      -236.560589392764

DIPOLE MOMENT
-------------
                                X             Y             Z
Electronic contribution:      0.00002      -0.00431       0.00247
Nuclear contribution   :     -0.00002       0.00425      -0.00244
                        -----------------------------------------
Total Dipole Moment    :      0.00000      -0.00006       0.00003
                        -----------------------------------------
Magnitude (a.u.)       :      0.00007
Magnitude (Debye)      :      0.00017

Rotational constants in cm-1:     0.485289     0.037521     0.036241
Rotational constants in MHz : 14548.588783  1124.850034  1086.463906

                             ****ORCA TERMINATED NORMALLY****
TOTAL RUN TIME: 0 days 0 hours 1 minutes 29 seconds 478 msec
