                         Program Version 5.0.3 -  RELEASE  -
|  1> ! PBEh-3c def2/J TightSCF DefGrid3
|  2>
|  3> %maxcore 60000
|  4>
|  5> %pal
|  6> nprocs 4
|  7> end
|  8>
|  9> *xyzfile 0 1 E35.xyz
| 10>
| 11>                          ****END OF INPUT****

CARTESIAN COORDINATES (ANGSTROEM)
---------------------------------
  C     -1.003036   -0.688970    0.000000
  S     -0.524029    1.078252    0.000000
  C      1.251836    0.910461    0.000000
  O      1.860650   -0.126199    0.000000
  H     -2.090866   -0.714318    0.000000
  H     -0.616404   -1.180180   -0.889454
  H     -0.616404   -1.180180    0.889454
  H      1.738253    1.901133    0.000000

 Total Charge           Charge          ....    0
 Multiplicity           Mult            ....    1
 Number of Electrons    NEL             ....   40
 Basis Dimension        Dim             ....   71

ORBITAL ENERGIES
----------------

  NO   OCC          E(Eh)            E(eV)
   0   2.0000     -89.606294     -2438.3112
   1   2.0000     -19.510464      -530.9067
   2   2.0000     -10.565668      -287.5064
   3   2.0000     -10.476713      -285.0858
   4   2.0000      -8.246664      -224.4031
   5   2.0000      -6.137342      -167.0056
   6   2.0000      -6.133727      -166.9072
   7   2.0000      -6.129871      -166.8023
   8   2.0000      -1.175744       -31.9936
   9   2.0000      -0.892894       -24.2969
  10   2.0000      -0.773454       -21.0467
  11   2.0000      -0.650161       -17.6918
  12   2.0000      -0.548369       -14.9219
  13   2.0000      -0.523246       -14.2383
  14   2.0000      -0.504069       -13.7164
  15   2.0000      -0.469695       -12.7811
  16   2.0000      -0.461151       -12.5486
  17   2.0000      -0.406820       -11.0701
  18   2.0000      -0.323144        -8.7932
  19   2.0000      -0.306890        -8.3509
  20   0.0000       0.003699         0.1006
  21   0.0000       0.057079         1.5532
  22   0.0000       0.113550         3.0898
  23   0.0000       0.164709         4.4820
  24   0.0000       0.191068         5.1992

MULLIKEN ATOMIC CHARGES
-----------------------
   0 C :   -0.748904
   1 S :    0.012000
   2 C :    0.037238
   3 O :   -0.317425
   4 H :    0.259083
   5 H :    0.273827
   6 H :    0.273827
   7 H :    0.210353
Sum of atomic charges:   -0.0000000

LOEWDIN ATOMIC CHARGES
----------------------
   0 C :   -0.452534
   1 S :    0.183421
   2 C :   -0.077457
   3 O :   -0.198028
   4 H :    0.144664
   5 H :    0.148228
   6 H :    0.148228
   7 H :    0.103479

  Mayer bond orders larger than 0.100000
B(  0-C ,  1-S ) :   0.9915 B(  0-C ,  4-H ) :   0.9031 B(  0-C ,  5-H ) :   0.8903
B(  0-C ,  6-H ) :   0.8903 B(  1-S ,  2-C ) :   1.0593 B(  1-S ,  3-O ) :   0.1384
B(  2-C ,  3-O ) :   2.0285 B(  2-C ,  7-H ) :   0.8490

Dispersion correction           -0.002968572
FINAL SINGLE POINT ENERGY      -551.246470887887

DIPOLE MOMENT
-------------
                                X             Y             Z
Electronic contribution:      1.60806       2.93450       0.00000
Nuclear contribution   :     -2.14998      -2.80543       0.00000
                        -----------------------------------------
Total Dipole Moment    :     -0.54192       0.12907       0.00000
                        -----------------------------------------
Magnitude (a.u.)       :      0.55707
Magnitude (Debye)      :      1.41597

Rotational constants in cm-1:     0.362260     0.164942     0.115821
Rotational constants in MHz : 10860.280912  4944.823305  3472.239132

                             ****ORCA TERMINATED NORMALLY****
TOTAL RUN TIME: 0 days 0 hours 1 minutes 11 seconds 728 msec
