                         Program Version 5.0.3 -  RELEASE  -
|  1> ! PBEh-3c def2/J TightSCF DefGrid3
|  2>
|  3> %maxcore 60000
|  4>
|  5> %pal
|  6> nprocs 4
|  7> end
|  8>
|  9> *xyzfile 0 1 65B.xyz
| 10>
| 11>                          ****END OF INPUT****

CARTESIAN COORDINATES (ANGSTROEM)
---------------------------------
  C      0.000000    0.000000   -0.609161
  H      0.000000    0.000000   -1.670469
  C      0.000000    0.000000    0.609161
  H      0.000000    0.000000    1.670469

 Total Charge           Charge          ....    0
 Multiplicity           Mult            ....    1
 Number of Electrons    NEL             ....   14
 Basis Dimension        Dim             ....   34

ORBITAL ENERGIES
----------------

  NO   OCC          E(Eh)            E(eV)
   0   2.0000     -10.460505      -284.6448
   1   2.0000     -10.458267      -284.5839
   2   2.0000      -0.838830       -22.8257
   3   2.0000      -0.640694       -17.4342
   4   2.0000      -0.560415       -15.2497
   5   2.0000      -0.336829        -9.1656
   6   2.0000      -0.336829        -9.1656
   7   0.0000       0.066274         1.8034
   8   0.0000       0.066274         1.8034
   9   0.0000       0.159849         4.3497
  10   0.0000       0.209260         5.6942
  11   0.0000       0.425252        11.5717

MULLIKEN ATOMIC CHARGES
-----------------------
   0 C :   -0.238930
   1 H :    0.238930
   2 C :   -0.238929
   3 H :    0.238929
Sum of atomic charges:    0.0000000

LOEWDIN ATOMIC CHARGES
----------------------
   0 C :   -0.163427
   1 H :    0.163427
   2 C :   -0.163427
   3 H :    0.163427

  Mayer bond orders larger than 0.100000
B(  0-C ,  1-H ) :   0.9267 B(  0-C ,  2-C ) :   2.8402 B(  2-C ,  3-H ) :   0.9267

Dispersion correction           -0.000697677
FINAL SINGLE POINT ENERGY       -77.141683686910

DIPOLE MOMENT
-------------
                                X             Y             Z
Electronic contribution:      0.00000      -0.00000       0.00000
Nuclear contribution   :      0.00000       0.00000      -0.00000
                        -----------------------------------------
Total Dipole Moment    :      0.00000      -0.00000       0.00000
                        -----------------------------------------
Magnitude (a.u.)       :      0.00000
Magnitude (Debye)      :      0.00000

Rotational constants in cm-1:     0.000000     1.159430     1.159430
Rotational constants in MHz :     0.000000 34758.824262 34758.824262

                             ****ORCA TERMINATED NORMALLY****
TOTAL RUN TIME: 0 days 0 hours 0 minutes 59 seconds 369 msec
