                         Program Version 5.0.3 -  RELEASE  -
|  1> ! PBEh-3c def2/J TightSCF DefGrid3
|  2>
|  3> %maxcore 60000
|  4>
|  5> %pal
|  6> nprocs 4
|  7> end
|  8>
|  9> *xyzfile -1 1 15A.xyz
| 10>
| 11>                          ****END OF INPUT****

CARTESIAN COORDINATES (ANGSTROEM)
---------------------------------
  S      0.771612    1.326269   -0.938716
  H     -0.190751    1.842740   -1.717475

 Total Charge           Charge          ....   -1
 Multiplicity           Mult            ....    1
 Number of Electrons    NEL             ....   18
 Basis Dimension        Dim             ....   20

ORBITAL ENERGIES
----------------

  NO   OCC          E(Eh)            E(eV)
   0   2.0000     -89.217277     -2427.7255
   1   2.0000      -7.854853      -213.7414
   2   2.0000      -5.747453      -156.3961
   3   2.0000      -5.740235      -156.1997
   4   2.0000      -5.740234      -156.1997
   5   2.0000      -0.437019       -11.8919
   6   2.0000      -0.120276        -3.2729
   7   2.0000       0.030255         0.8233
   8   2.0000       0.030256         0.8233
   9   0.0000       0.377635        10.2760
  10   0.0000       0.687100        18.6969
  11   0.0000       0.892827        24.2951
  12   0.0000       1.059590        28.8329
  13   0.0000       1.059591        28.8329

MULLIKEN ATOMIC CHARGES
-----------------------
   0 S :   -1.007830
   1 H :    0.007830
Sum of atomic charges:   -1.0000000

LOEWDIN ATOMIC CHARGES
----------------------
   0 S :   -0.995036
   1 H :   -0.004964

  Mayer bond orders larger than 0.100000
B(  0-S ,  1-H ) :   0.9538

Dispersion correction           -0.000186065
FINAL SINGLE POINT ENERGY      -398.338789282739

DIPOLE MOMENT
-------------
                                X             Y             Z
Electronic contribution:      0.69037      -0.37050       0.55866
Nuclear contribution   :     -0.87619       0.47023      -0.70903
                        -----------------------------------------
Total Dipole Moment    :     -0.18582       0.09973      -0.15037
                        -----------------------------------------
Magnitude (a.u.)       :      0.25901
Magnitude (Debye)      :      0.65834

Rotational constants in cm-1:     0.000000     9.586607     9.586607
Rotational constants in MHz :     0.000000 287399.255128 287399.255128

                             ****ORCA TERMINATED NORMALLY****
TOTAL RUN TIME: 0 days 0 hours 0 minutes 39 seconds 785 msec
