                         Program Version 5.0.3 -  RELEASE  -
|  1> ! PBEh-3c def2/J TightSCF DefGrid3
|  2>
|  3> %maxcore 60000
|  4>
|  5> %pal
|  6> nprocs 4
|  7> end
|  8>
|  9> *xyzfile 0 2 RKT04.xyz
| 10>
| 11>                          ****END OF INPUT****

CARTESIAN COORDINATES (ANGSTROEM)
---------------------------------
  C     -0.782871   -0.095035    0.000831
  O      1.722582   -0.211697    0.000557
  H      0.438092   -0.221023    0.003223
  H     -1.096912   -0.336253    1.010496
  H     -1.002051    0.930231   -0.277658
  H     -1.124095   -0.813116   -0.737281
  H      1.845255    0.746893   -0.000167

 Total Charge           Charge          ....    0
 Multiplicity           Mult            ....    2
 Number of Electrons    NEL             ....   19
 Basis Dimension        Dim             ....   40

ORBITAL ENERGIES
----------------
                 SPIN UP ORBITALS
  NO   OCC          E(Eh)            E(eV)
   0   1.0000     -19.514557      -531.0181
   1   1.0000     -10.447182      -284.2823
   2   1.0000      -1.102568       -30.0024
   3   1.0000      -0.798890       -21.7389
   4   1.0000      -0.558586       -15.1999
   5   1.0000      -0.493868       -13.4388
   6   1.0000      -0.475122       -12.9287
   7   1.0000      -0.472511       -12.8577
   8   1.0000      -0.372757       -10.1432
   9   1.0000      -0.336546        -9.1579
  10   0.0000       0.140300         3.8177
  11   0.0000       0.179785         4.8922
  12   0.0000       0.206566         5.6210
  13   0.0000       0.209657         5.7051
  14   0.0000       0.298557         8.1241

                 SPIN DOWN ORBITALS
  NO   OCC          E(Eh)            E(eV)
   0   1.0000     -19.493902      -530.4560
   1   1.0000     -10.438231      -284.0387
   2   1.0000      -1.042422       -28.3658
   3   1.0000      -0.772063       -21.0089
   4   1.0000      -0.515953       -14.0398
   5   1.0000      -0.468773       -12.7560
   6   1.0000      -0.467506       -12.7215
   7   1.0000      -0.423464       -11.5230
   8   1.0000      -0.350753        -9.5445
   9   0.0000      -0.087276        -2.3749
  10   0.0000       0.147990         4.0270
  11   0.0000       0.187252         5.0954
  12   0.0000       0.211715         5.7611
  13   0.0000       0.214938         5.8487

MULLIKEN ATOMIC CHARGES AND SPIN POPULATIONS
--------------------------------------------
   0 C :   -0.868468    0.491325
   1 O :   -0.590352    0.686952
   2 H :    0.328516   -0.109767
   3 H :    0.243766   -0.015064
   4 H :    0.229063   -0.018040
   5 H :    0.247922   -0.013937
   6 H :    0.409553   -0.021469
Sum of atomic charges         :   -0.0000000

LOEWDIN ATOMIC CHARGES AND SPIN POPULATIONS
-------------------------------------------
   0 C :   -0.475903    0.420193
   1 O :   -0.457438    0.670420
   2 H :    0.218267   -0.047562
   3 H :    0.141913   -0.008462
   4 H :    0.134422   -0.010057
   5 H :    0.144306   -0.007883
   6 H :    0.294433   -0.016649

  Mayer bond orders larger than 0.100000
B(  0-C ,  1-O ) :   0.2106 B(  0-C ,  2-H ) :   0.5468 B(  0-C ,  3-H ) :   0.9161
B(  0-C ,  4-H ) :   0.9209 B(  0-C ,  5-H ) :   0.9170 B(  1-O ,  2-H ) :   0.3354
B(  1-O ,  6-H ) :   0.8095

Dispersion correction           -0.001352144
FINAL SINGLE POINT ENERGY      -115.986054875286

DIPOLE MOMENT
-------------
                                X             Y             Z
Electronic contribution:      2.88076      -0.24235       0.00208
Nuclear contribution   :     -3.30640       0.88537      -0.00378
                        -----------------------------------------
Total Dipole Moment    :     -0.42564       0.64302      -0.00170
                        -----------------------------------------
Magnitude (a.u.)       :      0.77114
Magnitude (Debye)      :      1.96008

Rotational constants in cm-1:     4.030910     0.308312     0.303471
Rotational constants in MHz : 120843.634610  9242.955523  9097.822758

                             ****ORCA TERMINATED NORMALLY****
TOTAL RUN TIME: 0 days 0 hours 1 minutes 9 seconds 388 msec
