                         Program Version 5.0.3 -  RELEASE  -
|  1> ! PBEh-3c def2/J TightSCF DefGrid3
|  2>
|  3> %maxcore 60000
|  4>
|  5> %pal
|  6> nprocs 4
|  7> end
|  8>
|  9> *xyzfile 0 1 MgH2.xyz
| 10>
| 11>                          ****END OF INPUT****

CARTESIAN COORDINATES (ANGSTROEM)
---------------------------------
  Mg     0.000000    0.000000    0.000000
  H     -0.000000   -0.000000   -1.706934
  H     -0.000000    0.000000    1.706934

 Total Charge           Charge          ....    0
 Multiplicity           Mult            ....    1
 Number of Electrons    NEL             ....   14
 Basis Dimension        Dim             ....   22

ORBITAL ENERGIES
----------------

  NO   OCC          E(Eh)            E(eV)
   0   2.0000     -47.362867     -1288.8091
   1   2.0000      -3.315683       -90.2243
   2   2.0000      -1.999749       -54.4159
   3   2.0000      -1.999749       -54.4159
   4   2.0000      -1.993984       -54.2591
   5   2.0000      -0.348569        -9.4850
   6   2.0000      -0.301747        -8.2110
   7   0.0000      -0.008757        -0.2383
   8   0.0000      -0.008757        -0.2383
   9   0.0000       0.022070         0.6006
  10   0.0000       0.079439         2.1616
  11   0.0000       0.156772         4.2660

MULLIKEN ATOMIC CHARGES
-----------------------
   0 Mg:    0.120864
   1 H :   -0.060432
   2 H :   -0.060432
Sum of atomic charges:    0.0000000

LOEWDIN ATOMIC CHARGES
----------------------
   0 Mg:    0.138047
   1 H :   -0.069023
   2 H :   -0.069023

  Mayer bond orders larger than 0.100000
B(  0-Mg,  1-H ) :   0.9420 B(  0-Mg,  2-H ) :   0.9420

Dispersion correction           -0.000320584
FINAL SINGLE POINT ENERGY      -200.927382462485

DIPOLE MOMENT
-------------
                                X             Y             Z
Electronic contribution:     -0.00000       0.00000      -0.00000
Nuclear contribution   :      0.00000       0.00000       0.00000
                        -----------------------------------------
Total Dipole Moment    :     -0.00000       0.00000      -0.00000
                        -----------------------------------------
Magnitude (a.u.)       :      0.00000
Magnitude (Debye)      :      0.00000

Rotational constants in cm-1:     0.000000     2.869940     2.869940
Rotational constants in MHz :     0.000000 86038.645978 86038.645978

                             ****ORCA TERMINATED NORMALLY****
TOTAL RUN TIME: 0 days 0 hours 0 minutes 47 seconds 663 msec
