                         Program Version 5.0.3 -  RELEASE  -
|  1> ! PBEh-3c def2/J TightSCF DefGrid3
|  2>
|  3> %maxcore 60000
|  4>
|  5> %pal
|  6> nprocs 4
|  7> end
|  8>
|  9> *xyzfile 0 1 B28.xyz
| 10>
| 11>                          ****END OF INPUT****

CARTESIAN COORDINATES (ANGSTROEM)
---------------------------------
  C      1.927877    0.412098   -0.307402
  H      2.179991    1.261962    0.337536
  O      2.383231   -0.808817    0.270909
  C      0.434980    0.412945   -0.611513
  H      0.198426    1.328765   -1.162500
  H      0.200662   -0.429612   -1.261359
  C     -0.432594    0.347962    0.644275
  H     -0.193505    1.186939    1.304863
  H     -0.233434   -0.573502    1.196773
  H      1.970203   -0.893721    1.133520
  H      2.494786    0.520756   -1.230496
  C     -1.919588    0.388215    0.338186
  H     -2.490840    0.419528    1.270839
  H     -2.154173    1.291966   -0.234644
  O     -2.240752   -0.782637   -0.409764
  H     -3.175998   -0.748769   -0.624975

 Total Charge           Charge          ....    0
 Multiplicity           Mult            ....    1
 Number of Electrons    NEL             ....   50
 Basis Dimension        Dim             ....  110

ORBITAL ENERGIES
----------------

  NO   OCC          E(Eh)            E(eV)
   0   2.0000     -19.486780      -530.2622
   1   2.0000     -19.478066      -530.0251
   2   2.0000     -10.485291      -285.3193
   3   2.0000     -10.474692      -285.0309
   4   2.0000     -10.437406      -284.0163
   5   2.0000     -10.426621      -283.7228
   6   2.0000      -1.123582       -30.5742
   7   2.0000      -1.114576       -30.3292
   8   2.0000      -0.881610       -23.9898
   9   2.0000      -0.798830       -21.7373
  10   2.0000      -0.706564       -19.2266
  11   2.0000      -0.649118       -17.6634
  12   2.0000      -0.587606       -15.9896
  13   2.0000      -0.560781       -15.2596
  14   2.0000      -0.533010       -14.5039
  15   2.0000      -0.505671       -13.7600
  16   2.0000      -0.473149       -12.8750
  17   2.0000      -0.463429       -12.6106
  18   2.0000      -0.446359       -12.1460
  19   2.0000      -0.402745       -10.9593
  20   2.0000      -0.393214       -10.6999
  21   2.0000      -0.387900       -10.5553
  22   2.0000      -0.364622        -9.9219
  23   2.0000      -0.326396        -8.8817
  24   2.0000      -0.317889        -8.6502
  25   0.0000       0.121788         3.3140
  26   0.0000       0.128615         3.4998
  27   0.0000       0.170172         4.6306
  28   0.0000       0.173833         4.7302
  29   0.0000       0.192395         5.2353

MULLIKEN ATOMIC CHARGES
-----------------------
   0 C :   -0.155302
   1 H :    0.170369
   2 O :   -0.625107
   3 C :   -0.439211
   4 H :    0.195442
   5 H :    0.252521
   6 C :   -0.453190
   7 H :    0.205003
   8 H :    0.212783
   9 H :    0.412191
  10 H :    0.217105
  11 C :   -0.147980
  12 H :    0.189421
  13 H :    0.177228
  14 O :   -0.629322
  15 H :    0.418050
Sum of atomic charges:   -0.0000000

LOEWDIN ATOMIC CHARGES
----------------------
   0 C :   -0.092750
   1 H :    0.093607
   2 O :   -0.413269
   3 C :   -0.264946
   4 H :    0.122531
   5 H :    0.142148
   6 C :   -0.258996
   7 H :    0.122596
   8 H :    0.123948
   9 H :    0.304073
  10 H :    0.120843
  11 C :   -0.087771
  12 H :    0.099846
  13 H :    0.096719
  14 O :   -0.417702
  15 H :    0.309125

  Mayer bond orders larger than 0.100000
B(  0-C ,  1-H ) :   0.9129 B(  0-C ,  2-O ) :   1.0199 B(  0-C ,  3-C ) :   0.9683
B(  0-C , 10-H ) :   0.9208 B(  2-O ,  9-H ) :   0.7907 B(  3-C ,  4-H ) :   0.9134
B(  3-C ,  5-H ) :   0.8990 B(  3-C ,  6-C ) :   0.9767 B(  6-C ,  7-H ) :   0.9183
B(  6-C ,  8-H ) :   0.9076 B(  6-C , 11-C ) :   0.9941 B( 11-C , 12-H ) :   0.9102
B( 11-C , 13-H ) :   0.9063 B( 11-C , 14-O ) :   1.0116 B( 14-O , 15-H ) :   0.7924

Dispersion correction           -0.006535570
FINAL SINGLE POINT ENERGY      -308.206194319865

DIPOLE MOMENT
-------------
                                X             Y             Z
Electronic contribution:      0.27896      -2.67642      -0.37072
Nuclear contribution   :     -1.25206       3.47934       0.75789
                        -----------------------------------------
Total Dipole Moment    :     -0.97310       0.80292       0.38717
                        -----------------------------------------
Magnitude (a.u.)       :      1.31966
Magnitude (Debye)      :      3.35431

Rotational constants in cm-1:     0.266363     0.051428     0.049988
Rotational constants in MHz :  7985.367851  1541.762535  1498.608164

                             ****ORCA TERMINATED NORMALLY****
TOTAL RUN TIME: 0 days 0 hours 1 minutes 33 seconds 624 msec
