                         Program Version 5.0.3 -  RELEASE  -
|  1> ! PBEh-3c def2/J TightSCF DefGrid3
|  2>
|  3> %maxcore 60000
|  4>
|  5> %pal
|  6> nprocs 4
|  7> end
|  8>
|  9> *xyzfile 0 1 E34.xyz
| 10>
| 11>                          ****END OF INPUT****

CARTESIAN COORDINATES (ANGSTROEM)
---------------------------------
  C      0.000000   -1.396494    0.016113
  S      0.000000    0.000000    1.198613
  C      0.000000    1.396494    0.016113
  H      0.000000   -2.312246    0.606215
  H     -0.892363   -1.380562   -0.610817
  H      0.892363   -1.380562   -0.610817
  H      0.000000    2.312246    0.606215
  H     -0.892363    1.380562   -0.610817
  H      0.892363    1.380562   -0.610817

 Total Charge           Charge          ....    0
 Multiplicity           Mult            ....    1
 Number of Electrons    NEL             ....   34
 Basis Dimension        Dim             ....   60

ORBITAL ENERGIES
----------------

  NO   OCC          E(Eh)            E(eV)
   0   2.0000     -89.572325     -2437.3869
   1   2.0000     -10.459953      -284.6298
   2   2.0000     -10.459906      -284.6285
   3   2.0000      -8.210627      -223.4225
   4   2.0000      -6.102083      -166.0461
   5   2.0000      -6.098795      -165.9566
   6   2.0000      -6.092545      -165.7866
   7   2.0000      -0.878464       -23.9042
   8   2.0000      -0.786345       -21.3975
   9   2.0000      -0.667897       -18.1744
  10   2.0000      -0.497775       -13.5451
  11   2.0000      -0.495920       -13.4947
  12   2.0000      -0.479478       -13.0473
  13   2.0000      -0.464502       -12.6397
  14   2.0000      -0.411152       -11.1880
  15   2.0000      -0.356491        -9.7006
  16   2.0000      -0.261199        -7.1076
  17   0.0000       0.084999         2.3129
  18   0.0000       0.122874         3.3436
  19   0.0000       0.143673         3.9095
  20   0.0000       0.173212         4.7133
  21   0.0000       0.199980         5.4417

MULLIKEN ATOMIC CHARGES
-----------------------
   0 C :   -0.744069
   1 S :    0.011833
   2 C :   -0.744069
   3 H :    0.255150
   4 H :    0.241501
   5 H :    0.241501
   6 H :    0.255150
   7 H :    0.241501
   8 H :    0.241501
Sum of atomic charges:   -0.0000000

LOEWDIN ATOMIC CHARGES
----------------------
   0 C :   -0.465590
   1 S :    0.132595
   2 C :   -0.465590
   3 H :    0.141621
   4 H :    0.128836
   5 H :    0.128836
   6 H :    0.141621
   7 H :    0.128836
   8 H :    0.128836

  Mayer bond orders larger than 0.100000
B(  0-C ,  1-S ) :   1.0184 B(  0-C ,  3-H ) :   0.9097 B(  0-C ,  4-H ) :   0.8990
B(  0-C ,  5-H ) :   0.8990 B(  1-S ,  2-C ) :   1.0184 B(  2-C ,  6-H ) :   0.9097
B(  2-C ,  7-H ) :   0.8990 B(  2-C ,  8-H ) :   0.8990

Dispersion correction           -0.003047518
FINAL SINGLE POINT ENERGY      -477.386920450833

DIPOLE MOMENT
-------------
                                X             Y             Z
Electronic contribution:     -0.00000      -0.00000       3.91677
Nuclear contribution   :      0.00000       0.00000      -4.57618
                        -----------------------------------------
Total Dipole Moment    :     -0.00000      -0.00000      -0.65941
                        -----------------------------------------
Magnitude (a.u.)       :      0.65941
Magnitude (Debye)      :      1.67608

Rotational constants in cm-1:     0.585363     0.246019     0.185455
Rotational constants in MHz : 17548.752595  7375.475324  5559.806626

                             ****ORCA TERMINATED NORMALLY****
TOTAL RUN TIME: 0 days 0 hours 0 minutes 56 seconds 578 msec
