                         Program Version 5.0.3 -  RELEASE  -
|  1> ! PBEh-3c def2/J TightSCF DefGrid3
|  2>
|  3> %maxcore 60000
|  4>
|  5> %pal
|  6> nprocs 4
|  7> end
|  8>
|  9> *xyzfile 0 1 li4_c.xyz
| 10>
| 11>                          ****END OF INPUT****

CARTESIAN COORDINATES (ANGSTROEM)
---------------------------------
  C      0.000000    0.000000    0.000000
  Li     1.082512   -1.082512    1.082512
  Li    -1.082512    1.082512    1.082512
  Li    -1.082512   -1.082512   -1.082512
  Li     1.082512    1.082512   -1.082512

 Total Charge           Charge          ....    0
 Multiplicity           Mult            ....    1
 Number of Electrons    NEL             ....   18
 Basis Dimension        Dim             ....   51

ORBITAL ENERGIES
----------------

  NO   OCC          E(Eh)            E(eV)
   0   2.0000     -10.315556      -280.7006
   1   2.0000      -2.017678       -54.9038
   2   2.0000      -2.017200       -54.8908
   3   2.0000      -2.017199       -54.8908
   4   2.0000      -2.017198       -54.8907
   5   2.0000      -0.468391       -12.7456
   6   2.0000      -0.137077        -3.7301
   7   2.0000      -0.137077        -3.7300
   8   2.0000      -0.137076        -3.7300
   9   0.0000      -0.028809        -0.7839
  10   0.0000       0.004189         0.1140
  11   0.0000       0.004189         0.1140
  12   0.0000       0.004189         0.1140
  13   0.0000       0.077527         2.1096

MULLIKEN ATOMIC CHARGES
-----------------------
   0 C :   -1.091081
   1 Li:    0.272770
   2 Li:    0.272771
   3 Li:    0.272771
   4 Li:    0.272769
Sum of atomic charges:   -0.0000000

LOEWDIN ATOMIC CHARGES
----------------------
   0 C :   -0.552076
   1 Li:    0.138019
   2 Li:    0.138020
   3 Li:    0.138019
   4 Li:    0.138018

  Mayer bond orders larger than 0.100000
B(  0-C ,  1-Li) :   0.8699 B(  0-C ,  2-Li) :   0.8699 B(  0-C ,  3-Li) :   0.8699
B(  0-C ,  4-Li) :   0.8699 B(  1-Li,  2-Li) :   0.1300 B(  1-Li,  3-Li) :   0.1300
B(  1-Li,  4-Li) :   0.1300 B(  2-Li,  3-Li) :   0.1300 B(  2-Li,  4-Li) :   0.1300
B(  3-Li,  4-Li) :   0.1300

Dispersion correction           -0.001646344
FINAL SINGLE POINT ENERGY       -67.859228511532

DIPOLE MOMENT
-------------
                                X             Y             Z
Electronic contribution:      0.00000      -0.00005      -0.00001
Nuclear contribution   :      0.00000       0.00000       0.00000
                        -----------------------------------------
Total Dipole Moment    :      0.00000      -0.00005      -0.00001
                        -----------------------------------------
Magnitude (a.u.)       :      0.00005
Magnitude (Debye)      :      0.00013

Rotational constants in cm-1:     0.259071     0.259071     0.259071
Rotational constants in MHz :  7766.757271  7766.757271  7766.757271

                             ****ORCA TERMINATED NORMALLY****
TOTAL RUN TIME: 0 days 0 hours 1 minutes 35 seconds 395 msec
