                         Program Version 5.0.3 -  RELEASE  -
|  1> ! PBEh-3c def2/J TightSCF DefGrid3
|  2>
|  3> %maxcore 60000
|  4>
|  5> %pal
|  6> nprocs 4
|  7> end
|  8>
|  9> *xyzfile 1 1 227A.xyz
| 10>
| 11>                          ****END OF INPUT****

CARTESIAN COORDINATES (ANGSTROEM)
---------------------------------
  C      0.750320    1.275040    1.974860
  C      0.137240   -0.046900    1.513570
  N      0.041500   -0.071740    0.002980
  H      0.999920   -0.072190   -0.377000
  H     -0.441480   -0.908760   -0.356050
  H     -0.438140    0.758100   -0.377470
  H     -0.861500   -0.218680    1.931850
  H      0.790980   -0.888720    1.768240
  H      0.875680    1.258690    3.064070
  H      1.731060    1.410480    1.502850
  H      0.102470    2.126510    1.721280

 Total Charge           Charge          ....    1
 Multiplicity           Mult            ....    1
 Number of Electrons    NEL             ....   26
 Basis Dimension        Dim             ....   61

ORBITAL ENERGIES
----------------

  NO   OCC          E(Eh)            E(eV)
   0   2.0000     -14.973350      -407.4456
   1   2.0000     -10.700274      -291.1693
   2   2.0000     -10.620701      -289.0040
   3   2.0000      -1.312536       -35.7159
   4   2.0000      -1.051207       -28.6048
   5   2.0000      -0.916938       -24.9512
   6   2.0000      -0.863143       -23.4873
   7   2.0000      -0.851634       -23.1741
   8   2.0000      -0.754478       -20.5304
   9   2.0000      -0.700965       -19.0742
  10   2.0000      -0.636104       -17.3093
  11   2.0000      -0.621420       -16.9097
  12   2.0000      -0.603388       -16.4190
  13   0.0000      -0.126581        -3.4444
  14   0.0000      -0.066695        -1.8149
  15   0.0000      -0.059760        -1.6261
  16   0.0000      -0.036523        -0.9938
  17   0.0000      -0.001151        -0.0313

MULLIKEN ATOMIC CHARGES
-----------------------
   0 C :   -0.657841
   1 C :   -0.357210
   2 N :   -0.783864
   3 H :    0.454347
   4 H :    0.462939
   5 H :    0.455589
   6 H :    0.312766
   7 H :    0.304513
   8 H :    0.306039
   9 H :    0.246280
  10 H :    0.256441
Sum of atomic charges:    1.0000000

LOEWDIN ATOMIC CHARGES
----------------------
   0 C :   -0.368362
   1 C :   -0.150292
   2 N :   -0.217940
   3 H :    0.310425
   4 H :    0.312221
   5 H :    0.309303
   6 H :    0.165973
   7 H :    0.162691
   8 H :    0.179111
   9 H :    0.146332
  10 H :    0.150537

  Mayer bond orders larger than 0.100000
B(  0-C ,  1-C ) :   0.9750 B(  0-C ,  8-H ) :   0.8910 B(  0-C ,  9-H ) :   0.9076
B(  0-C , 10-H ) :   0.9048 B(  1-C ,  2-N ) :   0.8123 B(  1-C ,  6-H ) :   0.8785
B(  1-C ,  7-H ) :   0.8801 B(  2-N ,  3-H ) :   0.7744 B(  2-N ,  4-H ) :   0.7689
B(  2-N ,  5-H ) :   0.7692

Dispersion correction           -0.003524418
FINAL SINGLE POINT ENERGY      -135.238196812266

DIPOLE MOMENT
-------------
                                X             Y             Z
Electronic contribution:     -0.63090      -1.05703      -1.43140
Nuclear contribution   :      0.30361       0.44159       0.03632
                        -----------------------------------------
Total Dipole Moment    :     -0.32729      -0.61544      -1.39508
                        -----------------------------------------
Magnitude (a.u.)       :      1.55953
Magnitude (Debye)      :      3.96400

Rotational constants in cm-1:     0.970317     0.279106     0.245965
Rotational constants in MHz : 29089.369000  8367.373090  7373.842073

                             ****ORCA TERMINATED NORMALLY****
TOTAL RUN TIME: 0 days 0 hours 0 minutes 49 seconds 151 msec
