                         Program Version 5.0.3 -  RELEASE  -
|  1> ! PBEh-3c def2/J TightSCF DefGrid3
|  2>
|  3> %maxcore 60000
|  4>
|  5> %pal
|  6> nprocs 4
|  7> end
|  8>
|  9> *xyzfile 0 1 h2o.xyz
| 10>
| 11>                          ****END OF INPUT****

CARTESIAN COORDINATES (ANGSTROEM)
---------------------------------
  O      0.000000    0.000000   -0.390329
  H     -0.762147    0.000000    0.195164
  H      0.762147    0.000000    0.195164

 Total Charge           Charge          ....    0
 Multiplicity           Mult            ....    1
 Number of Electrons    NEL             ....   10
 Basis Dimension        Dim             ....   19

ORBITAL ENERGIES
----------------

  NO   OCC          E(Eh)            E(eV)
   0   2.0000     -19.474129      -529.9180
   1   2.0000      -1.101760       -29.9804
   2   2.0000      -0.582371       -15.8471
   3   2.0000      -0.433399       -11.7934
   4   2.0000      -0.356270        -9.6946
   5   0.0000       0.131270         3.5720
   6   0.0000       0.209293         5.6951
   7   0.0000       0.875511        23.8239
   8   0.0000       0.977700        26.6046
   9   0.0000       0.991748        26.9868

MULLIKEN ATOMIC CHARGES
-----------------------
   0 O :   -0.817348
   1 H :    0.408674
   2 H :    0.408674
Sum of atomic charges:    0.0000000

LOEWDIN ATOMIC CHARGES
----------------------
   0 O :   -0.597696
   1 H :    0.298848
   2 H :    0.298848

  Mayer bond orders larger than 0.100000
B(  0-O ,  1-H ) :   0.8152 B(  0-O ,  2-H ) :   0.8152

Dispersion correction           -0.000209563
FINAL SINGLE POINT ENERGY       -76.258026576947

DIPOLE MOMENT
-------------
                                X             Y             Z
Electronic contribution:      0.00000      -0.00000      -0.12825
Nuclear contribution   :      0.00000       0.00000       0.97468
                        -----------------------------------------
Total Dipole Moment    :      0.00000      -0.00000       0.84644
                        -----------------------------------------
Magnitude (a.u.)       :      0.84644
Magnitude (Debye)      :      2.15147

Rotational constants in cm-1:    27.466530    14.395559     9.445206
Rotational constants in MHz : 823425.849589 431568.010216 283160.154682

                             ****ORCA TERMINATED NORMALLY****
TOTAL RUN TIME: 0 days 0 hours 0 minutes 39 seconds 144 msec
