                         Program Version 5.0.3 -  RELEASE  -
|  1> ! PBEh-3c def2/J TightSCF DefGrid3
|  2>
|  3> %maxcore 60000
|  4>
|  5> %pal
|  6> nprocs 4
|  7> end
|  8>
|  9> *xyzfile -1 2 EA_9.xyz
| 10>
| 11>                          ****END OF INPUT****

CARTESIAN COORDINATES (ANGSTROEM)
---------------------------------
  C      0.000000    0.000000    0.484252
  H      0.864091    0.000000   -0.242126
  H     -0.864091    0.000000   -0.242126

 Total Charge           Charge          ....   -1
 Multiplicity           Mult            ....    2
 Number of Electrons    NEL             ....    9
 Basis Dimension        Dim             ....   19

ORBITAL ENERGIES
----------------
                 SPIN UP ORBITALS
  NO   OCC          E(Eh)            E(eV)
   0   1.0000     -10.104470      -274.9566
   1   1.0000      -0.399649       -10.8750
   2   1.0000      -0.110082        -2.9955
   3   1.0000       0.044121         1.2006
   4   1.0000       0.062970         1.7135
   5   0.0000       0.443317        12.0633
   6   0.0000       0.493172        13.4199
   7   0.0000       0.821556        22.3557
   8   0.0000       0.844007        22.9666
   9   0.0000       0.867446        23.6044

                 SPIN DOWN ORBITALS
  NO   OCC          E(Eh)            E(eV)
   0   1.0000     -10.091584      -274.6060
   1   1.0000      -0.353069        -9.6075
   2   1.0000      -0.100245        -2.7278
   3   1.0000       0.068977         1.8770
   4   0.0000       0.311319         8.4714
   5   0.0000       0.458790        12.4843
   6   0.0000       0.500720        13.6253
   7   0.0000       0.832935        22.6653
   8   0.0000       0.882968        24.0268

MULLIKEN ATOMIC CHARGES AND SPIN POPULATIONS
--------------------------------------------
   0 C :   -0.965240    1.112471
   1 H :   -0.017380   -0.056236
   2 H :   -0.017380   -0.056236
Sum of atomic charges         :   -1.0000000

LOEWDIN ATOMIC CHARGES AND SPIN POPULATIONS
-------------------------------------------
   0 C :   -0.990568    1.053227
   1 H :   -0.004716   -0.026614
   2 H :   -0.004716   -0.026614

  Mayer bond orders larger than 0.100000
B(  0-C ,  1-H ) :   0.9518 B(  0-C ,  2-H ) :   0.9518

Dispersion correction           -0.000284693
FINAL SINGLE POINT ENERGY       -39.046418512904

DIPOLE MOMENT
-------------
                                X             Y             Z
Electronic contribution:      0.00000       0.00000       0.47007
Nuclear contribution   :      0.00000       0.00000      -1.16706
                        -----------------------------------------
Total Dipole Moment    :      0.00000       0.00000      -0.69698
                        -----------------------------------------
Magnitude (a.u.)       :      0.69698
Magnitude (Debye)      :      1.77159

Rotational constants in cm-1:    18.508274    11.199208     6.977300
Rotational constants in MHz : 554864.097243 335743.808236 209174.187559

                             ****ORCA TERMINATED NORMALLY****
TOTAL RUN TIME: 0 days 0 hours 0 minutes 17 seconds 521 msec
