                         Program Version 5.0.3 -  RELEASE  -
|  1> ! PBEh-3c def2/J TightSCF DefGrid3
|  2>
|  3> %maxcore 60000
|  4>
|  5> %pal
|  6> nprocs 4
|  7> end
|  8>
|  9> *xyzfile 0 1 P10.xyz
| 10>
| 11>                          ****END OF INPUT****

CARTESIAN COORDINATES (ANGSTROEM)
---------------------------------
  C      0.974047    0.087442   -1.123871
  C     -0.367981    0.804309   -0.768611
  C     -0.367981    0.804309    0.768611
  C      0.974047    0.087442    1.123871
  C      0.840499   -1.346324   -0.666415
  C      0.840499   -1.346324    0.666415
  C      1.857018    0.651139    0.000000
  C     -1.621487    0.058258   -1.168106
  C     -1.621487    0.058258    1.168106
  N     -2.267603   -0.302638    0.000000
  O     -2.012272   -0.194749    2.276536
  O     -2.012272   -0.194749   -2.276536
  H     -3.120909   -0.842179    0.000000
  H      1.294404    0.242610   -2.151618
  H     -0.394289    1.801960   -1.210743
  H     -0.394289    1.801960    1.210743
  H      1.294404    0.242610    2.151618
  H      0.664326   -2.188755   -1.322403
  H      0.664326   -2.188755    1.322403
  H      1.917387    1.743174    0.000000
  H      2.859614    0.221003    0.000000

 Total Charge           Charge          ....    0
 Multiplicity           Mult            ....    1
 Number of Electrons    NEL             ....   86
 Basis Dimension        Dim             ....  198

ORBITAL ENERGIES
----------------

  NO   OCC          E(Eh)            E(eV)
   0   2.0000     -19.486586      -530.2570
   1   2.0000     -19.486565      -530.2564
   2   2.0000     -14.690614      -399.7519
   3   2.0000     -10.570441      -287.6363
   4   2.0000     -10.570387      -287.6348
   5   2.0000     -10.473413      -284.9961
   6   2.0000     -10.473193      -284.9901
   7   2.0000     -10.471617      -284.9472
   8   2.0000     -10.471570      -284.9459
   9   2.0000     -10.455765      -284.5158
  10   2.0000     -10.454919      -284.4928
  11   2.0000     -10.453925      -284.4657
  12   2.0000      -1.185321       -32.2542
  13   2.0000      -1.164954       -31.7000
  14   2.0000      -1.061631       -28.8884
  15   2.0000      -1.008996       -27.4562
  16   2.0000      -0.879592       -23.9349
  17   2.0000      -0.839272       -22.8378
  18   2.0000      -0.814609       -22.1666
  19   2.0000      -0.745980       -20.2992
  20   2.0000      -0.694450       -18.8969
  21   2.0000      -0.681143       -18.5348
  22   2.0000      -0.649960       -17.6863
  23   2.0000      -0.609296       -16.5798
  24   2.0000      -0.608190       -16.5497
  25   2.0000      -0.566518       -15.4157
  26   2.0000      -0.556088       -15.1319
  27   2.0000      -0.528700       -14.3867
  28   2.0000      -0.518920       -14.1205
  29   2.0000      -0.490317       -13.3422
  30   2.0000      -0.487418       -13.2633
  31   2.0000      -0.478522       -13.0213
  32   2.0000      -0.467109       -12.7107
  33   2.0000      -0.440135       -11.9767
  34   2.0000      -0.434024       -11.8104
  35   2.0000      -0.422184       -11.4882
  36   2.0000      -0.411442       -11.1959
  37   2.0000      -0.404569       -11.0089
  38   2.0000      -0.380414       -10.3516
  39   2.0000      -0.343776        -9.3546
  40   2.0000      -0.340858        -9.2752
  41   2.0000      -0.315542        -8.5863
  42   2.0000      -0.303870        -8.2687
  43   0.0000       0.008345         0.2271
  44   0.0000       0.027425         0.7463
  45   0.0000       0.056930         1.5492
  46   0.0000       0.130364         3.5474
  47   0.0000       0.141442         3.8488

MULLIKEN ATOMIC CHARGES
-----------------------
   0 C :   -0.268988
   1 C :   -0.387137
   2 C :   -0.387137
   3 C :   -0.268988
   4 C :   -0.194772
   5 C :   -0.194772
   6 C :   -0.405350
   7 C :    0.556322
   8 C :    0.556322
   9 N :   -0.674839
  10 O :   -0.361234
  11 O :   -0.361234
  12 H :    0.383019
  13 H :    0.241455
  14 H :    0.285907
  15 H :    0.285907
  16 H :    0.241455
  17 H :    0.238290
  18 H :    0.238290
  19 H :    0.223910
  20 H :    0.253573
Sum of atomic charges:   -0.0000000

LOEWDIN ATOMIC CHARGES
----------------------
   0 C :   -0.123264
   1 C :   -0.159896
   2 C :   -0.159896
   3 C :   -0.123264
   4 C :   -0.137566
   5 C :   -0.137566
   6 C :   -0.203329
   7 C :    0.128096
   8 C :    0.128096
   9 N :   -0.194786
  10 O :   -0.212313
  11 O :   -0.212313
  12 H :    0.275164
  13 H :    0.136853
  14 H :    0.157014
  15 H :    0.157014
  16 H :    0.136853
  17 H :    0.141763
  18 H :    0.141763
  19 H :    0.123700
  20 H :    0.137877

  Mayer bond orders larger than 0.100000
B(  0-C ,  1-C ) :   0.9408 B(  0-C ,  4-C ) :   0.9840 B(  0-C ,  6-C ) :   0.9488
B(  0-C , 13-H ) :   0.9230 B(  1-C ,  2-C ) :   0.9349 B(  1-C ,  7-C ) :   0.9134
B(  1-C , 14-H ) :   0.8877 B(  2-C ,  3-C ) :   0.9408 B(  2-C ,  8-C ) :   0.9134
B(  2-C , 15-H ) :   0.8877 B(  3-C ,  5-C ) :   0.9840 B(  3-C ,  6-C ) :   0.9488
B(  3-C , 16-H ) :   0.9230 B(  4-C ,  5-C ) :   1.8595 B(  4-C , 17-H ) :   0.9199
B(  5-C , 18-H ) :   0.9199 B(  6-C , 19-H ) :   0.9184 B(  6-C , 20-H ) :   0.9165
B(  7-C ,  9-N ) :   1.0394 B(  7-C , 11-O ) :   2.1227 B(  8-C ,  9-N ) :   1.0394
B(  8-C , 10-O ) :   2.1227 B(  9-N , 12-H ) :   0.8042

Dispersion correction           -0.014819355
FINAL SINGLE POINT ENERGY      -552.401249176064

DIPOLE MOMENT
-------------
                                X             Y             Z
Electronic contribution:     -7.37843      -1.00159      -0.00000
Nuclear contribution   :      8.22194       1.36336       0.00000
                        -----------------------------------------
Total Dipole Moment    :      0.84351       0.36177      -0.00000
                        -----------------------------------------
Magnitude (a.u.)       :      0.91782
Magnitude (Debye)      :      2.33291

Rotational constants in cm-1:     0.047363     0.039298     0.027532
Rotational constants in MHz :  1419.902538  1178.116190   825.380094

                             ****ORCA TERMINATED NORMALLY****
TOTAL RUN TIME: 0 days 0 hours 2 minutes 9 seconds 685 msec
