                         Program Version 5.0.3 -  RELEASE  -
|  1> ! PBEh-3c def2/J TightSCF DefGrid3
|  2>
|  3> %maxcore 60000
|  4>
|  5> %pal
|  6> nprocs 4
|  7> end
|  8>
|  9> *xyzfile 0 2 P42.xyz
| 10>
| 11>                          ****END OF INPUT****

CARTESIAN COORDINATES (ANGSTROEM)
---------------------------------
  N     -1.565702    0.143884    0.000000
  C     -0.390398   -0.531884    0.000000
  C      0.819641    0.223517    0.000000
  O      0.872220    1.448957    0.000000
  O      1.944101   -0.556650    0.000000
  H     -2.443517   -0.321168    0.000000
  H     -1.531739    1.150266    0.000000
  H     -0.400636   -1.610362    0.000000
  H      2.696030    0.053441    0.000000

 Total Charge           Charge          ....    0
 Multiplicity           Mult            ....    2
 Number of Electrons    NEL             ....   39
 Basis Dimension        Dim             ....   83

ORBITAL ENERGIES
----------------
                 SPIN UP ORBITALS
  NO   OCC          E(Eh)            E(eV)
   0   1.0000     -19.520933      -531.1916
   1   1.0000     -19.464793      -529.6639
   2   1.0000     -14.672571      -399.2609
   3   1.0000     -10.559226      -287.3311
   4   1.0000     -10.486140      -285.3424
   5   1.0000      -1.194873       -32.5142
   6   1.0000      -1.103451       -30.0264
   7   1.0000      -1.038321       -28.2541
   8   1.0000      -0.814177       -22.1549
   9   1.0000      -0.669148       -18.2084
  10   1.0000      -0.638294       -17.3689
  11   1.0000      -0.552377       -15.0309
  12   1.0000      -0.540492       -14.7075
  13   1.0000      -0.507875       -13.8200
  14   1.0000      -0.507151       -13.8003
  15   1.0000      -0.445388       -12.1196
  16   1.0000      -0.424495       -11.5511
  17   1.0000      -0.368446       -10.0259
  18   1.0000      -0.327746        -8.9184
  19   1.0000      -0.216054        -5.8791
  20   0.0000       0.105556         2.8723
  21   0.0000       0.124767         3.3951
  22   0.0000       0.147476         4.0130
  23   0.0000       0.169131         4.6023
  24   0.0000       0.226758         6.1704

                 SPIN DOWN ORBITALS
  NO   OCC          E(Eh)            E(eV)
   0   1.0000     -19.519922      -531.1641
   1   1.0000     -19.459558      -529.5215
   2   1.0000     -14.665249      -399.0617
   3   1.0000     -10.559369      -287.3350
   4   1.0000     -10.476854      -285.0897
   5   1.0000      -1.190525       -32.3958
   6   1.0000      -1.095062       -29.7982
   7   1.0000      -1.019755       -27.7490
   8   1.0000      -0.789753       -21.4903
   9   1.0000      -0.661922       -18.0118
  10   1.0000      -0.632873       -17.2213
  11   1.0000      -0.546072       -14.8594
  12   1.0000      -0.534451       -14.5431
  13   1.0000      -0.501403       -13.6439
  14   1.0000      -0.483303       -13.1513
  15   1.0000      -0.440720       -11.9926
  16   1.0000      -0.373427       -10.1615
  17   1.0000      -0.337407        -9.1813
  18   1.0000      -0.321659        -8.7528
  19   0.0000      -0.033204        -0.9035
  20   0.0000       0.130037         3.5385
  21   0.0000       0.148767         4.0482
  22   0.0000       0.148886         4.0514
  23   0.0000       0.172925         4.7055

MULLIKEN ATOMIC CHARGES AND SPIN POPULATIONS
--------------------------------------------
   0 N :   -0.730294    0.272458
   1 C :   -0.120731    0.604248
   2 C :    0.460834    0.001881
   3 O :   -0.448132    0.167076
   4 O :   -0.616872    0.024207
   5 H :    0.370761   -0.015049
   6 H :    0.391426   -0.014329
   7 H :    0.255203   -0.037709
   8 H :    0.437805   -0.002782
Sum of atomic charges         :   -0.0000000

LOEWDIN ATOMIC CHARGES AND SPIN POPULATIONS
-------------------------------------------
   0 N :   -0.317327    0.288063
   1 C :   -0.151564    0.519370
   2 C :    0.086632    0.041260
   3 O :   -0.289513    0.161646
   4 O :   -0.325802    0.027690
   5 H :    0.255509   -0.009270
   6 H :    0.267943   -0.008881
   7 H :    0.144160   -0.017878
   8 H :    0.329960   -0.002001

  Mayer bond orders larger than 0.100000
B(  0-N ,  1-C ) :   1.2674 B(  0-N ,  5-H ) :   0.8323 B(  0-N ,  6-H ) :   0.8012
B(  1-C ,  2-C ) :   1.1767 B(  1-C ,  7-H ) :   0.8929 B(  2-C ,  3-O ) :   1.9450
B(  2-C ,  4-O ) :   1.0856 B(  4-O ,  8-H ) :   0.7661

Dispersion correction           -0.003076177
FINAL SINGLE POINT ENERGY      -283.194754625076

DIPOLE MOMENT
-------------
                                X             Y             Z
Electronic contribution:      2.00614       0.75117       0.00000
Nuclear contribution   :     -2.90293      -1.27512       0.00000
                        -----------------------------------------
Total Dipole Moment    :     -0.89679      -0.52395       0.00000
                        -----------------------------------------
Magnitude (a.u.)       :      1.03863
Magnitude (Debye)      :      2.63999

Rotational constants in cm-1:     0.374680     0.136829     0.100227
Rotational constants in MHz : 11232.616885  4102.027439  3004.732402

                             ****ORCA TERMINATED NORMALLY****
TOTAL RUN TIME: 0 days 0 hours 2 minutes 47 seconds 679 msec
