                         Program Version 5.0.3 -  RELEASE  -
|  1> ! PBEh-3c def2/J TightSCF DefGrid3
|  2>
|  3> %maxcore 60000
|  4>
|  5> %pal
|  6> nprocs 4
|  7> end
|  8>
|  9> *xyzfile 0 1 ts6.xyz
| 10>
| 11>                          ****END OF INPUT****

CARTESIAN COORDINATES (ANGSTROEM)
---------------------------------
  B      0.195930   -2.404252   -0.114545
  H      1.360993   -2.685544   -0.199805
  H     -0.333608   -2.717470    0.920691
  H     -0.456942   -2.614727   -1.104821
  P      0.238837    2.271815    0.126562
  H      1.616403    2.500399    0.125207
  H     -0.115657    2.992780    1.269314
  H     -0.154220    3.194720   -0.845461
  O      0.266932   -0.670397   -0.025347
  C     -0.740107   -0.028398   -0.049386
  O     -1.878562    0.161074   -0.102409

 Total Charge           Charge          ....    0
 Multiplicity           Mult            ....    1
 Number of Electrons    NEL             ....   48
 Basis Dimension        Dim             ....   90

ORBITAL ENERGIES
----------------

  NO   OCC          E(Eh)            E(eV)
   0   2.0000     -77.784231     -2116.6165
   1   2.0000     -19.594594      -533.1960
   2   2.0000     -19.590504      -533.0847
   3   2.0000     -10.675707      -290.5007
   4   2.0000      -6.916815      -188.2161
   5   2.0000      -6.867435      -186.8724
   6   2.0000      -4.957593      -134.9030
   7   2.0000      -4.957557      -134.9020
   8   2.0000      -4.955869      -134.8561
   9   2.0000      -1.295584       -35.2546
  10   2.0000      -1.239555       -33.7300
  11   2.0000      -0.780360       -21.2347
  12   2.0000      -0.700232       -19.0543
  13   2.0000      -0.625870       -17.0308
  14   2.0000      -0.608114       -16.5476
  15   2.0000      -0.597925       -16.2704
  16   2.0000      -0.508642       -13.8409
  17   2.0000      -0.500233       -13.6120
  18   2.0000      -0.497685       -13.5427
  19   2.0000      -0.449116       -12.2211
  20   2.0000      -0.440711       -11.9923
  21   2.0000      -0.359343        -9.7782
  22   2.0000      -0.333582        -9.0772
  23   2.0000      -0.331412        -9.0182
  24   0.0000      -0.021031        -0.5723
  25   0.0000       0.009390         0.2555
  26   0.0000       0.032847         0.8938
  27   0.0000       0.061922         1.6850
  28   0.0000       0.109184         2.9711

MULLIKEN ATOMIC CHARGES
-----------------------
   0 B :   -0.259905
   1 H :    0.008930
   2 H :    0.018196
   3 H :    0.012875
   4 P :   -0.215171
   5 H :    0.135298
   6 H :    0.132588
   7 H :    0.132396
   8 O :   -0.345743
   9 C :    0.633604
  10 O :   -0.253068
Sum of atomic charges:   -0.0000000

LOEWDIN ATOMIC CHARGES
----------------------
   0 B :   -0.290068
   1 H :   -0.005440
   2 H :   -0.008317
   3 H :   -0.009604
   4 P :    0.078330
   5 H :    0.060741
   6 H :    0.060428
   7 H :    0.059916
   8 O :   -0.078702
   9 C :    0.206840
  10 O :   -0.074124

  Mayer bond orders larger than 0.100000
B(  0-B ,  1-H ) :   0.9872 B(  0-B ,  2-H ) :   0.9876 B(  0-B ,  3-H ) :   0.9873
B(  0-B ,  8-O ) :   0.3429 B(  4-P ,  5-H ) :   0.9453 B(  4-P ,  6-H ) :   0.9513
B(  4-P ,  7-H ) :   0.9503 B(  4-P ,  9-C ) :   0.2647 B(  8-O ,  9-C ) :   1.7270
B(  8-O , 10-O ) :   0.1746 B(  9-C , 10-O ) :   2.1478

Dispersion correction           -0.003882947
FINAL SINGLE POINT ENERGY      -557.445483640110

DIPOLE MOMENT
-------------
                                X             Y             Z
Electronic contribution:     -2.24433       3.93242       0.04057
Nuclear contribution   :      2.42698      -1.18717       0.11732
                        -----------------------------------------
Total Dipole Moment    :      0.18266       2.74525       0.15789
                        -----------------------------------------
Magnitude (a.u.)       :      2.75584
Magnitude (Debye)      :      7.00480

Rotational constants in cm-1:     0.245336     0.062679     0.051246
Rotational constants in MHz :  7355.001512  1879.066749  1536.326492

                             ****ORCA TERMINATED NORMALLY****
TOTAL RUN TIME: 0 days 0 hours 1 minutes 12 seconds 566 msec
