                         Program Version 5.0.3 -  RELEASE  -
|  1> ! PBEh-3c def2/J TightSCF DefGrid3
|  2>
|  3> %maxcore 60000
|  4>
|  5> %pal
|  6> nprocs 4
|  7> end
|  8>
|  9> *xyzfile 0 1 c20bowl.xyz
| 10>
| 11>                          ****END OF INPUT****

CARTESIAN COORDINATES (ANGSTROEM)
---------------------------------
  C      3.146856    0.625485   -0.240142
  C      2.078090    1.509821    0.009914
  C      0.979391    0.711569    0.470371
  C      0.979391   -0.711569    0.470371
  C      2.078090   -1.509821    0.009914
  C      3.146856   -0.625485   -0.240142
  C     -0.374094   -1.151343    0.470371
  C     -1.210594    0.000000    0.470371
  C     -0.374094    1.151343    0.470371
  C      1.567304    2.799552   -0.240142
  C      0.377560    3.186123   -0.240142
  C     -0.793760    2.442941    0.009914
  C      1.567304   -2.799552   -0.240142
  C      0.377560   -3.186123   -0.240142
  C     -0.793760   -2.442941    0.009914
  C     -2.178209   -2.355704   -0.240142
  C     -2.913511   -1.343647   -0.240142
  C     -2.568661    0.000000    0.009914
  C     -2.913511    1.343647   -0.240142
  C     -2.178209    2.355704   -0.240142

 Total Charge           Charge          ....    0
 Multiplicity           Mult            ....    1
 Number of Electrons    NEL             ....  120
 Basis Dimension        Dim             ....  300

ORBITAL ENERGIES
----------------

  NO   OCC          E(Eh)            E(eV)
   0   2.0000     -10.557437      -287.2825
   1   2.0000     -10.557437      -287.2825
   2   2.0000     -10.557378      -287.2809
   3   2.0000     -10.557372      -287.2807
   4   2.0000     -10.557335      -287.2797
   5   2.0000     -10.512157      -286.0503
   6   2.0000     -10.512156      -286.0503
   7   2.0000     -10.512119      -286.0493
   8   2.0000     -10.512118      -286.0493
   9   2.0000     -10.512057      -286.0476
  10   2.0000     -10.510267      -285.9989
  11   2.0000     -10.510240      -285.9982
  12   2.0000     -10.510240      -285.9982
  13   2.0000     -10.510220      -285.9976
  14   2.0000     -10.510219      -285.9976
  15   2.0000     -10.507391      -285.9206
  16   2.0000     -10.507130      -285.9135
  17   2.0000     -10.507128      -285.9135
  18   2.0000     -10.506565      -285.8982
  19   2.0000     -10.506564      -285.8981
  20   2.0000      -1.077179       -29.3115
  21   2.0000      -1.019748       -27.7488
  22   2.0000      -1.019745       -27.7487
  23   2.0000      -0.956084       -26.0164
  24   2.0000      -0.956084       -26.0164
  25   2.0000      -0.951096       -25.8806
  26   2.0000      -0.878757       -23.9122
  27   2.0000      -0.878757       -23.9122
  28   2.0000      -0.835742       -22.7417
  29   2.0000      -0.835741       -22.7417
  30   2.0000      -0.764083       -20.7918
  31   2.0000      -0.764082       -20.7917
  32   2.0000      -0.744674       -20.2636
  33   2.0000      -0.676347       -18.4043
  34   2.0000      -0.671663       -18.2769
  35   2.0000      -0.671663       -18.2769
  36   2.0000      -0.617720       -16.8090
  37   2.0000      -0.617465       -16.8021
  38   2.0000      -0.617463       -16.8020
  39   2.0000      -0.581961       -15.8360
  40   2.0000      -0.581961       -15.8360
  41   2.0000      -0.542208       -14.7542
  42   2.0000      -0.527072       -14.3424
  43   2.0000      -0.527069       -14.3423
  44   2.0000      -0.485874       -13.2213
  45   2.0000      -0.485873       -13.2213
  46   2.0000      -0.485871       -13.2212
  47   2.0000      -0.485869       -13.2212
  48   2.0000      -0.413354       -11.2479
  49   2.0000      -0.413353       -11.2479
  50   2.0000      -0.408439       -11.1142
  51   2.0000      -0.360616        -9.8129
  52   2.0000      -0.360615        -9.8128
  53   2.0000      -0.351141        -9.5550
  54   2.0000      -0.351140        -9.5550
  55   2.0000      -0.343515        -9.3475
  56   2.0000      -0.320498        -8.7212
  57   2.0000      -0.320498        -8.7212
  58   2.0000      -0.302479        -8.2309
  59   2.0000      -0.302478        -8.2309
  60   0.0000      -0.108826        -2.9613
  61   0.0000      -0.098231        -2.6730
  62   0.0000      -0.098231        -2.6730
  63   0.0000      -0.081395        -2.2149
  64   0.0000      -0.081395        -2.2149

MULLIKEN ATOMIC CHARGES
-----------------------
   0 C :   -0.000802
   1 C :    0.033292
   2 C :   -0.031687
   3 C :   -0.031686
   4 C :    0.033293
   5 C :   -0.000804
   6 C :   -0.031647
   7 C :   -0.031740
   8 C :   -0.031647
   9 C :   -0.000807
  10 C :   -0.000826
  11 C :    0.033303
  12 C :   -0.000806
  13 C :   -0.000826
  14 C :    0.033305
  15 C :   -0.000816
  16 C :   -0.000811
  17 C :    0.033339
  18 C :   -0.000812
  19 C :   -0.000815
Sum of atomic charges:    0.0000000

LOEWDIN ATOMIC CHARGES
----------------------
   0 C :    0.001988
   1 C :   -0.002708
   2 C :   -0.001266
   3 C :   -0.001266
   4 C :   -0.002709
   5 C :    0.001988
   6 C :   -0.001269
   7 C :   -0.001268
   8 C :   -0.001269
   9 C :    0.001990
  10 C :    0.001984
  11 C :   -0.002708
  12 C :    0.001990
  13 C :    0.001984
  14 C :   -0.002708
  15 C :    0.001981
  16 C :    0.001993
  17 C :   -0.002702
  18 C :    0.001993
  19 C :    0.001981

  Mayer bond orders larger than 0.100000
B(  0-C ,  1-C ) :   1.2062 B(  0-C ,  5-C ) :   2.3789 B(  1-C ,  2-C ) :   1.2984
B(  1-C ,  9-C ) :   1.2062 B(  2-C ,  3-C ) :   1.1963 B(  2-C ,  8-C ) :   1.1963
B(  3-C ,  4-C ) :   1.2984 B(  3-C ,  6-C ) :   1.1963 B(  4-C ,  5-C ) :   1.2062
B(  4-C , 12-C ) :   1.2062 B(  6-C ,  7-C ) :   1.1963 B(  6-C , 14-C ) :   1.2983
B(  7-C ,  8-C ) :   1.1963 B(  7-C , 17-C ) :   1.2984 B(  8-C , 11-C ) :   1.2983
B(  9-C , 10-C ) :   2.3789 B( 10-C , 11-C ) :   1.2062 B( 11-C , 19-C ) :   1.2062
B( 12-C , 13-C ) :   2.3789 B( 13-C , 14-C ) :   1.2062 B( 14-C , 15-C ) :   1.2062
B( 15-C , 16-C ) :   2.3789 B( 16-C , 17-C ) :   1.2062 B( 17-C , 18-C ) :   1.2062
B( 18-C , 19-C ) :   2.3789

Dispersion correction           -0.020432019
FINAL SINGLE POINT ENERGY      -759.747475541632

DIPOLE MOMENT
-------------
                                X             Y             Z
Electronic contribution:     -0.00001      -0.00000      -0.01468
Nuclear contribution   :      0.00000       0.00000       0.00000
                        -----------------------------------------
Total Dipole Moment    :     -0.00001      -0.00000      -0.01468
                        -----------------------------------------
Magnitude (a.u.)       :      0.01468
Magnitude (Debye)      :      0.03732

Rotational constants in cm-1:     0.019144     0.019144     0.009797
Rotational constants in MHz :   573.936057   573.936054   293.712367

                             ****ORCA TERMINATED NORMALLY****
TOTAL RUN TIME: 0 days 0 hours 3 minutes 25 seconds 343 msec
