                         Program Version 5.0.3 -  RELEASE  -
|  1> ! PBEh-3c def2/J TightSCF DefGrid3
|  2>
|  3> %maxcore 60000
|  4>
|  5> %pal
|  6> nprocs 4
|  7> end
|  8>
|  9> *xyzfile 0 1 li5_ch.xyz
| 10>
| 11>                          ****END OF INPUT****

CARTESIAN COORDINATES (ANGSTROEM)
---------------------------------
  C      0.000000    0.000000    0.117986
  Li    -1.444409    1.444409    0.100245
  Li    -1.444409   -1.444409    0.100245
  Li     1.444409   -1.444409    0.100245
  Li     1.444409    1.444409    0.100245
  Li     0.000000    0.000000   -1.766222
  H      0.000000    0.000000    1.247257

 Total Charge           Charge          ....    0
 Multiplicity           Mult            ....    1
 Number of Electrons    NEL             ....   22
 Basis Dimension        Dim             ....   62

ORBITAL ENERGIES
----------------

  NO   OCC          E(Eh)            E(eV)
   0   2.0000     -10.370071      -282.1840
   1   2.0000      -2.082092       -56.6566
   2   2.0000      -2.081784       -56.6482
   3   2.0000      -2.081784       -56.6482
   4   2.0000      -2.081418       -56.6383
   5   2.0000      -2.063667       -56.1552
   6   2.0000      -0.630195       -17.1485
   7   2.0000      -0.333167        -9.0659
   8   2.0000      -0.227304        -6.1853
   9   2.0000      -0.227304        -6.1853
  10   2.0000      -0.122980        -3.3465
  11   0.0000      -0.044360        -1.2071
  12   0.0000      -0.044360        -1.2071
  13   0.0000      -0.034802        -0.9470
  14   0.0000      -0.015132        -0.4118
  15   0.0000      -0.006030        -0.1641

MULLIKEN ATOMIC CHARGES
-----------------------
   0 C :   -1.469240
   1 Li:    0.265646
   2 Li:    0.265646
   3 Li:    0.265646
   4 Li:    0.265646
   5 Li:    0.208474
   6 H :    0.198180
Sum of atomic charges:    0.0000000

LOEWDIN ATOMIC CHARGES
----------------------
   0 C :   -0.767271
   1 Li:    0.152153
   2 Li:    0.152153
   3 Li:    0.152153
   4 Li:    0.152153
   5 Li:   -0.038005
   6 H :    0.196664

  Mayer bond orders larger than 0.100000
B(  0-C ,  1-Li) :   0.4910 B(  0-C ,  2-Li) :   0.4910 B(  0-C ,  3-Li) :   0.4910
B(  0-C ,  4-Li) :   0.4910 B(  0-C ,  5-Li) :   0.4177 B(  0-C ,  6-H ) :   0.8338
B(  1-Li,  2-Li) :   0.1755 B(  1-Li,  3-Li) :   0.1279 B(  1-Li,  4-Li) :   0.1755
B(  1-Li,  5-Li) :   0.2208 B(  2-Li,  3-Li) :   0.1755 B(  2-Li,  4-Li) :   0.1279
B(  2-Li,  5-Li) :   0.2208 B(  3-Li,  4-Li) :   0.1755 B(  3-Li,  5-Li) :   0.2208
B(  4-Li,  5-Li) :   0.2208

Dispersion correction           -0.003016482
FINAL SINGLE POINT ENERGY       -76.016313292502

DIPOLE MOMENT
-------------
                                X             Y             Z
Electronic contribution:     -0.00000      -0.00000      -1.10550
Nuclear contribution   :      0.00000       0.00000       1.88020
                        -----------------------------------------
Total Dipole Moment    :     -0.00000      -0.00000       0.77470
                        -----------------------------------------
Magnitude (a.u.)       :      0.77470
Magnitude (Debye)      :      1.96912

Rotational constants in cm-1:     0.209095     0.209095     0.145514
Rotational constants in MHz :  6268.496988  6268.496988  4362.397754

                             ****ORCA TERMINATED NORMALLY****
TOTAL RUN TIME: 0 days 0 hours 1 minutes 23 seconds 857 msec
