                         Program Version 5.0.3 -  RELEASE  -
|  1> ! PBEh-3c def2/J TightSCF DefGrid3
|  2>
|  3> %maxcore 60000
|  4>
|  5> %pal
|  6> nprocs 4
|  7> end
|  8>
|  9> *xyzfile 0 2 hs.xyz
| 10>
| 11>                          ****END OF INPUT****

CARTESIAN COORDINATES (ANGSTROEM)
---------------------------------
  S      0.040921    0.000000    0.000000
  H     -1.301652    0.000000    0.000000

 Total Charge           Charge          ....    0
 Multiplicity           Mult            ....    2
 Number of Electrons    NEL             ....   17
 Basis Dimension        Dim             ....   20

ORBITAL ENERGIES
----------------
                 SPIN UP ORBITALS
  NO   OCC          E(Eh)            E(eV)
   0   1.0000     -89.608556     -2438.3728
   1   1.0000      -8.248640      -224.4569
   2   1.0000      -6.148449      -167.3078
   3   1.0000      -6.135662      -166.9599
   4   1.0000      -6.127752      -166.7446
   5   1.0000      -0.816159       -22.2088
   6   1.0000      -0.460711       -12.5366
   7   1.0000      -0.369054       -10.0425
   8   1.0000      -0.316148        -8.6028
   9   0.0000       0.076375         2.0783
  10   0.0000       0.371684        10.1140
  11   0.0000       0.575616        15.6633
  12   0.0000       0.658042        17.9062
  13   0.0000       0.690276        18.7834

                 SPIN DOWN ORBITALS
  NO   OCC          E(Eh)            E(eV)
   0   1.0000     -89.602279     -2438.2020
   1   1.0000      -8.242271      -224.2836
   2   1.0000      -6.131896      -166.8574
   3   1.0000      -6.125118      -166.6729
   4   1.0000      -6.124095      -166.6451
   5   1.0000      -0.762880       -20.7590
   6   1.0000      -0.444354       -12.0915
   7   1.0000      -0.299085        -8.1385
   8   0.0000      -0.130113        -3.5406
   9   0.0000       0.089413         2.4330
  10   0.0000       0.392108        10.6698
  11   0.0000       0.591338        16.0911
  12   0.0000       0.708617        19.2825

MULLIKEN ATOMIC CHARGES AND SPIN POPULATIONS
--------------------------------------------
   0 S :   -0.176498    1.032506
   1 H :    0.176498   -0.032506
Sum of atomic charges         :   -0.0000000

LOEWDIN ATOMIC CHARGES AND SPIN POPULATIONS
-------------------------------------------
   0 S :   -0.102060    1.020009
   1 H :    0.102060   -0.020009

  Mayer bond orders larger than 0.100000
B(  0-S ,  1-H ) :   0.9355

Dispersion correction           -0.000186064
FINAL SINGLE POINT ENERGY      -398.286827960137

DIPOLE MOMENT
-------------
                                X             Y             Z
Electronic contribution:      0.78104      -0.00000      -0.00000
Nuclear contribution   :     -1.22236       0.00000       0.00000
                        -----------------------------------------
Total Dipole Moment    :     -0.44132      -0.00000      -0.00000
                        -----------------------------------------
Magnitude (a.u.)       :      0.44132
Magnitude (Debye)      :      1.12174

Rotational constants in cm-1:     0.000000     9.569848     9.569848
Rotational constants in MHz :     0.000000 286896.816683 286896.816683

                             ****ORCA TERMINATED NORMALLY****
TOTAL RUN TIME: 0 days 0 hours 0 minutes 55 seconds 587 msec
