                         Program Version 5.0.3 -  RELEASE  -
|  1> ! PBEh-3c def2/J TightSCF DefGrid3
|  2>
|  3> %maxcore 60000
|  4>
|  5> %pal
|  6> nprocs 4
|  7> end
|  8>
|  9> *xyzfile 0 1 BH3PH3.xyz
| 10>
| 11>                          ****END OF INPUT****

CARTESIAN COORDINATES (ANGSTROEM)
---------------------------------
  B      0.000000    0.000000   -1.399412
  P      0.000000    0.000000    0.559278
  H      0.000000    1.247191    1.222360
  H      1.080099   -0.623596    1.222360
  H     -1.080099   -0.623596    1.222360
  H      0.000000   -1.173097   -1.686396
  H      1.015932    0.586549   -1.686396
  H     -1.015932    0.586549   -1.686396

 Total Charge           Charge          ....    0
 Multiplicity           Mult            ....    1
 Number of Electrons    NEL             ....   26
 Basis Dimension        Dim             ....   45

ORBITAL ENERGIES
----------------

  NO   OCC          E(Eh)            E(eV)
   0   2.0000     -77.792167     -2116.8325
   1   2.0000      -6.896653      -187.6675
   2   2.0000      -6.871718      -186.9890
   3   2.0000      -4.962419      -135.0343
   4   2.0000      -4.962419      -135.0343
   5   2.0000      -4.960329      -134.9774
   6   2.0000      -0.780102       -21.2277
   7   2.0000      -0.567014       -15.4292
   8   2.0000      -0.495038       -13.4707
   9   2.0000      -0.495038       -13.4707
  10   2.0000      -0.364089        -9.9074
  11   2.0000      -0.348476        -9.4825
  12   2.0000      -0.348475        -9.4825
  13   0.0000       0.050410         1.3717
  14   0.0000       0.050411         1.3717
  15   0.0000       0.103771         2.8237
  16   0.0000       0.126690         3.4474
  17   0.0000       0.201771         5.4905

MULLIKEN ATOMIC CHARGES
-----------------------
   0 B :   -0.497341
   1 P :   -0.004681
   2 H :    0.117550
   3 H :    0.117560
   4 H :    0.117560
   5 H :    0.049817
   6 H :    0.049768
   7 H :    0.049768
Sum of atomic charges:   -0.0000000

LOEWDIN ATOMIC CHARGES
----------------------
   0 B :   -0.626437
   1 P :    0.413546
   2 H :    0.050113
   3 H :    0.050120
   4 H :    0.050120
   5 H :    0.020855
   6 H :    0.020842
   7 H :    0.020842

  Mayer bond orders larger than 0.100000
B(  0-B ,  1-P ) :   0.7721 B(  0-B ,  5-H ) :   0.9526 B(  0-B ,  6-H ) :   0.9526
B(  0-B ,  7-H ) :   0.9526 B(  1-P ,  2-H ) :   0.9294 B(  1-P ,  3-H ) :   0.9294
B(  1-P ,  4-H ) :   0.9294

Dispersion correction           -0.002405055
FINAL SINGLE POINT ENERGY      -369.311874320377

DIPOLE MOMENT
-------------
                                X             Y             Z
Electronic contribution:      0.00000       0.00002       2.54377
Nuclear contribution   :      0.00000      -0.00000      -0.81373
                        -----------------------------------------
Total Dipole Moment    :      0.00000       0.00002       1.73004
                        -----------------------------------------
Magnitude (a.u.)       :      1.73004
Magnitude (Debye)      :      4.39742

Rotational constants in cm-1:     1.901534     0.348326     0.348326
Rotational constants in MHz : 57006.557164 10442.557655 10442.557142

                             ****ORCA TERMINATED NORMALLY****
TOTAL RUN TIME: 0 days 0 hours 0 minutes 34 seconds 670 msec
