                         Program Version 5.0.3 -  RELEASE  -
|  1> ! PBEh-3c def2/J TightSCF DefGrid3
|  2>
|  3> %maxcore 60000
|  4>
|  5> %pal
|  6> nprocs 4
|  7> end
|  8>
|  9> *xyzfile 0 1 55.xyz
| 10>
| 11>                          ****END OF INPUT****

CARTESIAN COORDINATES (ANGSTROEM)
---------------------------------
  C      1.052816    1.247113   -1.134394
  H      1.728083    2.091503   -1.133462
  C      1.559685   -0.051524   -1.086893
  H      2.627983   -0.213342   -1.048734
  C      0.688388   -1.140153   -1.083261
  H      1.081729   -2.146654   -1.045131
  C     -0.689138   -0.930816   -1.126896
  H     -1.364589   -1.775302   -1.123045
  C     -1.196279    0.366988   -1.170594
  H     -2.264880    0.529589   -1.200447
  C     -0.325708    1.456170   -1.174283
  H     -0.718694    2.462945   -1.203797
  O      0.340086    0.522024    2.176947
  H      0.426186    0.571897    1.219753
  C     -0.556064   -0.535590    2.460001
  H     -0.651785   -0.592325    3.540938
  H     -1.548214   -0.363893    2.036211
  H     -0.189604   -1.498631    2.097090

 Total Charge           Charge          ....    0
 Multiplicity           Mult            ....    1
 Number of Electrons    NEL             ....   60
 Basis Dimension        Dim             ....  140

ORBITAL ENERGIES
----------------

  NO   OCC          E(Eh)            E(eV)
   0   2.0000     -19.463190      -529.6203
   1   2.0000     -10.461493      -284.6717
   2   2.0000     -10.461263      -284.6654
   3   2.0000     -10.461214      -284.6641
   4   2.0000     -10.460614      -284.6478
   5   2.0000     -10.460555      -284.6462
   6   2.0000     -10.460356      -284.6408
   7   2.0000     -10.458666      -284.5948
   8   2.0000      -1.100251       -29.9394
   9   2.0000      -0.965907       -26.2837
  10   2.0000      -0.848357       -23.0850
  11   2.0000      -0.848052       -23.0767
  12   2.0000      -0.744559       -20.2605
  13   2.0000      -0.690785       -18.7972
  14   2.0000      -0.690776       -18.7970
  15   2.0000      -0.603808       -16.4305
  16   2.0000      -0.552091       -15.0231
  17   2.0000      -0.536580       -14.6011
  18   2.0000      -0.520663       -14.1680
  19   2.0000      -0.493522       -13.4294
  20   2.0000      -0.493407       -13.4263
  21   2.0000      -0.482417       -13.1272
  22   2.0000      -0.464853       -12.6493
  23   2.0000      -0.433760       -11.8032
  24   2.0000      -0.409743       -11.1497
  25   2.0000      -0.409675       -11.1478
  26   2.0000      -0.372485       -10.1358
  27   2.0000      -0.309748        -8.4287
  28   2.0000      -0.305718        -8.3190
  29   2.0000      -0.304048        -8.2736
  30   0.0000       0.005604         0.1525
  31   0.0000       0.005883         0.1601
  32   0.0000       0.131073         3.5667
  33   0.0000       0.150842         4.1046
  34   0.0000       0.183293         4.9877

MULLIKEN ATOMIC CHARGES
-----------------------
   0 C :   -0.244518
   1 H :    0.232479
   2 C :   -0.229613
   3 H :    0.231033
   4 C :   -0.225612
   5 H :    0.228681
   6 C :   -0.223059
   7 H :    0.227931
   8 C :   -0.225637
   9 H :    0.228562
  10 C :   -0.228327
  11 H :    0.230895
  12 O :   -0.640148
  13 H :    0.441239
  14 C :   -0.365032
  15 H :    0.208343
  16 H :    0.176449
  17 H :    0.176335
Sum of atomic charges:   -0.0000000

LOEWDIN ATOMIC CHARGES
----------------------
   0 C :   -0.144201
   1 H :    0.141603
   2 C :   -0.139062
   3 H :    0.141127
   4 C :   -0.138229
   5 H :    0.139677
   6 C :   -0.135838
   7 H :    0.139075
   8 C :   -0.138170
   9 H :    0.139611
  10 C :   -0.138592
  11 H :    0.141065
  12 O :   -0.425287
  13 H :    0.309961
  14 C :   -0.195260
  15 H :    0.115331
  16 H :    0.093610
  17 H :    0.093579

  Mayer bond orders larger than 0.100000
B(  0-C ,  1-H ) :   0.9172 B(  0-C ,  2-C ) :   1.4202 B(  0-C , 10-C ) :   1.4201
B(  2-C ,  3-H ) :   0.9175 B(  2-C ,  4-C ) :   1.4221 B(  4-C ,  5-H ) :   0.9179
B(  4-C ,  6-C ) :   1.4224 B(  6-C ,  7-H ) :   0.9178 B(  6-C ,  8-C ) :   1.4222
B(  8-C ,  9-H ) :   0.9179 B(  8-C , 10-C ) :   1.4225 B( 10-C , 11-H ) :   0.9175
B( 12-O , 13-H ) :   0.7633 B( 12-O , 14-C ) :   1.0319 B( 14-C , 15-H ) :   0.9262
B( 14-C , 16-H ) :   0.9179 B( 14-C , 17-H ) :   0.9180

Dispersion correction           -0.009331168
FINAL SINGLE POINT ENERGY      -347.199807143183

DIPOLE MOMENT
-------------
                                X             Y             Z
Electronic contribution:      1.47253       1.55442      -3.97167
Nuclear contribution   :     -1.75054      -1.92315       3.30672
                        -----------------------------------------
Total Dipole Moment    :     -0.27801      -0.36874      -0.66495
                        -----------------------------------------
Magnitude (a.u.)       :      0.80958
Magnitude (Debye)      :      2.05779

Rotational constants in cm-1:     0.086961     0.046323     0.044666
Rotational constants in MHz :  2607.024182  1388.718483  1339.050928

                             ****ORCA TERMINATED NORMALLY****
TOTAL RUN TIME: 0 days 0 hours 1 minutes 39 seconds 978 msec
