                         Program Version 5.0.3 -  RELEASE  -
|  1> ! PBEh-3c def2/J TightSCF DefGrid3
|  2>
|  3> %maxcore 60000
|  4>
|  5> %pal
|  6> nprocs 4
|  7> end
|  8>
|  9> *xyzfile 0 1 TS11.xyz
| 10>
| 11>                          ****END OF INPUT****

CARTESIAN COORDINATES (ANGSTROEM)
---------------------------------
  H     -0.545647   -1.959427   -1.538258
  C     -0.548581   -1.962405   -0.443960
  C      0.811536   -1.978552    0.200693
  C      0.763094   -1.235433    1.349808
  C     -0.461825   -0.513336    1.410420
  C     -1.171823   -0.728415    0.202068
  H     -1.117679   -2.852574   -0.124627
  C      0.775846    0.522518   -1.261384
  H      1.628013   -2.618149   -0.115500
  H      1.562604   -1.153352    2.079902
  H     -0.786889    0.103954    2.238471
  C     -0.618014    0.676026   -1.051484
  H     -2.249386   -0.583129    0.155593
  H     -1.327223    0.478444   -1.852977
  H      1.241158   -0.090664   -2.022879
  C      1.467634    1.300722   -0.291149
  C      0.573159    2.019090    0.456446
  H      2.541408    1.273469   -0.132220
  H      0.813216    2.689616    1.274042
  C     -0.783646    1.923415   -0.188289
  H     -1.628786    1.895783    0.506320
  H     -0.938170    2.792400   -0.851035

 Total Charge           Charge          ....    0
 Multiplicity           Mult            ....    1
 Number of Electrons    NEL             ....   72
 Basis Dimension        Dim             ....  174

ORBITAL ENERGIES
----------------

  NO   OCC          E(Eh)            E(eV)
   0   2.0000     -10.453146      -284.4446
   1   2.0000     -10.453133      -284.4442
   2   2.0000     -10.439051      -284.0610
   3   2.0000     -10.439044      -284.0608
   4   2.0000     -10.438627      -284.0495
   5   2.0000     -10.438619      -284.0493
   6   2.0000     -10.434400      -283.9345
   7   2.0000     -10.434302      -283.9318
   8   2.0000     -10.433887      -283.9205
   9   2.0000     -10.433853      -283.9196
  10   2.0000      -0.960276       -26.1304
  11   2.0000      -0.930951       -25.3325
  12   2.0000      -0.799743       -21.7621
  13   2.0000      -0.786179       -21.3930
  14   2.0000      -0.770737       -20.9728
  15   2.0000      -0.762348       -20.7446
  16   2.0000      -0.626862       -17.0578
  17   2.0000      -0.616031       -16.7630
  18   2.0000      -0.595182       -16.1957
  19   2.0000      -0.578511       -15.7421
  20   2.0000      -0.576020       -15.6743
  21   2.0000      -0.560147       -15.2424
  22   2.0000      -0.508002       -13.8234
  23   2.0000      -0.474469       -12.9110
  24   2.0000      -0.443543       -12.0694
  25   2.0000      -0.430285       -11.7087
  26   2.0000      -0.424896       -11.5620
  27   2.0000      -0.419105       -11.4044
  28   2.0000      -0.412817       -11.2333
  29   2.0000      -0.408742       -11.1224
  30   2.0000      -0.405365       -11.0306
  31   2.0000      -0.388995       -10.5851
  32   2.0000      -0.360174        -9.8008
  33   2.0000      -0.300329        -8.1724
  34   2.0000      -0.297481        -8.0949
  35   2.0000      -0.205646        -5.5959
  36   0.0000      -0.015644        -0.4257
  37   0.0000       0.064163         1.7460
  38   0.0000       0.070359         1.9146
  39   0.0000       0.153400         4.1742
  40   0.0000       0.167559         4.5595

MULLIKEN ATOMIC CHARGES
-----------------------
   0 H :    0.221388
   1 C :   -0.444119
   2 C :   -0.251714
   3 C :   -0.162362
   4 C :   -0.193947
   5 C :   -0.295919
   6 H :    0.247694
   7 C :   -0.193987
   8 H :    0.214242
   9 H :    0.211207
  10 H :    0.223216
  11 C :   -0.295918
  12 H :    0.230312
  13 H :    0.230304
  14 H :    0.223238
  15 C :   -0.162336
  16 C :   -0.251681
  17 H :    0.211200
  18 H :    0.214231
  19 C :   -0.444122
  20 H :    0.221375
  21 H :    0.247699
Sum of atomic charges:   -0.0000000

LOEWDIN ATOMIC CHARGES
----------------------
   0 H :    0.128729
   1 C :   -0.225083
   2 C :   -0.159392
   3 C :   -0.130498
   4 C :   -0.163178
   5 C :   -0.125836
   6 H :    0.147075
   7 C :   -0.163176
   8 H :    0.130650
   9 H :    0.131056
  10 H :    0.133927
  11 C :   -0.125842
  12 H :    0.132548
  13 H :    0.132547
  14 H :    0.133930
  15 C :   -0.130497
  16 C :   -0.159387
  17 H :    0.131055
  18 H :    0.130648
  19 C :   -0.225077
  20 H :    0.128724
  21 H :    0.147076

  Mayer bond orders larger than 0.100000
B(  0-H ,  1-C ) :   0.9128 B(  1-C ,  2-C ) :   1.0126 B(  1-C ,  5-C ) :   0.9842
B(  1-C ,  6-H ) :   0.8817 B(  2-C ,  3-C ) :   1.6177 B(  2-C ,  7-C ) :   0.1278
B(  2-C ,  8-H ) :   0.9258 B(  3-C ,  4-C ) :   1.2840 B(  3-C ,  9-H ) :   0.9229
B(  4-C ,  5-C ) :   1.3442 B(  4-C ,  7-C ) :   0.1160 B(  4-C , 10-H ) :   0.9177
B(  4-C , 16-C ) :   0.1278 B(  5-C , 11-C ) :   0.4980 B(  5-C , 12-H ) :   0.9095
B(  7-C , 11-C ) :   1.3442 B(  7-C , 14-H ) :   0.9177 B(  7-C , 15-C ) :   1.2840
B( 11-C , 13-H ) :   0.9095 B( 11-C , 19-C ) :   0.9842 B( 15-C , 16-C ) :   1.6177
B( 15-C , 17-H ) :   0.9229 B( 16-C , 18-H ) :   0.9258 B( 16-C , 19-C ) :   1.0126
B( 19-C , 20-H ) :   0.9128 B( 19-C , 21-H ) :   0.8817

Dispersion correction           -0.014738492
FINAL SINGLE POINT ENERGY      -387.312675168632

DIPOLE MOMENT
-------------
                                X             Y             Z
Electronic contribution:      1.34103       0.03928       0.63642
Nuclear contribution   :     -1.51396      -0.04431      -0.71850
                        -----------------------------------------
Total Dipole Moment    :     -0.17293      -0.00502      -0.08208
                        -----------------------------------------
Magnitude (a.u.)       :      0.19149
Magnitude (Debye)      :      0.48672

Rotational constants in cm-1:     0.079534     0.043251     0.041324
Rotational constants in MHz :  2384.365719  1296.636710  1238.861651

                             ****ORCA TERMINATED NORMALLY****
TOTAL RUN TIME: 0 days 0 hours 2 minutes 16 seconds 353 msec
