                         Program Version 5.0.3 -  RELEASE  -
|  1> ! PBEh-3c def2/J TightSCF DefGrid3
|  2>
|  3> %maxcore 60000
|  4>
|  5> %pal
|  6> nprocs 4
|  7> end
|  8>
|  9> *xyzfile 0 1 H4P2O7_4.xyz
| 10>
| 11>                          ****END OF INPUT****

CARTESIAN COORDINATES (ANGSTROEM)
---------------------------------
  O      1.809183   -1.481976   -0.135639
  P      1.644269    0.110034   -0.021613
  O      2.625783    0.896028   -0.770130
  O      0.115151    0.345320   -0.626042
  P     -1.282693    0.120433    0.127280
  O     -1.139922    0.088554    1.598989
  O     -2.220410    1.241598   -0.508348
  O     -1.928698   -1.203247   -0.452377
  O      1.482194    0.383226    1.515022
  H      2.408222   -1.709284   -0.866539
  H     -1.955922    2.147253   -0.272546
  H     -2.092042   -1.182052   -1.410717
  H      0.534884    0.244113    1.822660

 Total Charge           Charge          ....    0
 Multiplicity           Mult            ....    1
 Number of Electrons    NEL             ....   90
 Basis Dimension        Dim             ....  149

ORBITAL ENERGIES
----------------

  NO   OCC          E(Eh)            E(eV)
   0   2.0000     -77.956762     -2121.3114
   1   2.0000     -77.927601     -2120.5178
   2   2.0000     -19.572881      -532.6052
   3   2.0000     -19.570472      -532.5396
   4   2.0000     -19.569762      -532.5203
   5   2.0000     -19.546009      -531.8739
   6   2.0000     -19.530933      -531.4637
   7   2.0000     -19.499226      -530.6009
   8   2.0000     -19.462951      -529.6138
   9   2.0000      -7.000663      -190.4977
  10   2.0000      -6.971846      -189.7136
  11   2.0000      -5.095085      -138.6443
  12   2.0000      -5.094596      -138.6310
  13   2.0000      -5.093214      -138.5934
  14   2.0000      -5.066837      -137.8756
  15   2.0000      -5.065272      -137.8331
  16   2.0000      -5.063931      -137.7966
  17   2.0000      -1.259331       -34.2681
  18   2.0000      -1.217915       -33.1412
  19   2.0000      -1.183248       -32.1978
  20   2.0000      -1.166756       -31.7490
  21   2.0000      -1.151191       -31.3255
  22   2.0000      -1.114089       -30.3159
  23   2.0000      -1.078726       -29.3536
  24   2.0000      -0.774357       -21.0713
  25   2.0000      -0.722549       -19.6616
  26   2.0000      -0.673175       -18.3180
  27   2.0000      -0.665692       -18.1144
  28   2.0000      -0.634768       -17.2729
  29   2.0000      -0.576089       -15.6762
  30   2.0000      -0.552665       -15.0388
  31   2.0000      -0.532881       -14.5004
  32   2.0000      -0.522968       -14.2307
  33   2.0000      -0.508537       -13.8380
  34   2.0000      -0.487529       -13.2663
  35   2.0000      -0.475023       -12.9260
  36   2.0000      -0.459313       -12.4985
  37   2.0000      -0.458070       -12.4647
  38   2.0000      -0.442770       -12.0484
  39   2.0000      -0.435269       -11.8443
  40   2.0000      -0.411691       -11.2027
  41   2.0000      -0.402177       -10.9438
  42   2.0000      -0.395825       -10.7709
  43   2.0000      -0.369110       -10.0440
  44   2.0000      -0.362586        -9.8665
  45   0.0000       0.049517         1.3474
  46   0.0000       0.093268         2.5379
  47   0.0000       0.097607         2.6560
  48   0.0000       0.124015         3.3746
  49   0.0000       0.137377         3.7382

MULLIKEN ATOMIC CHARGES
-----------------------
   0 O :   -0.712693
   1 P :    1.435342
   2 O :   -0.606961
   3 O :   -0.696806
   4 P :    1.450625
   5 O :   -0.657493
   6 O :   -0.699510
   7 O :   -0.680093
   8 O :   -0.728865
   9 H :    0.464295
  10 H :    0.472980
  11 H :    0.468152
  12 H :    0.491027
Sum of atomic charges:   -0.0000000

LOEWDIN ATOMIC CHARGES
----------------------
   0 O :   -0.460773
   1 P :    0.908392
   2 O :   -0.494378
   3 O :   -0.413845
   4 P :    0.909413
   5 O :   -0.513163
   6 O :   -0.444409
   7 O :   -0.423557
   8 O :   -0.454393
   9 H :    0.345671
  10 H :    0.350748
  11 H :    0.349450
  12 H :    0.340844

  Mayer bond orders larger than 0.100000
B(  0-O ,  1-P ) :   1.0701 B(  0-O ,  9-H ) :   0.7414 B(  1-P ,  2-O ) :   1.9356
B(  1-P ,  3-O ) :   0.8160 B(  1-P ,  8-O ) :   1.1694 B(  3-O ,  4-P ) :   0.9992
B(  4-P ,  5-O ) :   1.7399 B(  4-P ,  6-O ) :   1.0986 B(  4-P ,  7-O ) :   1.1142
B(  5-O , 12-H ) :   0.1439 B(  6-O , 10-H ) :   0.7343 B(  7-O , 11-H ) :   0.7356
B(  8-O , 12-H ) :   0.6021

Dispersion correction           -0.007275072
FINAL SINGLE POINT ENERGY     -1210.003648983391

DIPOLE MOMENT
-------------
                                X             Y             Z
Electronic contribution:      0.44410       0.57327      -0.32396
Nuclear contribution   :     -1.60415      -0.79827      -0.91254
                        -----------------------------------------
Total Dipole Moment    :     -1.16005      -0.22500      -1.23650
                        -----------------------------------------
Magnitude (a.u.)       :      1.71035
Magnitude (Debye)      :      4.34735

Rotational constants in cm-1:     0.078042     0.027631     0.027466
Rotational constants in MHz :  2339.640208   828.356768   823.416102

                             ****ORCA TERMINATED NORMALLY****
TOTAL RUN TIME: 0 days 0 hours 1 minutes 51 seconds 806 msec
