                         Program Version 5.0.3 -  RELEASE  -
|  1> ! PBEh-3c def2/J TightSCF DefGrid3
|  2>
|  3> %maxcore 60000
|  4>
|  5> %pal
|  6> nprocs 4
|  7> end
|  8>
|  9> *xyzfile 0 1 methanol.xyz
| 10>
| 11>                          ****END OF INPUT****

CARTESIAN COORDINATES (ANGSTROEM)
---------------------------------
  C     -0.050463   -0.268715   -0.236933
  H      0.326381   -1.298868   -0.216386
  H      0.312137    0.213538   -1.162189
  H     -1.154067   -0.304828   -0.264239
  O      0.444169    0.371371    0.940457
  H      0.121842    1.287503    0.939289

 Total Charge           Charge          ....    0
 Multiplicity           Mult            ....    1
 Number of Electrons    NEL             ....   18
 Basis Dimension        Dim             ....   38

ORBITAL ENERGIES
----------------

  NO   OCC          E(Eh)            E(eV)
   0   2.0000     -19.484168      -530.1912
   1   2.0000     -10.477852      -285.1168
   2   2.0000      -1.113166       -30.2908
   3   2.0000      -0.757155       -20.6032
   4   2.0000      -0.563150       -15.3241
   5   2.0000      -0.494173       -13.4471
   6   2.0000      -0.477142       -12.9837
   7   2.0000      -0.387655       -10.5486
   8   2.0000      -0.325470        -8.8565
   9   0.0000       0.127835         3.4786
  10   0.0000       0.189122         5.1463
  11   0.0000       0.214568         5.8387
  12   0.0000       0.228763         6.2250
  13   0.0000       0.235671         6.4129

MULLIKEN ATOMIC CHARGES
-----------------------
   0 C :   -0.367445
   1 H :    0.217746
   2 H :    0.182630
   3 H :    0.182685
   4 O :   -0.627206
   5 H :    0.411590
Sum of atomic charges:    0.0000000

LOEWDIN ATOMIC CHARGES
----------------------
   0 C :   -0.196801
   1 H :    0.122609
   2 H :    0.097398
   3 H :    0.097405
   4 O :   -0.426932
   5 H :    0.306322

  Mayer bond orders larger than 0.100000
B(  0-C ,  1-H ) :   0.9242 B(  0-C ,  2-H ) :   0.9167 B(  0-C ,  3-H ) :   0.9166
B(  0-C ,  4-O ) :   1.0125 B(  4-O ,  5-H ) :   0.7979

Dispersion correction           -0.001078973
FINAL SINGLE POINT ENERGY      -115.466570631573

DIPOLE MOMENT
-------------
                                X             Y             Z
Electronic contribution:      0.67723       0.72209       1.52343
Nuclear contribution   :     -1.08042      -0.39776      -1.99728
                        -----------------------------------------
Total Dipole Moment    :     -0.40319       0.32433      -0.47385
                        -----------------------------------------
Magnitude (a.u.)       :      0.70164
Magnitude (Debye)      :      1.78341

Rotational constants in cm-1:     4.208598     0.816296     0.787507
Rotational constants in MHz : 126170.583155 24471.942288 23608.868122

                             ****ORCA TERMINATED NORMALLY****
TOTAL RUN TIME: 0 days 0 hours 0 minutes 53 seconds 389 msec
