                         Program Version 5.0.3 -  RELEASE  -
|  1> ! PBEh-3c def2/J TightSCF DefGrid3
|  2>
|  3> %maxcore 60000
|  4>
|  5> %pal
|  6> nprocs 4
|  7> end
|  8>
|  9> *xyzfile 0 1 i5e.xyz
| 10>
| 11>                          ****END OF INPUT****

CARTESIAN COORDINATES (ANGSTROEM)
---------------------------------
  C     -1.346035    1.131344   -0.397382
  C     -2.443985    0.944934    0.352047
  C     -3.272088   -0.315909    0.322931
  C     -2.536579   -1.562023   -0.276249
  C     -1.055584   -1.300949   -0.588543
  C     -0.929975    0.036701   -1.361163
  C      2.949338    0.973555    0.228210
  C      1.623752    0.632970    0.540966
  C      1.243633   -0.721299    0.412196
  C      2.171654   -1.678197   -0.021092
  C      3.488132   -1.316557   -0.318916
  C      3.877025    0.019248   -0.197382
  C     -0.350902    2.218432   -0.081938
  C      0.670625    1.725669    0.992456
  C     -0.172025   -1.210707    0.667978
  O     -0.546585   -1.535992    1.779347
  H     -2.705481    1.691905    1.104319
  H     -3.576645   -0.534640    1.355010
  H     -4.207067   -0.149209   -0.234767
  H     -3.020357   -1.860426   -1.214637
  H     -2.619609   -2.400549    0.423516
  H     -0.648361   -2.123188   -1.199369
  H      0.091662    0.196110   -1.719033
  H     -1.588465    0.000782   -2.240875
  H      3.256306    2.013956    0.330793
  H      1.861414   -2.718027   -0.115912
  H      4.200941   -2.072945   -0.641297
  H      4.897979    0.318010   -0.427176
  H      0.192812    2.537673   -0.982621
  H     -0.867162    3.094719    0.332750
  H      0.092541    1.377569    1.857917
  H      1.269091    2.587037    1.317914

 Total Charge           Charge          ....    0
 Multiplicity           Mult            ....    1
 Number of Electrons    NEL             ....  114
 Basis Dimension        Dim             ....  272

ORBITAL ENERGIES
----------------

  NO   OCC          E(Eh)            E(eV)
   0   2.0000     -19.490734      -530.3698
   1   2.0000     -10.540331      -286.8170
   2   2.0000     -10.468907      -284.8734
   3   2.0000     -10.464113      -284.7430
   4   2.0000     -10.459514      -284.6178
   5   2.0000     -10.458823      -284.5990
   6   2.0000     -10.456188      -284.5273
   7   2.0000     -10.455640      -284.5124
   8   2.0000     -10.454679      -284.4863
   9   2.0000     -10.449445      -284.3439
  10   2.0000     -10.447556      -284.2925
  11   2.0000     -10.447212      -284.2831
  12   2.0000     -10.445540      -284.2376
  13   2.0000     -10.440293      -284.0948
  14   2.0000     -10.440131      -284.0904
  15   2.0000     -10.437601      -284.0216
  16   2.0000      -1.150744       -31.3133
  17   2.0000      -0.967435       -26.3253
  18   2.0000      -0.941249       -25.6127
  19   2.0000      -0.889171       -24.1956
  20   2.0000      -0.863353       -23.4930
  21   2.0000      -0.845803       -23.0155
  22   2.0000      -0.829015       -22.5586
  23   2.0000      -0.798375       -21.7249
  24   2.0000      -0.735685       -20.0190
  25   2.0000      -0.717754       -19.5311
  26   2.0000      -0.698478       -19.0066
  27   2.0000      -0.681525       -18.5452
  28   2.0000      -0.648610       -17.6496
  29   2.0000      -0.617918       -16.8144
  30   2.0000      -0.580399       -15.7935
  31   2.0000      -0.556156       -15.1338
  32   2.0000      -0.547449       -14.8968
  33   2.0000      -0.540953       -14.7201
  34   2.0000      -0.530980       -14.4487
  35   2.0000      -0.517934       -14.0937
  36   2.0000      -0.505350       -13.7513
  37   2.0000      -0.492463       -13.4006
  38   2.0000      -0.483704       -13.1623
  39   2.0000      -0.478940       -13.0326
  40   2.0000      -0.467633       -12.7249
  41   2.0000      -0.457088       -12.4380
  42   2.0000      -0.452747       -12.3199
  43   2.0000      -0.439202       -11.9513
  44   2.0000      -0.423587       -11.5264
  45   2.0000      -0.420551       -11.4438
  46   2.0000      -0.413989       -11.2652
  47   2.0000      -0.408158       -11.1066
  48   2.0000      -0.404527       -11.0077
  49   2.0000      -0.396709       -10.7950
  50   2.0000      -0.387809       -10.5528
  51   2.0000      -0.366587        -9.9753
  52   2.0000      -0.355837        -9.6828
  53   2.0000      -0.301023        -8.1913
  54   2.0000      -0.295322        -8.0361
  55   2.0000      -0.292649        -7.9634
  56   2.0000      -0.269817        -7.3421
  57   0.0000       0.005239         0.1426
  58   0.0000       0.008119         0.2209
  59   0.0000       0.016499         0.4490
  60   0.0000       0.044067         1.1991
  61   0.0000       0.129669         3.5285

MULLIKEN ATOMIC CHARGES
-----------------------
   0 C :    0.087765
   1 C :   -0.216593
   2 C :   -0.465555
   3 C :   -0.423729
   4 C :   -0.378749
   5 C :   -0.489096
   6 C :   -0.277724
   7 C :    0.132696
   8 C :   -0.036127
   9 C :   -0.240880
  10 C :   -0.228116
  11 C :   -0.210277
  12 C :   -0.485326
  13 C :   -0.521015
  14 C :    0.357165
  15 O :   -0.323193
  16 H :    0.208727
  17 H :    0.236960
  18 H :    0.228948
  19 H :    0.219754
  20 H :    0.249777
  21 H :    0.251162
  22 H :    0.252636
  23 H :    0.246780
  24 H :    0.214638
  25 H :    0.221706
  26 H :    0.222501
  27 H :    0.221468
  28 H :    0.224905
  29 H :    0.231747
  30 H :    0.256485
  31 H :    0.230561
Sum of atomic charges:    0.0000000

LOEWDIN ATOMIC CHARGES
----------------------
   0 C :   -0.077085
   1 C :   -0.148244
   2 C :   -0.237636
   3 C :   -0.228272
   4 C :   -0.171125
   5 C :   -0.221281
   6 C :   -0.131638
   7 C :   -0.035547
   8 C :   -0.068208
   9 C :   -0.123295
  10 C :   -0.135059
  11 C :   -0.131701
  12 C :   -0.219464
  13 C :   -0.220678
  14 C :    0.135719
  15 O :   -0.174968
  16 H :    0.129203
  17 H :    0.140515
  18 H :    0.135354
  19 H :    0.126637
  20 H :    0.140808
  21 H :    0.144068
  22 H :    0.139429
  23 H :    0.139606
  24 H :    0.135641
  25 H :    0.139497
  26 H :    0.138421
  27 H :    0.138205
  28 H :    0.128075
  29 H :    0.134868
  30 H :    0.145485
  31 H :    0.132672

  Mayer bond orders larger than 0.100000
B(  0-C ,  1-C ) :   1.8290 B(  0-C ,  5-C ) :   0.9527 B(  0-C , 12-C ) :   0.9804
B(  1-C ,  2-C ) :   1.0059 B(  1-C , 16-H ) :   0.9257 B(  2-C ,  3-C ) :   0.9519
B(  2-C , 17-H ) :   0.9150 B(  2-C , 18-H ) :   0.9114 B(  3-C ,  4-C ) :   0.9886
B(  3-C , 19-H ) :   0.9225 B(  3-C , 20-H ) :   0.9159 B(  4-C ,  5-C ) :   0.9511
B(  4-C , 14-C ) :   0.8851 B(  4-C , 21-H ) :   0.8924 B(  5-C , 22-H ) :   0.9095
B(  5-C , 23-H ) :   0.9098 B(  6-C ,  7-C ) :   1.4058 B(  6-C , 11-C ) :   1.4184
B(  6-C , 24-H ) :   0.9196 B(  7-C ,  8-C ) :   1.3806 B(  7-C , 13-C ) :   0.9474
B(  8-C ,  9-C ) :   1.3901 B(  8-C , 14-C ) :   0.9025 B(  9-C , 10-C ) :   1.4189
B(  9-C , 25-H ) :   0.9212 B( 10-C , 11-C ) :   1.4243 B( 10-C , 26-H ) :   0.9178
B( 11-C , 27-H ) :   0.9189 B( 12-C , 13-C ) :   0.9508 B( 12-C , 28-H ) :   0.9149
B( 12-C , 29-H ) :   0.9187 B( 13-C , 30-H ) :   0.9031 B( 13-C , 31-H ) :   0.9188
B( 14-C , 15-O ) :   2.1447

Dispersion correction           -0.024637018
FINAL SINGLE POINT ENERGY      -655.010230747915

DIPOLE MOMENT
-------------
                                X             Y             Z
Electronic contribution:      5.87037      -3.44640       3.09337
Nuclear contribution   :     -5.64060       3.77396      -4.00162
                        -----------------------------------------
Total Dipole Moment    :      0.22977       0.32756      -0.90825
                        -----------------------------------------
Magnitude (a.u.)       :      0.99248
Magnitude (Debye)      :      2.52267

Rotational constants in cm-1:     0.034869     0.015212     0.012564
Rotational constants in MHz :  1045.332651   456.032960   376.649892

                             ****ORCA TERMINATED NORMALLY****
TOTAL RUN TIME: 0 days 0 hours 4 minutes 23 seconds 865 msec
