                         Program Version 5.0.3 -  RELEASE  -
|  1> ! PBEh-3c def2/J TightSCF DefGrid3
|  2>
|  3> %maxcore 60000
|  4>
|  5> %pal
|  6> nprocs 4
|  7> end
|  8>
|  9> *xyzfile 0 1 eq-methylcyclohexene.xyz
| 10>
| 11>                          ****END OF INPUT****

CARTESIAN COORDINATES (ANGSTROEM)
---------------------------------
  C     -0.882781   -1.559906   -0.603717
  C      0.650186   -1.550381   -0.669105
  C      1.225302   -0.182383   -0.411322
  C      0.533693    0.850150    0.099815
  C     -0.916924    0.707796    0.505678
  C     -1.377291   -0.752489    0.600737
  H      1.063688   -2.269100    0.063753
  H      0.991247   -1.913779   -1.652987
  H     -1.288621   -1.113962   -1.527456
  H     -1.257028   -2.594101   -0.560005
  H     -1.074030    1.219396    1.471378
  H     -1.547406    1.259252   -0.217600
  H     -0.974761   -1.200365    1.525139
  H     -2.474286   -0.800126    0.678922
  H      2.279683   -0.033026   -0.667926
  C      1.147817    2.208341    0.298682
  H      1.127152    2.503564    1.361131
  H      2.190329    2.238730   -0.045900
  H      0.584032    2.982391   -0.249216

 Total Charge           Charge          ....    0
 Multiplicity           Mult            ....    1
 Number of Electrons    NEL             ....   54
 Basis Dimension        Dim             ....  129

ORBITAL ENERGIES
----------------

  NO   OCC          E(Eh)            E(eV)
   0   2.0000     -10.442889      -284.1655
   1   2.0000     -10.434906      -283.9482
   2   2.0000     -10.433916      -283.9213
   3   2.0000     -10.431920      -283.8670
   4   2.0000     -10.431281      -283.8496
   5   2.0000     -10.429451      -283.7998
   6   2.0000     -10.428510      -283.7742
   7   2.0000      -0.925854       -25.1938
   8   2.0000      -0.849332       -23.1115
   9   2.0000      -0.821238       -22.3470
  10   2.0000      -0.754773       -20.5384
  11   2.0000      -0.689007       -18.7488
  12   2.0000      -0.655031       -17.8243
  13   2.0000      -0.564452       -15.3595
  14   2.0000      -0.532718       -14.4960
  15   2.0000      -0.499932       -13.6039
  16   2.0000      -0.482870       -13.1395
  17   2.0000      -0.479896       -13.0586
  18   2.0000      -0.457894       -12.4599
  19   2.0000      -0.442619       -12.0443
  20   2.0000      -0.423179       -11.5153
  21   2.0000      -0.416770       -11.3409
  22   2.0000      -0.410240       -11.1632
  23   2.0000      -0.369770       -10.0619
  24   2.0000      -0.360427        -9.8077
  25   2.0000      -0.347977        -9.4689
  26   2.0000      -0.268054        -7.2941
  27   0.0000       0.059698         1.6245
  28   0.0000       0.138469         3.7679
  29   0.0000       0.164167         4.4672
  30   0.0000       0.178256         4.8506
  31   0.0000       0.180888         4.9222

MULLIKEN ATOMIC CHARGES
-----------------------
   0 C :   -0.427627
   1 C :   -0.450042
   2 C :   -0.246881
   3 C :    0.119013
   4 C :   -0.464818
   5 C :   -0.425801
   6 H :    0.215995
   7 H :    0.220378
   8 H :    0.210662
   9 H :    0.217153
  10 H :    0.217972
  11 H :    0.216753
  12 H :    0.211586
  13 H :    0.217126
  14 H :    0.199731
  15 C :   -0.688318
  16 H :    0.217056
  17 H :    0.223038
  18 H :    0.217024
Sum of atomic charges:    0.0000000

LOEWDIN ATOMIC CHARGES
----------------------
   0 C :   -0.236181
   1 C :   -0.239037
   2 C :   -0.167621
   3 C :   -0.070637
   4 C :   -0.232057
   5 C :   -0.235384
   6 H :    0.127648
   7 H :    0.129313
   8 H :    0.122631
   9 H :    0.123583
  10 H :    0.128652
  11 H :    0.129052
  12 H :    0.123085
  13 H :    0.123789
  14 H :    0.125643
  15 C :   -0.345741
  16 H :    0.130336
  17 H :    0.131811
  18 H :    0.131115

  Mayer bond orders larger than 0.100000
B(  0-C ,  1-C ) :   0.9846 B(  0-C ,  5-C ) :   0.9788 B(  0-C ,  8-H ) :   0.9193
B(  0-C ,  9-H ) :   0.9261 B(  1-C ,  2-C ) :   0.9916 B(  1-C ,  6-H ) :   0.9089
B(  1-C ,  7-H ) :   0.9183 B(  2-C ,  3-C ) :   1.8666 B(  2-C , 14-H ) :   0.9240
B(  3-C ,  4-C ) :   0.9647 B(  3-C , 15-C ) :   0.9767 B(  4-C ,  5-C ) :   0.9882
B(  4-C , 10-H ) :   0.9181 B(  4-C , 11-H ) :   0.9077 B(  5-C , 12-H ) :   0.9194
B(  5-C , 13-H ) :   0.9258 B( 15-C , 16-H ) :   0.9174 B( 15-C , 17-H ) :   0.9320
B( 15-C , 18-H ) :   0.9184

Dispersion correction           -0.009671309
FINAL SINGLE POINT ENERGY      -273.364451472918

DIPOLE MOMENT
-------------
                                X             Y             Z
Electronic contribution:      0.75374      -0.60703      -0.37321
Nuclear contribution   :     -0.84596       0.62083       0.39901
                        -----------------------------------------
Total Dipole Moment    :     -0.09222       0.01380       0.02580
                        -----------------------------------------
Magnitude (a.u.)       :      0.09675
Magnitude (Debye)      :      0.24592

Rotational constants in cm-1:     0.148966     0.074954     0.053586
Rotational constants in MHz :  4465.899539  2247.060885  1606.475435

                             ****ORCA TERMINATED NORMALLY****
TOTAL RUN TIME: 0 days 0 hours 1 minutes 25 seconds 723 msec
