                         Program Version 5.0.3 -  RELEASE  -
|  1> ! PBEh-3c def2/J TightSCF DefGrid3
|  2>
|  3> %maxcore 60000
|  4>
|  5> %pal
|  6> nprocs 4
|  7> end
|  8>
|  9> *xyzfile 0 1 45.xyz
| 10>
| 11>                          ****END OF INPUT****

CARTESIAN COORDINATES (ANGSTROEM)
---------------------------------
  Cl     0.000000    0.000000    1.021166
  Cl     0.000000    0.000000   -1.021166

 Total Charge           Charge          ....    0
 Multiplicity           Mult            ....    1
 Number of Electrons    NEL             ....   34
 Basis Dimension        Dim             ....   36

ORBITAL ENERGIES
----------------

  NO   OCC          E(Eh)            E(eV)
   0   2.0000    -102.359440     -2785.3420
   1   2.0000    -102.359394     -2785.3407
   2   2.0000      -9.824066      -267.3264
   3   2.0000      -9.824061      -267.3263
   4   2.0000      -7.514754      -204.4869
   5   2.0000      -7.514663      -204.4844
   6   2.0000      -7.501600      -204.1289
   7   2.0000      -7.501600      -204.1289
   8   2.0000      -7.501597      -204.1288
   9   2.0000      -7.501597      -204.1288
  10   2.0000      -1.018633       -27.7184
  11   2.0000      -0.852585       -23.2000
  12   2.0000      -0.515827       -14.0364
  13   2.0000      -0.460089       -12.5197
  14   2.0000      -0.460089       -12.5197
  15   2.0000      -0.359614        -9.7856
  16   2.0000      -0.359614        -9.7856
  17   0.0000      -0.101950        -2.7742
  18   0.0000       0.446701        12.1553
  19   0.0000       0.556312        15.1380
  20   0.0000       0.604601        16.4520
  21   0.0000       0.641249        17.4493

MULLIKEN ATOMIC CHARGES
-----------------------
   0 Cl:   -0.000000
   1 Cl:    0.000000
Sum of atomic charges:    0.0000000

LOEWDIN ATOMIC CHARGES
----------------------
   0 Cl:   -0.000000
   1 Cl:    0.000000

  Mayer bond orders larger than 0.100000
B(  0-Cl,  1-Cl) :   1.0295

Dispersion correction           -0.000447581
FINAL SINGLE POINT ENERGY      -919.358801280474

DIPOLE MOMENT
-------------
                                X             Y             Z
Electronic contribution:      0.00000       0.00000      -0.00000
Nuclear contribution   :      0.00000       0.00000       0.00000
                        -----------------------------------------
Total Dipole Moment    :      0.00000       0.00000      -0.00000
                        -----------------------------------------
Magnitude (a.u.)       :      0.00000
Magnitude (Debye)      :      0.00000

Rotational constants in cm-1:     0.000000     0.227993     0.227993
Rotational constants in MHz :     0.000000  6835.054941  6835.054941

                             ****ORCA TERMINATED NORMALLY****
TOTAL RUN TIME: 0 days 0 hours 0 minutes 11 seconds 678 msec
