                         Program Version 5.0.3 -  RELEASE  -
|  1> ! PBEh-3c def2/J TightSCF DefGrid3
|  2>
|  3> %maxcore 60000
|  4>
|  5> %pal
|  6> nprocs 4
|  7> end
|  8>
|  9> *xyzfile 0 1 26.xyz
| 10>
| 11>                          ****END OF INPUT****

CARTESIAN COORDINATES (ANGSTROEM)
---------------------------------
  N      1.366181    0.837897    1.027616
  H      1.041092    1.384373    1.816347
  C      1.298263    1.455679   -0.227664
  O      0.909841    2.609227   -0.332986
  N      2.000703   -1.215059    0.194919
  H      1.716565    0.988992   -2.319004
  C      2.015017   -0.699022   -1.071406
  H      2.286797   -1.392911   -1.852654
  C      1.703792    0.590087   -1.319496
  H      2.118734   -2.203371    0.349820
  C      1.635225   -0.487057    1.311709
  O      1.550396   -0.973667    2.422800
  N     -1.366181   -0.837897    1.027616
  H     -1.041092   -1.384373    1.816347
  C     -1.298263   -1.455679   -0.227664
  O     -0.909841   -2.609227   -0.332986
  N     -2.000703    1.215059    0.194919
  H     -1.716565   -0.988992   -2.319004
  C     -2.015017    0.699022   -1.071406
  H     -2.286797    1.392911   -1.852654
  C     -1.703792   -0.590087   -1.319496
  H     -2.118734    2.203371    0.349820
  C     -1.635225    0.487057    1.311709
  O     -1.550396    0.973667    2.422800

 Total Charge           Charge          ....    0
 Multiplicity           Mult            ....    1
 Number of Electrons    NEL             ....  116
 Basis Dimension        Dim             ....  256

ORBITAL ENERGIES
----------------

  NO   OCC          E(Eh)            E(eV)
   0   2.0000     -19.485027      -530.2145
   1   2.0000     -19.485020      -530.2144
   2   2.0000     -19.481678      -530.1234
   3   2.0000     -19.481671      -530.1232
   4   2.0000     -14.716690      -400.4615
   5   2.0000     -14.716676      -400.4611
   6   2.0000     -14.699261      -399.9872
   7   2.0000     -14.699245      -399.9868
   8   2.0000     -10.610928      -288.7380
   9   2.0000     -10.610909      -288.7375
  10   2.0000     -10.578444      -287.8541
  11   2.0000     -10.578440      -287.8540
  12   2.0000     -10.538420      -286.7650
  13   2.0000     -10.538420      -286.7650
  14   2.0000     -10.468530      -284.8632
  15   2.0000     -10.468490      -284.8621
  16   2.0000      -1.200993       -32.6807
  17   2.0000      -1.196528       -32.5592
  18   2.0000      -1.162389       -31.6302
  19   2.0000      -1.161435       -31.6043
  20   2.0000      -1.094504       -29.7830
  21   2.0000      -1.094299       -29.7774
  22   2.0000      -1.037376       -28.2284
  23   2.0000      -1.035463       -28.1764
  24   2.0000      -0.901688       -24.5362
  25   2.0000      -0.899233       -24.4694
  26   2.0000      -0.780902       -21.2494
  27   2.0000      -0.780251       -21.2317
  28   2.0000      -0.751684       -20.4544
  29   2.0000      -0.751144       -20.4397
  30   2.0000      -0.678029       -18.4501
  31   2.0000      -0.677261       -18.4292
  32   2.0000      -0.638075       -17.3629
  33   2.0000      -0.637444       -17.3457
  34   2.0000      -0.593366       -16.1463
  35   2.0000      -0.593285       -16.1441
  36   2.0000      -0.573044       -15.5933
  37   2.0000      -0.546930       -14.8827
  38   2.0000      -0.546420       -14.8688
  39   2.0000      -0.536897       -14.6097
  40   2.0000      -0.523869       -14.2552
  41   2.0000      -0.523594       -14.2477
  42   2.0000      -0.494032       -13.4433
  43   2.0000      -0.493849       -13.4383
  44   2.0000      -0.488844       -13.3021
  45   2.0000      -0.487977       -13.2785
  46   2.0000      -0.482345       -13.1253
  47   2.0000      -0.465932       -12.6787
  48   2.0000      -0.436416       -11.8755
  49   2.0000      -0.422325       -11.4921
  50   2.0000      -0.364142        -9.9088
  51   2.0000      -0.362780        -9.8718
  52   2.0000      -0.345254        -9.3948
  53   2.0000      -0.344469        -9.3735
  54   2.0000      -0.333889        -9.0856
  55   2.0000      -0.332555        -9.0493
  56   2.0000      -0.310624        -8.4525
  57   2.0000      -0.292459        -7.9582
  58   0.0000      -0.029671        -0.8074
  59   0.0000      -0.020416        -0.5556
  60   0.0000       0.031442         0.8556
  61   0.0000       0.037918         1.0318
  62   0.0000       0.100011         2.7214

MULLIKEN ATOMIC CHARGES
-----------------------
   0 N :   -0.723198
   1 H :    0.410758
   2 C :    0.553969
   3 O :   -0.409909
   4 N :   -0.666726
   5 H :    0.260829
   6 C :    0.086533
   7 H :    0.277658
   8 C :   -0.443683
   9 H :    0.401790
  10 C :    0.666424
  11 O :   -0.414445
  12 N :   -0.723198
  13 H :    0.410758
  14 C :    0.553969
  15 O :   -0.409909
  16 N :   -0.666726
  17 H :    0.260829
  18 C :    0.086533
  19 H :    0.277658
  20 C :   -0.443683
  21 H :    0.401790
  22 C :    0.666424
  23 O :   -0.414445
Sum of atomic charges:   -0.0000000

LOEWDIN ATOMIC CHARGES
----------------------
   0 N :   -0.199921
   1 H :    0.291463
   2 C :    0.116565
   3 O :   -0.258371
   4 N :   -0.177058
   5 H :    0.161364
   6 C :   -0.005625
   7 H :    0.153091
   8 C :   -0.243723
   9 H :    0.287904
  10 C :    0.137787
  11 O :   -0.263476
  12 N :   -0.199921
  13 H :    0.291463
  14 C :    0.116565
  15 O :   -0.258371
  16 N :   -0.177058
  17 H :    0.161364
  18 C :   -0.005625
  19 H :    0.153091
  20 C :   -0.243723
  21 H :    0.287904
  22 C :    0.137787
  23 O :   -0.263476

  Mayer bond orders larger than 0.100000
B(  0-N ,  1-H ) :   0.7820 B(  0-N ,  2-C ) :   0.9899 B(  0-N , 10-C ) :   1.0577
B(  2-C ,  3-O ) :   2.0150 B(  2-C ,  8-C ) :   1.0677 B(  4-N ,  6-C ) :   1.0856
B(  4-N ,  9-H ) :   0.8013 B(  4-N , 10-C ) :   1.0350 B(  5-H ,  8-C ) :   0.9089
B(  6-C ,  7-H ) :   0.8975 B(  6-C ,  8-C ) :   1.6346 B( 10-C , 11-O ) :   2.0336
B( 12-N , 13-H ) :   0.7820 B( 12-N , 14-C ) :   0.9899 B( 12-N , 22-C ) :   1.0577
B( 14-C , 15-O ) :   2.0150 B( 14-C , 20-C ) :   1.0677 B( 16-N , 18-C ) :   1.0856
B( 16-N , 21-H ) :   0.8013 B( 16-N , 22-C ) :   1.0350 B( 17-H , 20-C ) :   0.9089
B( 18-C , 19-H ) :   0.8975 B( 18-C , 20-C ) :   1.6346 B( 22-C , 23-O ) :   2.0336

Dispersion correction           -0.018378719
FINAL SINGLE POINT ENERGY      -827.889485645710

DIPOLE MOMENT
-------------
                                X             Y             Z
Electronic contribution:      0.00000      -0.00000       3.97136
Nuclear contribution   :      0.00000      -0.00000      -5.91054
                        -----------------------------------------
Total Dipole Moment    :      0.00000      -0.00000      -1.93917
                        -----------------------------------------
Magnitude (a.u.)       :      1.93917
Magnitude (Debye)      :      4.92899

Rotational constants in cm-1:     0.022632     0.018587     0.017326
Rotational constants in MHz :   678.501546   557.224965   519.414625

                             ****ORCA TERMINATED NORMALLY****
TOTAL RUN TIME: 0 days 0 hours 3 minutes 43 seconds 23 msec
