                         Program Version 5.0.3 -  RELEASE  -
|  1> ! PBEh-3c def2/J TightSCF DefGrid3
|  2>
|  3> %maxcore 60000
|  4>
|  5> %pal
|  6> nprocs 4
|  7> end
|  8>
|  9> *xyzfile 2 1 c2h6_2+.xyz
| 10>
| 11>                          ****END OF INPUT****

CARTESIAN COORDINATES (ANGSTROEM)
---------------------------------
  C      0.131228   -0.661785    0.000000
  C     -0.131228    0.661785    0.000000
  H     -0.807076   -1.325827    0.491666
  H     -0.807076   -1.325827   -0.491666
  H      1.081706   -1.206297    0.000000
  H      0.807076    1.325827   -0.491666
  H     -1.081706    1.206297    0.000000
  H      0.807076    1.325827    0.491666

 Total Charge           Charge          ....    2
 Multiplicity           Mult            ....    1
 Number of Electrons    NEL             ....   16
 Basis Dimension        Dim             ....   42

ORBITAL ENERGIES
----------------

  NO   OCC          E(Eh)            E(eV)
   0   2.0000     -11.066170      -301.1258
   1   2.0000     -11.065324      -301.1028
   2   2.0000      -1.475734       -40.1568
   3   2.0000      -1.313077       -35.7306
   4   2.0000      -1.120495       -30.4902
   5   2.0000      -1.118289       -30.4302
   6   2.0000      -1.018130       -27.7047
   7   2.0000      -0.938614       -25.5410
   8   0.0000      -0.640979       -17.4419
   9   0.0000      -0.450187       -12.2502
  10   0.0000      -0.407483       -11.0882
  11   0.0000      -0.349266        -9.5040
  12   0.0000      -0.322501        -8.7757

MULLIKEN ATOMIC CHARGES
-----------------------
   0 C :   -0.437838
   1 C :   -0.437839
   2 H :    0.469761
   3 H :    0.469761
   4 H :    0.498316
   5 H :    0.469761
   6 H :    0.498316
   7 H :    0.469761
Sum of atomic charges:    2.0000000

LOEWDIN ATOMIC CHARGES
----------------------
   0 C :   -0.069844
   1 C :   -0.069844
   2 H :    0.396564
   3 H :    0.396564
   4 H :    0.276716
   5 H :    0.396564
   6 H :    0.276716
   7 H :    0.396564

  Mayer bond orders larger than 0.100000
B(  0-C ,  1-C ) :   1.6454 B(  0-C ,  2-H ) :   0.5298 B(  0-C ,  3-H ) :   0.5298
B(  0-C ,  4-H ) :   0.7593 B(  1-C ,  5-H ) :   0.5298 B(  1-C ,  6-H ) :   0.7593
B(  1-C ,  7-H ) :   0.5298 B(  2-H ,  3-H ) :   0.1825 B(  5-H ,  7-H ) :   0.1825

Dispersion correction           -0.001848404
FINAL SINGLE POINT ENERGY       -78.555229597807

DIPOLE MOMENT
-------------
                                X             Y             Z
Electronic contribution:     -0.00000       0.00000       0.00000
Nuclear contribution   :      0.00000       0.00000       0.00000
                        -----------------------------------------
Total Dipole Moment    :     -0.00000       0.00000       0.00000
                        -----------------------------------------
Magnitude (a.u.)       :      0.00000
Magnitude (Debye)      :      0.00000

Rotational constants in cm-1:     2.649367     0.783088     0.649854
Rotational constants in MHz : 79426.036915 23476.388813 19482.125105

                             ****ORCA TERMINATED NORMALLY****
TOTAL RUN TIME: 0 days 0 hours 0 minutes 33 seconds 706 msec
