                         Program Version 5.0.3 -  RELEASE  -
|  1> ! PBEh-3c def2/J TightSCF DefGrid3
|  2>
|  3> %maxcore 60000
|  4>
|  5> %pal
|  6> nprocs 4
|  7> end
|  8>
|  9> *xyzfile 0 1 B2.xyz
| 10>
| 11>                          ****END OF INPUT****

CARTESIAN COORDINATES (ANGSTROEM)
---------------------------------
  C     -1.570595    0.079267   -0.370355
  H     -1.355336   -0.073130   -1.426941
  O     -1.335562   -1.194107    0.248616
  C     -0.709811    1.203924    0.194933
  H     -1.139954    2.145215   -0.158426
  H     -0.816323    1.212654    1.285527
  C      0.776173    1.181378   -0.181512
  H      1.230603    2.098789    0.203379
  H      0.879246    1.208144   -1.269244
  H     -1.580251   -1.117347    1.175456
  H     -2.628034    0.337210   -0.275879
  C      1.594973    0.001029    0.341202
  H      2.653547    0.228618    0.218442
  H      1.413617   -0.126718    1.416241
  O      1.376373   -1.208953   -0.363007
  H      0.471958   -1.482543   -0.159044

 Total Charge           Charge          ....    0
 Multiplicity           Mult            ....    1
 Number of Electrons    NEL             ....   50
 Basis Dimension        Dim             ....  110

ORBITAL ENERGIES
----------------

  NO   OCC          E(Eh)            E(eV)
   0   2.0000     -19.512405      -530.9595
   1   2.0000     -19.455216      -529.4033
   2   2.0000     -10.494409      -285.5674
   3   2.0000     -10.468559      -284.8640
   4   2.0000     -10.445468      -284.2356
   5   2.0000     -10.432322      -283.8779
   6   2.0000      -1.145234       -31.1634
   7   2.0000      -1.095772       -29.8175
   8   2.0000      -0.884264       -24.0620
   9   2.0000      -0.798896       -21.7391
  10   2.0000      -0.718516       -19.5518
  11   2.0000      -0.659510       -17.9462
  12   2.0000      -0.582459       -15.8495
  13   2.0000      -0.547471       -14.8975
  14   2.0000      -0.532624       -14.4934
  15   2.0000      -0.525021       -14.2866
  16   2.0000      -0.481562       -13.1040
  17   2.0000      -0.463182       -12.6038
  18   2.0000      -0.453606       -12.3432
  19   2.0000      -0.414373       -11.2757
  20   2.0000      -0.401932       -10.9371
  21   2.0000      -0.389092       -10.5877
  22   2.0000      -0.359837        -9.7917
  23   2.0000      -0.341782        -9.3004
  24   2.0000      -0.301978        -8.2172
  25   0.0000       0.107650         2.9293
  26   0.0000       0.154496         4.2040
  27   0.0000       0.165062         4.4916
  28   0.0000       0.173784         4.7289
  29   0.0000       0.196429         5.3451

MULLIKEN ATOMIC CHARGES
-----------------------
   0 C :   -0.178201
   1 H :    0.229257
   2 O :   -0.639011
   3 C :   -0.458747
   4 H :    0.223676
   5 H :    0.200665
   6 C :   -0.447876
   7 H :    0.211053
   8 H :    0.224539
   9 H :    0.421851
  10 H :    0.207658
  11 C :   -0.149614
  12 H :    0.208971
  13 H :    0.158157
  14 O :   -0.652286
  15 H :    0.439909
Sum of atomic charges:   -0.0000000

LOEWDIN ATOMIC CHARGES
----------------------
   0 C :   -0.099484
   1 H :    0.128059
   2 O :   -0.405593
   3 C :   -0.267323
   4 H :    0.133260
   5 H :    0.117849
   6 C :   -0.266128
   7 H :    0.127687
   8 H :    0.130243
   9 H :    0.312158
  10 H :    0.109853
  11 C :   -0.096373
  12 H :    0.117516
  13 H :    0.088799
  14 O :   -0.432055
  15 H :    0.301532

  Mayer bond orders larger than 0.100000
B(  0-C ,  1-H ) :   0.9110 B(  0-C ,  2-O ) :   0.9612 B(  0-C ,  3-C ) :   0.9601
B(  0-C , 10-H ) :   0.9157 B(  2-O ,  9-H ) :   0.7843 B(  3-C ,  4-H ) :   0.9124
B(  3-C ,  5-H ) :   0.9181 B(  3-C ,  6-C ) :   0.9957 B(  6-C ,  7-H ) :   0.9150
B(  6-C ,  8-H ) :   0.9100 B(  6-C , 11-C ) :   0.9595 B( 11-C , 12-H ) :   0.9199
B( 11-C , 13-H ) :   0.9121 B( 11-C , 14-O ) :   1.0625 B( 14-O , 15-H ) :   0.7142

Dispersion correction           -0.006986019
FINAL SINGLE POINT ENERGY      -308.211666061125

DIPOLE MOMENT
-------------
                                X             Y             Z
Electronic contribution:     -0.00646      -3.66790      -0.37118
Nuclear contribution   :     -0.90680       4.57735       1.04999
                        -----------------------------------------
Total Dipole Moment    :     -0.91326       0.90944       0.67881
                        -----------------------------------------
Magnitude (a.u.)       :      1.45668
Magnitude (Debye)      :      3.70259

Rotational constants in cm-1:     0.150708     0.097319     0.066573
Rotational constants in MHz :  4518.101222  2917.538959  1995.800359

                             ****ORCA TERMINATED NORMALLY****
TOTAL RUN TIME: 0 days 0 hours 1 minutes 28 seconds 812 msec
