                         Program Version 5.0.3 -  RELEASE  -
|  1> ! PBEh-3c def2/J TightSCF DefGrid3
|  2>
|  3> %maxcore 60000
|  4>
|  5> %pal
|  6> nprocs 4
|  7> end
|  8>
|  9> *xyzfile 0 1 antdimer.xyz
| 10>
| 11>                          ****END OF INPUT****

CARTESIAN COORDINATES (ANGSTROEM)
---------------------------------
  C     -1.393709   -2.337728    1.815732
  C     -0.697521   -3.456009    2.275805
  C      0.697521   -3.456009    2.275805
  C      1.393709   -2.337728    1.815732
  C      0.701229   -1.222025    1.349109
  C     -0.701229   -1.222025    1.349109
  C      1.388576    0.000000    0.804733
  C     -1.388576    0.000000    0.804733
  C     -0.701229    1.222025    1.349109
  C      0.701229    1.222025    1.349109
  C     -1.393709    2.337728    1.815732
  C      1.393709    2.337728    1.815732
  C     -0.697521    3.456009    2.275805
  C      0.697521    3.456009    2.275805
  C     -1.393709    2.337728   -1.815732
  C     -0.697521    3.456009   -2.275805
  C      0.697521    3.456009   -2.275805
  C      1.393709    2.337728   -1.815732
  C      0.701229    1.222025   -1.349109
  C     -0.701229    1.222025   -1.349109
  C      1.388576    0.000000   -0.804733
  C     -1.388576    0.000000   -0.804733
  C     -0.701229   -1.222025   -1.349109
  C      0.701229   -1.222025   -1.349109
  C     -1.393709   -2.337728   -1.815732
  C      1.393709   -2.337728   -1.815732
  C     -0.697521   -3.456009   -2.275805
  C      0.697521   -3.456009   -2.275805
  H     -2.476723   -2.331984    1.817075
  H     -1.239531   -4.318753    2.636856
  H      1.239531   -4.318753    2.636856
  H      2.476723   -2.331984    1.817075
  H      2.433208    0.000000    1.118498
  H     -2.433208    0.000000    1.118498
  H     -2.476723    2.331984    1.817075
  H      2.476723    2.331984    1.817075
  H     -1.239531    4.318753    2.636856
  H      1.239531    4.318753    2.636856
  H     -2.476723    2.331984   -1.817075
  H     -1.239531    4.318753   -2.636856
  H      1.239531    4.318753   -2.636856
  H      2.476723    2.331984   -1.817075
  H      2.433208    0.000000   -1.118498
  H     -2.433208    0.000000   -1.118498
  H     -2.476723   -2.331984   -1.817075
  H      2.476723   -2.331984   -1.817075
  H     -1.239531   -4.318753   -2.636856
  H      1.239531   -4.318753   -2.636856

 Total Charge           Charge          ....    0
 Multiplicity           Mult            ....    1
 Number of Electrons    NEL             ....  188
 Basis Dimension        Dim             ....  460

ORBITAL ENERGIES
----------------

  NO   OCC          E(Eh)            E(eV)
   0   2.0000     -10.462323      -284.6943
   1   2.0000     -10.462258      -284.6925
   2   2.0000     -10.462205      -284.6911
   3   2.0000     -10.462105      -284.6884
   4   2.0000     -10.450722      -284.3786
   5   2.0000     -10.450641      -284.3764
   6   2.0000     -10.450525      -284.3733
   7   2.0000     -10.450443      -284.3710
   8   2.0000     -10.450120      -284.3622
   9   2.0000     -10.450054      -284.3604
  10   2.0000     -10.449962      -284.3579
  11   2.0000     -10.449949      -284.3576
  12   2.0000     -10.442678      -284.1597
  13   2.0000     -10.442674      -284.1596
  14   2.0000     -10.442672      -284.1595
  15   2.0000     -10.442664      -284.1593
  16   2.0000     -10.442643      -284.1588
  17   2.0000     -10.442641      -284.1587
  18   2.0000     -10.442637      -284.1586
  19   2.0000     -10.442637      -284.1586
  20   2.0000     -10.441949      -284.1399
  21   2.0000     -10.441949      -284.1399
  22   2.0000     -10.441940      -284.1396
  23   2.0000     -10.441940      -284.1396
  24   2.0000     -10.441466      -284.1267
  25   2.0000     -10.441464      -284.1267
  26   2.0000     -10.441456      -284.1265
  27   2.0000     -10.441455      -284.1264
  28   2.0000      -1.002580       -27.2816
  29   2.0000      -0.962519       -26.1915
  30   2.0000      -0.948876       -25.8202
  31   2.0000      -0.940857       -25.6020
  32   2.0000      -0.904415       -24.6104
  33   2.0000      -0.903929       -24.5971
  34   2.0000      -0.871913       -23.7259
  35   2.0000      -0.848507       -23.0891
  36   2.0000      -0.834787       -22.7157
  37   2.0000      -0.831229       -22.6189
  38   2.0000      -0.828189       -22.5362
  39   2.0000      -0.814974       -22.1766
  40   2.0000      -0.801951       -21.8222
  41   2.0000      -0.760382       -20.6911
  42   2.0000      -0.751859       -20.4591
  43   2.0000      -0.712970       -19.4009
  44   2.0000      -0.697566       -18.9817
  45   2.0000      -0.682439       -18.5701
  46   2.0000      -0.670398       -18.2425
  47   2.0000      -0.665275       -18.1030
  48   2.0000      -0.659732       -17.9522
  49   2.0000      -0.657420       -17.8893
  50   2.0000      -0.631903       -17.1950
  51   2.0000      -0.598304       -16.2807
  52   2.0000      -0.588997       -16.0274
  53   2.0000      -0.578376       -15.7384
  54   2.0000      -0.567639       -15.4462
  55   2.0000      -0.550284       -14.9740
  56   2.0000      -0.546063       -14.8591
  57   2.0000      -0.526519       -14.3273
  58   2.0000      -0.524905       -14.2834
  59   2.0000      -0.515970       -14.0402
  60   2.0000      -0.506433       -13.7807
  61   2.0000      -0.504085       -13.7168
  62   2.0000      -0.503164       -13.6918
  63   2.0000      -0.499943       -13.6041
  64   2.0000      -0.494294       -13.4504
  65   2.0000      -0.480947       -13.0872
  66   2.0000      -0.479233       -13.0406
  67   2.0000      -0.477026       -12.9805
  68   2.0000      -0.466340       -12.6898
  69   2.0000      -0.466314       -12.6890
  70   2.0000      -0.458067       -12.4646
  71   2.0000      -0.435219       -11.8429
  72   2.0000      -0.432428       -11.7670
  73   2.0000      -0.431681       -11.7466
  74   2.0000      -0.418489       -11.3877
  75   2.0000      -0.410780       -11.1779
  76   2.0000      -0.408803       -11.1241
  77   2.0000      -0.406395       -11.0586
  78   2.0000      -0.398684       -10.8487
  79   2.0000      -0.395832       -10.7711
  80   2.0000      -0.394009       -10.7215
  81   2.0000      -0.391134       -10.6433
  82   2.0000      -0.385161       -10.4808
  83   2.0000      -0.385021       -10.4770
  84   2.0000      -0.358955        -9.7677
  85   2.0000      -0.352874        -9.6022
  86   2.0000      -0.295915        -8.0523
  87   2.0000      -0.287931        -7.8350
  88   2.0000      -0.286505        -7.7962
  89   2.0000      -0.285867        -7.7788
  90   2.0000      -0.279781        -7.6132
  91   2.0000      -0.275101        -7.4859
  92   2.0000      -0.270930        -7.3724
  93   2.0000      -0.245359        -6.6766
  94   0.0000       0.001662         0.0452
  95   0.0000       0.003339         0.0909
  96   0.0000       0.016083         0.4376
  97   0.0000       0.017631         0.4798
  98   0.0000       0.018120         0.4931

MULLIKEN ATOMIC CHARGES
-----------------------
   0 C :   -0.283083
   1 C :   -0.219178
   2 C :   -0.219179
   3 C :   -0.283082
   4 C :    0.165601
   5 C :    0.165601
   6 C :   -0.395410
   7 C :   -0.395408
   8 C :    0.165599
   9 C :    0.165602
  10 C :   -0.283081
  11 C :   -0.283081
  12 C :   -0.219179
  13 C :   -0.219178
  14 C :   -0.283082
  15 C :   -0.219178
  16 C :   -0.219178
  17 C :   -0.283082
  18 C :    0.165600
  19 C :    0.165601
  20 C :   -0.395408
  21 C :   -0.395407
  22 C :    0.165600
  23 C :    0.165601
  24 C :   -0.283082
  25 C :   -0.283082
  26 C :   -0.219179
  27 C :   -0.219178
  28 H :    0.201679
  29 H :    0.213712
  30 H :    0.213711
  31 H :    0.201679
  32 H :    0.237948
  33 H :    0.237947
  34 H :    0.201680
  35 H :    0.201679
  36 H :    0.213711
  37 H :    0.213711
  38 H :    0.201678
  39 H :    0.213711
  40 H :    0.213711
  41 H :    0.201679
  42 H :    0.237947
  43 H :    0.237947
  44 H :    0.201679
  45 H :    0.201679
  46 H :    0.213711
  47 H :    0.213712
Sum of atomic charges:   -0.0000000

LOEWDIN ATOMIC CHARGES
----------------------
   0 C :   -0.127936
   1 C :   -0.133504
   2 C :   -0.133504
   3 C :   -0.127936
   4 C :   -0.023903
   5 C :   -0.023903
   6 C :   -0.101867
   7 C :   -0.101867
   8 C :   -0.023903
   9 C :   -0.023903
  10 C :   -0.127936
  11 C :   -0.127936
  12 C :   -0.133504
  13 C :   -0.133504
  14 C :   -0.127936
  15 C :   -0.133504
  16 C :   -0.133504
  17 C :   -0.127936
  18 C :   -0.023903
  19 C :   -0.023903
  20 C :   -0.101867
  21 C :   -0.101867
  22 C :   -0.023903
  23 C :   -0.023903
  24 C :   -0.127936
  25 C :   -0.127936
  26 C :   -0.133504
  27 C :   -0.133504
  28 H :    0.131948
  29 H :    0.134471
  30 H :    0.134471
  31 H :    0.131948
  32 H :    0.139715
  33 H :    0.139715
  34 H :    0.131948
  35 H :    0.131948
  36 H :    0.134471
  37 H :    0.134471
  38 H :    0.131948
  39 H :    0.134471
  40 H :    0.134471
  41 H :    0.131948
  42 H :    0.139715
  43 H :    0.139715
  44 H :    0.131948
  45 H :    0.131948
  46 H :    0.134471
  47 H :    0.134471

  Mayer bond orders larger than 0.100000
B(  0-C ,  1-C ) :   1.4124 B(  0-C ,  5-C ) :   1.4123 B(  0-C , 28-H ) :   0.9270
B(  1-C ,  2-C ) :   1.4343 B(  1-C , 29-H ) :   0.9205 B(  2-C ,  3-C ) :   1.4124
B(  2-C , 30-H ) :   0.9205 B(  3-C ,  4-C ) :   1.4123 B(  3-C , 31-H ) :   0.9270
B(  4-C ,  5-C ) :   1.3734 B(  4-C ,  6-C ) :   0.9593 B(  5-C ,  7-C ) :   0.9593
B(  6-C ,  9-C ) :   0.9593 B(  6-C , 20-C ) :   0.8930 B(  6-C , 32-H ) :   0.9214
B(  7-C ,  8-C ) :   0.9593 B(  7-C , 21-C ) :   0.8930 B(  7-C , 33-H ) :   0.9214
B(  8-C ,  9-C ) :   1.3734 B(  8-C , 10-C ) :   1.4123 B(  9-C , 11-C ) :   1.4123
B( 10-C , 12-C ) :   1.4124 B( 10-C , 34-H ) :   0.9270 B( 11-C , 13-C ) :   1.4124
B( 11-C , 35-H ) :   0.9270 B( 12-C , 13-C ) :   1.4343 B( 12-C , 36-H ) :   0.9205
B( 13-C , 37-H ) :   0.9205 B( 14-C , 15-C ) :   1.4124 B( 14-C , 19-C ) :   1.4123
B( 14-C , 38-H ) :   0.9270 B( 15-C , 16-C ) :   1.4343 B( 15-C , 39-H ) :   0.9205
B( 16-C , 17-C ) :   1.4124 B( 16-C , 40-H ) :   0.9205 B( 17-C , 18-C ) :   1.4123
B( 17-C , 41-H ) :   0.9270 B( 18-C , 19-C ) :   1.3734 B( 18-C , 20-C ) :   0.9593
B( 19-C , 21-C ) :   0.9593 B( 20-C , 23-C ) :   0.9593 B( 20-C , 42-H ) :   0.9214
B( 21-C , 22-C ) :   0.9593 B( 21-C , 43-H ) :   0.9214 B( 22-C , 23-C ) :   1.3734
B( 22-C , 24-C ) :   1.4123 B( 23-C , 25-C ) :   1.4123 B( 24-C , 26-C ) :   1.4124
B( 24-C , 44-H ) :   0.9270 B( 25-C , 27-C ) :   1.4124 B( 25-C , 45-H ) :   0.9270
B( 26-C , 27-C ) :   1.4343 B( 26-C , 46-H ) :   0.9205 B( 27-C , 47-H ) :   0.9205

Dispersion correction           -0.047768775
FINAL SINGLE POINT ENERGY     -1076.676926985688

DIPOLE MOMENT
-------------
                                X             Y             Z
Electronic contribution:      0.00000       0.00000       0.00000
Nuclear contribution   :      0.00000       0.00000      -0.00000
                        -----------------------------------------
Total Dipole Moment    :      0.00000       0.00000       0.00000
                        -----------------------------------------
Magnitude (a.u.)       :      0.00000
Magnitude (Debye)      :      0.00000

Rotational constants in cm-1:     0.010757     0.006826     0.005405
Rotational constants in MHz :   322.471904   204.644275   162.045779

                             ****ORCA TERMINATED NORMALLY****
TOTAL RUN TIME: 0 days 0 hours 9 minutes 41 seconds 705 msec
