                         Program Version 5.0.3 -  RELEASE  -
|  1> ! PBEh-3c def2/J TightSCF DefGrid3
|  2>
|  3> %maxcore 60000
|  4>
|  5> %pal
|  6> nprocs 4
|  7> end
|  8>
|  9> *xyzfile 0 1 E22.xyz
| 10>
| 11>                          ****END OF INPUT****

CARTESIAN COORDINATES (ANGSTROEM)
---------------------------------
  C     -0.032156    0.921560    0.000000
  C     -0.034221    0.204942   -1.204186
  C     -0.036980   -1.183940   -1.198689
  C     -0.038713   -1.892410    0.000000
  C     -0.036980   -1.183940    1.198689
  C     -0.034221    0.204942    1.204186
  N     -0.089135    2.316209    0.000000
  H     -0.038051    0.743073   -2.146238
  H     -0.036927   -1.716471   -2.142808
  H     -0.040024   -2.974995    0.000000
  H     -0.036927   -1.716471    2.142808
  H     -0.038051    0.743073    2.146238
  H      0.246194    2.767214   -0.837278
  H      0.246194    2.767214    0.837278

 Total Charge           Charge          ....    0
 Multiplicity           Mult            ....    1
 Number of Electrons    NEL             ....   50
 Basis Dimension        Dim             ....  119

ORBITAL ENERGIES
----------------

  NO   OCC          E(Eh)            E(eV)
   0   2.0000     -14.638074      -398.3222
   1   2.0000     -10.486631      -285.3557
   2   2.0000     -10.442427      -284.1529
   3   2.0000     -10.442418      -284.1526
   4   2.0000     -10.436258      -283.9850
   5   2.0000     -10.436232      -283.9843
   6   2.0000     -10.430820      -283.8371
   7   2.0000      -1.016672       -27.6650
   8   2.0000      -0.929770       -25.3003
   9   2.0000      -0.829994       -22.5853
  10   2.0000      -0.809353       -22.0236
  11   2.0000      -0.684408       -18.6237
  12   2.0000      -0.669499       -18.2180
  13   2.0000      -0.588590       -16.0164
  14   2.0000      -0.571158       -15.5420
  15   2.0000      -0.537732       -14.6324
  16   2.0000      -0.488906       -13.3038
  17   2.0000      -0.484833       -13.1930
  18   2.0000      -0.473300       -12.8791
  19   2.0000      -0.437326       -11.9002
  20   2.0000      -0.408091       -11.1047
  21   2.0000      -0.390045       -10.6137
  22   2.0000      -0.359641        -9.7863
  23   2.0000      -0.287259        -7.8167
  24   2.0000      -0.241088        -6.5603
  25   0.0000       0.025448         0.6925
  26   0.0000       0.042761         1.1636
  27   0.0000       0.133439         3.6310
  28   0.0000       0.151262         4.1160
  29   0.0000       0.175490         4.7753

MULLIKEN ATOMIC CHARGES
-----------------------
   0 C :    0.334299
   1 C :   -0.286671
   2 C :   -0.210675
   3 C :   -0.247513
   4 C :   -0.210675
   5 C :   -0.286671
   6 N :   -0.835123
   7 H :    0.209645
   8 H :    0.214521
   9 H :    0.211994
  10 H :    0.214521
  11 H :    0.209645
  12 H :    0.341351
  13 H :    0.341351
Sum of atomic charges:   -0.0000000

LOEWDIN ATOMIC CHARGES
----------------------
   0 C :    0.026313
   1 C :   -0.179797
   2 C :   -0.121102
   3 C :   -0.174497
   4 C :   -0.121102
   5 C :   -0.179797
   6 N :   -0.398327
   7 H :    0.130860
   8 H :    0.134500
   9 H :    0.133044
  10 H :    0.134500
  11 H :    0.130860
  12 H :    0.242272
  13 H :    0.242272

  Mayer bond orders larger than 0.100000
B(  0-C ,  1-C ) :   1.3391 B(  0-C ,  5-C ) :   1.3391 B(  0-C ,  6-N ) :   1.0185
B(  1-C ,  2-C ) :   1.4588 B(  1-C ,  7-H ) :   0.9194 B(  2-C ,  3-C ) :   1.4223
B(  2-C ,  8-H ) :   0.9203 B(  3-C ,  4-C ) :   1.4223 B(  3-C ,  9-H ) :   0.9207
B(  4-C ,  5-C ) :   1.4588 B(  4-C , 10-H ) :   0.9203 B(  5-C , 11-H ) :   0.9194
B(  6-N , 12-H ) :   0.8509 B(  6-N , 13-H ) :   0.8509

Dispersion correction           -0.007250567
FINAL SINGLE POINT ENERGY      -286.965691107203

DIPOLE MOMENT
-------------
                                X             Y             Z
Electronic contribution:     -0.09734      -0.18128      -0.00000
Nuclear contribution   :      0.53061       0.73698       0.00000
                        -----------------------------------------
Total Dipole Moment    :      0.43328       0.55569      -0.00000
                        -----------------------------------------
Magnitude (a.u.)       :      0.70464
Magnitude (Debye)      :      1.79106

Rotational constants in cm-1:     0.188341     0.086625     0.059419
Rotational constants in MHz :  5646.306414  2596.958131  1781.323222

                             ****ORCA TERMINATED NORMALLY****
TOTAL RUN TIME: 0 days 0 hours 1 minutes 9 seconds 549 msec
