                         Program Version 5.0.3 -  RELEASE  -
|  1> ! PBEh-3c def2/J TightSCF DefGrid3
|  2>
|  3> %maxcore 60000
|  4>
|  5> %pal
|  6> nprocs 4
|  7> end
|  8>
|  9> *xyzfile 0 1 methylpyrazole.xyz
| 10>
| 11>                          ****END OF INPUT****

CARTESIAN COORDINATES (ANGSTROEM)
---------------------------------
  C     -0.216104   -1.323737   -0.095411
  C      0.269500    0.005749    0.007890
  C     -0.884471    0.777077    0.026575
  N     -1.934131   -0.087454   -0.061253
  H     -2.921900    0.135191   -0.075987
  H      0.356552   -2.246882   -0.141237
  H     -1.028527    1.851065    0.094383
  N     -1.553212   -1.380161   -0.137654
  C      1.691384    0.473584    0.081016
  H      2.205991    0.068618    0.965458
  H      2.267205    0.158106   -0.802021
  H      1.747714    1.568845    0.138240

 Total Charge           Charge          ....    0
 Multiplicity           Mult            ....    1
 Number of Electrons    NEL             ....   44
 Basis Dimension        Dim             ....  102

ORBITAL ENERGIES
----------------

  NO   OCC          E(Eh)            E(eV)
   0   2.0000     -14.709425      -400.2638
   1   2.0000     -14.652199      -398.7066
   2   2.0000     -10.477760      -285.1143
   3   2.0000     -10.454209      -284.4735
   4   2.0000     -10.444501      -284.2093
   5   2.0000     -10.438969      -284.0588
   6   2.0000      -1.145222       -31.1631
   7   2.0000      -0.902235       -24.5511
   8   2.0000      -0.883929       -24.0529
   9   2.0000      -0.783000       -21.3065
  10   2.0000      -0.673686       -18.3319
  11   2.0000      -0.643014       -17.4973
  12   2.0000      -0.602129       -16.3848
  13   2.0000      -0.503361       -13.6971
  14   2.0000      -0.500223       -13.6118
  15   2.0000      -0.471359       -12.8263
  16   2.0000      -0.458547       -12.4777
  17   2.0000      -0.458448       -12.4750
  18   2.0000      -0.424534       -11.5522
  19   2.0000      -0.341897        -9.3035
  20   2.0000      -0.295023        -8.0280
  21   2.0000      -0.276762        -7.5311
  22   0.0000       0.049812         1.3554
  23   0.0000       0.098602         2.6831
  24   0.0000       0.129433         3.5221
  25   0.0000       0.163986         4.4623
  26   0.0000       0.188924         5.1409

MULLIKEN ATOMIC CHARGES
-----------------------
   0 C :   -0.043418
   1 C :   -0.100203
   2 C :    0.013722
   3 N :   -0.439516
   4 H :    0.373503
   5 H :    0.218667
   6 H :    0.238788
   7 N :   -0.226108
   8 C :   -0.716573
   9 H :    0.229759
  10 H :    0.229686
  11 H :    0.221693
Sum of atomic charges:   -0.0000000

LOEWDIN ATOMIC CHARGES
----------------------
   0 C :   -0.123378
   1 C :   -0.135695
   2 C :   -0.112031
   3 N :   -0.077241
   4 H :    0.260962
   5 H :    0.131231
   6 H :    0.138596
   7 N :   -0.143628
   8 C :   -0.347441
   9 H :    0.137081
  10 H :    0.137106
  11 H :    0.134438

  Mayer bond orders larger than 0.100000
B(  0-C ,  1-C ) :   1.3307 B(  0-C ,  5-H ) :   0.9270 B(  0-C ,  7-N ) :   1.5585
B(  1-C ,  2-C ) :   1.4811 B(  1-C ,  3-N ) :   0.1012 B(  1-C ,  8-C ) :   0.9501
B(  2-C ,  3-N ) :   1.1304 B(  2-C ,  6-H ) :   0.9129 B(  3-N ,  4-H ) :   0.8197
B(  3-N ,  7-N ) :   1.2645 B(  8-C ,  9-H ) :   0.9214 B(  8-C , 10-H ) :   0.9219
B(  8-C , 11-H ) :   0.9348

Dispersion correction           -0.005263420
FINAL SINGLE POINT ENERGY      -264.934410323152

DIPOLE MOMENT
-------------
                                X             Y             Z
Electronic contribution:     -4.93341      -1.87541      -0.26854
Nuclear contribution   :      4.90915       2.79334       0.32913
                        -----------------------------------------
Total Dipole Moment    :     -0.02426       0.91793       0.06059
                        -----------------------------------------
Magnitude (a.u.)       :      0.92025
Magnitude (Debye)      :      2.33908

Rotational constants in cm-1:     0.300834     0.112099     0.082937
Rotational constants in MHz :  9018.774970  3360.629136  2486.394997

                             ****ORCA TERMINATED NORMALLY****
TOTAL RUN TIME: 0 days 0 hours 1 minutes 28 seconds 533 msec
