                         Program Version 5.0.3 -  RELEASE  -
|  1> ! PBEh-3c def2/J TightSCF DefGrid3
|  2>
|  3> %maxcore 60000
|  4>
|  5> %pal
|  6> nprocs 4
|  7> end
|  8>
|  9> *xyzfile 0 1 13A.xyz
| 10>
| 11>                          ****END OF INPUT****

CARTESIAN COORDINATES (ANGSTROEM)
---------------------------------
  C      0.307673   -0.158920    1.863043
  H      1.341334    0.169531    1.787511
  H      0.274492   -1.161473    2.284029
  H     -0.233812    0.497457    2.539755
  C     -0.407042   -0.172744    0.530802
  O     -1.592536   -0.470959    0.428087
  N      0.355337    0.153224   -0.540332
  H      1.318178    0.420939   -0.409960
  C     -0.228360    0.178227   -1.862810
  H     -0.734627   -0.762223   -2.068770
  H     -0.962982    0.976791   -1.959553
  H      0.562344    0.330149   -2.591801

 Total Charge           Charge          ....    0
 Multiplicity           Mult            ....    1
 Number of Electrons    NEL             ....   40
 Basis Dimension        Dim             ....   89

ORBITAL ENERGIES
----------------

  NO   OCC          E(Eh)            E(eV)
   0   2.0000     -19.446197      -529.1579
   1   2.0000     -14.661544      -398.9609
   2   2.0000     -10.540564      -286.8233
   3   2.0000     -10.465542      -284.7819
   4   2.0000     -10.439063      -284.0614
   5   2.0000      -1.132729       -30.8231
   6   2.0000      -1.017858       -27.6973
   7   2.0000      -0.839594       -22.8465
   8   2.0000      -0.768328       -20.9073
   9   2.0000      -0.656417       -17.8620
  10   2.0000      -0.568435       -15.4679
  11   2.0000      -0.528273       -14.3750
  12   2.0000      -0.520557       -14.1651
  13   2.0000      -0.478813       -13.0292
  14   2.0000      -0.463793       -12.6204
  15   2.0000      -0.451321       -12.2811
  16   2.0000      -0.444591       -12.0979
  17   2.0000      -0.399597       -10.8736
  18   2.0000      -0.301558        -8.2058
  19   2.0000      -0.298902        -8.1335
  20   0.0000       0.068926         1.8756
  21   0.0000       0.114135         3.1058
  22   0.0000       0.175450         4.7742
  23   0.0000       0.179162         4.8753
  24   0.0000       0.205985         5.6051

MULLIKEN ATOMIC CHARGES
-----------------------
   0 C :   -0.747040
   1 H :    0.204297
   2 H :    0.257575
   3 H :    0.257939
   4 C :    0.522142
   5 O :   -0.432017
   6 N :   -0.623784
   7 H :    0.355137
   8 C :   -0.484739
   9 H :    0.246127
  10 H :    0.234502
  11 H :    0.209863
Sum of atomic charges:   -0.0000000

LOEWDIN ATOMIC CHARGES
----------------------
   0 C :   -0.390292
   1 H :    0.123160
   2 H :    0.156354
   3 H :    0.155909
   4 C :    0.101924
   5 O :   -0.283800
   6 N :   -0.251152
   7 H :    0.252719
   8 C :   -0.254107
   9 H :    0.137572
  10 H :    0.128714
  11 H :    0.122999

  Mayer bond orders larger than 0.100000
B(  0-C ,  1-H ) :   0.9239 B(  0-C ,  2-H ) :   0.9103 B(  0-C ,  3-H ) :   0.9113
B(  0-C ,  4-C ) :   0.9290 B(  4-C ,  5-O ) :   1.9885 B(  4-C ,  6-N ) :   1.1392
B(  6-N ,  7-H ) :   0.8293 B(  6-N ,  8-C ) :   0.9517 B(  8-C ,  9-H ) :   0.9112
B(  8-C , 10-H ) :   0.9145 B(  8-C , 11-H ) :   0.9282

Dispersion correction           -0.004447548
FINAL SINGLE POINT ENERGY      -247.989252570495

DIPOLE MOMENT
-------------
                                X             Y             Z
Electronic contribution:     -2.05341      -0.62281       0.60439
Nuclear contribution   :      3.50685       1.04485      -0.86148
                        -----------------------------------------
Total Dipole Moment    :      1.45344       0.42204      -0.25709
                        -----------------------------------------
Magnitude (a.u.)       :      1.53516
Magnitude (Debye)      :      3.90206

Rotational constants in cm-1:     0.335173     0.131157     0.097664
Rotational constants in MHz : 10048.240246  3931.983345  2927.886536

                             ****ORCA TERMINATED NORMALLY****
TOTAL RUN TIME: 0 days 0 hours 1 minutes 23 seconds 542 msec
