                         Program Version 5.0.3 -  RELEASE  -
|  1> ! PBEh-3c def2/J TightSCF DefGrid3
|  2>
|  3> %maxcore 60000
|  4>
|  5> %pal
|  6> nprocs 4
|  7> end
|  8>
|  9> *xyzfile 0 1 ch2s.xyz
| 10>
| 11>                          ****END OF INPUT****

CARTESIAN COORDINATES (ANGSTROEM)
---------------------------------
  S      0.000000    0.000000    1.494332
  C      0.000000    0.000000   -0.110061
  H     -0.918486    0.000000   -0.692135
  H      0.918486    0.000000   -0.692135

 Total Charge           Charge          ....    0
 Multiplicity           Mult            ....    1
 Number of Electrons    NEL             ....   24
 Basis Dimension        Dim             ....   37

ORBITAL ENERGIES
----------------

  NO   OCC          E(Eh)            E(eV)
   0   2.0000     -89.583558     -2437.6925
   1   2.0000     -10.516533      -286.1694
   2   2.0000      -8.224329      -223.7954
   3   2.0000      -6.115124      -166.4010
   4   2.0000      -6.113417      -166.3545
   5   2.0000      -6.105414      -166.1368
   6   2.0000      -0.890150       -24.2222
   7   2.0000      -0.674108       -18.3434
   8   2.0000      -0.528036       -14.3686
   9   2.0000      -0.450309       -12.2535
  10   2.0000      -0.365214        -9.9380
  11   2.0000      -0.276679        -7.5288
  12   0.0000      -0.065610        -1.7853
  13   0.0000       0.136676         3.7191
  14   0.0000       0.203462         5.5365
  15   0.0000       0.211202         5.7471
  16   0.0000       0.376875        10.2553

MULLIKEN ATOMIC CHARGES
-----------------------
   0 S :   -0.015459
   1 C :   -0.480236
   2 H :    0.247847
   3 H :    0.247847
Sum of atomic charges:   -0.0000000

LOEWDIN ATOMIC CHARGES
----------------------
   0 S :    0.069889
   1 C :   -0.326220
   2 H :    0.128165
   3 H :    0.128165

  Mayer bond orders larger than 0.100000
B(  0-S ,  1-C ) :   2.0170 B(  1-C ,  2-H ) :   0.8760 B(  1-C ,  3-H ) :   0.8760

Dispersion correction           -0.000942338
FINAL SINGLE POINT ENERGY      -436.918264412722

DIPOLE MOMENT
-------------
                                X             Y             Z
Electronic contribution:     -0.00000       0.00000       2.45951
Nuclear contribution   :      0.00000       0.00000      -3.15344
                        -----------------------------------------
Total Dipole Moment    :     -0.00000       0.00000      -0.69393
                        -----------------------------------------
Magnitude (a.u.)       :      0.69393
Magnitude (Debye)      :      1.76383

Rotational constants in cm-1:     9.911991     0.593794     0.560232
Rotational constants in MHz : 297154.024140 17801.488630 16795.337016

                             ****ORCA TERMINATED NORMALLY****
TOTAL RUN TIME: 0 days 0 hours 1 minutes 6 seconds 589 msec
