                         Program Version 5.0.3 -  RELEASE  -
|  1> ! PBEh-3c def2/J TightSCF DefGrid3
|  2>
|  3> %maxcore 60000
|  4>
|  5> %pal
|  6> nprocs 4
|  7> end
|  8>
|  9> *xyzfile 2 1 c2h4_2+.xyz
| 10>
| 11>                          ****END OF INPUT****

CARTESIAN COORDINATES (ANGSTROEM)
---------------------------------
  C      0.000000    0.000000   -0.684733
  C      0.000000    0.000000    0.684733
  H      0.679882    0.679882   -1.289206
  H     -0.679882   -0.679882   -1.289206
  H      0.679882   -0.679882    1.289206
  H     -0.679882    0.679882    1.289206

 Total Charge           Charge          ....    2
 Multiplicity           Mult            ....    1
 Number of Electrons    NEL             ....   14
 Basis Dimension        Dim             ....   38

ORBITAL ENERGIES
----------------

  NO   OCC          E(Eh)            E(eV)
   0   2.0000     -11.159121      -303.6551
   1   2.0000     -11.158382      -303.6350
   2   2.0000      -1.502881       -40.8955
   3   2.0000      -1.261439       -34.3255
   4   2.0000      -1.113897       -30.3107
   5   2.0000      -1.097532       -29.8654
   6   2.0000      -1.097532       -29.8654
   7   0.0000      -0.678827       -18.4718
   8   0.0000      -0.678827       -18.4718
   9   0.0000      -0.348908        -9.4943
  10   0.0000      -0.326035        -8.8719
  11   0.0000      -0.282613        -7.6903

MULLIKEN ATOMIC CHARGES
-----------------------
   0 C :   -0.062290
   1 C :   -0.062290
   2 H :    0.531145
   3 H :    0.531145
   4 H :    0.531145
   5 H :    0.531145
Sum of atomic charges:    2.0000000

LOEWDIN ATOMIC CHARGES
----------------------
   0 C :    0.302891
   1 C :    0.302891
   2 H :    0.348555
   3 H :    0.348555
   4 H :    0.348555
   5 H :    0.348555

  Mayer bond orders larger than 0.100000
B(  0-C ,  1-C ) :   1.2049 B(  0-C ,  2-H ) :   0.6858 B(  0-C ,  3-H ) :   0.6858
B(  1-C ,  4-H ) :   0.6858 B(  1-C ,  5-H ) :   0.6858

Dispersion correction           -0.001286288
FINAL SINGLE POINT ENERGY       -77.362432752917

DIPOLE MOMENT
-------------
                                X             Y             Z
Electronic contribution:      0.00000      -0.00000       0.00000
Nuclear contribution   :      0.00000       0.00000       0.00000
                        -----------------------------------------
Total Dipole Moment    :      0.00000      -0.00000       0.00000
                        -----------------------------------------
Magnitude (a.u.)       :      0.00000
Magnitude (Debye)      :      0.00000

Rotational constants in cm-1:     4.522502     0.850190     0.850190
Rotational constants in MHz : 135581.204304 25488.050575 25488.050575

                             ****ORCA TERMINATED NORMALLY****
TOTAL RUN TIME: 0 days 0 hours 0 minutes 33 seconds 638 msec
