                         Program Version 5.0.3 -  RELEASE  -
|  1> ! PBEh-3c def2/J TightSCF DefGrid3
|  2>
|  3> %maxcore 60000
|  4>
|  5> %pal
|  6> nprocs 4
|  7> end
|  8>
|  9> *xyzfile 0 1 carbooxo1.xyz
| 10>
| 11>                          ****END OF INPUT****

CARTESIAN COORDINATES (ANGSTROEM)
---------------------------------
  O     -1.746646    3.025279    0.000000
  C     -1.141241    1.976688    0.000000
  C     -1.681421    0.612948    0.000000
  C     -1.681421   -0.612948    0.000000
  C     -1.141241   -1.976688    0.000000
  O     -1.746646   -3.025279    0.000000
  C      0.309882   -1.762628    0.000000
  C      1.371540   -1.149679    0.000000
  C      2.282483    0.000000    0.000000
  O      3.493291    0.000000    0.000000
  C      1.371540    1.149679    0.000000
  C      0.309882    1.762628    0.000000

 Total Charge           Charge          ....    0
 Multiplicity           Mult            ....    1
 Number of Electrons    NEL             ....   78
 Basis Dimension        Dim             ....  180

ORBITAL ENERGIES
----------------

  NO   OCC          E(Eh)            E(eV)
   0   2.0000     -19.565708      -532.4100
   1   2.0000     -19.565707      -532.4099
   2   2.0000     -19.565692      -532.4095
   3   2.0000     -10.641913      -289.5812
   4   2.0000     -10.641912      -289.5811
   5   2.0000     -10.641826      -289.5788
   6   2.0000     -10.540250      -286.8148
   7   2.0000     -10.540249      -286.8148
   8   2.0000     -10.540067      -286.8098
   9   2.0000     -10.538045      -286.7548
  10   2.0000     -10.538007      -286.7537
  11   2.0000     -10.538005      -286.7537
  12   2.0000      -1.226056       -33.3627
  13   2.0000      -1.225564       -33.3493
  14   2.0000      -1.225563       -33.3493
  15   2.0000      -0.988451       -26.8971
  16   2.0000      -0.941276       -25.6134
  17   2.0000      -0.941275       -25.6134
  18   2.0000      -0.842055       -22.9135
  19   2.0000      -0.842055       -22.9135
  20   2.0000      -0.760991       -20.7076
  21   2.0000      -0.700589       -19.0640
  22   2.0000      -0.653063       -17.7707
  23   2.0000      -0.653061       -17.7707
  24   2.0000      -0.585252       -15.9255
  25   2.0000      -0.582845       -15.8600
  26   2.0000      -0.582844       -15.8600
  27   2.0000      -0.551235       -14.9999
  28   2.0000      -0.527978       -14.3670
  29   2.0000      -0.527977       -14.3670
  30   2.0000      -0.445910       -12.1338
  31   2.0000      -0.411364       -11.1938
  32   2.0000      -0.405934       -11.0460
  33   2.0000      -0.398328       -10.8391
  34   2.0000      -0.398328       -10.8390
  35   2.0000      -0.394946       -10.7470
  36   2.0000      -0.394946       -10.7470
  37   2.0000      -0.376622       -10.2484
  38   2.0000      -0.376619       -10.2483
  39   0.0000      -0.137513        -3.7419
  40   0.0000      -0.137512        -3.7419
  41   0.0000      -0.058814        -1.6004
  42   0.0000      -0.058812        -1.6004
  43   0.0000      -0.001005        -0.0274

MULLIKEN ATOMIC CHARGES
-----------------------
   0 O :   -0.253793
   1 C :    0.185059
   2 C :    0.034394
   3 C :    0.034395
   4 C :    0.185058
   5 O :   -0.253793
   6 C :    0.034383
   7 C :    0.034342
   8 C :    0.185021
   9 O :   -0.253792
  10 C :    0.034341
  11 C :    0.034385
Sum of atomic charges:    0.0000000

LOEWDIN ATOMIC CHARGES
----------------------
   0 O :   -0.099320
   1 C :    0.107622
   2 C :   -0.004152
   3 C :   -0.004152
   4 C :    0.107622
   5 O :   -0.099320
   6 C :   -0.004145
   7 C :   -0.004154
   8 C :    0.107618
   9 O :   -0.099321
  10 C :   -0.004154
  11 C :   -0.004145

  Mayer bond orders larger than 0.100000
B(  0-O ,  1-C ) :   2.0772 B(  1-C ,  2-C ) :   0.9997 B(  1-C , 11-C ) :   0.9997
B(  2-C ,  3-C ) :   2.3626 B(  3-C ,  4-C ) :   0.9997 B(  4-C ,  5-O ) :   2.0772
B(  4-C ,  6-C ) :   0.9997 B(  6-C ,  7-C ) :   2.3627 B(  7-C ,  8-C ) :   0.9997
B(  8-C ,  9-O ) :   2.0772 B(  8-C , 10-C ) :   0.9997 B( 10-C , 11-C ) :   2.3627

Dispersion correction           -0.008156412
FINAL SINGLE POINT ENERGY      -567.083427656405

DIPOLE MOMENT
-------------
                                X             Y             Z
Electronic contribution:     -0.00002       0.00000      -0.00000
Nuclear contribution   :     -0.00000      -0.00000       0.00000
                        -----------------------------------------
Total Dipole Moment    :     -0.00002       0.00000      -0.00000
                        -----------------------------------------
Magnitude (a.u.)       :      0.00002
Magnitude (Debye)      :      0.00005

Rotational constants in cm-1:     0.033573     0.033573     0.016786
Rotational constants in MHz :  1006.478920  1006.478891   503.239453

                             ****ORCA TERMINATED NORMALLY****
TOTAL RUN TIME: 0 days 0 hours 1 minutes 33 seconds 179 msec
