                         Program Version 5.0.3 -  RELEASE  -
|  1> ! PBEh-3c def2/J TightSCF DefGrid3
|  2>
|  3> %maxcore 60000
|  4>
|  5> %pal
|  6> nprocs 4
|  7> end
|  8>
|  9> *xyzfile 0 1 H2O_TS.xyz
| 10>
| 11>                          ****END OF INPUT****

CARTESIAN COORDINATES (ANGSTROEM)
---------------------------------
  O      0.000001    0.000053   -0.000000
  H      0.935660    0.000053    0.000000
  H     -0.935662    0.000053    0.000000

 Total Charge           Charge          ....    0
 Multiplicity           Mult            ....    1
 Number of Electrons    NEL             ....   10
 Basis Dimension        Dim             ....   19

ORBITAL ENERGIES
----------------

  NO   OCC          E(Eh)            E(eV)
   0   2.0000     -19.432099      -528.7743
   1   2.0000      -1.069367       -29.0989
   2   2.0000      -0.657043       -17.8790
   3   2.0000      -0.337247        -9.1770
   4   2.0000      -0.337247        -9.1770
   5   0.0000       0.117558         3.1989
   6   0.0000       0.231115         6.2890
   7   0.0000       0.734480        19.9862
   8   0.0000       1.006118        27.3779
   9   0.0000       1.006118        27.3779

MULLIKEN ATOMIC CHARGES
-----------------------
   0 O :   -0.945583
   1 H :    0.472791
   2 H :    0.472792
Sum of atomic charges:    0.0000000

LOEWDIN ATOMIC CHARGES
----------------------
   0 O :   -0.687023
   1 H :    0.343511
   2 H :    0.343513

  Mayer bond orders larger than 0.100000
B(  0-O ,  1-H ) :   0.7247 B(  0-O ,  2-H ) :   0.7247

Dispersion correction           -0.000208229
FINAL SINGLE POINT ENERGY       -76.204247075798

DIPOLE MOMENT
-------------
                                X             Y             Z
Electronic contribution:     -0.00000       0.00000       0.00000
Nuclear contribution   :     -0.00000       0.00000       0.00000
                        -----------------------------------------
Total Dipole Moment    :     -0.00001       0.00000       0.00000
                        -----------------------------------------
Magnitude (a.u.)       :      0.00001
Magnitude (Debye)      :      0.00001

Rotational constants in cm-1:     0.000000     9.551444     9.551444
Rotational constants in MHz :     0.000000 286345.091111 286345.091111

                             ****ORCA TERMINATED NORMALLY****
TOTAL RUN TIME: 0 days 0 hours 0 minutes 22 seconds 9 msec
