                         Program Version 5.0.3 -  RELEASE  -
|  1> ! PBEh-3c def2/J TightSCF DefGrid3
|  2>
|  3> %maxcore 60000
|  4>
|  5> %pal
|  6> nprocs 4
|  7> end
|  8>
|  9> *xyzfile 0 1 alf.xyz
| 10>
| 11>                          ****END OF INPUT****

CARTESIAN COORDINATES (ANGSTROEM)
---------------------------------
  Al     0.687154    0.000000    0.000000
  F     -0.975897    0.000000    0.000000

 Total Charge           Charge          ....    0
 Multiplicity           Mult            ....    1
 Number of Electrons    NEL             ....   22
 Basis Dimension        Dim             ....   33

ORBITAL ENERGIES
----------------

  NO   OCC          E(Eh)            E(eV)
   0   2.0000     -56.626441     -1540.8838
   1   2.0000     -25.046852      -681.5595
   2   2.0000      -4.363879      -118.7472
   3   2.0000      -2.851068       -77.5815
   4   2.0000      -2.851068       -77.5815
   5   2.0000      -2.848827       -77.5205
   6   2.0000      -1.248195       -33.9651
   7   2.0000      -0.516841       -14.0640
   8   2.0000      -0.461133       -12.5481
   9   2.0000      -0.461133       -12.5481
  10   2.0000      -0.285748        -7.7756
  11   0.0000      -0.027283        -0.7424
  12   0.0000      -0.027283        -0.7424
  13   0.0000       0.061330         1.6689
  14   0.0000       0.148439         4.0392
  15   0.0000       0.351378         9.5615

MULLIKEN ATOMIC CHARGES
-----------------------
   0 Al:    0.537803
   1 F :   -0.537803
Sum of atomic charges:    0.0000000

LOEWDIN ATOMIC CHARGES
----------------------
   0 Al:    0.277755
   1 F :   -0.277755

  Mayer bond orders larger than 0.100000
B(  0-Al,  1-F ) :   0.8740

Dispersion correction           -0.000209594
FINAL SINGLE POINT ENERGY      -341.817812840526

DIPOLE MOMENT
-------------
                                X             Y             Z
Electronic contribution:      0.10600      -0.00000       0.00000
Nuclear contribution   :      0.28269       0.00000       0.00000
                        -----------------------------------------
Total Dipole Moment    :      0.38869      -0.00000       0.00000
                        -----------------------------------------
Magnitude (a.u.)       :      0.38869
Magnitude (Debye)      :      0.98797

Rotational constants in cm-1:     0.000000     0.546730     0.546730
Rotational constants in MHz :     0.000000 16390.549684 16390.549684

                             ****ORCA TERMINATED NORMALLY****
TOTAL RUN TIME: 0 days 0 hours 0 minutes 17 seconds 871 msec
