                         Program Version 5.0.3 -  RELEASE  -
|  1> ! PBEh-3c def2/J TightSCF DefGrid3
|  2>
|  3> %maxcore 60000
|  4>
|  5> %pal
|  6> nprocs 4
|  7> end
|  8>
|  9> *xyzfile 0 1 36.xyz
| 10>
| 11>                          ****END OF INPUT****

CARTESIAN COORDINATES (ANGSTROEM)
---------------------------------
  N     -1.544627   -3.024106    0.024289
  C     -0.187302   -3.065101   -0.213897
  C      0.305342   -1.789389   -0.366634
  C     -0.818098   -0.904470   -0.213501
  C     -0.959410    0.490239   -0.268983
  C     -2.218594    1.048552   -0.084172
  C     -3.346265    0.231629    0.156254
  C     -3.224963   -1.152849    0.212337
  C     -1.959815   -1.710708    0.026634
  H     -2.136612   -3.824962    0.144695
  H      0.332292   -4.008563   -0.264553
  H     -0.120625    1.147625   -0.455415
  H     -4.321143    0.671189    0.299048
  H     -4.096483   -1.768306    0.394579
  O     -2.275020    2.417470   -0.152363
  C     -3.546176    3.019471    0.024085
  H     -3.959025    2.801125    1.011386
  H     -4.252245    2.695867   -0.743744
  H     -3.383188    4.089143   -0.067192
  C      1.729472   -1.391255   -0.593588
  C      2.353063   -0.773788    0.669163
  N      3.729236   -0.349045    0.492277
  C      4.166302    0.862096    0.025583
  C      3.125832    1.958253   -0.092927
  H      1.796969   -0.668506   -1.411047
  H      2.319714   -2.260826   -0.891510
  H      2.320869   -1.507113    1.476300
  H      1.756333    0.074618    0.998228
  H      4.446519   -1.057466    0.490736
  O      5.342076    1.049329   -0.252580
  H      2.665245    2.168586    0.872162
  H      2.335353    1.680615   -0.789948
  H      3.624971    2.850648   -0.455705

 Total Charge           Charge          ....    0
 Multiplicity           Mult            ....    1
 Number of Electrons    NEL             ....  124
 Basis Dimension        Dim             ....  287

ORBITAL ENERGIES
----------------

  NO   OCC          E(Eh)            E(eV)
   0   2.0000     -19.521722      -531.2131
   1   2.0000     -19.443750      -529.0913
   2   2.0000     -14.688109      -399.6838
   3   2.0000     -14.650421      -398.6582
   4   2.0000     -10.539304      -286.7891
   5   2.0000     -10.504282      -285.8360
   6   2.0000     -10.489447      -285.4324
   7   2.0000     -10.484536      -285.2987
   8   2.0000     -10.481081      -285.2047
   9   2.0000     -10.479136      -285.1518
  10   2.0000     -10.457066      -284.5512
  11   2.0000     -10.450227      -284.3651
  12   2.0000     -10.448939      -284.3301
  13   2.0000     -10.448696      -284.3235
  14   2.0000     -10.445815      -284.2451
  15   2.0000     -10.442196      -284.1466
  16   2.0000     -10.434309      -283.9320
  17   2.0000      -1.169593       -31.8262
  18   2.0000      -1.129800       -30.7434
  19   2.0000      -1.090744       -29.6806
  20   2.0000      -1.014873       -27.6161
  21   2.0000      -0.941958       -25.6320
  22   2.0000      -0.902733       -24.5646
  23   2.0000      -0.847083       -23.0503
  24   2.0000      -0.836621       -22.7656
  25   2.0000      -0.820492       -22.3267
  26   2.0000      -0.806910       -21.9571
  27   2.0000      -0.775334       -21.0979
  28   2.0000      -0.729809       -19.8591
  29   2.0000      -0.706444       -19.2233
  30   2.0000      -0.668770       -18.1982
  31   2.0000      -0.643448       -17.5091
  32   2.0000      -0.635965       -17.3055
  33   2.0000      -0.615601       -16.7513
  34   2.0000      -0.580289       -15.7905
  35   2.0000      -0.561952       -15.2915
  36   2.0000      -0.556400       -15.1404
  37   2.0000      -0.545262       -14.8373
  38   2.0000      -0.531560       -14.4645
  39   2.0000      -0.529889       -14.4190
  40   2.0000      -0.509219       -13.8565
  41   2.0000      -0.506248       -13.7757
  42   2.0000      -0.498348       -13.5607
  43   2.0000      -0.488903       -13.3037
  44   2.0000      -0.474367       -12.9082
  45   2.0000      -0.471029       -12.8173
  46   2.0000      -0.457976       -12.4622
  47   2.0000      -0.453981       -12.3535
  48   2.0000      -0.452320       -12.3082
  49   2.0000      -0.446643       -12.1538
  50   2.0000      -0.436472       -11.8770
  51   2.0000      -0.418904       -11.3990
  52   2.0000      -0.417749       -11.3675
  53   2.0000      -0.405828       -11.0431
  54   2.0000      -0.399506       -10.8711
  55   2.0000      -0.380151       -10.3444
  56   2.0000      -0.355626        -9.6771
  57   2.0000      -0.325326        -8.8526
  58   2.0000      -0.297727        -8.1016
  59   2.0000      -0.290915        -7.9162
  60   2.0000      -0.252640        -6.8747
  61   2.0000      -0.237506        -6.4629
  62   0.0000      -0.000083        -0.0023
  63   0.0000       0.054979         1.4961
  64   0.0000       0.068171         1.8550
  65   0.0000       0.088085         2.3969
  66   0.0000       0.113963         3.1011

MULLIKEN ATOMIC CHARGES
-----------------------
   0 N :   -0.704266
   1 C :   -0.056058
   2 C :    0.022632
   3 C :    0.082523
   4 C :   -0.450642
   5 C :    0.403571
   6 C :   -0.364937
   7 C :   -0.256286
   8 C :    0.364376
   9 H :    0.358837
  10 H :    0.239209
  11 H :    0.218385
  12 H :    0.232234
  13 H :    0.215338
  14 O :   -0.468916
  15 C :   -0.404673
  16 H :    0.204010
  17 H :    0.204785
  18 H :    0.240775
  19 C :   -0.534211
  20 C :   -0.275909
  21 N :   -0.610539
  22 C :    0.497691
  23 C :   -0.787529
  24 H :    0.232248
  25 H :    0.225390
  26 H :    0.240887
  27 H :    0.243221
  28 H :    0.356219
  29 O :   -0.420110
  30 H :    0.242240
  31 H :    0.235743
  32 H :    0.273763
Sum of atomic charges:   -0.0000000

LOEWDIN ATOMIC CHARGES
----------------------
   0 N :   -0.161088
   1 C :   -0.078131
   2 C :   -0.108967
   3 C :   -0.048256
   4 C :   -0.163293
   5 C :    0.060706
   6 C :   -0.191740
   7 C :   -0.148274
   8 C :    0.007031
   9 H :    0.261877
  10 H :    0.135562
  11 H :    0.142014
  12 H :    0.140778
  13 H :    0.137106
  14 O :   -0.193882
  15 C :   -0.180457
  16 H :    0.112136
  17 H :    0.112570
  18 H :    0.130788
  19 C :   -0.236333
  20 C :   -0.147392
  21 N :   -0.246280
  22 C :    0.106479
  23 C :   -0.397926
  24 H :    0.133860
  25 H :    0.132717
  26 H :    0.129874
  27 H :    0.133746
  28 H :    0.256924
  29 O :   -0.275561
  30 H :    0.146619
  31 H :    0.140012
  32 H :    0.156780

  Mayer bond orders larger than 0.100000
B(  0-N ,  1-C ) :   1.1371 B(  0-N ,  8-C ) :   1.0010 B(  0-N ,  9-H ) :   0.8334
B(  1-C ,  2-C ) :   1.5605 B(  1-C , 10-H ) :   0.9109 B(  2-C ,  3-C ) :   1.2281
B(  2-C , 19-C ) :   0.9459 B(  3-C ,  4-C ) :   1.2866 B(  3-C ,  8-C ) :   1.2304
B(  4-C ,  5-C ) :   1.4429 B(  4-C ,  7-C ) :   0.1019 B(  4-C , 11-H ) :   0.9205
B(  5-C ,  6-C ) :   1.2824 B(  5-C , 14-O ) :   1.0155 B(  6-C ,  7-C ) :   1.4721
B(  6-C , 12-H ) :   0.9049 B(  7-C ,  8-C ) :   1.3163 B(  7-C , 13-H ) :   0.9204
B( 14-O , 15-C ) :   0.9563 B( 15-C , 16-H ) :   0.9076 B( 15-C , 17-H ) :   0.9075
B( 15-C , 18-H ) :   0.9233 B( 19-C , 20-C ) :   0.9458 B( 19-C , 24-H ) :   0.9141
B( 19-C , 25-H ) :   0.9294 B( 20-C , 21-N ) :   0.9535 B( 20-C , 26-H ) :   0.9138
B( 20-C , 27-H ) :   0.9022 B( 21-N , 22-C ) :   1.1514 B( 21-N , 28-H ) :   0.8244
B( 22-C , 23-C ) :   0.9254 B( 22-C , 29-O ) :   2.0312 B( 23-C , 30-H ) :   0.9083
B( 23-C , 31-H ) :   0.9032 B( 23-C , 32-H ) :   0.9152

Dispersion correction           -0.021440620
FINAL SINGLE POINT ENERGY      -763.323780365701

DIPOLE MOMENT
-------------
                                X             Y             Z
Electronic contribution:     -0.13123      -6.06493      -0.57624
Nuclear contribution   :     -2.12574       4.66470       1.03862
                        -----------------------------------------
Total Dipole Moment    :     -2.25697      -1.40023       0.46238
                        -----------------------------------------
Magnitude (a.u.)       :      2.69599
Magnitude (Debye)      :      6.85267

Rotational constants in cm-1:     0.021531     0.008835     0.006402
Rotational constants in MHz :   645.491692   264.875685   191.916891

                             ****ORCA TERMINATED NORMALLY****
TOTAL RUN TIME: 0 days 0 hours 4 minutes 30 seconds 888 msec
