                         Program Version 5.0.3 -  RELEASE  -
|  1> ! PBEh-3c def2/J TightSCF DefGrid3
|  2>
|  3> %maxcore 60000
|  4>
|  5> %pal
|  6> nprocs 4
|  7> end
|  8>
|  9> *xyzfile -1 2 EA_20.xyz
| 10>
| 11>                          ****END OF INPUT****

CARTESIAN COORDINATES (ANGSTROEM)
---------------------------------
  O      0.000000    0.000000    0.677477
  O      0.000000    0.000000   -0.677477

 Total Charge           Charge          ....   -1
 Multiplicity           Mult            ....    2
 Number of Electrons    NEL             ....   17
 Basis Dimension        Dim             ....   30

ORBITAL ENERGIES
----------------
                 SPIN UP ORBITALS
  NO   OCC          E(Eh)            E(eV)
   0   1.0000     -19.179396      -521.8979
   1   1.0000     -19.179339      -521.8964
   2   1.0000      -0.861667       -23.4471
   3   1.0000      -0.525071       -14.2879
   4   1.0000      -0.166338        -4.5263
   5   1.0000      -0.146757        -3.9935
   6   1.0000      -0.124160        -3.3786
   7   1.0000       0.025420         0.6917
   8   1.0000       0.071776         1.9531
   9   0.0000       0.530468        14.4348
  10   0.0000       1.164617        31.6909
  11   0.0000       1.257196        34.2100
  12   0.0000       1.289252        35.0823
  13   0.0000       1.360113        37.0106

                 SPIN DOWN ORBITALS
  NO   OCC          E(Eh)            E(eV)
   0   1.0000     -19.163259      -521.4588
   1   1.0000     -19.163231      -521.4580
   2   1.0000      -0.822455       -22.3801
   3   1.0000      -0.468755       -12.7555
   4   1.0000      -0.127366        -3.4658
   5   1.0000      -0.109533        -2.9805
   6   1.0000      -0.044469        -1.2101
   7   1.0000       0.090370         2.4591
   8   0.0000       0.306036         8.3277
   9   0.0000       0.554513        15.0891
  10   0.0000       1.175269        31.9807
  11   0.0000       1.299686        35.3663
  12   0.0000       1.325687        36.0738

MULLIKEN ATOMIC CHARGES AND SPIN POPULATIONS
--------------------------------------------
   0 O :   -0.500000    0.500000
   1 O :   -0.500000    0.500000
Sum of atomic charges         :   -1.0000000

LOEWDIN ATOMIC CHARGES AND SPIN POPULATIONS
-------------------------------------------
   0 O :   -0.500000    0.500000
   1 O :   -0.500000    0.500000

  Mayer bond orders larger than 0.100000
B(  0-O ,  1-O ) :   1.4949

Dispersion correction           -0.000143479
FINAL SINGLE POINT ENERGY      -149.988105955764

DIPOLE MOMENT
-------------
                                X             Y             Z
Electronic contribution:     -0.00000       0.00000      -0.00000
Nuclear contribution   :      0.00000       0.00000       0.00000
                        -----------------------------------------
Total Dipole Moment    :     -0.00000       0.00000      -0.00000
                        -----------------------------------------
Magnitude (a.u.)       :      0.00000
Magnitude (Debye)      :      0.00000

Rotational constants in cm-1:     0.000000     1.147849     1.147849
Rotational constants in MHz :     0.000000 34411.652629 34411.652629

                             ****ORCA TERMINATED NORMALLY****
TOTAL RUN TIME: 0 days 0 hours 0 minutes 23 seconds 474 msec
