                         Program Version 5.0.3 -  RELEASE  -
|  1> ! PBEh-3c def2/J TightSCF DefGrid3
|  2>
|  3> %maxcore 60000
|  4>
|  5> %pal
|  6> nprocs 4
|  7> end
|  8>
|  9> *xyzfile 0 1 h2s-ch2.xyz
| 10>
| 11>                          ****END OF INPUT****

CARTESIAN COORDINATES (ANGSTROEM)
---------------------------------
  C     -0.868607   -0.149527   -0.176199
  H     -1.348440   -1.106535   -0.049408
  H     -1.322045    0.735845    0.239648
  S      0.785994   -0.316841   -0.149216
  H      1.446889    0.122778    0.984313
  H      1.306209    0.714279   -0.849140

 Total Charge           Charge          ....    0
 Multiplicity           Mult            ....    1
 Number of Electrons    NEL             ....   26
 Basis Dimension        Dim             ....   41

ORBITAL ENERGIES
----------------

  NO   OCC          E(Eh)            E(eV)
   0   2.0000     -89.665229     -2439.9149
   1   2.0000     -10.406753      -283.1821
   2   2.0000      -8.300498      -225.8680
   3   2.0000      -6.189944      -168.4370
   4   2.0000      -6.189037      -168.4122
   5   2.0000      -6.185534      -168.3169
   6   2.0000      -0.917590       -24.9689
   7   2.0000      -0.703396       -19.1404
   8   2.0000      -0.528580       -14.3834
   9   2.0000      -0.510605       -13.8943
  10   2.0000      -0.458112       -12.4659
  11   2.0000      -0.369017       -10.0415
  12   2.0000      -0.225197        -6.1279
  13   0.0000       0.061516         1.6739
  14   0.0000       0.073198         1.9918
  15   0.0000       0.127569         3.4713
  16   0.0000       0.219657         5.9772
  17   0.0000       0.246131         6.6976

MULLIKEN ATOMIC CHARGES
-----------------------
   0 C :   -0.781100
   1 H :    0.230769
   2 H :    0.220266
   3 S :    0.018485
   4 H :    0.121935
   5 H :    0.189645
Sum of atomic charges:    0.0000000

LOEWDIN ATOMIC CHARGES
----------------------
   0 C :   -0.762675
   1 H :    0.133940
   2 H :    0.121774
   3 S :    0.407241
   4 H :    0.021842
   5 H :    0.077879

  Mayer bond orders larger than 0.100000
B(  0-C ,  1-H ) :   0.9165 B(  0-C ,  2-H ) :   0.9195 B(  0-C ,  3-S ) :   1.3372
B(  0-C ,  4-H ) :   0.1391 B(  3-S ,  4-H ) :   0.7581 B(  3-S ,  5-H ) :   0.8303

Dispersion correction           -0.001665669
FINAL SINGLE POINT ENERGY      -438.041229484078

DIPOLE MOMENT
-------------
                                X             Y             Z
Electronic contribution:      1.95964      -1.03187      -0.45486
Nuclear contribution   :     -1.09477       1.33569       0.81838
                        -----------------------------------------
Total Dipole Moment    :      0.86487       0.30383       0.36352
                        -----------------------------------------
Magnitude (a.u.)       :      0.98613
Magnitude (Debye)      :      2.50654

Rotational constants in cm-1:     3.403335     0.500010     0.484902
Rotational constants in MHz : 102029.427413 14989.935887 14536.989079

                             ****ORCA TERMINATED NORMALLY****
TOTAL RUN TIME: 0 days 0 hours 1 minutes 7 seconds 916 msec
