                         Program Version 5.0.3 -  RELEASE  -
|  1> ! PBEh-3c def2/J TightSCF DefGrid3
|  2>
|  3> %maxcore 60000
|  4>
|  5> %pal
|  6> nprocs 4
|  7> end
|  8>
|  9> *xyzfile 0 1 12a.xyz
| 10>
| 11>                          ****END OF INPUT****

CARTESIAN COORDINATES (ANGSTROEM)
---------------------------------
  C     -1.130650    0.696138    0.000000
  C     -1.130650   -0.696138    0.000000
  C      1.130650   -0.696138    0.000000
  C      1.130650    0.696138    0.000000
  N      0.000000   -1.414479    0.000000
  N      0.000000    1.414479    0.000000
  H     -2.062480    1.247279    0.000000
  H     -2.062480   -1.247279    0.000000
  H      2.062480   -1.247279    0.000000
  H      2.062480    1.247279    0.000000

 Total Charge           Charge          ....    0
 Multiplicity           Mult            ....    1
 Number of Electrons    NEL             ....   42
 Basis Dimension        Dim             ....   98

ORBITAL ENERGIES
----------------

  NO   OCC          E(Eh)            E(eV)
   0   2.0000     -14.666690      -399.1009
   1   2.0000     -14.666564      -399.0975
   2   2.0000     -10.497157      -285.6422
   3   2.0000     -10.497115      -285.6410
   4   2.0000     -10.496574      -285.6263
   5   2.0000     -10.496562      -285.6260
   6   2.0000      -1.094044       -29.7704
   7   2.0000      -1.015448       -27.6317
   8   2.0000      -0.875491       -23.8233
   9   2.0000      -0.748718       -20.3737
  10   2.0000      -0.740463       -20.1490
  11   2.0000      -0.603566       -16.4239
  12   2.0000      -0.588241       -16.0069
  13   2.0000      -0.559588       -15.2272
  14   2.0000      -0.504518       -13.7286
  15   2.0000      -0.488491       -13.2925
  16   2.0000      -0.450268       -12.2524
  17   2.0000      -0.380961       -10.3665
  18   2.0000      -0.380434       -10.3521
  19   2.0000      -0.321569        -8.7503
  20   2.0000      -0.311078        -8.4649
  21   0.0000      -0.032516        -0.8848
  22   0.0000      -0.004174        -0.1136
  23   0.0000       0.166036         4.5181
  24   0.0000       0.169056         4.6002
  25   0.0000       0.190070         5.1721

MULLIKEN ATOMIC CHARGES
-----------------------
   0 C :   -0.087003
   1 C :   -0.087003
   2 C :   -0.087003
   3 C :   -0.087003
   4 N :   -0.309591
   5 N :   -0.309591
   6 H :    0.241799
   7 H :    0.241799
   8 H :    0.241799
   9 H :    0.241799
Sum of atomic charges:   -0.0000000

LOEWDIN ATOMIC CHARGES
----------------------
   0 C :   -0.082991
   1 C :   -0.082991
   2 C :   -0.082991
   3 C :   -0.082991
   4 N :   -0.108237
   5 N :   -0.108237
   6 H :    0.137110
   7 H :    0.137110
   8 H :    0.137110
   9 H :    0.137110

  Mayer bond orders larger than 0.100000
B(  0-C ,  1-C ) :   1.3429 B(  0-C ,  2-C ) :   0.1044 B(  0-C ,  5-N ) :   1.5004
B(  0-C ,  6-H ) :   0.9085 B(  1-C ,  3-C ) :   0.1044 B(  1-C ,  4-N ) :   1.5004
B(  1-C ,  7-H ) :   0.9085 B(  2-C ,  3-C ) :   1.3429 B(  2-C ,  4-N ) :   1.5004
B(  2-C ,  8-H ) :   0.9085 B(  3-C ,  5-N ) :   1.5004 B(  3-C ,  9-H ) :   0.9085

Dispersion correction           -0.004773205
FINAL SINGLE POINT ENERGY      -263.727993461268

DIPOLE MOMENT
-------------
                                X             Y             Z
Electronic contribution:      0.00000      -0.00000       0.00000
Nuclear contribution   :      0.00000       0.00000       0.00000
                        -----------------------------------------
Total Dipole Moment    :      0.00000      -0.00000       0.00000
                        -----------------------------------------
Magnitude (a.u.)       :      0.00000
Magnitude (Debye)      :      0.00000

Rotational constants in cm-1:     0.214558     0.196926     0.102682
Rotational constants in MHz :  6432.272404  5903.680640  3078.325763

                             ****ORCA TERMINATED NORMALLY****
TOTAL RUN TIME: 0 days 0 hours 1 minutes 2 seconds 418 msec
