                         Program Version 5.0.3 -  RELEASE  -
|  1> ! PBEh-3c def2/J TightSCF DefGrid3
|  2>
|  3> %maxcore 60000
|  4>
|  5> %pal
|  6> nprocs 4
|  7> end
|  8>
|  9> *xyzfile 0 1 P47.xyz
| 10>
| 11>                          ****END OF INPUT****

CARTESIAN COORDINATES (ANGSTROEM)
---------------------------------
  C      0.640285    0.025877    0.490229
  C     -0.464340    1.103003    0.159076
  C     -0.487073   -0.982677    0.302035
  C     -1.419825   -0.067346    0.023495
  H     -0.277486    1.672815   -0.753135
  H     -0.672452    1.801060    0.972513
  C      1.780411   -0.055614   -0.465057
  H      1.504965   -0.113289   -1.515023
  C      3.063201   -0.072929   -0.125234
  H      3.372288   -0.022909    0.912031
  H      3.847863   -0.137749   -0.866759
  H     -0.499366   -2.062858    0.368546
  C     -2.867859   -0.104516   -0.298168
  H     -3.064289    0.353367   -1.271228
  H     -3.245621   -1.126778   -0.317783
  H     -3.445796    0.461073    0.437687
  H      1.011097    0.100482    1.514900

 Total Charge           Charge          ....    0
 Multiplicity           Mult            ....    1
 Number of Electrons    NEL             ....   52
 Basis Dimension        Dim             ....  125

ORBITAL ENERGIES
----------------

  NO   OCC          E(Eh)            E(eV)
   0   2.0000     -10.449789      -284.3532
   1   2.0000     -10.447615      -284.2941
   2   2.0000     -10.440252      -284.0937
   3   2.0000     -10.438527      -284.0468
   4   2.0000     -10.434339      -283.9328
   5   2.0000     -10.434264      -283.9308
   6   2.0000     -10.427924      -283.7582
   7   2.0000      -0.962903       -26.2019
   8   2.0000      -0.861855       -23.4523
   9   2.0000      -0.812454       -22.1080
  10   2.0000      -0.731246       -19.8982
  11   2.0000      -0.708490       -19.2790
  12   2.0000      -0.621330       -16.9072
  13   2.0000      -0.571106       -15.5406
  14   2.0000      -0.544713       -14.8224
  15   2.0000      -0.516350       -14.0506
  16   2.0000      -0.491289       -13.3687
  17   2.0000      -0.484221       -13.1763
  18   2.0000      -0.469458       -12.7746
  19   2.0000      -0.437363       -11.9013
  20   2.0000      -0.416463       -11.3325
  21   2.0000      -0.390819       -10.6347
  22   2.0000      -0.382451       -10.4070
  23   2.0000      -0.359469        -9.7816
  24   2.0000      -0.297083        -8.0840
  25   2.0000      -0.279694        -7.6109
  26   0.0000       0.040004         1.0886
  27   0.0000       0.063879         1.7382
  28   0.0000       0.150741         4.1019
  29   0.0000       0.169628         4.6158
  30   0.0000       0.178783         4.8649

MULLIKEN ATOMIC CHARGES
-----------------------
   0 C :   -0.343940
   1 C :   -0.447642
   2 C :   -0.213319
   3 C :    0.130245
   4 H :    0.224387
   5 H :    0.226288
   6 C :   -0.088354
   7 H :    0.212216
   8 C :   -0.500951
   9 H :    0.208136
  10 H :    0.213500
  11 H :    0.199619
  12 C :   -0.731458
  13 H :    0.227936
  14 H :    0.231171
  15 H :    0.228362
  16 H :    0.223802
Sum of atomic charges:   -0.0000000

LOEWDIN ATOMIC CHARGES
----------------------
   0 C :   -0.127282
   1 C :   -0.211476
   2 C :   -0.150954
   3 C :   -0.052221
   4 H :    0.127977
   5 H :    0.128818
   6 C :   -0.132985
   7 H :    0.129159
   8 C :   -0.278092
   9 H :    0.127266
  10 H :    0.130952
  11 H :    0.124279
  12 C :   -0.361652
  13 H :    0.139563
  14 H :    0.139327
  15 H :    0.139941
  16 H :    0.127379

  Mayer bond orders larger than 0.100000
B(  0-C ,  1-C ) :   0.9448 B(  0-C ,  2-C ) :   1.0099 B(  0-C ,  6-C ) :   0.9809
B(  0-C , 16-H ) :   0.9080 B(  1-C ,  3-C ) :   0.9958 B(  1-C ,  4-H ) :   0.9127
B(  1-C ,  5-H ) :   0.9106 B(  2-C ,  3-C ) :   1.8152 B(  2-C , 11-H ) :   0.9325
B(  3-C , 12-C ) :   0.9677 B(  6-C ,  7-H ) :   0.9172 B(  6-C ,  8-C ) :   1.9186
B(  8-C ,  9-H ) :   0.9305 B(  8-C , 10-H ) :   0.9301 B( 12-C , 13-H ) :   0.9188
B( 12-C , 14-H ) :   0.9296 B( 12-C , 15-H ) :   0.9185

Dispersion correction           -0.007925179
FINAL SINGLE POINT ENERGY      -272.083445886722

DIPOLE MOMENT
-------------
                                X             Y             Z
Electronic contribution:      1.21401      -0.88104       0.50906
Nuclear contribution   :     -1.52344       0.95963      -0.53753
                        -----------------------------------------
Total Dipole Moment    :     -0.30943       0.07859      -0.02847
                        -----------------------------------------
Magnitude (a.u.)       :      0.32052
Magnitude (Debye)      :      0.81469

Rotational constants in cm-1:     0.298460     0.046236     0.043763
Rotational constants in MHz :  8947.615096  1386.113040  1311.976482

                             ****ORCA TERMINATED NORMALLY****
TOTAL RUN TIME: 0 days 0 hours 1 minutes 8 seconds 174 msec
