                         Program Version 5.0.3 -  RELEASE  -
|  1> ! PBEh-3c def2/J TightSCF DefGrid3
|  2>
|  3> %maxcore 60000
|  4>
|  5> %pal
|  6> nprocs 4
|  7> end
|  8>
|  9> *xyzfile -1 1 14A.xyz
| 10>
| 11>                          ****END OF INPUT****

CARTESIAN COORDINATES (ANGSTROEM)
---------------------------------
  N     -1.733291    3.591493    0.140639
  N     -1.211038    2.505713    0.118068
  N     -2.254876    4.673096    0.159832

 Total Charge           Charge          ....   -1
 Multiplicity           Mult            ....    1
 Number of Electrons    NEL             ....   22
 Basis Dimension        Dim             ....   45

ORBITAL ENERGIES
----------------

  NO   OCC          E(Eh)            E(eV)
   0   2.0000     -14.522602      -395.1801
   1   2.0000     -14.371483      -391.0679
   2   2.0000     -14.370749      -391.0480
   3   2.0000      -0.920679       -25.0530
   4   2.0000      -0.735767       -20.0212
   5   2.0000      -0.262754        -7.1499
   6   2.0000      -0.262752        -7.1498
   7   2.0000      -0.256382        -6.9765
   8   2.0000      -0.190567        -5.1856
   9   2.0000      -0.002549        -0.0694
  10   2.0000      -0.002548        -0.0693
  11   0.0000       0.343134         9.3371
  12   0.0000       0.343136         9.3372
  13   0.0000       0.571535        15.5523
  14   0.0000       0.731922        19.9166
  15   0.0000       0.878985        23.9184

MULLIKEN ATOMIC CHARGES
-----------------------
   0 N :    0.112687
   1 N :   -0.558494
   2 N :   -0.554193
Sum of atomic charges:   -1.0000000

LOEWDIN ATOMIC CHARGES
----------------------
   0 N :    0.080602
   1 N :   -0.543031
   2 N :   -0.537571

  Mayer bond orders larger than 0.100000
B(  0-N ,  1-N ) :   2.1814 B(  0-N ,  2-N ) :   2.1878 B(  1-N ,  2-N ) :   0.6293

Dispersion correction           -0.000635337
FINAL SINGLE POINT ENERGY      -163.842966587385

DIPOLE MOMENT
-------------
                                X             Y             Z
Electronic contribution:     -0.00410       0.00981       0.00172
Nuclear contribution   :     -0.00000       0.00000       0.00000
                        -----------------------------------------
Total Dipole Moment    :     -0.00410       0.00981       0.00172
                        -----------------------------------------
Magnitude (a.u.)       :      0.01077
Magnitude (Debye)      :      0.02738

Rotational constants in cm-1: 582236.260443     0.415802     0.415801
Rotational constants in MHz : 17455003965.499554 12465.416654 12465.407752

                             ****ORCA TERMINATED NORMALLY****
TOTAL RUN TIME: 0 days 0 hours 0 minutes 51 seconds 861 msec
