                         Program Version 5.0.3 -  RELEASE  -
|  1> ! PBEh-3c def2/J TightSCF DefGrid3
|  2>
|  3> %maxcore 60000
|  4>
|  5> %pal
|  6> nprocs 4
|  7> end
|  8>
|  9> *xyzfile 1 1 c2cl43.xyz
| 10>
| 11>                          ****END OF INPUT****

CARTESIAN COORDINATES (ANGSTROEM)
---------------------------------
  C      0.000000   -0.708654    0.099649
  C      0.000000    0.708654    0.099649
  Cl    -1.445907   -1.570426    0.210861
  Cl     1.445907   -1.570426    0.210861
  Cl    -1.445907    1.570426    0.210861
  Cl     1.445907    1.570426    0.210861
  H      0.000000    0.000000   -1.042740

 Total Charge           Charge          ....    1
 Multiplicity           Mult            ....    1
 Number of Electrons    NEL             ....   80
 Basis Dimension        Dim             ....  104

ORBITAL ENERGIES
----------------

  NO   OCC          E(Eh)            E(eV)
   0   2.0000    -102.558171     -2790.7497
   1   2.0000    -102.558161     -2790.7495
   2   2.0000    -102.558124     -2790.7484
   3   2.0000    -102.558050     -2790.7464
   4   2.0000     -10.860904      -295.5402
   5   2.0000     -10.860363      -295.5255
   6   2.0000     -10.025876      -272.8180
   7   2.0000     -10.025862      -272.8176
   8   2.0000     -10.025846      -272.8171
   9   2.0000     -10.025813      -272.8162
  10   2.0000      -7.714337      -209.9178
  11   2.0000      -7.714328      -209.9175
  12   2.0000      -7.714327      -209.9175
  13   2.0000      -7.714301      -209.9168
  14   2.0000      -7.704753      -209.6570
  15   2.0000      -7.704752      -209.6570
  16   2.0000      -7.704745      -209.6568
  17   2.0000      -7.704743      -209.6567
  18   2.0000      -7.703659      -209.6272
  19   2.0000      -7.703650      -209.6270
  20   2.0000      -7.703631      -209.6265
  21   2.0000      -7.703623      -209.6262
  22   2.0000      -1.328017       -36.1372
  23   2.0000      -1.240857       -33.7654
  24   2.0000      -1.188286       -32.3349
  25   2.0000      -1.158253       -31.5177
  26   2.0000      -1.083623       -29.4869
  27   2.0000      -0.859823       -23.3970
  28   2.0000      -0.823680       -22.4135
  29   2.0000      -0.800315       -21.7777
  30   2.0000      -0.799494       -21.7553
  31   2.0000      -0.726485       -19.7687
  32   2.0000      -0.669055       -18.2059
  33   2.0000      -0.632764       -17.2184
  34   2.0000      -0.619415       -16.8551
  35   2.0000      -0.614994       -16.7348
  36   2.0000      -0.610153       -16.6031
  37   2.0000      -0.599863       -16.3231
  38   2.0000      -0.569191       -15.4885
  39   2.0000      -0.563803       -15.3419
  40   0.0000      -0.289382        -7.8745
  41   0.0000      -0.187155        -5.0927
  42   0.0000      -0.184689        -5.0256
  43   0.0000      -0.167569        -4.5598
  44   0.0000      -0.154999        -4.2177

MULLIKEN ATOMIC CHARGES
-----------------------
   0 C :   -0.137854
   1 C :   -0.137853
   2 Cl:    0.222562
   3 Cl:    0.222562
   4 Cl:    0.222562
   5 Cl:    0.222562
   6 H :    0.385458
Sum of atomic charges:    1.0000000

LOEWDIN ATOMIC CHARGES
----------------------
   0 C :   -0.252417
   1 C :   -0.252417
   2 Cl:    0.303194
   3 Cl:    0.303194
   4 Cl:    0.303194
   5 Cl:    0.303194
   6 H :    0.292058

  Mayer bond orders larger than 0.100000
B(  0-C ,  1-C ) :   0.9270 B(  0-C ,  2-Cl) :   1.2659 B(  0-C ,  3-Cl) :   1.2659
B(  0-C ,  6-H ) :   0.3723 B(  1-C ,  4-Cl) :   1.2659 B(  1-C ,  5-Cl) :   1.2659
B(  1-C ,  6-H ) :   0.3723

Dispersion correction           -0.004783333
FINAL SINGLE POINT ENERGY     -1915.036914292910

DIPOLE MOMENT
-------------
                                X             Y             Z
Electronic contribution:      0.00000       0.00000       0.84599
Nuclear contribution   :      0.00000       0.00000      -1.28060
                        -----------------------------------------
Total Dipole Moment    :      0.00000       0.00000      -0.43461
                        -----------------------------------------
Magnitude (a.u.)       :      0.43461
Magnitude (Debye)      :      1.10470

Rotational constants in cm-1:     0.056519     0.046364     0.025608
Rotational constants in MHz :  1694.385619  1389.955729   767.722240

                             ****ORCA TERMINATED NORMALLY****
TOTAL RUN TIME: 0 days 0 hours 1 minutes 30 seconds 545 msec
