                         Program Version 5.0.3 -  RELEASE  -
|  1> ! PBEh-3c def2/J TightSCF DefGrid3
|  2>
|  3> %maxcore 60000
|  4>
|  5> %pal
|  6> nprocs 4
|  7> end
|  8>
|  9> *xyzfile 0 1 ts5h2o.xyz
| 10>
| 11>                          ****END OF INPUT****

CARTESIAN COORDINATES (ANGSTROEM)
---------------------------------
  C     -1.147023   -0.060526   -0.121815
  H     -2.134819   -0.167574   -0.565012
  C     -0.522138    1.209330    0.056577
  H     -0.238953    1.414979    1.089381
  H      0.701158    0.874370   -0.232319
  H     -1.049477    2.046300   -0.385683
  H      0.610954   -0.944272    0.207650
  O      1.751291    0.015250    0.013282
  H      2.303847   -0.151394   -0.756782
  N     -0.473182   -1.147997    0.139934
  H     -0.875795   -2.051257   -0.051606

 Total Charge           Charge          ....    0
 Multiplicity           Mult            ....    1
 Number of Electrons    NEL             ....   34
 Basis Dimension        Dim             ....   74

ORBITAL ENERGIES
----------------

  NO   OCC          E(Eh)            E(eV)
   0   2.0000     -19.398687      -527.8651
   1   2.0000     -14.671092      -399.2207
   2   2.0000     -10.530025      -286.5365
   3   2.0000     -10.408477      -283.2290
   4   2.0000      -1.057722       -28.7821
   5   2.0000      -0.984898       -26.8004
   6   2.0000      -0.828336       -22.5402
   7   2.0000      -0.682438       -18.5701
   8   2.0000      -0.634797       -17.2737
   9   2.0000      -0.546297       -14.8655
  10   2.0000      -0.486954       -13.2507
  11   2.0000      -0.467269       -12.7150
  12   2.0000      -0.460089       -12.5197
  13   2.0000      -0.403583       -10.9820
  14   2.0000      -0.356938        -9.7128
  15   2.0000      -0.284465        -7.7407
  16   2.0000      -0.249756        -6.7962
  17   0.0000      -0.009974        -0.2714
  18   0.0000       0.120051         3.2668
  19   0.0000       0.178646         4.8612
  20   0.0000       0.195705         5.3254
  21   0.0000       0.214585         5.8391

MULLIKEN ATOMIC CHARGES
-----------------------
   0 C :    0.112592
   1 H :    0.238543
   2 C :   -0.851498
   3 H :    0.289393
   4 H :    0.386215
   5 H :    0.216272
   6 H :    0.436518
   7 O :   -0.872672
   8 H :    0.375332
   9 N :   -0.690683
  10 H :    0.359989
Sum of atomic charges:    0.0000000

LOEWDIN ATOMIC CHARGES
----------------------
   0 C :    0.043876
   1 H :    0.127434
   2 C :   -0.516266
   3 H :    0.175624
   4 H :    0.289941
   5 H :    0.131801
   6 H :    0.306961
   7 O :   -0.770021
   8 H :    0.268382
   9 N :   -0.307909
  10 H :    0.250178

  Mayer bond orders larger than 0.100000
B(  0-C ,  1-H ) :   0.9067 B(  0-C ,  2-C ) :   1.1938 B(  0-C ,  9-N ) :   1.5571
B(  2-C ,  3-H ) :   0.8694 B(  2-C ,  4-H ) :   0.4390 B(  2-C ,  5-H ) :   0.9295
B(  4-H ,  7-O ) :   0.3866 B(  6-H ,  7-O ) :   0.3227 B(  6-H ,  9-N ) :   0.5083
B(  7-O ,  8-H ) :   0.8245 B(  9-N , 10-H ) :   0.8313

Dispersion correction           -0.003811025
FINAL SINGLE POINT ENERGY      -209.852748911712

DIPOLE MOMENT
-------------
                                X             Y             Z
Electronic contribution:     -0.66457      -1.84415       0.09710
Nuclear contribution   :     -0.68811       1.06067      -0.72479
                        -----------------------------------------
Total Dipole Moment    :     -1.35268      -0.78348      -0.62769
                        -----------------------------------------
Magnitude (a.u.)       :      1.68451
Magnitude (Debye)      :      4.28169

Rotational constants in cm-1:     0.330048     0.194064     0.127419
Rotational constants in MHz :  9894.582803  5817.907153  3819.915505

                             ****ORCA TERMINATED NORMALLY****
TOTAL RUN TIME: 0 days 0 hours 1 minutes 24 seconds 537 msec
