                         Program Version 5.0.3 -  RELEASE  -
|  1> ! PBEh-3c def2/J TightSCF DefGrid3
|  2>
|  3> %maxcore 60000
|  4>
|  5> %pal
|  6> nprocs 4
|  7> end
|  8>
|  9> *xyzfile 0 1 18A.xyz
| 10>
| 11>                          ****END OF INPUT****

CARTESIAN COORDINATES (ANGSTROEM)
---------------------------------
  O     -0.215521   -0.334452    0.000000
  H     -0.534449    0.569038    0.000000
  H      0.749970   -0.234586    0.000000

 Total Charge           Charge          ....    0
 Multiplicity           Mult            ....    1
 Number of Electrons    NEL             ....   10
 Basis Dimension        Dim             ....   19

ORBITAL ENERGIES
----------------

  NO   OCC          E(Eh)            E(eV)
   0   2.0000     -19.475420      -529.9531
   1   2.0000      -1.101480       -29.9728
   2   2.0000      -0.578456       -15.7406
   3   2.0000      -0.435839       -11.8598
   4   2.0000      -0.356429        -9.6989
   5   0.0000       0.129861         3.5337
   6   0.0000       0.207592         5.6489
   7   0.0000       0.869144        23.6506
   8   0.0000       0.979748        26.6603
   9   0.0000       0.991487        26.9797

MULLIKEN ATOMIC CHARGES
-----------------------
   0 O :   -0.814544
   1 H :    0.408263
   2 H :    0.406281
Sum of atomic charges:    0.0000000

LOEWDIN ATOMIC CHARGES
----------------------
   0 O :   -0.597170
   1 H :    0.297743
   2 H :    0.299427

  Mayer bond orders larger than 0.100000
B(  0-O ,  1-H ) :   0.8156 B(  0-O ,  2-H ) :   0.8178

Dispersion correction           -0.000209592
FINAL SINGLE POINT ENERGY       -76.257842137313

DIPOLE MOMENT
-------------
                                X             Y             Z
Electronic contribution:     -0.07774      -0.11280      -0.00000
Nuclear contribution   :      0.53817       0.83515       0.00000
                        -----------------------------------------
Total Dipole Moment    :      0.46044       0.72236      -0.00000
                        -----------------------------------------
Magnitude (a.u.)       :      0.85662
Magnitude (Debye)      :      2.17736

Rotational constants in cm-1:    26.444617    14.567523     9.393135
Rotational constants in MHz : 792789.672890 436723.340850 281599.097095

                             ****ORCA TERMINATED NORMALLY****
TOTAL RUN TIME: 0 days 0 hours 0 minutes 50 seconds 655 msec
