                         Program Version 5.0.3 -  RELEASE  -
|  1> ! PBEh-3c def2/J TightSCF DefGrid3
|  2>
|  3> %maxcore 60000
|  4>
|  5> %pal
|  6> nprocs 4
|  7> end
|  8>
|  9> *xyzfile 0 1 C12.xyz
| 10>
| 11>                          ****END OF INPUT****

CARTESIAN COORDINATES (ANGSTROEM)
---------------------------------
  C      2.359793    0.630401    0.290128
  C      1.482619   -0.584891    0.000658
  C      0.129443   -0.227201   -0.627050
  C     -0.916709    0.365339    0.351944
  C     -1.846562   -0.822790    0.642732
  O     -1.262730   -1.535043    1.733847
  C     -1.788118   -1.590361   -0.675697
  O      3.613046    0.247213    0.836398
  O     -1.708981    1.382078   -0.247010
  O      2.240022   -1.392725   -0.905816
  O     -0.441183   -1.455125   -1.137171
  C     -1.084573    2.656538   -0.298436
  H      2.499617    1.201644   -0.641452
  H      1.887146    1.282865    1.030334
  H      1.307072   -1.140453    0.932670
  H      0.281087    0.451627   -1.476792
  H     -0.465428    0.728417    1.284883
  H     -2.855756   -0.471768    0.887441
  H     -1.750609   -2.355969    1.879024
  H     -2.007029   -2.658534   -0.573830
  H     -2.487481   -1.147590   -1.399184
  H      3.963499   -0.455309    0.268705
  H      1.660292   -2.108776   -1.205166
  H     -0.821460    3.008278    0.709933
  H     -0.178240    2.648888   -0.920161
  H     -1.808775    3.343251   -0.740937

 Total Charge           Charge          ....    0
 Multiplicity           Mult            ....    1
 Number of Electrons    NEL             ....   96
 Basis Dimension        Dim             ....  208

ORBITAL ENERGIES
----------------

  NO   OCC          E(Eh)            E(eV)
   0   2.0000     -19.510288      -530.9019
   1   2.0000     -19.506998      -530.8124
   2   2.0000     -19.506216      -530.7911
   3   2.0000     -19.486361      -530.2508
   4   2.0000     -19.475525      -529.9560
   5   2.0000     -10.506960      -285.9089
   6   2.0000     -10.506138      -285.8866
   7   2.0000     -10.497401      -285.6488
   8   2.0000     -10.495658      -285.6014
   9   2.0000     -10.490488      -285.4607
  10   2.0000     -10.486513      -285.3525
  11   2.0000     -10.479534      -285.1626
  12   2.0000      -1.169783       -31.8314
  13   2.0000      -1.145689       -31.1758
  14   2.0000      -1.136333       -30.9212
  15   2.0000      -1.124262       -30.5927
  16   2.0000      -1.101100       -29.9625
  17   2.0000      -0.879189       -23.9240
  18   2.0000      -0.858798       -23.3691
  19   2.0000      -0.800263       -21.7763
  20   2.0000      -0.762670       -20.7533
  21   2.0000      -0.701145       -19.0791
  22   2.0000      -0.679912       -18.5013
  23   2.0000      -0.660895       -17.9839
  24   2.0000      -0.607456       -16.5297
  25   2.0000      -0.591658       -16.0998
  26   2.0000      -0.589249       -16.0343
  27   2.0000      -0.546603       -14.8738
  28   2.0000      -0.540645       -14.7117
  29   2.0000      -0.537868       -14.6361
  30   2.0000      -0.525976       -14.3125
  31   2.0000      -0.510582       -13.8937
  32   2.0000      -0.498524       -13.5655
  33   2.0000      -0.487843       -13.2749
  34   2.0000      -0.469361       -12.7720
  35   2.0000      -0.458421       -12.4743
  36   2.0000      -0.445751       -12.1295
  37   2.0000      -0.438067       -11.9204
  38   2.0000      -0.413454       -11.2507
  39   2.0000      -0.409262       -11.1366
  40   2.0000      -0.405389       -11.0312
  41   2.0000      -0.384759       -10.4698
  42   2.0000      -0.370153       -10.0724
  43   2.0000      -0.349362        -9.5066
  44   2.0000      -0.343028        -9.3343
  45   2.0000      -0.320637        -8.7250
  46   2.0000      -0.314883        -8.5684
  47   2.0000      -0.306830        -8.3493
  48   0.0000       0.100926         2.7463
  49   0.0000       0.115561         3.1446
  50   0.0000       0.123371         3.3571
  51   0.0000       0.140919         3.8346
  52   0.0000       0.155457         4.2302

MULLIKEN ATOMIC CHARGES
-----------------------
   0 C :   -0.127463
   1 C :   -0.016816
   2 C :    0.021706
   3 C :   -0.012126
   4 C :   -0.011880
   5 O :   -0.633040
   6 C :   -0.158796
   7 O :   -0.630952
   8 O :   -0.481555
   9 O :   -0.665422
  10 O :   -0.506646
  11 C :   -0.377565
  12 H :    0.178282
  13 H :    0.196047
  14 H :    0.220960
  15 H :    0.220563
  16 H :    0.234290
  17 H :    0.228336
  18 H :    0.420230
  19 H :    0.209240
  20 H :    0.211482
  21 H :    0.426873
  22 H :    0.436058
  23 H :    0.195230
  24 H :    0.192608
  25 H :    0.230356
Sum of atomic charges:   -0.0000000

LOEWDIN ATOMIC CHARGES
----------------------
   0 C :   -0.094806
   1 C :   -0.052349
   2 C :   -0.022930
   3 C :   -0.018968
   4 C :   -0.033897
   5 O :   -0.396189
   6 C :   -0.088339
   7 O :   -0.407471
   8 O :   -0.254503
   9 O :   -0.412568
  10 O :   -0.267566
  11 C :   -0.184077
  12 H :    0.101114
  13 H :    0.115963
  14 H :    0.120520
  15 H :    0.124652
  16 H :    0.125055
  17 H :    0.121135
  18 H :    0.313686
  19 H :    0.119946
  20 H :    0.118623
  21 H :    0.315540
  22 H :    0.318647
  23 H :    0.106620
  24 H :    0.103229
  25 H :    0.128934

  Mayer bond orders larger than 0.100000
B(  0-C ,  1-C ) :   0.9576 B(  0-C ,  7-O ) :   1.0342 B(  0-C , 12-H ) :   0.8973
B(  0-C , 13-H ) :   0.9103 B(  1-C ,  2-C ) :   0.9268 B(  1-C ,  9-O ) :   0.9765
B(  1-C , 14-H ) :   0.8804 B(  2-C ,  3-C ) :   0.9117 B(  2-C , 10-O ) :   0.9289
B(  2-C , 15-H ) :   0.8953 B(  3-C ,  4-C ) :   0.9515 B(  3-C ,  8-O ) :   0.9271
B(  3-C , 16-H ) :   0.8896 B(  4-C ,  5-O ) :   0.9973 B(  4-C ,  6-C ) :   0.9362
B(  4-C , 17-H ) :   0.8956 B(  5-O , 18-H ) :   0.7867 B(  6-C , 10-O ) :   0.9662
B(  6-C , 19-H ) :   0.9194 B(  6-C , 20-H ) :   0.8918 B(  7-O , 21-H ) :   0.7703
B(  8-O , 11-C ) :   0.9677 B(  9-O , 22-H ) :   0.7598 B( 11-C , 23-H ) :   0.9123
B( 11-C , 24-H ) :   0.9066 B( 11-C , 25-H ) :   0.9276

Dispersion correction           -0.014453112
FINAL SINGLE POINT ENERGY      -649.845711865934

DIPOLE MOMENT
-------------
                                X             Y             Z
Electronic contribution:      0.64757      -5.05690      -0.09566
Nuclear contribution   :     -2.04635       4.85365      -0.01649
                        -----------------------------------------
Total Dipole Moment    :     -1.39878      -0.20325      -0.11215
                        -----------------------------------------
Magnitude (a.u.)       :      1.41791
Magnitude (Debye)      :      3.60405

Rotational constants in cm-1:     0.038167     0.022628     0.018157
Rotational constants in MHz :  1144.220831   678.360442   544.319147

                             ****ORCA TERMINATED NORMALLY****
TOTAL RUN TIME: 0 days 0 hours 2 minutes 52 seconds 80 msec
