                         Program Version 5.0.3 -  RELEASE  -
|  1> ! PBEh-3c def2/J TightSCF DefGrid3
|  2>
|  3> %maxcore 60000
|  4>
|  5> %pal
|  6> nprocs 4
|  7> end
|  8>
|  9> *xyzfile 0 1 39B.xyz
| 10>
| 11>                          ****END OF INPUT****

CARTESIAN COORDINATES (ANGSTROEM)
---------------------------------
  C     -0.847728   -0.866947   -0.398843
  H     -0.953982   -0.691998   -1.471150
  H     -1.499365   -1.696211   -0.125693
  C      0.621813   -1.124010   -0.054713
  H      1.117044   -1.761595   -0.785297
  H      0.685092   -1.624224    0.912753
  C      1.261950    0.281386    0.036240
  H      1.912219    0.474057   -0.815613
  H      1.874818    0.370556    0.931965
  C      0.082904    1.280563    0.063112
  H     -0.034247    1.739534   -0.919174
  H      0.228498    2.082068    0.785510
  C     -1.150867    0.423468    0.358760
  H     -2.081856    0.899206    0.052847
  H     -1.216293    0.214147    1.429296

 Total Charge           Charge          ....    0
 Multiplicity           Mult            ....    1
 Number of Electrons    NEL             ....   40
 Basis Dimension        Dim             ....   95

ORBITAL ENERGIES
----------------

  NO   OCC          E(Eh)            E(eV)
   0   2.0000     -10.424508      -283.6653
   1   2.0000     -10.424455      -283.6638
   2   2.0000     -10.424391      -283.6621
   3   2.0000     -10.424160      -283.6558
   4   2.0000     -10.424124      -283.6548
   5   2.0000      -0.924798       -25.1650
   6   2.0000      -0.786294       -21.3961
   7   2.0000      -0.785737       -21.3810
   8   2.0000      -0.636488       -17.3197
   9   2.0000      -0.626828       -17.0569
  10   2.0000      -0.539154       -14.6711
  11   2.0000      -0.535337       -14.5673
  12   2.0000      -0.467280       -12.7153
  13   2.0000      -0.465946       -12.6790
  14   2.0000      -0.384394       -10.4599
  15   2.0000      -0.383420       -10.4334
  16   2.0000      -0.379238       -10.3196
  17   2.0000      -0.374914       -10.2019
  18   2.0000      -0.369639       -10.0584
  19   2.0000      -0.358840        -9.7645
  20   0.0000       0.131519         3.5788
  21   0.0000       0.146872         3.9966
  22   0.0000       0.191387         5.2079
  23   0.0000       0.192444         5.2367
  24   0.0000       0.220840         6.0094

MULLIKEN ATOMIC CHARGES
-----------------------
   0 C :   -0.428523
   1 H :    0.207629
   2 H :    0.220114
   3 C :   -0.435408
   4 H :    0.220523
   5 H :    0.213223
   6 C :   -0.430241
   7 H :    0.217969
   8 H :    0.217855
   9 C :   -0.435204
  10 H :    0.212510
  11 H :    0.220828
  12 C :   -0.428505
  13 H :    0.219943
  14 H :    0.207286
Sum of atomic charges:   -0.0000000

LOEWDIN ATOMIC CHARGES
----------------------
   0 C :   -0.244260
   1 H :    0.120299
   2 H :    0.123597
   3 C :   -0.245819
   4 H :    0.124033
   5 H :    0.122003
   6 C :   -0.247694
   7 H :    0.124233
   8 H :    0.124176
   9 C :   -0.245637
  10 H :    0.121819
  11 H :    0.124061
  12 C :   -0.244344
  13 H :    0.123437
  14 H :    0.120098

  Mayer bond orders larger than 0.100000
B(  0-C ,  1-H ) :   0.9222 B(  0-C ,  2-H ) :   0.9297 B(  0-C ,  3-C ) :   0.9814
B(  0-C , 12-C ) :   0.9785 B(  3-C ,  4-H ) :   0.9327 B(  3-C ,  5-H ) :   0.9281
B(  3-C ,  6-C ) :   0.9655 B(  6-C ,  7-H ) :   0.9335 B(  6-C ,  8-H ) :   0.9333
B(  6-C ,  9-C ) :   0.9672 B(  9-C , 10-H ) :   0.9275 B(  9-C , 11-H ) :   0.9323
B(  9-C , 12-C ) :   0.9816 B( 12-C , 13-H ) :   0.9295 B( 12-C , 14-H ) :   0.9221

Dispersion correction           -0.006588527
FINAL SINGLE POINT ENERGY      -196.125723609215

DIPOLE MOMENT
-------------
                                X             Y             Z
Electronic contribution:     -0.07764      -0.01366       0.00969
Nuclear contribution   :      0.07695       0.01335      -0.01098
                        -----------------------------------------
Total Dipole Moment    :     -0.00069      -0.00031      -0.00129
                        -----------------------------------------
Magnitude (a.u.)       :      0.00150
Magnitude (Debye)      :      0.00380

Rotational constants in cm-1:     0.218643     0.218503     0.126864
Rotational constants in MHz :  6554.753627  6550.569948  3803.280327

                             ****ORCA TERMINATED NORMALLY****
TOTAL RUN TIME: 0 days 0 hours 1 minutes 1 seconds 686 msec
