                         Program Version 5.0.3 -  RELEASE  -
|  1> ! PBEh-3c def2/J TightSCF DefGrid3
|  2>
|  3> %maxcore 60000
|  4>
|  5> %pal
|  6> nprocs 4
|  7> end
|  8>
|  9> *xyzfile 0 1 B50.xyz
| 10>
| 11>                          ****END OF INPUT****

CARTESIAN COORDINATES (ANGSTROEM)
---------------------------------
  C      1.731682    0.018442    0.557368
  H      1.270014   -0.417004    1.449088
  O      2.101085   -1.001545   -0.366542
  C      0.824989    1.080884   -0.057744
  H      0.635621    1.848810    0.698398
  H      1.366768    1.561274   -0.873882
  C     -0.506266    0.547316   -0.592551
  H     -0.333555   -0.191940   -1.377788
  H     -1.062734    1.360855   -1.059784
  H      1.304245   -1.481751   -0.605609
  H      2.668303    0.476586    0.870694
  C     -1.392158   -0.067428    0.476825
  H     -0.912449   -0.944234    0.923354
  H     -1.564139    0.661246    1.276604
  O     -2.618709   -0.437161   -0.148798
  H     -3.180561   -0.839477    0.518258

 Total Charge           Charge          ....    0
 Multiplicity           Mult            ....    1
 Number of Electrons    NEL             ....   50
 Basis Dimension        Dim             ....  110

ORBITAL ENERGIES
----------------

  NO   OCC          E(Eh)            E(eV)
   0   2.0000     -19.488991      -530.3224
   1   2.0000     -19.484024      -530.1872
   2   2.0000     -10.487185      -285.3708
   3   2.0000     -10.480662      -285.1933
   4   2.0000     -10.436556      -283.9931
   5   2.0000     -10.436322      -283.9867
   6   2.0000      -1.125734       -30.6328
   7   2.0000      -1.120474       -30.4896
   8   2.0000      -0.886421       -24.1207
   9   2.0000      -0.798187       -21.7198
  10   2.0000      -0.718943       -19.5634
  11   2.0000      -0.648972       -17.6594
  12   2.0000      -0.582718       -15.8566
  13   2.0000      -0.567845       -15.4518
  14   2.0000      -0.545954       -14.8562
  15   2.0000      -0.498144       -13.5552
  16   2.0000      -0.489662       -13.3244
  17   2.0000      -0.477692       -12.9986
  18   2.0000      -0.425307       -11.5732
  19   2.0000      -0.418621       -11.3912
  20   2.0000      -0.399591       -10.8734
  21   2.0000      -0.384417       -10.4605
  22   2.0000      -0.370585       -10.0841
  23   2.0000      -0.330672        -8.9980
  24   2.0000      -0.322659        -8.7800
  25   0.0000       0.103451         2.8151
  26   0.0000       0.123362         3.3569
  27   0.0000       0.163406         4.4465
  28   0.0000       0.173399         4.7184
  29   0.0000       0.192644         5.2421

MULLIKEN ATOMIC CHARGES
-----------------------
   0 C :   -0.162681
   1 H :    0.175728
   2 O :   -0.625017
   3 C :   -0.457216
   4 H :    0.203979
   5 H :    0.237155
   6 C :   -0.471738
   7 H :    0.214756
   8 H :    0.245057
   9 H :    0.415133
  10 H :    0.221481
  11 C :   -0.134606
  12 H :    0.170263
  13 H :    0.179242
  14 O :   -0.627608
  15 H :    0.416072
Sum of atomic charges:   -0.0000000

LOEWDIN ATOMIC CHARGES
----------------------
   0 C :   -0.096397
   1 H :    0.093912
   2 O :   -0.412495
   3 C :   -0.265665
   4 H :    0.124642
   5 H :    0.134658
   6 C :   -0.259629
   7 H :    0.123965
   8 H :    0.138702
   9 H :    0.305641
  10 H :    0.122455
  11 C :   -0.092923
  12 H :    0.092206
  13 H :    0.097864
  14 O :   -0.415619
  15 H :    0.308682

  Mayer bond orders larger than 0.100000
B(  0-C ,  1-H ) :   0.9110 B(  0-C ,  2-O ) :   1.0213 B(  0-C ,  3-C ) :   0.9600
B(  0-C , 10-H ) :   0.9176 B(  2-O ,  9-H ) :   0.7878 B(  3-C ,  4-H ) :   0.9100
B(  3-C ,  5-H ) :   0.9150 B(  3-C ,  6-C ) :   0.9723 B(  6-C ,  7-H ) :   0.9094
B(  6-C ,  8-H ) :   0.9126 B(  6-C , 11-C ) :   0.9816 B( 11-C , 12-H ) :   0.9058
B( 11-C , 13-H ) :   0.9044 B( 11-C , 14-O ) :   1.0204 B( 14-O , 15-H ) :   0.7932

Dispersion correction           -0.006723807
FINAL SINGLE POINT ENERGY      -308.205443799924

DIPOLE MOMENT
-------------
                                X             Y             Z
Electronic contribution:     -0.73943      -2.02779      -1.11840
Nuclear contribution   :      0.19105       2.09610       1.88721
                        -----------------------------------------
Total Dipole Moment    :     -0.54839       0.06831       0.76881
                        -----------------------------------------
Magnitude (a.u.)       :      0.94682
Magnitude (Debye)      :      2.40662

Rotational constants in cm-1:     0.231888     0.055824     0.051440
Rotational constants in MHz :  6951.838307  1673.551718  1542.137176

                             ****ORCA TERMINATED NORMALLY****
TOTAL RUN TIME: 0 days 0 hours 1 minutes 36 seconds 443 msec
