                         Program Version 5.0.3 -  RELEASE  -
|  1> ! PBEh-3c def2/J TightSCF DefGrid3
|  2>
|  3> %maxcore 60000
|  4>
|  5> %pal
|  6> nprocs 4
|  7> end
|  8>
|  9> *xyzfile 0 1 h2o_3.xyz
| 10>
| 11>                          ****END OF INPUT****

CARTESIAN COORDINATES (ANGSTROEM)
---------------------------------
  O      1.452268   -0.709273   -0.085209
  H      0.563883   -1.109426   -0.043402
  O     -1.348866   -0.891503   -0.094039
  H     -1.220857    0.073636   -0.023719
  O     -0.102608    1.607130    0.110508
  H     -0.006681    2.240437   -0.606048
  H      1.979703   -1.145727    0.588961
  H     -1.996402   -1.127971    0.575189
  H      0.674002    1.018221    0.058931

 Total Charge           Charge          ....    0
 Multiplicity           Mult            ....    1
 Number of Electrons    NEL             ....   30
 Basis Dimension        Dim             ....   57

ORBITAL ENERGIES
----------------

  NO   OCC          E(Eh)            E(eV)
   0   2.0000     -19.477991      -530.0231
   1   2.0000     -19.476407      -529.9800
   2   2.0000     -19.474742      -529.9347
   3   2.0000      -1.111750       -30.2523
   4   2.0000      -1.095111       -29.7995
   5   2.0000      -1.093175       -29.7468
   6   2.0000      -0.605072       -16.4648
   7   2.0000      -0.575804       -15.6684
   8   2.0000      -0.573682       -15.6107
   9   2.0000      -0.452579       -12.3153
  10   2.0000      -0.447430       -12.1752
  11   2.0000      -0.418346       -11.3838
  12   2.0000      -0.368077       -10.0159
  13   2.0000      -0.358998        -9.7688
  14   2.0000      -0.355211        -9.6658
  15   0.0000       0.118267         3.2182
  16   0.0000       0.163323         4.4442
  17   0.0000       0.164510         4.4766
  18   0.0000       0.272078         7.4036
  19   0.0000       0.284797         7.7497

MULLIKEN ATOMIC CHARGES
-----------------------
   0 O :   -0.858153
   1 H :    0.443970
   2 O :   -0.861160
   3 H :    0.442139
   4 O :   -0.860722
   5 H :    0.418136
   6 H :    0.416603
   7 H :    0.415227
   8 H :    0.443961
Sum of atomic charges:   -0.0000000

LOEWDIN ATOMIC CHARGES
----------------------
   0 O :   -0.604215
   1 H :    0.303759
   2 O :   -0.608590
   3 H :    0.301500
   4 O :   -0.606431
   5 H :    0.305051
   6 H :    0.303731
   7 H :    0.302883
   8 H :    0.302311

  Mayer bond orders larger than 0.100000
B(  0-O ,  1-H ) :   0.7111 B(  0-O ,  6-H ) :   0.8070 B(  0-O ,  8-H ) :   0.1124
B(  1-H ,  2-O ) :   0.1074 B(  2-O ,  3-H ) :   0.7080 B(  2-O ,  7-H ) :   0.8085
B(  3-H ,  4-O ) :   0.1143 B(  4-O ,  5-H ) :   0.8064 B(  4-O ,  8-H ) :   0.7079

Dispersion correction           -0.001924128
FINAL SINGLE POINT ENERGY      -228.802973057146

DIPOLE MOMENT
-------------
                                X             Y             Z
Electronic contribution:      0.01687       0.00987      -0.07017
Nuclear contribution   :     -0.00661      -0.05289       0.57216
                        -----------------------------------------
Total Dipole Moment    :      0.01026      -0.04302       0.50199
                        -----------------------------------------
Magnitude (a.u.)       :      0.50394
Magnitude (Debye)      :      1.28090

Rotational constants in cm-1:     0.229206     0.225710     0.115935
Rotational constants in MHz :  6871.428278  6766.614402  3475.635565

                             ****ORCA TERMINATED NORMALLY****
TOTAL RUN TIME: 0 days 0 hours 0 minutes 56 seconds 138 msec
