                         Program Version 5.0.3 -  RELEASE  -
|  1> ! PBEh-3c def2/J TightSCF DefGrid3
|  2>
|  3> %maxcore 60000
|  4>
|  5> %pal
|  6> nprocs 4
|  7> end
|  8>
|  9> *xyzfile 0 1 hf_2.xyz
| 10>
| 11>                          ****END OF INPUT****

CARTESIAN COORDINATES (ANGSTROEM)
---------------------------------
  H      0.147515    0.503025    0.000000
  F      0.037922   -1.303125    0.000000
  F      0.037922    1.428195    0.000000
  H     -0.830110   -1.628660    0.000000

 Total Charge           Charge          ....    0
 Multiplicity           Mult            ....    1
 Number of Electrons    NEL             ....   20
 Basis Dimension        Dim             ....   34

ORBITAL ENERGIES
----------------

  NO   OCC          E(Eh)            E(eV)
   0   2.0000     -25.120841      -683.5728
   1   2.0000     -25.035131      -681.2405
   2   2.0000      -1.353387       -36.8275
   3   2.0000      -1.269182       -34.5362
   4   2.0000      -0.654298       -17.8044
   5   2.0000      -0.577749       -15.7214
   6   2.0000      -0.516148       -14.0451
   7   2.0000      -0.510193       -13.8830
   8   2.0000      -0.436766       -11.8850
   9   2.0000      -0.436540       -11.8789
  10   0.0000       0.085087         2.3153
  11   0.0000       0.221258         6.0207
  12   0.0000       0.794307        21.6142
  13   0.0000       0.836210        22.7544
  14   0.0000       1.093699        29.7611

MULLIKEN ATOMIC CHARGES
-----------------------
   0 H :    0.504861
   1 F :   -0.491082
   2 F :   -0.546123
   3 H :    0.532343
Sum of atomic charges:   -0.0000000

LOEWDIN ATOMIC CHARGES
----------------------
   0 H :    0.357950
   1 F :   -0.352237
   2 F :   -0.407237
   3 H :    0.401524

  Mayer bond orders larger than 0.100000
B(  0-H ,  2-F ) :   0.6791 B(  1-F ,  3-H ) :   0.7048

Dispersion correction           -0.000359803
FINAL SINGLE POINT ENERGY      -200.491405943556

DIPOLE MOMENT
-------------
                                X             Y             Z
Electronic contribution:      0.08868      -0.02390       0.00000
Nuclear contribution   :     -0.71110      -1.17265       0.00000
                        -----------------------------------------
Total Dipole Moment    :     -0.62242      -1.19654       0.00000
                        -----------------------------------------
Magnitude (a.u.)       :      1.34875
Magnitude (Debye)      :      3.42825

Rotational constants in cm-1:    23.217298     0.228011     0.225794
Rotational constants in MHz : 696037.094424  6835.607068  6769.129136

                             ****ORCA TERMINATED NORMALLY****
TOTAL RUN TIME: 0 days 0 hours 0 minutes 47 seconds 480 msec
