                         Program Version 5.0.3 -  RELEASE  -
|  1> ! PBEh-3c def2/J TightSCF DefGrid3
|  2>
|  3> %maxcore 60000
|  4>
|  5> %pal
|  6> nprocs 4
|  7> end
|  8>
|  9> *xyzfile 0 1 sn2me6.xyz
| 10>
| 11>                          ****END OF INPUT****

CARTESIAN COORDINATES (ANGSTROEM)
---------------------------------
  Sn     0.000000   -0.000000   -1.385562
  Sn     0.000000    0.000000    1.385562
  C      1.768388   -1.020979   -2.172483
  C     -0.000000    2.041959   -2.172483
  C     -1.768388   -1.020979   -2.172483
  C      1.768388    1.020979    2.172483
  C     -0.000000   -2.041959    2.172483
  C     -1.768388    1.020979    2.172483
  H      1.768225   -1.020885   -3.264391
  H      2.688927   -0.535748   -1.842918
  H      1.808435   -2.060805   -1.842918
  H     -0.000000   -2.041770    3.264391
  H     -0.880492   -2.596553    1.842918
  H      0.880492   -2.596553    1.842918
  H     -1.768225    1.020885    3.264391
  H     -1.808435    2.060805    1.842918
  H     -2.688927    0.535748    1.842918
  H     -1.808435   -2.060805   -1.842918
  H     -2.688927   -0.535748   -1.842918
  H     -1.768225   -1.020885   -3.264391
  H      1.768225    1.020885    3.264391
  H      2.688927    0.535748    1.842918
  H      1.808435    2.060805    1.842918
  H     -0.880492    2.596553   -1.842918
  H      0.880492    2.596553   -1.842918
  H     -0.000000    2.041770   -3.264391

 Total Charge           Charge          ....    0
 Multiplicity           Mult            ....    1
 Number of Electrons    NEL             ....   98
 Basis Dimension        Dim             ....  178

ORBITAL ENERGIES
----------------

  NO   OCC          E(Eh)            E(eV)
   0   2.0000     -10.421327      -283.5787
   1   2.0000     -10.421324      -283.5786
   2   2.0000     -10.421317      -283.5785
   3   2.0000     -10.421317      -283.5784
   4   2.0000     -10.421315      -283.5784
   5   2.0000     -10.421313      -283.5783
   6   2.0000      -5.287211      -143.8723
   7   2.0000      -5.287167      -143.8711
   8   2.0000      -3.587563       -97.6225
   9   2.0000      -3.587434       -97.6191
  10   2.0000      -3.587434       -97.6190
  11   2.0000      -3.587353       -97.6168
  12   2.0000      -3.587353       -97.6168
  13   2.0000      -3.586909       -97.6047
  14   2.0000      -1.093369       -29.7521
  15   2.0000      -1.089778       -29.6544
  16   2.0000      -1.089778       -29.6544
  17   2.0000      -1.087966       -29.6050
  18   2.0000      -1.087962       -29.6049
  19   2.0000      -1.085041       -29.5255
  20   2.0000      -1.085039       -29.5254
  21   2.0000      -1.081896       -29.4399
  22   2.0000      -1.081895       -29.4399
  23   2.0000      -1.079122       -29.3644
  24   2.0000      -0.768906       -20.9230
  25   2.0000      -0.764818       -20.8118
  26   2.0000      -0.747165       -20.3314
  27   2.0000      -0.747163       -20.3313
  28   2.0000      -0.746219       -20.3056
  29   2.0000      -0.746216       -20.3056
  30   2.0000      -0.527223       -14.3465
  31   2.0000      -0.471103       -12.8194
  32   2.0000      -0.454034       -12.3549
  33   2.0000      -0.447643       -12.1810
  34   2.0000      -0.447642       -12.1810
  35   2.0000      -0.447089       -12.1659
  36   2.0000      -0.447087       -12.1659
  37   2.0000      -0.443827       -12.0771
  38   2.0000      -0.439979       -11.9724
  39   2.0000      -0.439977       -11.9724
  40   2.0000      -0.438319       -11.9273
  41   2.0000      -0.438319       -11.9273
  42   2.0000      -0.436361       -11.8740
  43   2.0000      -0.435071       -11.8389
  44   2.0000      -0.322050        -8.7634
  45   2.0000      -0.322049        -8.7634
  46   2.0000      -0.308186        -8.3862
  47   2.0000      -0.308186        -8.3862
  48   2.0000      -0.268773        -7.3137
  49   0.0000       0.038298         1.0421
  50   0.0000       0.038305         1.0423
  51   0.0000       0.050770         1.3815
  52   0.0000       0.087876         2.3912
  53   0.0000       0.092615         2.5202

MULLIKEN ATOMIC CHARGES
-----------------------
   0 Sn:    0.774019
   1 Sn:    0.774019
   2 C :   -0.950870
   3 C :   -0.950911
   4 C :   -0.950870
   5 C :   -0.950870
   6 C :   -0.950911
   7 C :   -0.950870
   8 H :    0.233665
   9 H :    0.229584
  10 H :    0.229592
  11 H :    0.233698
  12 H :    0.229625
  13 H :    0.229625
  14 H :    0.233665
  15 H :    0.229592
  16 H :    0.229584
  17 H :    0.229592
  18 H :    0.229584
  19 H :    0.233665
  20 H :    0.233665
  21 H :    0.229584
  22 H :    0.229592
  23 H :    0.229625
  24 H :    0.229625
  25 H :    0.233698
Sum of atomic charges:    0.0000000

LOEWDIN ATOMIC CHARGES
----------------------
   0 Sn:    0.458399
   1 Sn:    0.458399
   2 C :   -0.575113
   3 C :   -0.575127
   4 C :   -0.575113
   5 C :   -0.575113
   6 C :   -0.575127
   7 C :   -0.575113
   8 H :    0.141103
   9 H :    0.140602
  10 H :    0.140604
  11 H :    0.141109
  12 H :    0.140614
  13 H :    0.140614
  14 H :    0.141103
  15 H :    0.140604
  16 H :    0.140602
  17 H :    0.140604
  18 H :    0.140602
  19 H :    0.141103
  20 H :    0.141103
  21 H :    0.140602
  22 H :    0.140604
  23 H :    0.140614
  24 H :    0.140614
  25 H :    0.141109

  Mayer bond orders larger than 0.100000
B(  0-Sn,  1-Sn) :   0.9178 B(  0-Sn,  2-C ) :   0.8883 B(  0-Sn,  3-C ) :   0.8884
B(  0-Sn,  4-C ) :   0.8883 B(  1-Sn,  5-C ) :   0.8883 B(  1-Sn,  6-C ) :   0.8884
B(  1-Sn,  7-C ) :   0.8883 B(  2-C ,  8-H ) :   0.9121 B(  2-C ,  9-H ) :   0.9170
B(  2-C , 10-H ) :   0.9170 B(  3-C , 23-H ) :   0.9170 B(  3-C , 24-H ) :   0.9170
B(  3-C , 25-H ) :   0.9120 B(  4-C , 17-H ) :   0.9170 B(  4-C , 18-H ) :   0.9170
B(  4-C , 19-H ) :   0.9121 B(  5-C , 20-H ) :   0.9121 B(  5-C , 21-H ) :   0.9170
B(  5-C , 22-H ) :   0.9170 B(  6-C , 11-H ) :   0.9120 B(  6-C , 12-H ) :   0.9170
B(  6-C , 13-H ) :   0.9170 B(  7-C , 14-H ) :   0.9121 B(  7-C , 15-H ) :   0.9170
B(  7-C , 16-H ) :   0.9170

Dispersion correction           -0.011929804
FINAL SINGLE POINT ENERGY      -667.621690362970

DIPOLE MOMENT
-------------
                                X             Y             Z
Electronic contribution:     -0.00000      -0.00000      -0.00000
Nuclear contribution   :      0.00000       0.00000      -0.00000
                        -----------------------------------------
Total Dipole Moment    :     -0.00000      -0.00000      -0.00000
                        -----------------------------------------
Magnitude (a.u.)       :      0.00000
Magnitude (Debye)      :      0.00000

Rotational constants in cm-1:     0.040462     0.015191     0.015191
Rotational constants in MHz :  1213.020077   455.423205   455.423204

                             ****ORCA TERMINATED NORMALLY****
TOTAL RUN TIME: 0 days 0 hours 2 minutes 39 seconds 13 msec
