                         Program Version 5.0.3 -  RELEASE  -
|  1> ! PBEh-3c def2/J TightSCF DefGrid3
|  2>
|  3> %maxcore 60000
|  4>
|  5> %pal
|  6> nprocs 4
|  7> end
|  8>
|  9> *xyzfile 0 2 hn2ts.xyz
| 10>
| 11>                          ****END OF INPUT****

CARTESIAN COORDINATES (ANGSTROEM)
---------------------------------
  N      0.422816   -0.969048    0.000000
  N      0.422816    0.153763    0.000000
  H     -0.845633    0.815285    0.000000

 Total Charge           Charge          ....    0
 Multiplicity           Mult            ....    2
 Number of Electrons    NEL             ....   15
 Basis Dimension        Dim             ....   32

ORBITAL ENERGIES
----------------
                 SPIN UP ORBITALS
  NO   OCC          E(Eh)            E(eV)
   0   1.0000     -14.749605      -401.3572
   1   1.0000     -14.732020      -400.8786
   2   1.0000      -1.220946       -33.2236
   3   1.0000      -0.674130       -18.3440
   4   1.0000      -0.556920       -15.1546
   5   1.0000      -0.509146       -13.8546
   6   1.0000      -0.500874       -13.6295
   7   1.0000      -0.279694        -7.6109
   8   0.0000       0.009723         0.2646
   9   0.0000       0.045514         1.2385
  10   0.0000       0.437602        11.9078
  11   0.0000       0.662106        18.0168
  12   0.0000       0.697000        18.9663

                 SPIN DOWN ORBITALS
  NO   OCC          E(Eh)            E(eV)
   0   1.0000     -14.749374      -401.3509
   1   1.0000     -14.720950      -400.5774
   2   1.0000      -1.210067       -32.9276
   3   1.0000      -0.642289       -17.4776
   4   1.0000      -0.515532       -14.0283
   5   1.0000      -0.503642       -13.7048
   6   1.0000      -0.475456       -12.9378
   7   0.0000      -0.046856        -1.2750
   8   0.0000       0.018556         0.5049
   9   0.0000       0.097531         2.6540
  10   0.0000       0.445639        12.1265
  11   0.0000       0.668814        18.1994

MULLIKEN ATOMIC CHARGES AND SPIN POPULATIONS
--------------------------------------------
   0 N :    0.001339    0.446929
   1 N :   -0.110964   -0.098536
   2 H :    0.109625    0.651607
Sum of atomic charges         :   -0.0000000

LOEWDIN ATOMIC CHARGES AND SPIN POPULATIONS
-------------------------------------------
   0 N :   -0.021374    0.412457
   1 N :   -0.069589    0.011464
   2 H :    0.090963    0.576078

  Mayer bond orders larger than 0.100000
B(  0-N ,  1-N ) :   2.6413 B(  0-N ,  2-H ) :   0.1145 B(  1-N ,  2-H ) :   0.4088

Dispersion correction           -0.000518880
FINAL SINGLE POINT ENERGY      -109.761506110265

DIPOLE MOMENT
-------------
                                X             Y             Z
Electronic contribution:      0.93306      -0.91648       0.00000
Nuclear contribution   :     -1.14821       1.10700       0.00000
                        -----------------------------------------
Total Dipole Moment    :     -0.21515       0.19053       0.00000
                        -----------------------------------------
Magnitude (a.u.)       :      0.28738
Magnitude (Debye)      :      0.73047

Rotational constants in cm-1:    12.852513     1.599642     1.422585
Rotational constants in MHz : 385308.632170 47956.053757 42648.021123

                             ****ORCA TERMINATED NORMALLY****
TOTAL RUN TIME: 0 days 0 hours 0 minutes 39 seconds 362 msec
