                         Program Version 5.0.3 -  RELEASE  -
|  1> ! PBEh-3c def2/J TightSCF DefGrid3
|  2>
|  3> %maxcore 60000
|  4>
|  5> %pal
|  6> nprocs 4
|  7> end
|  8>
|  9> *xyzfile 0 2 26.xyz
| 10>
| 11>                          ****END OF INPUT****

CARTESIAN COORDINATES (ANGSTROEM)
---------------------------------
  O      2.692589    0.234705    0.046834
  Si     0.399709   -0.970415   -1.721038
  O     -0.211961    1.950746    1.411564
  H      0.567818    0.605446   -1.679930
  H      3.386843    0.126946    0.716720
  P      2.618463   -1.204699   -1.022300
  H     -1.963453    0.676965   -0.871810
  H     -2.996733   -0.491945   -0.060129
  H      0.191428   -0.889670    0.713641
  Al    -1.776173    1.288668    1.483264
  H     -2.872467    1.686643    2.559299
  Mg     0.808464    0.907450    0.282417
  C     -2.011491   -0.014754   -0.010362
  H      3.145482   -0.531660   -2.159547
  H     -1.132053   -2.251454    0.299291
  B     -0.846465   -1.122973    0.012088

 Total Charge           Charge          ....    0
 Multiplicity           Mult            ....    2
 Number of Electrons    NEL             ....   89
 Basis Dimension        Dim             ....  148

ORBITAL ENERGIES
----------------
                 SPIN UP ORBITALS
  NO   OCC          E(Eh)            E(eV)
   0   1.0000     -77.794607     -2116.8989
   1   1.0000     -66.756272     -1816.5305
   2   1.0000     -56.573610     -1539.4462
   3   1.0000     -47.374776     -1289.1332
   4   1.0000     -19.585768      -532.9558
   5   1.0000     -19.423446      -528.5388
   6   1.0000     -10.397669      -282.9350
   7   1.0000      -6.940672      -188.8653
   8   1.0000      -6.865362      -186.8160
   9   1.0000      -5.532277      -150.5409
  10   1.0000      -4.957547      -134.9017
  11   1.0000      -4.954410      -134.8164
  12   1.0000      -4.952996      -134.7779
  13   1.0000      -4.312719      -117.3550
  14   1.0000      -3.826110      -104.1138
  15   1.0000      -3.822030      -104.0027
  16   1.0000      -3.819341      -103.9296
  17   1.0000      -2.798305       -76.1458
  18   1.0000      -2.806258       -76.3622
  19   1.0000      -2.799480       -76.1777
  20   1.0000      -3.325327       -90.4868
  21   1.0000      -2.010073       -54.6969
  22   1.0000      -2.009731       -54.6876
  23   1.0000      -2.006949       -54.6118
  24   1.0000      -1.181617       -32.1534
  25   1.0000      -0.968344       -26.3500
  26   1.0000      -0.755290       -20.5525
  27   1.0000      -0.742766       -20.2117
  28   1.0000      -0.622092       -16.9280
  29   1.0000      -0.617688       -16.8081
  30   1.0000      -0.545148       -14.8342
  31   1.0000      -0.512883       -13.9563
  32   1.0000      -0.493483       -13.4284
  33   1.0000      -0.457459       -12.4481
  34   1.0000      -0.430320       -11.7096
  35   1.0000      -0.408966       -11.1285
  36   1.0000      -0.393532       -10.7086
  37   1.0000      -0.376723       -10.2512
  38   1.0000      -0.352702        -9.5975
  39   1.0000      -0.348323        -9.4783
  40   1.0000      -0.335539        -9.1305
  41   1.0000      -0.327180        -8.9030
  42   1.0000      -0.318918        -8.6782
  43   1.0000      -0.285638        -7.7726
  44   1.0000      -0.247235        -6.7276
  45   0.0000      -0.035986        -0.9792
  46   0.0000      -0.014588        -0.3970
  47   0.0000       0.016890         0.4596
  48   0.0000       0.022326         0.6075
  49   0.0000       0.041528         1.1300

                 SPIN DOWN ORBITALS
  NO   OCC          E(Eh)            E(eV)
   0   1.0000     -77.794580     -2116.8981
   1   1.0000     -66.753452     -1816.4538
   2   1.0000     -56.573524     -1539.4438
   3   1.0000     -47.374742     -1289.1323
   4   1.0000     -19.585461      -532.9475
   5   1.0000     -19.423239      -528.5332
   6   1.0000     -10.397168      -282.9213
   7   1.0000      -6.938445      -188.8047
   8   1.0000      -6.865330      -186.8151
   9   1.0000      -5.528922      -150.4496
  10   1.0000      -4.957472      -134.8997
  11   1.0000      -4.954475      -134.8181
  12   1.0000      -4.952828      -134.7733
  13   1.0000      -4.312588      -117.3515
  14   1.0000      -3.820112      -103.9505
  15   1.0000      -3.818448      -103.9053
  16   1.0000      -3.814290      -103.7921
  17   1.0000      -2.798132       -76.1410
  18   1.0000      -2.806215       -76.3610
  19   1.0000      -2.799277       -76.1722
  20   1.0000      -3.325284       -90.4856
  21   1.0000      -2.010105       -54.6978
  22   1.0000      -2.009539       -54.6823
  23   1.0000      -2.006837       -54.6088
  24   1.0000      -1.180868       -32.1331
  25   1.0000      -0.967793       -26.3350
  26   1.0000      -0.749982       -20.4080
  27   1.0000      -0.739918       -20.1342
  28   1.0000      -0.617953       -16.8154
  29   1.0000      -0.603308       -16.4169
  30   1.0000      -0.534645       -14.5484
  31   1.0000      -0.507699       -13.8152
  32   1.0000      -0.491016       -13.3612
  33   1.0000      -0.453609       -12.3433
  34   1.0000      -0.427919       -11.6443
  35   1.0000      -0.404644       -11.0109
  36   1.0000      -0.387667       -10.5490
  37   1.0000      -0.371703       -10.1145
  38   1.0000      -0.350359        -9.5338
  39   1.0000      -0.346299        -9.4233
  40   1.0000      -0.328895        -8.9497
  41   1.0000      -0.322911        -8.7869
  42   1.0000      -0.311253        -8.4696
  43   1.0000      -0.268764        -7.3134
  44   0.0000      -0.106728        -2.9042
  45   0.0000      -0.031330        -0.8525
  46   0.0000      -0.008814        -0.2399
  47   0.0000       0.020233         0.5506
  48   0.0000       0.027641         0.7522

MULLIKEN ATOMIC CHARGES AND SPIN POPULATIONS
--------------------------------------------
   0 O :   -0.802336    0.003456
   1 Si:    0.174448    0.702538
   2 O :   -0.811402    0.006363
   3 H :   -0.074663   -0.022032
   4 H :    0.489202    0.003044
   5 P :    0.151291    0.004377
   6 H :    0.233409    0.010996
   7 H :    0.249885   -0.002597
   8 H :   -0.011423    0.080769
   9 Al:    0.897010    0.002852
  10 H :   -0.111566    0.004165
  11 Mg:    0.553412    0.019467
  12 C :   -0.936998    0.021892
  13 H :    0.085672    0.003752
  14 H :    0.096245   -0.014836
  15 B :   -0.182186    0.175794
Sum of atomic charges         :   -0.0000000

LOEWDIN ATOMIC CHARGES AND SPIN POPULATIONS
-------------------------------------------
   0 O :   -0.374526    0.006909
   1 Si:    0.234260    0.674090
   2 O :   -0.363109    0.006672
   3 H :    0.055616   -0.008875
   4 H :    0.367000    0.002217
   5 P :    0.271640    0.016222
   6 H :    0.166100    0.009567
   7 H :    0.162829   -0.001438
   8 H :    0.096523    0.063533
   9 Al:    0.518159    0.012532
  10 H :   -0.084435    0.003249
  11 Mg:   -0.308916    0.029962
  12 C :   -0.521452    0.030152
  13 H :    0.039504    0.004527
  14 H :    0.038247   -0.006454
  15 B :   -0.297441    0.157135

  Mayer bond orders larger than 0.100000
B(  0-O ,  4-H ) :   0.7248 B(  0-O ,  5-P ) :   0.6809 B(  0-O , 11-Mg) :   0.3953
B(  1-Si,  3-H ) :   0.6636 B(  1-Si,  5-P ) :   0.9162 B(  1-Si, 11-Mg) :   0.2424
B(  1-Si, 15-B ) :   0.7278 B(  2-O ,  9-Al) :   1.0058 B(  2-O , 11-Mg) :   0.9459
B(  3-H , 11-Mg) :   0.2702 B(  5-P , 13-H ) :   0.9327 B(  6-H , 12-C ) :   0.8789
B(  7-H , 12-C ) :   0.9065 B(  8-H , 11-Mg) :   0.2464 B(  8-H , 15-B ) :   0.6585
B(  9-Al, 10-H ) :   0.9260 B(  9-Al, 12-C ) :   0.7818 B( 11-Mg, 15-B ) :   0.2179
B( 12-C , 15-B ) :   0.9281 B( 14-H , 15-B ) :   0.9782

Dispersion correction           -0.009777794
FINAL SINGLE POINT ENERGY     -1289.809500034545

DIPOLE MOMENT
-------------
                                X             Y             Z
Electronic contribution:      5.50624       0.77317      -0.03393
Nuclear contribution   :     -3.71295      -0.76950      -0.56993
                        -----------------------------------------
Total Dipole Moment    :      1.79328       0.00367      -0.60386
                        -----------------------------------------
Magnitude (a.u.)       :      1.89223
Magnitude (Debye)      :      4.80966

Rotational constants in cm-1:     0.065431     0.023217     0.018280
Rotational constants in MHz :  1961.565595   696.036463   548.014682

                             ****ORCA TERMINATED NORMALLY****
TOTAL RUN TIME: 0 days 0 hours 4 minutes 35 seconds 647 msec
