                         Program Version 5.0.3 -  RELEASE  -
|  1> ! PBEh-3c def2/J TightSCF DefGrid3
|  2>
|  3> %maxcore 60000
|  4>
|  5> %pal
|  6> nprocs 4
|  7> end
|  8>
|  9> *xyzfile 0 1 cis-135-Hexatriene.xyz
| 10>
| 11>                          ****END OF INPUT****

CARTESIAN COORDINATES (ANGSTROEM)
---------------------------------
  C     -0.291860   -2.894522    0.000000
  H      0.668360   -3.405964    0.000000
  H     -1.178021   -3.521832    0.000000
  C     -0.373799   -1.553914    0.000000
  H     -1.359534   -1.092276    0.000000
  C      0.784567   -0.677687    0.000000
  H      1.750287   -1.182403    0.000000
  C      0.784567    0.677687    0.000000
  H      1.750287    1.182403    0.000000
  C     -0.373799    1.553914    0.000000
  H     -1.359534    1.092276    0.000000
  C     -0.291860    2.894522    0.000000
  H      0.668360    3.405964    0.000000
  H     -1.178021    3.521832    0.000000

 Total Charge           Charge          ....    0
 Multiplicity           Mult            ....    1
 Number of Electrons    NEL             ....   44
 Basis Dimension        Dim             ....  106

ORBITAL ENERGIES
----------------

  NO   OCC          E(Eh)            E(eV)
   0   2.0000     -10.455264      -284.5022
   1   2.0000     -10.455245      -284.5017
   2   2.0000     -10.454599      -284.4841
   3   2.0000     -10.453843      -284.4635
   4   2.0000     -10.445300      -284.2311
   5   2.0000     -10.445288      -284.2307
   6   2.0000      -0.916456       -24.9380
   7   2.0000      -0.870902       -23.6984
   8   2.0000      -0.809402       -22.0250
   9   2.0000      -0.696686       -18.9578
  10   2.0000      -0.656924       -17.8758
  11   2.0000      -0.600352       -16.3364
  12   2.0000      -0.557456       -15.1692
  13   2.0000      -0.524162       -14.2632
  14   2.0000      -0.490550       -13.3485
  15   2.0000      -0.462192       -12.5769
  16   2.0000      -0.443017       -12.0551
  17   2.0000      -0.428356       -11.6562
  18   2.0000      -0.393916       -10.7190
  19   2.0000      -0.388750       -10.5784
  20   2.0000      -0.335826        -9.1383
  21   2.0000      -0.252389        -6.8679
  22   0.0000      -0.027841        -0.7576
  23   0.0000       0.053495         1.4557
  24   0.0000       0.140914         3.8345
  25   0.0000       0.144084         3.9207
  26   0.0000       0.166103         4.5199

MULLIKEN ATOMIC CHARGES
-----------------------
   0 C :   -0.490805
   1 H :    0.217577
   2 H :    0.223445
   3 C :   -0.161195
   4 H :    0.216113
   5 C :   -0.220493
   6 H :    0.215358
   7 C :   -0.220493
   8 H :    0.215358
   9 C :   -0.161195
  10 H :    0.216113
  11 C :   -0.490804
  12 H :    0.217577
  13 H :    0.223444
Sum of atomic charges:   -0.0000000

LOEWDIN ATOMIC CHARGES
----------------------
   0 C :   -0.254693
   1 H :    0.131601
   2 H :    0.135366
   3 C :   -0.142022
   4 H :    0.131815
   5 C :   -0.139095
   6 H :    0.137029
   7 C :   -0.139095
   8 H :    0.137028
   9 C :   -0.142022
  10 H :    0.131815
  11 C :   -0.254693
  12 H :    0.131601
  13 H :    0.135366

  Mayer bond orders larger than 0.100000
B(  0-C ,  1-H ) :   0.9296 B(  0-C ,  2-H ) :   0.9283 B(  0-C ,  3-C ) :   1.8235
B(  0-C ,  7-C ) :   0.1065 B(  3-C ,  4-H ) :   0.9157 B(  3-C ,  5-C ) :   1.1104
B(  5-C ,  6-H ) :   0.9199 B(  5-C ,  7-C ) :   1.7316 B(  5-C , 11-C ) :   0.1065
B(  7-C ,  8-H ) :   0.9199 B(  7-C ,  9-C ) :   1.1104 B(  9-C , 10-H ) :   0.9157
B(  9-C , 11-C ) :   1.8235 B( 11-C , 12-H ) :   0.9296 B( 11-C , 13-H ) :   0.9283

Dispersion correction           -0.006045469
FINAL SINGLE POINT ENERGY      -232.861834948346

DIPOLE MOMENT
-------------
                                X             Y             Z
Electronic contribution:      0.45288      -0.00000       0.00000
Nuclear contribution   :     -0.46821      -0.00000       0.00000
                        -----------------------------------------
Total Dipole Moment    :     -0.01533      -0.00000       0.00000
                        -----------------------------------------
Magnitude (a.u.)       :      0.01533
Magnitude (Debye)      :      0.03896

Rotational constants in cm-1:     0.500162     0.052043     0.047138
Rotational constants in MHz : 14994.471708  1560.221882  1413.176435

                             ****ORCA TERMINATED NORMALLY****
TOTAL RUN TIME: 0 days 0 hours 1 minutes 37 seconds 505 msec
