                         Program Version 5.0.3 -  RELEASE  -
|  1> ! PBEh-3c def2/J TightSCF DefGrid3
|  2>
|  3> %maxcore 60000
|  4>
|  5> %pal
|  6> nprocs 4
|  7> end
|  8>
|  9> *xyzfile 1 4 o+.xyz
| 10>
| 11>                          ****END OF INPUT****

CARTESIAN COORDINATES (ANGSTROEM)
---------------------------------
  O      0.000000    0.000000    0.000000

 Total Charge           Charge          ....    1
 Multiplicity           Mult            ....    4
 Number of Electrons    NEL             ....    7
 Basis Dimension        Dim             ....   15

ORBITAL ENERGIES
----------------
                 SPIN UP ORBITALS
  NO   OCC          E(Eh)            E(eV)
   0   1.0000     -20.343510      -553.5751
   1   1.0000      -1.766462       -48.0679
   2   1.0000      -1.136225       -30.9183
   3   1.0000      -1.136225       -30.9183
   4   1.0000      -1.136225       -30.9183
   5   0.0000       0.403473        10.9791
   6   0.0000       0.403473        10.9791
   7   0.0000       0.403473        10.9791
   8   0.0000       0.755601        20.5610
   9   0.0000       1.204889        32.7867

                 SPIN DOWN ORBITALS
  NO   OCC          E(Eh)            E(eV)
   0   1.0000     -20.245350      -550.9040
   1   1.0000      -1.438993       -39.1570
   2   0.0000      -0.621244       -16.9049
   3   0.0000      -0.621244       -16.9049
   4   0.0000      -0.621244       -16.9049
   5   0.0000       0.551480        15.0065
   6   0.0000       0.551480        15.0065

MULLIKEN ATOMIC CHARGES AND SPIN POPULATIONS
--------------------------------------------
   0 O :    1.000000    3.000000
Sum of atomic charges         :    1.0000000

LOEWDIN ATOMIC CHARGES AND SPIN POPULATIONS
-------------------------------------------
   0 O :    1.000000    3.000000

Dispersion correction            0.000000000
FINAL SINGLE POINT ENERGY       -74.413787208320

DIPOLE MOMENT
-------------
                                X             Y             Z
Electronic contribution:      0.00000       0.00000       0.00000
Nuclear contribution   :      0.00000       0.00000       0.00000
                        -----------------------------------------
Total Dipole Moment    :      0.00000       0.00000       0.00000
                        -----------------------------------------
Magnitude (a.u.)       :      0.00000
Magnitude (Debye)      :      0.00000

Rotational constants in cm-1:     0.000000     0.000000     0.000000
Rotational constants in MHz :     0.000000     0.000000     0.000000

                             ****ORCA TERMINATED NORMALLY****
TOTAL RUN TIME: 0 days 0 hours 0 minutes 4 seconds 544 msec
