                         Program Version 5.0.3 -  RELEASE  -
|  1> ! PBEh-3c def2/J TightSCF DefGrid3
|  2>
|  3> %maxcore 60000
|  4>
|  5> %pal
|  6> nprocs 4
|  7> end
|  8>
|  9> *xyzfile -1 1 EA_10.xyz
| 10>
| 11>                          ****END OF INPUT****

CARTESIAN COORDINATES (ANGSTROEM)
---------------------------------
  C      0.000000    0.000000   -0.343816
  H      0.506980   -0.878116    0.114605
  H      0.506980    0.878116    0.114605
  H     -1.013961    0.000000    0.114605

 Total Charge           Charge          ....   -1
 Multiplicity           Mult            ....    1
 Number of Electrons    NEL             ....   10
 Basis Dimension        Dim             ....   21

ORBITAL ENERGIES
----------------

  NO   OCC          E(Eh)            E(eV)
   0   2.0000     -10.081529      -274.3324
   1   2.0000      -0.413155       -11.2425
   2   2.0000      -0.111531        -3.0349
   3   2.0000      -0.111530        -3.0349
   4   2.0000       0.090176         2.4538
   5   0.0000       0.433963        11.8087
   6   0.0000       0.497230        13.5303
   7   0.0000       0.497230        13.5303
   8   0.0000       0.818202        22.2644
   9   0.0000       0.818207        22.2645

MULLIKEN ATOMIC CHARGES
-----------------------
   0 C :   -1.057033
   1 H :    0.019012
   2 H :    0.019012
   3 H :    0.019009
Sum of atomic charges:   -1.0000000

LOEWDIN ATOMIC CHARGES
----------------------
   0 C :   -1.059600
   1 H :    0.019867
   2 H :    0.019867
   3 H :    0.019866

  Mayer bond orders larger than 0.100000
B(  0-C ,  1-H ) :   0.9795 B(  0-C ,  2-H ) :   0.9795 B(  0-C ,  3-H ) :   0.9795

Dispersion correction           -0.000483944
FINAL SINGLE POINT ENERGY       -39.708558868433

DIPOLE MOMENT
-------------
                                X             Y             Z
Electronic contribution:     -0.00003      -0.00000      -0.30293
Nuclear contribution   :      0.00000       0.00000       1.03073
                        -----------------------------------------
Total Dipole Moment    :     -0.00003      -0.00000       0.72781
                        -----------------------------------------
Magnitude (a.u.)       :      0.72781
Magnitude (Debye)      :      1.84994

Rotational constants in cm-1:     8.174635     8.174634     5.422167
Rotational constants in MHz : 245069.379362 245069.353291 162552.490217

                             ****ORCA TERMINATED NORMALLY****
TOTAL RUN TIME: 0 days 0 hours 1 minutes 4 seconds 263 msec
