                         Program Version 5.0.3 -  RELEASE  -
|  1> ! PBEh-3c def2/J TightSCF DefGrid3
|  2>
|  3> %maxcore 60000
|  4>
|  5> %pal
|  6> nprocs 4
|  7> end
|  8>
|  9> *xyzfile 2 1 h2s_2+.xyz
| 10>
| 11>                          ****END OF INPUT****

CARTESIAN COORDINATES (ANGSTROEM)
---------------------------------
  S      0.000000    0.000000   -0.647838
  H      1.056597    0.000000    0.323919
  H     -1.056597    0.000000    0.323919

 Total Charge           Charge          ....    2
 Multiplicity           Mult            ....    1
 Number of Electrons    NEL             ....   16
 Basis Dimension        Dim             ....   22

ORBITAL ENERGIES
----------------

  NO   OCC          E(Eh)            E(eV)
   0   2.0000     -90.452383     -2461.3345
   1   2.0000      -9.078233      -247.0313
   2   2.0000      -6.978164      -189.8855
   3   2.0000      -6.958978      -189.3634
   4   2.0000      -6.956138      -189.2861
   5   2.0000      -1.535029       -41.7703
   6   2.0000      -1.166332       -31.7375
   7   2.0000      -1.099744       -29.9255
   8   0.0000      -0.878208       -23.8973
   9   0.0000      -0.575888       -15.6707
  10   0.0000      -0.533681       -14.5222
  11   0.0000      -0.186600        -5.0777
  12   0.0000      -0.049330        -1.3423

MULLIKEN ATOMIC CHARGES
-----------------------
   0 S :    1.013392
   1 H :    0.493304
   2 H :    0.493304
Sum of atomic charges:    2.0000000

LOEWDIN ATOMIC CHARGES
----------------------
   0 S :    1.310404
   1 H :    0.344798
   2 H :    0.344798

  Mayer bond orders larger than 0.100000
B(  0-S ,  1-H ) :   0.7447 B(  0-S ,  2-H ) :   0.7447

Dispersion correction           -0.000416383
FINAL SINGLE POINT ENERGY      -397.746414064812

DIPOLE MOMENT
-------------
                                X             Y             Z
Electronic contribution:      0.00000      -0.00000      -0.58300
Nuclear contribution   :      0.00000       0.00000       1.71715
                        -----------------------------------------
Total Dipole Moment    :      0.00000      -0.00000       1.13415
                        -----------------------------------------
Magnitude (a.u.)       :      1.13415
Magnitude (Debye)      :      2.88278

Rotational constants in cm-1:     9.411880     7.490104     4.170869
Rotational constants in MHz : 282161.061450 224547.682034 125039.508640

                             ****ORCA TERMINATED NORMALLY****
TOTAL RUN TIME: 0 days 0 hours 0 minutes 30 seconds 640 msec
