                         Program Version 5.0.3 -  RELEASE  -
|  1> ! PBEh-3c def2/J TightSCF DefGrid3
|  2>
|  3> %maxcore 60000
|  4>
|  5> %pal
|  6> nprocs 4
|  7> end
|  8>
|  9> *xyzfile 0 1 h2s2.xyz
| 10>
| 11>                          ****END OF INPUT****

CARTESIAN COORDINATES (ANGSTROEM)
---------------------------------
  S     -0.068731    1.022031   -0.483406
  S      0.068731   -1.022031   -0.483406
  H      0.838627    1.286319    0.467599
  H     -0.838627   -1.286319    0.467599

 Total Charge           Charge          ....    0
 Multiplicity           Mult            ....    1
 Number of Electrons    NEL             ....   34
 Basis Dimension        Dim             ....   40

ORBITAL ENERGIES
----------------

  NO   OCC          E(Eh)            E(eV)
   0   2.0000     -89.612777     -2438.4876
   1   2.0000     -89.612726     -2438.4862
   2   2.0000      -8.253723      -224.5952
   3   2.0000      -8.253677      -224.5940
   4   2.0000      -6.145409      -167.2251
   5   2.0000      -6.145209      -167.2197
   6   2.0000      -6.141139      -167.1089
   7   2.0000      -6.141101      -167.1078
   8   2.0000      -6.135048      -166.9431
   9   2.0000      -6.135048      -166.9431
  10   2.0000      -0.899849       -24.4861
  11   2.0000      -0.747450       -20.3392
  12   2.0000      -0.516740       -14.0612
  13   2.0000      -0.461659       -12.5624
  14   2.0000      -0.407402       -11.0860
  15   2.0000      -0.312534        -8.5045
  16   2.0000      -0.307421        -8.3653
  17   0.0000       0.001944         0.0529
  18   0.0000       0.073676         2.0048
  19   0.0000       0.075005         2.0410
  20   0.0000       0.392767        10.6877
  21   0.0000       0.464058        12.6277

MULLIKEN ATOMIC CHARGES
-----------------------
   0 S :   -0.196983
   1 S :   -0.196983
   2 H :    0.196983
   3 H :    0.196983
Sum of atomic charges:   -0.0000000

LOEWDIN ATOMIC CHARGES
----------------------
   0 S :   -0.101650
   1 S :   -0.101650
   2 H :    0.101650
   3 H :    0.101650

  Mayer bond orders larger than 0.100000
B(  0-S ,  1-S ) :   1.0791 B(  0-S ,  2-H ) :   0.9025 B(  1-S ,  3-H ) :   0.9025

Dispersion correction           -0.001229934
FINAL SINGLE POINT ENERGY      -796.672708278863

DIPOLE MOMENT
-------------
                                X             Y             Z
Electronic contribution:     -0.00000       0.00000      -1.09771
Nuclear contribution   :      0.00000       0.00000       1.73170
                        -----------------------------------------
Total Dipole Moment    :     -0.00000       0.00000       0.63400
                        -----------------------------------------
Magnitude (a.u.)       :      0.63400
Magnitude (Debye)      :      1.61150

Rotational constants in cm-1:     4.944404     0.234027     0.233619
Rotational constants in MHz : 148229.514076  7015.958133  7003.708740

                             ****ORCA TERMINATED NORMALLY****
TOTAL RUN TIME: 0 days 0 hours 0 minutes 49 seconds 789 msec
