                         Program Version 5.0.3 -  RELEASE  -
|  1> ! PBEh-3c def2/J TightSCF DefGrid3
|  2>
|  3> %maxcore 60000
|  4>
|  5> %pal
|  6> nprocs 4
|  7> end
|  8>
|  9> *xyzfile 0 1 NCl3.xyz
| 10>
| 11>                          ****END OF INPUT****

CARTESIAN COORDINATES (ANGSTROEM)
---------------------------------
  N      0.076710   -0.187066    0.409572
  Cl    -0.196962    0.599432   -1.160194
  Cl    -0.854038    0.701868    1.629974
  Cl     1.798290   -0.033234    0.813648

 Total Charge           Charge          ....    0
 Multiplicity           Mult            ....    1
 Number of Electrons    NEL             ....   58
 Basis Dimension        Dim             ....   69

ORBITAL ENERGIES
----------------

  NO   OCC          E(Eh)            E(eV)
   0   2.0000    -102.352358     -2785.1493
   1   2.0000    -102.352295     -2785.1475
   2   2.0000    -102.352060     -2785.1412
   3   2.0000     -14.831681      -403.5906
   4   2.0000      -9.818174      -267.1661
   5   2.0000      -9.818146      -267.1653
   6   2.0000      -9.817869      -267.1578
   7   2.0000      -7.508089      -204.3055
   8   2.0000      -7.508065      -204.3048
   9   2.0000      -7.507788      -204.2973
  10   2.0000      -7.496150      -203.9806
  11   2.0000      -7.496123      -203.9799
  12   2.0000      -7.495897      -203.9737
  13   2.0000      -7.495879      -203.9732
  14   2.0000      -7.495848      -203.9724
  15   2.0000      -7.495601      -203.9657
  16   2.0000      -1.127407       -30.6783
  17   2.0000      -0.945186       -25.7198
  18   2.0000      -0.944715       -25.7070
  19   2.0000      -0.780770       -21.2458
  20   2.0000      -0.565283       -15.3821
  21   2.0000      -0.564973       -15.3737
  22   2.0000      -0.521178       -14.1820
  23   2.0000      -0.423274       -11.5179
  24   2.0000      -0.422842       -11.5061
  25   2.0000      -0.386922       -10.5287
  26   2.0000      -0.386592       -10.5197
  27   2.0000      -0.372452       -10.1349
  28   2.0000      -0.336558        -9.1582
  29   0.0000      -0.092264        -2.5106
  30   0.0000      -0.008353        -0.2273
  31   0.0000      -0.007601        -0.2068
  32   0.0000       0.380678        10.3588
  33   0.0000       0.511129        13.9085

MULLIKEN ATOMIC CHARGES
-----------------------
   0 N :   -0.351822
   1 Cl:    0.116189
   2 Cl:    0.118093
   3 Cl:    0.117541
Sum of atomic charges:   -0.0000000

LOEWDIN ATOMIC CHARGES
----------------------
   0 N :   -0.367492
   1 Cl:    0.121439
   2 Cl:    0.123270
   3 Cl:    0.122782

  Mayer bond orders larger than 0.100000
B(  0-N ,  1-Cl) :   0.9523 B(  0-N ,  2-Cl) :   0.9536 B(  0-N ,  3-Cl) :   0.9531

Dispersion correction           -0.002020675
FINAL SINGLE POINT ENERGY     -1433.602162464786

DIPOLE MOMENT
-------------
                                X             Y             Z
Electronic contribution:      0.15197       0.53428       0.01941
Nuclear contribution   :     -0.08162      -0.28869      -0.00863
                        -----------------------------------------
Total Dipole Moment    :      0.07036       0.24560       0.01078
                        -----------------------------------------
Magnitude (a.u.)       :      0.25570
Magnitude (Debye)      :      0.64995

Rotational constants in cm-1:     0.111887     0.111108     0.057644
Rotational constants in MHz :  3354.276197  3330.936787  1728.130683

                             ****ORCA TERMINATED NORMALLY****
TOTAL RUN TIME: 0 days 0 hours 0 minutes 33 seconds 850 msec
