                         Program Version 5.0.3 -  RELEASE  -
|  1> ! PBEh-3c def2/J TightSCF DefGrid3
|  2>
|  3> %maxcore 60000
|  4>
|  5> %pal
|  6> nprocs 4
|  7> end
|  8>
|  9> *xyzfile 0 1 VAL_xaj.xyz
| 10>
| 11>                          ****END OF INPUT****

CARTESIAN COORDINATES (ANGSTROEM)
---------------------------------
  N      0.501008    0.868020    0.364848
  C      0.393992   -0.341289   -0.437997
  C     -0.848973   -1.160731   -0.049943
  O     -0.779692   -2.291244    0.422851
  C      1.681872   -1.159480   -0.361531
  C      2.797397   -0.464765   -1.133939
  C      2.117726   -1.453379    1.072038
  H      1.034229    0.826693    1.216020
  H      0.243849   -0.001043   -1.465456
  H      1.451522   -2.113122   -0.837453
  H      2.530605   -0.326348   -2.181363
  H      3.715834   -1.049245   -1.091589
  H      3.007392    0.517280   -0.708118
  H      1.302713   -1.878310    1.652305
  H      2.941490   -2.166034    1.067796
  H      2.493387   -0.555644    1.569354
  N     -2.004346   -0.505710   -0.302521
  H     -1.931685    0.427586   -0.690764
  C     -3.294983   -1.071616    0.021175
  H     -3.944136   -1.068809   -0.852003
  H     -3.134526   -2.095313    0.344723
  H     -3.781134   -0.517770    0.823400
  C     -0.150320    2.015455    0.060887
  O     -0.918991    2.105819   -0.897675
  C      0.127938    3.188021    0.966472
  H      0.536925    3.995895    0.364254
  H      0.820347    2.955596    1.771704
  H     -0.813498    3.533698    1.386483

 Total Charge           Charge          ....    0
 Multiplicity           Mult            ....    1
 Number of Electrons    NEL             ....   94
 Basis Dimension        Dim             ....  212

ORBITAL ENERGIES
----------------

  NO   OCC          E(Eh)            E(eV)
   0   2.0000     -19.471149      -529.8369
   1   2.0000     -19.452337      -529.3250
   2   2.0000     -14.677923      -399.4066
   3   2.0000     -14.647358      -398.5749
   4   2.0000     -10.563507      -287.4476
   5   2.0000     -10.538166      -286.7581
   6   2.0000     -10.488880      -285.4169
   7   2.0000     -10.457159      -284.5538
   8   2.0000     -10.453316      -284.4492
   9   2.0000     -10.450444      -284.3710
  10   2.0000     -10.428054      -283.7618
  11   2.0000     -10.426624      -283.7229
  12   2.0000      -1.157281       -31.4912
  13   2.0000      -1.134014       -30.8581
  14   2.0000      -1.040916       -28.3248
  15   2.0000      -1.009901       -27.4808
  16   2.0000      -0.906940       -24.6791
  17   2.0000      -0.847973       -23.0745
  18   2.0000      -0.809192       -22.0192
  19   2.0000      -0.772059       -21.0088
  20   2.0000      -0.761092       -20.7104
  21   2.0000      -0.677532       -18.4366
  22   2.0000      -0.655768       -17.8444
  23   2.0000      -0.640777       -17.4364
  24   2.0000      -0.599091       -16.3021
  25   2.0000      -0.565856       -15.3977
  26   2.0000      -0.553209       -15.0536
  27   2.0000      -0.520880       -14.1739
  28   2.0000      -0.516398       -14.0519
  29   2.0000      -0.513610       -13.9761
  30   2.0000      -0.502740       -13.6803
  31   2.0000      -0.489882       -13.3304
  32   2.0000      -0.481371       -13.0988
  33   2.0000      -0.473899       -12.8954
  34   2.0000      -0.464383       -12.6365
  35   2.0000      -0.450760       -12.2658
  36   2.0000      -0.439285       -11.9536
  37   2.0000      -0.436287       -11.8720
  38   2.0000      -0.422161       -11.4876
  39   2.0000      -0.418187       -11.3795
  40   2.0000      -0.394352       -10.7309
  41   2.0000      -0.388335       -10.5671
  42   2.0000      -0.385094       -10.4789
  43   2.0000      -0.338194        -9.2027
  44   2.0000      -0.323783        -8.8106
  45   2.0000      -0.292225        -7.9518
  46   2.0000      -0.289368        -7.8741
  47   0.0000       0.040327         1.0974
  48   0.0000       0.067010         1.8234
  49   0.0000       0.106876         2.9082
  50   0.0000       0.138160         3.7595
  51   0.0000       0.166238         4.5236

MULLIKEN ATOMIC CHARGES
-----------------------
   0 N :   -0.624827
   1 C :   -0.213729
   2 C :    0.571457
   3 O :   -0.438930
   4 C :   -0.252634
   5 C :   -0.628370
   6 C :   -0.664530
   7 H :    0.370739
   8 H :    0.274615
   9 H :    0.255294
  10 H :    0.222545
  11 H :    0.224042
  12 H :    0.205368
  13 H :    0.269032
  14 H :    0.233782
  15 H :    0.175261
  16 N :   -0.657931
  17 H :    0.405336
  18 C :   -0.493345
  19 H :    0.220274
  20 H :    0.259196
  21 H :    0.215866
  22 C :    0.540437
  23 O :   -0.465766
  24 C :   -0.744462
  25 H :    0.264494
  26 H :    0.216338
  27 H :    0.260445
Sum of atomic charges:    0.0000000

LOEWDIN ATOMIC CHARGES
----------------------
   0 N :   -0.210798
   1 C :   -0.090748
   2 C :    0.103562
   3 O :   -0.285810
   4 C :   -0.157678
   5 C :   -0.352094
   6 C :   -0.361822
   7 H :    0.259057
   8 H :    0.152847
   9 H :    0.144602
  10 H :    0.128261
  11 H :    0.129766
  12 H :    0.122896
  13 H :    0.147810
  14 H :    0.135151
  15 H :    0.106895
  16 N :   -0.247572
  17 H :    0.267012
  18 C :   -0.256778
  19 H :    0.123167
  20 H :    0.150244
  21 H :    0.119515
  22 C :    0.111680
  23 O :   -0.303606
  24 C :   -0.383790
  25 H :    0.160938
  26 H :    0.129136
  27 H :    0.158157

  Mayer bond orders larger than 0.100000
B(  0-N ,  1-C ) :   0.8969 B(  0-N ,  7-H ) :   0.8051 B(  0-N , 22-C ) :   1.1818
B(  1-C ,  2-C ) :   0.8817 B(  1-C ,  4-C ) :   0.9529 B(  1-C ,  8-H ) :   0.8820
B(  2-C ,  3-O ) :   1.9523 B(  2-C , 16-N ) :   1.1896 B(  3-O , 16-N ) :   0.1076
B(  4-C ,  5-C ) :   0.9866 B(  4-C ,  6-C ) :   0.9825 B(  4-C ,  9-H ) :   0.8954
B(  5-C , 10-H ) :   0.9292 B(  5-C , 11-H ) :   0.9300 B(  5-C , 12-H ) :   0.9243
B(  6-C , 13-H ) :   0.9007 B(  6-C , 14-H ) :   0.9259 B(  6-C , 15-H ) :   0.9236
B( 16-N , 17-H ) :   0.7347 B( 16-N , 18-C ) :   0.9589 B( 18-C , 19-H ) :   0.9226
B( 18-C , 20-H ) :   0.9018 B( 18-C , 21-H ) :   0.9217 B( 22-C , 23-O ) :   1.8734
B( 22-C , 24-C ) :   0.9333 B( 24-C , 25-H ) :   0.9061 B( 24-C , 26-H ) :   0.9210
B( 24-C , 27-H ) :   0.9077

Dispersion correction           -0.016397391
FINAL SINGLE POINT ENERGY      -573.250939966017

DIPOLE MOMENT
-------------
                                X             Y             Z
Electronic contribution:     -6.17425       0.20480      -1.89773
Nuclear contribution   :      6.71984       0.69742       2.45104
                        -----------------------------------------
Total Dipole Moment    :      0.54560       0.90221       0.55332
                        -----------------------------------------
Magnitude (a.u.)       :      1.19073
Magnitude (Debye)      :      3.02659

Rotational constants in cm-1:     0.030076     0.028576     0.017291
Rotational constants in MHz :   901.651066   856.676820   518.363203

                             ****ORCA TERMINATED NORMALLY****
TOTAL RUN TIME: 0 days 0 hours 2 minutes 24 seconds 718 msec
