                         Program Version 5.0.3 -  RELEASE  -
|  1> ! PBEh-3c def2/J TightSCF DefGrid3
|  2>
|  3> %maxcore 60000
|  4>
|  5> %pal
|  6> nprocs 4
|  7> end
|  8>
|  9> *xyzfile 0 1 Ether.xyz
| 10>
| 11>                          ****END OF INPUT****

CARTESIAN COORDINATES (ANGSTROEM)
---------------------------------
  C     -1.109454   -0.087921   -0.084008
  O      0.070322    0.609246    0.247656
  C      1.238841   -0.136661   -0.005975
  H     -1.948562    0.559836    0.162186
  H     -1.148251   -0.333193   -1.154207
  H     -1.198400   -1.021529    0.485792
  H      2.086101    0.479540    0.288754
  H      1.333969   -0.391160   -1.070281
  H      1.254434   -1.068157    0.574083

 Total Charge           Charge          ....    0
 Multiplicity           Mult            ....    1
 Number of Electrons    NEL             ....   26
 Basis Dimension        Dim             ....   57

ORBITAL ENERGIES
----------------

  NO   OCC          E(Eh)            E(eV)
   0   2.0000     -19.490666      -530.3680
   1   2.0000     -10.474483      -285.0252
   2   2.0000     -10.474395      -285.0228
   3   2.0000      -1.135948       -30.9107
   4   2.0000      -0.802679       -21.8420
   5   2.0000      -0.713420       -19.4131
   6   2.0000      -0.534174       -14.5356
   7   2.0000      -0.532056       -14.4780
   8   2.0000      -0.531419       -14.4607
   9   2.0000      -0.448599       -12.2070
  10   2.0000      -0.429641       -11.6911
  11   2.0000      -0.370292       -10.0761
  12   2.0000      -0.308582        -8.3969
  13   0.0000       0.133634         3.6364
  14   0.0000       0.193544         5.2666
  15   0.0000       0.202025         5.4974
  16   0.0000       0.204384         5.5616
  17   0.0000       0.226942         6.1754

MULLIKEN ATOMIC CHARGES
-----------------------
   0 C :   -0.360625
   1 O :   -0.453879
   2 C :   -0.360436
   3 H :    0.221741
   4 H :    0.183031
   5 H :    0.182828
   6 H :    0.221649
   7 H :    0.182867
   8 H :    0.182824
Sum of atomic charges:    0.0000000

LOEWDIN ATOMIC CHARGES
----------------------
   0 C :   -0.187485
   1 O :   -0.271460
   2 C :   -0.187553
   3 H :    0.124017
   4 H :    0.099653
   5 H :    0.099645
   6 H :    0.123975
   7 H :    0.099600
   8 H :    0.099608

  Mayer bond orders larger than 0.100000
B(  0-C ,  1-O ) :   0.9823 B(  0-C ,  3-H ) :   0.9301 B(  0-C ,  4-H ) :   0.9128
B(  0-C ,  5-H ) :   0.9130 B(  1-O ,  2-C ) :   0.9825 B(  2-C ,  6-H ) :   0.9301
B(  2-C ,  7-H ) :   0.9128 B(  2-C ,  8-H ) :   0.9130

Dispersion correction           -0.002350842
FINAL SINGLE POINT ENERGY      -154.682356406373

DIPOLE MOMENT
-------------
                                X             Y             Z
Electronic contribution:      0.01376       1.79663       0.72839
Nuclear contribution   :     -0.01817      -2.30045      -0.93076
                        -----------------------------------------
Total Dipole Moment    :     -0.00442      -0.50383      -0.20237
                        -----------------------------------------
Magnitude (a.u.)       :      0.54297
Magnitude (Debye)      :      1.38011

Rotational constants in cm-1:     1.322560     0.332339     0.295307
Rotational constants in MHz : 39649.350978  9963.277810  8853.068114

                             ****ORCA TERMINATED NORMALLY****
TOTAL RUN TIME: 0 days 0 hours 0 minutes 34 seconds 506 msec
