                         Program Version 5.0.3 -  RELEASE  -
|  1> ! PBEh-3c def2/J TightSCF DefGrid3
|  2>
|  3> %maxcore 60000
|  4>
|  5> %pal
|  6> nprocs 4
|  7> end
|  8>
|  9> *xyzfile 0 1 Cyclobutene.xyz
| 10>
| 11>                          ****END OF INPUT****

CARTESIAN COORDINATES (ANGSTROEM)
---------------------------------
  H      0.000000   -1.420641    1.716595
  C      0.000000    0.670170    0.929941
  C      0.000000   -0.670170    0.929941
  C      0.000000    0.786311   -0.584576
  C      0.000000   -0.786311   -0.584576
  H      0.890109   -1.246599   -1.030980
  H     -0.890109   -1.246599   -1.030980
  H      0.000000    1.420641    1.716595
  H     -0.890109    1.246599   -1.030980
  H      0.890109    1.246599   -1.030980

 Total Charge           Charge          ....    0
 Multiplicity           Mult            ....    1
 Number of Electrons    NEL             ....   30
 Basis Dimension        Dim             ....   72

ORBITAL ENERGIES
----------------

  NO   OCC          E(Eh)            E(eV)
   0   2.0000     -10.442174      -284.1460
   1   2.0000     -10.441314      -284.1226
   2   2.0000     -10.440262      -284.0940
   3   2.0000     -10.440137      -284.0906
   4   2.0000      -0.949908       -25.8483
   5   2.0000      -0.734847       -19.9962
   6   2.0000      -0.719966       -19.5913
   7   2.0000      -0.579344       -15.7648
   8   2.0000      -0.559914       -15.2360
   9   2.0000      -0.515402       -14.0248
  10   2.0000      -0.435144       -11.8409
  11   2.0000      -0.410703       -11.1758
  12   2.0000      -0.377430       -10.2704
  13   2.0000      -0.367615       -10.0033
  14   2.0000      -0.290667        -7.9094
  15   0.0000       0.048669         1.3244
  16   0.0000       0.160436         4.3657
  17   0.0000       0.172289         4.6882
  18   0.0000       0.174704         4.7539
  19   0.0000       0.194097         5.2816

MULLIKEN ATOMIC CHARGES
-----------------------
   0 H :    0.201187
   1 C :   -0.196698
   2 C :   -0.196697
   3 C :   -0.449739
   4 C :   -0.449739
   5 H :    0.222625
   6 H :    0.222625
   7 H :    0.201187
   8 H :    0.222625
   9 H :    0.222625
Sum of atomic charges:   -0.0000000

LOEWDIN ATOMIC CHARGES
----------------------
   0 H :    0.122913
   1 C :   -0.146695
   2 C :   -0.146695
   3 C :   -0.228691
   4 C :   -0.228691
   5 H :    0.126236
   6 H :    0.126236
   7 H :    0.122913
   8 H :    0.126236
   9 H :    0.126236

  Mayer bond orders larger than 0.100000
B(  0-H ,  2-C ) :   0.9289 B(  1-C ,  2-C ) :   1.8719 B(  1-C ,  3-C ) :   1.0116
B(  1-C ,  7-H ) :   0.9289 B(  2-C ,  4-C ) :   1.0116 B(  3-C ,  4-C ) :   0.9540
B(  3-C ,  8-H ) :   0.9131 B(  3-C ,  9-H ) :   0.9131 B(  4-C ,  5-H ) :   0.9131
B(  4-C ,  6-H ) :   0.9131

Dispersion correction           -0.003544432
FINAL SINGLE POINT ENERGY      -155.623147081716

DIPOLE MOMENT
-------------
                                X             Y             Z
Electronic contribution:      0.00000      -0.00000       1.37618
Nuclear contribution   :      0.00000       0.00000      -1.43893
                        -----------------------------------------
Total Dipole Moment    :      0.00000      -0.00000      -0.06274
                        -----------------------------------------
Magnitude (a.u.)       :      0.06274
Magnitude (Debye)      :      0.15948

Rotational constants in cm-1:     0.430366     0.407821     0.227445
Rotational constants in MHz : 12902.062711 12226.158594  6818.644476

                             ****ORCA TERMINATED NORMALLY****
TOTAL RUN TIME: 0 days 0 hours 1 minutes 14 seconds 242 msec
