                         Program Version 5.0.3 -  RELEASE  -
|  1> ! PBEh-3c def2/J TightSCF DefGrid3
|  2>
|  3> %maxcore 60000
|  4>
|  5> %pal
|  6> nprocs 4
|  7> end
|  8>
|  9> *xyzfile 0 1 ethene.xyz
| 10>
| 11>                          ****END OF INPUT****

CARTESIAN COORDINATES (ANGSTROEM)
---------------------------------
  C      0.666388   -0.004208    0.000000
  H      1.234869   -0.936051    0.000000
  H      1.246512    0.920508    0.000000
  C     -0.666395    0.004194    0.000000
  H     -1.234842    0.936057    0.000000
  H     -1.246531   -0.920500    0.000000

 Total Charge           Charge          ....    0
 Multiplicity           Mult            ....    1
 Number of Electrons    NEL             ....   16
 Basis Dimension        Dim             ....   38

ORBITAL ENERGIES
----------------

  NO   OCC          E(Eh)            E(eV)
   0   2.0000     -10.443465      -284.1811
   1   2.0000     -10.442523      -284.1555
   2   2.0000      -0.847637       -23.0654
   3   2.0000      -0.649697       -17.6792
   4   2.0000      -0.528154       -14.3718
   5   2.0000      -0.477644       -12.9974
   6   2.0000      -0.406626       -11.0649
   7   2.0000      -0.316252        -8.6056
   8   0.0000       0.039278         1.0688
   9   0.0000       0.167400         4.5552
  10   0.0000       0.191899         5.2218
  11   0.0000       0.206262         5.6127
  12   0.0000       0.317610         8.6426

MULLIKEN ATOMIC CHARGES
-----------------------
   0 C :   -0.428603
   1 H :    0.214310
   2 H :    0.214291
   3 C :   -0.428603
   4 H :    0.214310
   5 H :    0.214294
Sum of atomic charges:    0.0000000

LOEWDIN ATOMIC CHARGES
----------------------
   0 C :   -0.260879
   1 H :    0.130441
   2 H :    0.130439
   3 C :   -0.260881
   4 H :    0.130442
   5 H :    0.130439

  Mayer bond orders larger than 0.100000
B(  0-C ,  1-H ) :   0.9297 B(  0-C ,  2-H ) :   0.9297 B(  0-C ,  3-C ) :   1.9799
B(  3-C ,  4-H ) :   0.9297 B(  3-C ,  5-H ) :   0.9297

Dispersion correction           -0.001299470
FINAL SINGLE POINT ENERGY       -78.405071548277

DIPOLE MOMENT
-------------
                                X             Y             Z
Electronic contribution:     -0.00002      -0.00003       0.00000
Nuclear contribution   :      0.00002       0.00003       0.00000
                        -----------------------------------------
Total Dipole Moment    :      0.00000       0.00000       0.00000
                        -----------------------------------------
Magnitude (a.u.)       :      0.00000
Magnitude (Debye)      :      0.00000

Rotational constants in cm-1:     4.851791     0.998984     0.828414
Rotational constants in MHz : 145453.034816 29948.796515 24835.221555

                             ****ORCA TERMINATED NORMALLY****
TOTAL RUN TIME: 0 days 0 hours 0 minutes 49 seconds 687 msec
