                         Program Version 5.0.3 -  RELEASE  -
|  1> ! PBEh-3c def2/J TightSCF DefGrid3
|  2>
|  3> %maxcore 60000
|  4>
|  5> %pal
|  6> nprocs 4
|  7> end
|  8>
|  9> *xyzfile 0 1 NH3.xyz
| 10>
| 11>                          ****END OF INPUT****

CARTESIAN COORDINATES (ANGSTROEM)
---------------------------------
  N     -0.291074   -0.000018    0.000000
  H      0.097009   -0.945625    0.000000
  H      0.097033    0.472822    0.818921
  H      0.097033    0.472822   -0.818921

 Total Charge           Charge          ....    0
 Multiplicity           Mult            ....    1
 Number of Electrons    NEL             ....   10
 Basis Dimension        Dim             ....   21

ORBITAL ENERGIES
----------------

  NO   OCC          E(Eh)            E(eV)
   0   2.0000     -14.599535      -397.2736
   1   2.0000      -0.931248       -25.3405
   2   2.0000      -0.507380       -13.8065
   3   2.0000      -0.507361       -13.8060
   4   2.0000      -0.306636        -8.3440
   5   0.0000       0.138811         3.7772
   6   0.0000       0.222170         6.0455
   7   0.0000       0.222179         6.0458
   8   0.0000       0.764781        20.8108
   9   0.0000       0.764792        20.8110

MULLIKEN ATOMIC CHARGES
-----------------------
   0 N :   -0.938073
   1 H :    0.312699
   2 H :    0.312687
   3 H :    0.312687
Sum of atomic charges:   -0.0000000

LOEWDIN ATOMIC CHARGES
----------------------
   0 N :   -0.648597
   1 H :    0.216200
   2 H :    0.216199
   3 H :    0.216199

  Mayer bond orders larger than 0.100000
B(  0-N ,  1-H ) :   0.8804 B(  0-N ,  2-H ) :   0.8804 B(  0-N ,  3-H ) :   0.8804

Dispersion correction           -0.000444457
FINAL SINGLE POINT ENERGY       -56.427770430228

DIPOLE MOMENT
-------------
                                X             Y             Z
Electronic contribution:     -0.14079      -0.00005       0.00000
Nuclear contribution   :      0.89799       0.00006       0.00000
                        -----------------------------------------
Total Dipole Moment    :      0.75719       0.00001       0.00000
                        -----------------------------------------
Magnitude (a.u.)       :      0.75719
Magnitude (Debye)      :      1.92463

Rotational constants in cm-1:     9.763509     9.763143     6.234216
Rotational constants in MHz : 292702.628275 292691.656995 186897.100382

                             ****ORCA TERMINATED NORMALLY****
TOTAL RUN TIME: 0 days 0 hours 0 minutes 52 seconds 351 msec
