                         Program Version 5.0.3 -  RELEASE  -
|  1> ! PBEh-3c def2/J TightSCF DefGrid3
|  2>
|  3> %maxcore 60000
|  4>
|  5> %pal
|  6> nprocs 4
|  7> end
|  8>
|  9> *xyzfile 0 1 c2h6.xyz
| 10>
| 11>                          ****END OF INPUT****

CARTESIAN COORDINATES (ANGSTROEM)
---------------------------------
  C      0.000000    0.000000   -0.761689
  C      0.000000    0.000000    0.761689
  H     -0.878600    0.507260   -1.155765
  H      0.000000   -1.014520   -1.155765
  H      0.878600    0.507260   -1.155765
  H     -0.878600   -0.507260    1.155765
  H      0.000000    1.014520    1.155765
  H      0.878600   -0.507260    1.155765

 Total Charge           Charge          ....    0
 Multiplicity           Mult            ....    1
 Number of Electrons    NEL             ....   18
 Basis Dimension        Dim             ....   42

ORBITAL ENERGIES
----------------

  NO   OCC          E(Eh)            E(eV)
   0   2.0000     -10.420702      -283.5617
   1   2.0000     -10.420489      -283.5559
   2   2.0000      -0.839553       -22.8454
   3   2.0000      -0.689899       -18.7731
   4   2.0000      -0.491872       -13.3845
   5   2.0000      -0.491872       -13.3845
   6   2.0000      -0.418551       -11.3893
   7   2.0000      -0.391984       -10.6664
   8   2.0000      -0.391984       -10.6664
   9   0.0000       0.155402         4.2287
  10   0.0000       0.202119         5.4999
  11   0.0000       0.220191         5.9917
  12   0.0000       0.220193         5.9918
  13   0.0000       0.225591         6.1386

MULLIKEN ATOMIC CHARGES
-----------------------
   0 C :   -0.639019
   1 C :   -0.639019
   2 H :    0.213007
   3 H :    0.213005
   4 H :    0.213007
   5 H :    0.213007
   6 H :    0.213005
   7 H :    0.213007
Sum of atomic charges:   -0.0000000

LOEWDIN ATOMIC CHARGES
----------------------
   0 C :   -0.371360
   1 C :   -0.371359
   2 H :    0.123787
   3 H :    0.123786
   4 H :    0.123787
   5 H :    0.123787
   6 H :    0.123786
   7 H :    0.123787

  Mayer bond orders larger than 0.100000
B(  0-C ,  1-C ) :   0.9973 B(  0-C ,  2-H ) :   0.9315 B(  0-C ,  3-H ) :   0.9315
B(  0-C ,  4-H ) :   0.9315 B(  1-C ,  5-H ) :   0.9315 B(  1-C ,  6-H ) :   0.9315
B(  1-C ,  7-H ) :   0.9315

Dispersion correction           -0.001885849
FINAL SINGLE POINT ENERGY       -79.650886391897

DIPOLE MOMENT
-------------
                                X             Y             Z
Electronic contribution:     -0.00000       0.00000       0.00000
Nuclear contribution   :      0.00000       0.00000       0.00000
                        -----------------------------------------
Total Dipole Moment    :     -0.00000       0.00000       0.00000
                        -----------------------------------------
Magnitude (a.u.)       :      0.00000
Magnitude (Debye)      :      0.00000

Rotational constants in cm-1:     2.708094     0.670866     0.670866
Rotational constants in MHz : 81186.609954 20112.051212 20112.051019

                             ****ORCA TERMINATED NORMALLY****
TOTAL RUN TIME: 0 days 0 hours 0 minutes 49 seconds 812 msec
