                         Program Version 5.0.3 -  RELEASE  -
|  1> ! PBEh-3c def2/J TightSCF DefGrid3
|  2>
|  3> %maxcore 60000
|  4>
|  5> %pal
|  6> nprocs 4
|  7> end
|  8>
|  9> *xyzfile 0 1 3O.xyz
| 10>
| 11>                          ****END OF INPUT****

CARTESIAN COORDINATES (ANGSTROEM)
---------------------------------
  O     -2.231543   -0.018486    0.000000
  H     -1.310995    0.259067    0.000000
  H     -2.735532    0.795493    0.000000
  Si     1.466535   -0.054772    0.000000
  H      2.405767   -0.490651   -1.090130
  H      2.405767   -0.490651    1.090130

 Total Charge           Charge          ....    0
 Multiplicity           Mult            ....    1
 Number of Electrons    NEL             ....   26
 Basis Dimension        Dim             ....   41

ORBITAL ENERGIES
----------------

  NO   OCC          E(Eh)            E(eV)
   0   2.0000     -66.766615     -1816.8120
   1   2.0000     -19.456937      -529.4502
   2   2.0000      -5.544903      -150.8845
   3   2.0000      -3.839742      -104.4847
   4   2.0000      -3.831798      -104.2685
   5   2.0000      -3.830029      -104.2204
   6   2.0000      -1.086455       -29.5639
   7   2.0000      -0.582162       -15.8414
   8   2.0000      -0.566873       -15.4254
   9   2.0000      -0.419497       -11.4151
  10   2.0000      -0.390098       -10.6151
  11   2.0000      -0.341406        -9.2901
  12   2.0000      -0.291138        -7.9223
  13   0.0000      -0.101716        -2.7678
  14   0.0000       0.062323         1.6959
  15   0.0000       0.116434         3.1683
  16   0.0000       0.168123         4.5748
  17   0.0000       0.187152         5.0927

MULLIKEN ATOMIC CHARGES
-----------------------
   0 O :   -0.838888
   1 H :    0.427617
   2 H :    0.402842
   3 Si:    0.071182
   4 H :   -0.031376
   5 H :   -0.031376
Sum of atomic charges:    0.0000000

LOEWDIN ATOMIC CHARGES
----------------------
   0 O :   -0.610256
   1 H :    0.290277
   2 H :    0.295808
   3 Si:    0.094705
   4 H :   -0.035266
   5 H :   -0.035266

  Mayer bond orders larger than 0.100000
B(  0-O ,  1-H ) :   0.7754 B(  0-O ,  2-H ) :   0.8199 B(  3-Si,  4-H ) :   0.9736
B(  3-Si,  5-H ) :   0.9736

Dispersion correction           -0.001084611
FINAL SINGLE POINT ENERGY      -366.499781225311

DIPOLE MOMENT
-------------
                                X             Y             Z
Electronic contribution:      0.55050       0.43952      -0.00000
Nuclear contribution   :      0.11862       0.20732       0.00000
                        -----------------------------------------
Total Dipole Moment    :      0.66911       0.64684      -0.00000
                        -----------------------------------------
Magnitude (a.u.)       :      0.93065
Magnitude (Debye)      :      2.36553

Rotational constants in cm-1:     5.011058     0.104432     0.103516
Rotational constants in MHz : 150227.731632  3130.785024  3103.341961

                             ****ORCA TERMINATED NORMALLY****
TOTAL RUN TIME: 0 days 0 hours 0 minutes 37 seconds 566 msec
