                         Program Version 5.0.3 -  RELEASE  -
|  1> ! PBEh-3c def2/J TightSCF DefGrid3
|  2>
|  3> %maxcore 60000
|  4>
|  5> %pal
|  6> nprocs 4
|  7> end
|  8>
|  9> *xyzfile 0 1 nh3_3.xyz
| 10>
| 11>                          ****END OF INPUT****

CARTESIAN COORDINATES (ANGSTROEM)
---------------------------------
  H     -1.368356   -0.180977   -0.013169
  H      0.842949   -1.094909    0.003968
  H      0.528298    1.276672    0.008017
  H     -1.941415   -1.484031   -0.832875
  H      2.256561   -0.944858    0.826735
  H     -0.321706    2.423720    0.820266
  N     -1.414869   -1.200455   -0.014850
  N      1.748040   -0.623591    0.011230
  N     -0.333168    1.823765    0.003717
  H      2.265911   -0.938111   -0.801018
  H     -0.309348    2.430495   -0.807547
  H     -1.952921   -1.486037    0.794944

 Total Charge           Charge          ....    0
 Multiplicity           Mult            ....    1
 Number of Electrons    NEL             ....   30
 Basis Dimension        Dim             ....   63

ORBITAL ENERGIES
----------------

  NO   OCC          E(Eh)            E(eV)
   0   2.0000     -14.582461      -396.8089
   1   2.0000     -14.582413      -396.8076
   2   2.0000     -14.582231      -396.8027
   3   2.0000      -0.923561       -25.1314
   4   2.0000      -0.914982       -24.8979
   5   2.0000      -0.914845       -24.8942
   6   2.0000      -0.511022       -13.9056
   7   2.0000      -0.500659       -13.6236
   8   2.0000      -0.497647       -13.5417
   9   2.0000      -0.497536       -13.5386
  10   2.0000      -0.484952       -13.1962
  11   2.0000      -0.484856       -13.1936
  12   2.0000      -0.300520        -8.1776
  13   2.0000      -0.300418        -8.1748
  14   2.0000      -0.288120        -7.8401
  15   0.0000       0.138738         3.7752
  16   0.0000       0.175426         4.7736
  17   0.0000       0.175505         4.7757
  18   0.0000       0.229044         6.2326
  19   0.0000       0.237467         6.4618

MULLIKEN ATOMIC CHARGES
-----------------------
   0 H :    0.371756
   1 H :    0.371569
   2 H :    0.371707
   3 H :    0.311835
   4 H :    0.311964
   5 H :    0.311963
   6 N :   -0.995643
   7 N :   -0.995410
   8 N :   -0.995471
   9 H :    0.311943
  10 H :    0.311931
  11 H :    0.311856
Sum of atomic charges:   -0.0000000

LOEWDIN ATOMIC CHARGES
----------------------
   0 H :    0.234784
   1 H :    0.234831
   2 H :    0.234839
   3 H :    0.214627
   4 H :    0.214697
   5 H :    0.214702
   6 N :   -0.664370
   7 N :   -0.664082
   8 N :   -0.664063
   9 H :    0.214700
  10 H :    0.214681
  11 H :    0.214653

  Mayer bond orders larger than 0.100000
B(  0-H ,  6-N ) :   0.7959 B(  1-H ,  7-N ) :   0.7963 B(  2-H ,  8-N ) :   0.7961
B(  3-H ,  6-N ) :   0.8813 B(  4-H ,  7-N ) :   0.8812 B(  5-H ,  8-N ) :   0.8812
B(  6-N , 11-H ) :   0.8813 B(  7-N ,  9-H ) :   0.8813 B(  8-N , 10-H ) :   0.8812

Dispersion correction           -0.003008220
FINAL SINGLE POINT ENERGY      -169.308479517186

DIPOLE MOMENT
-------------
                                X             Y             Z
Electronic contribution:      0.00097       0.00064       0.00019
Nuclear contribution   :     -0.00003       0.00216      -0.00075
                        -----------------------------------------
Total Dipole Moment    :      0.00094       0.00280      -0.00056
                        -----------------------------------------
Magnitude (a.u.)       :      0.00301
Magnitude (Debye)      :      0.00765

Rotational constants in cm-1:     0.173394     0.172997     0.090315
Rotational constants in MHz :  5198.206908  5186.318633  2707.582234

                             ****ORCA TERMINATED NORMALLY****
TOTAL RUN TIME: 0 days 0 hours 0 minutes 57 seconds 32 msec
