                         Program Version 5.0.3 -  RELEASE  -
|  1> ! PBEh-3c def2/J TightSCF DefGrid3
|  2>
|  3> %maxcore 60000
|  4>
|  5> %pal
|  6> nprocs 4
|  7> end
|  8>
|  9> *xyzfile 0 1 62A.xyz
| 10>
| 11>                          ****END OF INPUT****

CARTESIAN COORDINATES (ANGSTROEM)
---------------------------------
  C     -2.536691   -0.239774   -0.099033
  H     -2.559304   -0.793034   -1.038111
  H     -2.608659   -0.968554    0.709223
  H     -3.424950    0.388957   -0.059530
  C     -1.258475    0.580726    0.016571
  H     -1.266166    1.166594    0.937850
  H     -1.211292    1.298906   -0.805268
  C     -0.005745   -0.284928   -0.010051
  H     -0.035090   -0.990027    0.827384
  H     -0.002724   -0.893511   -0.919965
  C      1.282681    0.523398    0.063541
  H      1.264368    1.136894    0.966101
  H      1.317382    1.214709   -0.781597
  C      2.523660   -0.359812    0.050730
  H      2.571804   -0.951931   -0.863388
  H      3.438819    0.227422    0.115417
  H      2.510382   -1.056032    0.890127

 Total Charge           Charge          ....    0
 Multiplicity           Mult            ....    1
 Number of Electrons    NEL             ....   42
 Basis Dimension        Dim             ....   99

ORBITAL ENERGIES
----------------

  NO   OCC          E(Eh)            E(eV)
   0   2.0000     -10.426764      -283.7267
   1   2.0000     -10.426659      -283.7238
   2   2.0000     -10.424694      -283.6703
   3   2.0000     -10.418955      -283.5142
   4   2.0000     -10.418923      -283.5133
   5   2.0000      -0.893163       -24.3042
   6   2.0000      -0.836734       -22.7687
   7   2.0000      -0.754431       -20.5291
   8   2.0000      -0.670696       -18.2506
   9   2.0000      -0.644255       -17.5311
  10   2.0000      -0.536065       -14.5871
  11   2.0000      -0.494741       -13.4626
  12   2.0000      -0.487905       -13.2766
  13   2.0000      -0.457863       -12.4591
  14   2.0000      -0.447055       -12.1650
  15   2.0000      -0.427424       -11.6308
  16   2.0000      -0.402631       -10.9561
  17   2.0000      -0.382307       -10.4031
  18   2.0000      -0.373364       -10.1598
  19   2.0000      -0.366290        -9.9673
  20   2.0000      -0.361129        -9.8268
  21   0.0000       0.137416         3.7393
  22   0.0000       0.155264         4.2249
  23   0.0000       0.185117         5.0373
  24   0.0000       0.186306         5.0696
  25   0.0000       0.202947         5.5225

MULLIKEN ATOMIC CHARGES
-----------------------
   0 C :   -0.639286
   1 H :    0.209062
   2 H :    0.208713
   3 H :    0.218424
   4 C :   -0.409592
   5 H :    0.204937
   6 H :    0.204247
   7 C :   -0.391396
   8 H :    0.199071
   9 H :    0.199267
  10 C :   -0.409592
  11 H :    0.204783
  12 H :    0.204417
  13 C :   -0.639034
  14 H :    0.209108
  15 H :    0.218404
  16 H :    0.208468
Sum of atomic charges:   -0.0000000

LOEWDIN ATOMIC CHARGES
----------------------
   0 C :   -0.362052
   1 H :    0.123469
   2 H :    0.123149
   3 H :    0.125718
   4 C :   -0.246210
   5 H :    0.119463
   6 H :    0.119326
   7 C :   -0.241539
   8 H :    0.117838
   9 H :    0.117951
  10 C :   -0.246260
  11 H :    0.119449
  12 H :    0.119316
  13 C :   -0.361952
  14 H :    0.123480
  15 H :    0.125700
  16 H :    0.123155

  Mayer bond orders larger than 0.100000
B(  0-C ,  1-H ) :   0.9296 B(  0-C ,  2-H ) :   0.9296 B(  0-C ,  3-H ) :   0.9324
B(  0-C ,  4-C ) :   0.9985 B(  4-C ,  5-H ) :   0.9203 B(  4-C ,  6-H ) :   0.9204
B(  4-C ,  7-C ) :   0.9921 B(  7-C ,  8-H ) :   0.9181 B(  7-C ,  9-H ) :   0.9185
B(  7-C , 10-C ) :   0.9922 B( 10-C , 11-H ) :   0.9203 B( 10-C , 12-H ) :   0.9204
B( 10-C , 13-C ) :   0.9985 B( 13-C , 14-H ) :   0.9295 B( 13-C , 15-H ) :   0.9325
B( 13-C , 16-H ) :   0.9297

Dispersion correction           -0.006817858
FINAL SINGLE POINT ENERGY      -197.333840079481

DIPOLE MOMENT
-------------
                                X             Y             Z
Electronic contribution:      0.01452       0.60190       0.05742
Nuclear contribution   :     -0.01442      -0.58307      -0.05777
                        -----------------------------------------
Total Dipole Moment    :      0.00010       0.01883      -0.00034
                        -----------------------------------------
Magnitude (a.u.)       :      0.01883
Magnitude (Debye)      :      0.04786

Rotational constants in cm-1:     0.568572     0.065515     0.062100
Rotational constants in MHz : 17045.360673  1964.081931  1861.696948

                             ****ORCA TERMINATED NORMALLY****
TOTAL RUN TIME: 0 days 0 hours 1 minutes 20 seconds 41 msec
