                         Program Version 5.0.3 -  RELEASE  -
|  1> ! PBEh-3c def2/J TightSCF DefGrid3
|  2>
|  3> %maxcore 60000
|  4>
|  5> %pal
|  6> nprocs 4
|  7> end
|  8>
|  9> *xyzfile 0 2 EA_8n.xyz
| 10>
| 11>                          ****END OF INPUT****

CARTESIAN COORDINATES (ANGSTROEM)
---------------------------------
  C      0.000000    0.000000    0.561424
  H      0.000000    0.000000   -0.561424

 Total Charge           Charge          ....    0
 Multiplicity           Mult            ....    2
 Number of Electrons    NEL             ....    7
 Basis Dimension        Dim             ....   17

ORBITAL ENERGIES
----------------
                 SPIN UP ORBITALS
  NO   OCC          E(Eh)            E(eV)
   0   1.0000     -10.543091      -286.8921
   1   1.0000      -0.723648       -19.6915
   2   1.0000      -0.368961       -10.0399
   3   1.0000      -0.306987        -8.3535
   4   0.0000      -0.100282        -2.7288
   5   0.0000       0.175108         4.7649
   6   0.0000       0.504856        13.7378
   7   0.0000       0.526694        14.3321
   8   0.0000       0.542879        14.7725

                 SPIN DOWN ORBITALS
  NO   OCC          E(Eh)            E(eV)
   0   1.0000     -10.526689      -286.4458
   1   1.0000      -0.669105       -18.2073
   2   1.0000      -0.342478        -9.3193
   3   0.0000      -0.078755        -2.1430
   4   0.0000      -0.027647        -0.7523
   5   0.0000       0.187598         5.1048
   6   0.0000       0.539337        14.6761
   7   0.0000       0.557804        15.1786

MULLIKEN ATOMIC CHARGES AND SPIN POPULATIONS
--------------------------------------------
   0 C :   -0.159877    1.044829
   1 H :    0.159877   -0.044829
Sum of atomic charges         :   -0.0000000

LOEWDIN ATOMIC CHARGES AND SPIN POPULATIONS
-------------------------------------------
   0 C :   -0.087948    1.024631
   1 H :    0.087948   -0.024631

  Mayer bond orders larger than 0.100000
B(  0-C ,  1-H ) :   0.9084

Dispersion correction           -0.000138927
FINAL SINGLE POINT ENERGY       -38.382709846090

DIPOLE MOMENT
-------------
                                X             Y             Z
Electronic contribution:      0.00000      -0.00000       0.35705
Nuclear contribution   :      0.00000       0.00000      -0.97187
                        -----------------------------------------
Total Dipole Moment    :      0.00000      -0.00000      -0.61482
                        -----------------------------------------
Magnitude (a.u.)       :      0.61482
Magnitude (Debye)      :      1.56275

Rotational constants in cm-1:     0.000000    14.377789    14.377789
Rotational constants in MHz :     0.000000 431035.280388 431035.280388

                             ****ORCA TERMINATED NORMALLY****
TOTAL RUN TIME: 0 days 0 hours 0 minutes 17 seconds 354 msec
