                         Program Version 5.0.3 -  RELEASE  -
|  1> ! PBEh-3c def2/J TightSCF DefGrid3
|  2>
|  3> %maxcore 60000
|  4>
|  5> %pal
|  6> nprocs 4
|  7> end
|  8>
|  9> *xyzfile 0 1 n2h4.xyz
| 10>
| 11>                          ****END OF INPUT****

CARTESIAN COORDINATES (ANGSTROEM)
---------------------------------
  N      0.716634    0.060355   -0.043924
  N     -0.716634   -0.060355   -0.043924
  H      1.063438    0.306189    0.876244
  H      1.085089   -0.854024   -0.265842
  H     -1.063438   -0.306189    0.876244
  H     -1.085089    0.854024   -0.265842

 Total Charge           Charge          ....    0
 Multiplicity           Mult            ....    1
 Number of Electrons    NEL             ....   18
 Basis Dimension        Dim             ....   38

ORBITAL ENERGIES
----------------

  NO   OCC          E(Eh)            E(eV)
   0   2.0000     -14.629353      -398.0849
   1   2.0000     -14.629268      -398.0826
   2   2.0000      -1.037687       -28.2369
   3   2.0000      -0.828191       -22.5362
   4   2.0000      -0.555704       -15.1215
   5   2.0000      -0.543566       -14.7912
   6   2.0000      -0.497912       -13.5489
   7   2.0000      -0.301562        -8.2059
   8   2.0000      -0.295755        -8.0479
   9   0.0000       0.133719         3.6387
  10   0.0000       0.167073         4.5463
  11   0.0000       0.208311         5.6684
  12   0.0000       0.233724         6.3599
  13   0.0000       0.282743         7.6938

MULLIKEN ATOMIC CHARGES
-----------------------
   0 N :   -0.634245
   1 N :   -0.634245
   2 H :    0.303976
   3 H :    0.330268
   4 H :    0.303976
   5 H :    0.330268
Sum of atomic charges:   -0.0000000

LOEWDIN ATOMIC CHARGES
----------------------
   0 N :   -0.418278
   1 N :   -0.418278
   2 H :    0.199984
   3 H :    0.218294
   4 H :    0.199984
   5 H :    0.218294

  Mayer bond orders larger than 0.100000
B(  0-N ,  1-N ) :   1.0271 B(  0-N ,  2-H ) :   0.8653 B(  0-N ,  3-H ) :   0.8598
B(  1-N ,  4-H ) :   0.8653 B(  1-N ,  5-H ) :   0.8598

Dispersion correction           -0.001187737
FINAL SINGLE POINT ENERGY      -111.616275704168

DIPOLE MOMENT
-------------
                                X             Y             Z
Electronic contribution:     -0.00000       0.00000      -0.25529
Nuclear contribution   :      0.00000      -0.00000       1.14484
                        -----------------------------------------
Total Dipole Moment    :     -0.00000      -0.00000       0.88955
                        -----------------------------------------
Magnitude (a.u.)       :      0.88955
Magnitude (Debye)      :      2.26105

Rotational constants in cm-1:     4.808432     0.811050     0.810386
Rotational constants in MHz : 144153.174844 24314.660695 24294.764200

                             ****ORCA TERMINATED NORMALLY****
TOTAL RUN TIME: 0 days 0 hours 0 minutes 47 seconds 575 msec
