                         Program Version 5.0.3 -  RELEASE  -
|  1> ! PBEh-3c def2/J TightSCF DefGrid3
|  2>
|  3> %maxcore 60000
|  4>
|  5> %pal
|  6> nprocs 4
|  7> end
|  8>
|  9> *xyzfile 1 1 p8p.xyz
| 10>
| 11>                          ****END OF INPUT****

CARTESIAN COORDINATES (ANGSTROEM)
---------------------------------
  C     -4.490717   -0.284696    0.000000
  C     -3.340998    0.422129    0.000000
  C     -2.072817   -0.220999    0.000000
  C     -0.861322    0.439932    0.000000
  C      0.344224   -0.257443    0.000000
  C      1.615337    0.343501    0.000000
  C      2.754643   -0.407916    0.000000
  C      4.128094    0.123932    0.000000
  H     -4.491240   -1.369261    0.000000
  H     -5.455984    0.205822    0.000000
  H     -3.368954    1.506743    0.000000
  H     -2.067161   -1.308823    0.000000
  H     -0.845304    1.525132    0.000000
  H      0.302154   -1.344558    0.000000
  H      1.684172    1.426819    0.000000
  H      2.651514   -1.491501    0.000000
  H      4.165862    1.211920    0.000000
  H      4.674249   -0.260366    0.870473
  H      4.674249   -0.260366   -0.870473

 Total Charge           Charge          ....    1
 Multiplicity           Mult            ....    1
 Number of Electrons    NEL             ....   58
 Basis Dimension        Dim             ....  142

ORBITAL ENERGIES
----------------

  NO   OCC          E(Eh)            E(eV)
   0   2.0000     -10.672649      -290.4175
   1   2.0000     -10.667265      -290.2710
   2   2.0000     -10.660329      -290.0823
   3   2.0000     -10.633478      -289.3517
   4   2.0000     -10.630087      -289.2594
   5   2.0000     -10.623530      -289.0810
   6   2.0000     -10.620529      -288.9993
   7   2.0000     -10.586051      -288.0611
   8   2.0000      -1.116904       -30.3925
   9   2.0000      -1.081800       -29.4373
  10   2.0000      -1.035459       -28.1763
  11   2.0000      -0.976324       -26.5671
  12   2.0000      -0.906876       -24.6773
  13   2.0000      -0.828199       -22.5364
  14   2.0000      -0.818742       -22.2791
  15   2.0000      -0.795583       -21.6489
  16   2.0000      -0.728628       -19.8270
  17   2.0000      -0.719001       -19.5650
  18   2.0000      -0.680032       -18.5046
  19   2.0000      -0.653821       -17.7914
  20   2.0000      -0.627098       -17.0642
  21   2.0000      -0.625617       -17.0239
  22   2.0000      -0.612151       -16.6575
  23   2.0000      -0.594516       -16.1776
  24   2.0000      -0.584234       -15.8978
  25   2.0000      -0.579215       -15.7612
  26   2.0000      -0.578683       -15.7468
  27   2.0000      -0.522807       -14.2263
  28   2.0000      -0.445733       -12.1290
  29   0.0000      -0.277147        -7.5416
  30   0.0000      -0.159239        -4.3331
  31   0.0000      -0.081653        -2.2219
  32   0.0000      -0.055469        -1.5094
  33   0.0000      -0.018424        -0.5013

MULLIKEN ATOMIC CHARGES
-----------------------
   0 C :   -0.407974
   1 C :   -0.178670
   2 C :   -0.135478
   3 C :   -0.228191
   4 C :   -0.126384
   5 C :   -0.210772
   6 C :   -0.112318
   7 C :   -0.712719
   8 H :    0.278331
   9 H :    0.297678
  10 H :    0.283126
  11 H :    0.281278
  12 H :    0.280725
  13 H :    0.282408
  14 H :    0.278964
  15 H :    0.281875
  16 H :    0.268505
  17 H :    0.289808
  18 H :    0.289808
Sum of atomic charges:    1.0000000

LOEWDIN ATOMIC CHARGES
----------------------
   0 C :   -0.090026
   1 C :   -0.155090
   2 C :    0.027195
   3 C :   -0.155291
   4 C :    0.035168
   5 C :   -0.164408
   6 C :    0.030930
   7 C :   -0.355723
   8 H :    0.160619
   9 H :    0.172092
  10 H :    0.162975
  11 H :    0.163229
  12 H :    0.164251
  13 H :    0.163840
  14 H :    0.162168
  15 H :    0.159823
  16 H :    0.157525
  17 H :    0.180362
  18 H :    0.180362

  Mayer bond orders larger than 0.100000
B(  0-C ,  1-C ) :   1.6491 B(  0-C ,  8-H ) :   0.9092 B(  0-C ,  9-H ) :   0.9001
B(  1-C ,  2-C ) :   1.1921 B(  1-C , 10-H ) :   0.8997 B(  2-C ,  3-C ) :   1.4186
B(  2-C , 11-H ) :   0.8979 B(  3-C ,  4-C ) :   1.3384 B(  3-C , 12-H ) :   0.9031
B(  4-C ,  5-C ) :   1.2687 B(  4-C , 13-H ) :   0.8968 B(  5-C ,  6-C ) :   1.5356
B(  5-C , 14-H ) :   0.9011 B(  6-C ,  7-C ) :   1.0212 B(  6-C , 15-H ) :   0.8963
B(  7-C , 16-H ) :   0.9120 B(  7-C , 17-H ) :   0.8724 B(  7-C , 18-H ) :   0.8724

Dispersion correction           -0.008664502
FINAL SINGLE POINT ENERGY      -310.456565402924

DIPOLE MOMENT
-------------
                                X             Y             Z
Electronic contribution:     -3.96351      -0.11474       0.00000
Nuclear contribution   :      3.84259      -0.31651       0.00000
                        -----------------------------------------
Total Dipole Moment    :     -0.12092      -0.43124       0.00000
                        -----------------------------------------
Magnitude (a.u.)       :      0.44787
Magnitude (Debye)      :      1.13841

Rotational constants in cm-1:     0.603203     0.018707     0.018204
Rotational constants in MHz : 18083.584408   560.831767   545.756367

                             ****ORCA TERMINATED NORMALLY****
TOTAL RUN TIME: 0 days 0 hours 1 minutes 33 seconds 406 msec
