                         Program Version 5.0.3 -  RELEASE  -
|  1> ! PBEh-3c def2/J TightSCF DefGrid3
|  2>
|  3> %maxcore 60000
|  4>
|  5> %pal
|  6> nprocs 4
|  7> end
|  8>
|  9> *xyzfile 1 1 ch2sp.xyz
| 10>
| 11>                          ****END OF INPUT****

CARTESIAN COORDINATES (ANGSTROEM)
---------------------------------
  S      0.308269   -1.124898    0.000000
  C      0.233278    0.482021    0.000000
  H     -0.704170    1.023467    0.000000
  H      1.167047    1.031418    0.000000
  H     -1.004423   -1.412009    0.000000

 Total Charge           Charge          ....    1
 Multiplicity           Mult            ....    1
 Number of Electrons    NEL             ....   24
 Basis Dimension        Dim             ....   39

ORBITAL ENERGIES
----------------

  NO   OCC          E(Eh)            E(eV)
   0   2.0000     -89.922720     -2446.9216
   1   2.0000     -10.802017      -293.9378
   2   2.0000      -8.564897      -233.0627
   3   2.0000      -6.453490      -175.6084
   4   2.0000      -6.451570      -175.5561
   5   2.0000      -6.449305      -175.4945
   6   2.0000      -1.214018       -33.0351
   7   2.0000      -0.984854       -26.7992
   8   2.0000      -0.834398       -22.7051
   9   2.0000      -0.774150       -21.0657
  10   2.0000      -0.678253       -18.4562
  11   2.0000      -0.658779       -17.9263
  12   0.0000      -0.343774        -9.3546
  13   0.0000      -0.195757        -5.3268
  14   0.0000      -0.113820        -3.0972
  15   0.0000      -0.046991        -1.2787
  16   0.0000      -0.022129        -0.6022

MULLIKEN ATOMIC CHARGES
-----------------------
   0 S :    0.337248
   1 C :   -0.397480
   2 H :    0.376536
   3 H :    0.383547
   4 H :    0.300149
Sum of atomic charges:    1.0000000

LOEWDIN ATOMIC CHARGES
----------------------
   0 S :    0.558253
   1 C :   -0.160403
   2 H :    0.207107
   3 H :    0.214197
   4 H :    0.180845

  Mayer bond orders larger than 0.100000
B(  0-S ,  1-C ) :   1.8377 B(  0-S ,  4-H ) :   0.8747 B(  1-C ,  2-H ) :   0.8285
B(  1-C ,  3-H ) :   0.8283

Dispersion correction           -0.001287119
FINAL SINGLE POINT ENERGY      -437.210142462093

DIPOLE MOMENT
-------------
                                X             Y             Z
Electronic contribution:      0.68210      -1.66277       0.00000
Nuclear contribution   :     -1.23500       2.38806       0.00000
                        -----------------------------------------
Total Dipole Moment    :     -0.55289       0.72528       0.00000
                        -----------------------------------------
Magnitude (a.u.)       :      0.91199
Magnitude (Debye)      :      2.31810

Rotational constants in cm-1:     4.873322     0.584091     0.521577
Rotational constants in MHz : 146098.512998 17510.598670 15636.491155

                             ****ORCA TERMINATED NORMALLY****
TOTAL RUN TIME: 0 days 0 hours 1 minutes 4 seconds 883 msec
