                         Program Version 5.0.3 -  RELEASE  -
|  1> ! PBEh-3c def2/J TightSCF DefGrid3
|  2>
|  3> %maxcore 60000
|  4>
|  5> %pal
|  6> nprocs 4
|  7> end
|  8>
|  9> *xyzfile 0 1 pbh4_2.xyz
| 10>
| 11>                          ****END OF INPUT****

CARTESIAN COORDINATES (ANGSTROEM)
---------------------------------
  Pb     0.000000    0.000000    2.232700
  H      0.992636    0.992636    1.233760
  H     -0.992636   -0.992636    1.233760
  H      0.994490   -0.994490    3.228289
  H     -0.994490    0.994490    3.228289
  Pb     0.000000    0.000000   -2.232700
  H      0.994490    0.994490   -3.228289
  H     -0.994490   -0.994490   -3.228289
  H      0.992636   -0.992636   -1.233760
  H     -0.992636    0.992636   -1.233760

 Total Charge           Charge          ....    0
 Multiplicity           Mult            ....    1
 Number of Electrons    NEL             ....   52
 Basis Dimension        Dim             ....   68

ORBITAL ENERGIES
----------------

  NO   OCC          E(Eh)            E(eV)
   0   2.0000      -5.699055      -155.0792
   1   2.0000      -5.699052      -155.0791
   2   2.0000      -3.491466       -95.0076
   3   2.0000      -3.491463       -95.0075
   4   2.0000      -3.491449       -95.0072
   5   2.0000      -3.491449       -95.0072
   6   2.0000      -3.491370       -95.0050
   7   2.0000      -3.491370       -95.0050
   8   2.0000      -0.934664       -25.4335
   9   2.0000      -0.934664       -25.4335
  10   2.0000      -0.934433       -25.4272
  11   2.0000      -0.934433       -25.4272
  12   2.0000      -0.934405       -25.4265
  13   2.0000      -0.934393       -25.4261
  14   2.0000      -0.923349       -25.1256
  15   2.0000      -0.923025       -25.1168
  16   2.0000      -0.923012       -25.1164
  17   2.0000      -0.922919       -25.1139
  18   2.0000      -0.630355       -17.1528
  19   2.0000      -0.622921       -16.9505
  20   2.0000      -0.377296       -10.2667
  21   2.0000      -0.366385        -9.9699
  22   2.0000      -0.366385        -9.9699
  23   2.0000      -0.360322        -9.8049
  24   2.0000      -0.360322        -9.8049
  25   2.0000      -0.350160        -9.5283
  26   0.0000       0.038450         1.0463
  27   0.0000       0.043089         1.1725
  28   0.0000       0.062787         1.7085
  29   0.0000       0.062787         1.7085
  30   0.0000       0.087550         2.3824

MULLIKEN ATOMIC CHARGES
-----------------------
   0 Pb:   -0.025028
   1 H :    0.005007
   2 H :    0.005007
   3 H :    0.007507
   4 H :    0.007506
   5 Pb:   -0.025028
   6 H :    0.007507
   7 H :    0.007506
   8 H :    0.005007
   9 H :    0.005007
Sum of atomic charges:   -0.0000000

LOEWDIN ATOMIC CHARGES
----------------------
   0 Pb:   -0.061946
   1 H :    0.016324
   2 H :    0.016324
   3 H :    0.014649
   4 H :    0.014649
   5 Pb:   -0.061946
   6 H :    0.014649
   7 H :    0.014649
   8 H :    0.016324
   9 H :    0.016324

  Mayer bond orders larger than 0.100000
B(  0-Pb,  1-H ) :   0.9382 B(  0-Pb,  2-H ) :   0.9382 B(  0-Pb,  3-H ) :   0.9418
B(  0-Pb,  4-H ) :   0.9418 B(  5-Pb,  6-H ) :   0.9418 B(  5-Pb,  7-H ) :   0.9418
B(  5-Pb,  8-H ) :   0.9382 B(  5-Pb,  9-H ) :   0.9382

Dispersion correction           -0.002826962
FINAL SINGLE POINT ENERGY      -390.368909004123

DIPOLE MOMENT
-------------
                                X             Y             Z
Electronic contribution:      0.00000      -0.00000       0.00000
Nuclear contribution   :      0.00000       0.00000       0.00000
                        -----------------------------------------
Total Dipole Moment    :      0.00000      -0.00000       0.00000
                        -----------------------------------------
Magnitude (a.u.)       :      0.00000
Magnitude (Debye)      :      0.00000

Rotational constants in cm-1:     1.058828     0.007945     0.007945
Rotational constants in MHz : 31742.864071   238.175179   238.175179

                             ****ORCA TERMINATED NORMALLY****
TOTAL RUN TIME: 0 days 0 hours 0 minutes 48 seconds 833 msec
