                         Program Version 5.0.3 -  RELEASE  -
|  1> ! PBEh-3c def2/J TightSCF DefGrid3
|  2>
|  3> %maxcore 60000
|  4>
|  5> %pal
|  6> nprocs 4
|  7> end
|  8>
|  9> *xyzfile 0 1 H2O6.xyz
| 10>
| 11>                          ****END OF INPUT****

CARTESIAN COORDINATES (ANGSTROEM)
---------------------------------
  O      1.428258   -0.400367    1.410658
  H      0.496287   -0.731172    1.526604
  H      1.934661   -0.702716    2.168276
  O      0.737292    1.989317   -0.069513
  H      1.063709    1.445798    0.665245
  H      1.098946    1.538598   -0.844811
  O      1.625551   -0.526089   -1.363332
  H      2.354617   -0.952844   -1.820267
  H      1.765647   -0.666752   -0.406866
  O     -1.917463    1.245485   -0.075885
  H     -1.019528    1.645340   -0.086130
  H     -2.543551    1.968475   -0.161543
  O     -1.203787   -1.311199   -1.377411
  H     -0.271781   -1.129250   -1.575579
  H     -1.609014   -0.436397   -1.282336
  O     -1.131578   -1.158899    1.424314
  H     -1.191705   -1.494189    0.506204
  H     -1.616561   -0.323138    1.362372

 Total Charge           Charge          ....    0
 Multiplicity           Mult            ....    1
 Number of Electrons    NEL             ....   60
 Basis Dimension        Dim             ....  114

ORBITAL ENERGIES
----------------

  NO   OCC          E(Eh)            E(eV)
   0   2.0000     -19.499056      -530.5963
   1   2.0000     -19.495587      -530.5019
   2   2.0000     -19.483294      -530.1674
   3   2.0000     -19.481265      -530.1122
   4   2.0000     -19.472619      -529.8769
   5   2.0000     -19.460543      -529.5483
   6   2.0000      -1.127927       -30.6925
   7   2.0000      -1.115182       -30.3457
   8   2.0000      -1.110471       -30.2175
   9   2.0000      -1.101124       -29.9631
  10   2.0000      -1.092127       -29.7183
  11   2.0000      -1.079992       -29.3881
  12   2.0000      -0.615607       -16.7515
  13   2.0000      -0.599956       -16.3256
  14   2.0000      -0.592267       -16.1164
  15   2.0000      -0.580275       -15.7901
  16   2.0000      -0.567681       -15.4474
  17   2.0000      -0.565084       -15.3767
  18   2.0000      -0.482759       -13.1365
  19   2.0000      -0.475223       -12.9315
  20   2.0000      -0.452830       -12.3221
  21   2.0000      -0.445683       -12.1277
  22   2.0000      -0.433488       -11.7958
  23   2.0000      -0.410768       -11.1776
  24   2.0000      -0.382630       -10.4119
  25   2.0000      -0.380727       -10.3601
  26   2.0000      -0.367515       -10.0006
  27   2.0000      -0.366415        -9.9707
  28   2.0000      -0.359154        -9.7731
  29   2.0000      -0.341737        -9.2991
  30   0.0000       0.091917         2.5012
  31   0.0000       0.135965         3.6998
  32   0.0000       0.144781         3.9397
  33   0.0000       0.192711         5.2439
  34   0.0000       0.198195         5.3932

MULLIKEN ATOMIC CHARGES
-----------------------
   0 O :   -0.891157
   1 H :    0.460061
   2 H :    0.428869
   3 O :   -0.862972
   4 H :    0.441465
   5 H :    0.436496
   6 O :   -0.868171
   7 H :    0.426635
   8 H :    0.448837
   9 O :   -0.883558
  10 H :    0.447955
  11 H :    0.421805
  12 O :   -0.873263
  13 H :    0.431606
  14 H :    0.429311
  15 O :   -0.875767
  16 H :    0.445285
  17 H :    0.436561
Sum of atomic charges:   -0.0000000

LOEWDIN ATOMIC CHARGES
----------------------
   0 O :   -0.617454
   1 H :    0.306985
   2 H :    0.309857
   3 O :   -0.593838
   4 H :    0.303240
   5 H :    0.306584
   6 O :   -0.604883
   7 H :    0.309290
   8 H :    0.301725
   9 O :   -0.620869
  10 H :    0.298894
  11 H :    0.306058
  12 O :   -0.609370
  13 H :    0.295439
  14 H :    0.298854
  15 O :   -0.600734
  16 H :    0.304248
  17 H :    0.305973

  Mayer bond orders larger than 0.100000
B(  0-O ,  1-H ) :   0.6246 B(  0-O ,  2-H ) :   0.7954 B(  0-O ,  8-H ) :   0.1178
B(  1-H , 15-O ) :   0.1895 B(  3-O ,  4-H ) :   0.7331 B(  3-O ,  5-H ) :   0.7582
B(  3-O , 10-H ) :   0.1494 B(  6-O ,  7-H ) :   0.7978 B(  6-O ,  8-H ) :   0.6924
B(  9-O , 10-H ) :   0.6718 B(  9-O , 11-H ) :   0.8016 B( 12-O , 13-H ) :   0.7375
B( 12-O , 14-H ) :   0.7488 B( 12-O , 16-H ) :   0.1345 B( 15-O , 16-H ) :   0.6941
B( 15-O , 17-H ) :   0.7519

Dispersion correction           -0.006184984
FINAL SINGLE POINT ENERGY      -457.637562320423

DIPOLE MOMENT
-------------
                                X             Y             Z
Electronic contribution:     -0.04031      -0.04076       0.01842
Nuclear contribution   :      1.15297       0.40391       0.12777
                        -----------------------------------------
Total Dipole Moment    :      1.11266       0.36315       0.14619
                        -----------------------------------------
Magnitude (a.u.)       :      1.17951
Magnitude (Debye)      :      2.99808

Rotational constants in cm-1:     0.055479     0.047107     0.044765
Rotational constants in MHz :  1663.226276  1412.227924  1342.030778

                             ****ORCA TERMINATED NORMALLY****
TOTAL RUN TIME: 0 days 0 hours 1 minutes 24 seconds 369 msec
