                         Program Version 5.0.3 -  RELEASE  -
|  1> ! PBEh-3c def2/J TightSCF DefGrid3
|  2>
|  3> %maxcore 60000
|  4>
|  5> %pal
|  6> nprocs 4
|  7> end
|  8>
|  9> *xyzfile 1 2 IP_75.xyz
| 10>
| 11>                          ****END OF INPUT****

CARTESIAN COORDINATES (ANGSTROEM)
---------------------------------
  O      0.000000    0.000000    0.554007
  O      0.000000    0.000000   -0.554007

 Total Charge           Charge          ....    1
 Multiplicity           Mult            ....    2
 Number of Electrons    NEL             ....   15
 Basis Dimension        Dim             ....   30

ORBITAL ENERGIES
----------------
                 SPIN UP ORBITALS
  NO   OCC          E(Eh)            E(eV)
   0   1.0000     -20.196591      -549.5772
   1   1.0000     -20.196183      -549.5661
   2   1.0000      -2.011577       -54.7378
   3   1.0000      -1.352760       -36.8105
   4   1.0000      -1.160048       -31.5665
   5   1.0000      -1.098735       -29.8981
   6   1.0000      -1.092268       -29.7221
   7   1.0000      -0.812886       -22.1197
   8   0.0000      -0.564165       -15.3517
   9   0.0000      -0.033887        -0.9221
  10   0.0000       0.406169        11.0524
  11   0.0000       0.455212        12.3870
  12   0.0000       0.469727        12.7819

                 SPIN DOWN ORBITALS
  NO   OCC          E(Eh)            E(eV)
   0   1.0000     -20.177469      -549.0569
   1   1.0000     -20.176859      -549.0402
   2   1.0000      -1.976752       -53.7902
   3   1.0000      -1.292946       -35.1829
   4   1.0000      -1.075899       -29.2767
   5   1.0000      -1.070879       -29.1401
   6   1.0000      -1.028699       -27.9923
   7   0.0000      -0.542991       -14.7755
   8   0.0000      -0.492103       -13.3908
   9   0.0000      -0.005308        -0.1444
  10   0.0000       0.416887        11.3441
  11   0.0000       0.478051        13.0084

MULLIKEN ATOMIC CHARGES AND SPIN POPULATIONS
--------------------------------------------
   0 O :    0.500000    0.500000
   1 O :    0.500000    0.500000
Sum of atomic charges         :    1.0000000

LOEWDIN ATOMIC CHARGES AND SPIN POPULATIONS
-------------------------------------------
   0 O :    0.500000    0.500000
   1 O :    0.500000    0.500000

  Mayer bond orders larger than 0.100000
B(  0-O ,  1-O ) :   2.4146

Dispersion correction           -0.000143620
FINAL SINGLE POINT ENERGY      -149.547687532639

DIPOLE MOMENT
-------------
                                X             Y             Z
Electronic contribution:     -0.00000       0.00000       0.00000
Nuclear contribution   :      0.00000       0.00000       0.00000
                        -----------------------------------------
Total Dipole Moment    :     -0.00000       0.00000       0.00000
                        -----------------------------------------
Magnitude (a.u.)       :      0.00000
Magnitude (Debye)      :      0.00000

Rotational constants in cm-1:     0.000000     1.716501     1.716501
Rotational constants in MHz :     0.000000 51459.402100 51459.402100

                             ****ORCA TERMINATED NORMALLY****
TOTAL RUN TIME: 0 days 0 hours 0 minutes 9 seconds 939 msec
