                         Program Version 5.0.3 -  RELEASE  -
|  1> ! PBEh-3c def2/J TightSCF DefGrid3
|  2>
|  3> %maxcore 60000
|  4>
|  5> %pal
|  6> nprocs 4
|  7> end
|  8>
|  9> *xyzfile 0 1 4N.xyz
| 10>
| 11>                          ****END OF INPUT****

CARTESIAN COORDINATES (ANGSTROEM)
---------------------------------
  C     -0.001122   -0.246004   -0.122512
  C      0.102878    0.554343    2.001375
  C      0.104620   -0.790559    2.079882
  N      0.041142   -1.247768    0.781969
  N      0.037893    0.856017    0.658830
  H      0.141519    1.300025    2.779498
  H      0.144621   -1.440234    2.939659
  C      0.020816   -2.639475    0.410506
  C      0.019363    2.194482    0.126058
  H      0.923064   -3.151181    0.748469
  H     -0.847660   -3.147749    0.831829
  H     -0.030349   -2.695589   -0.673397
  H     -0.835096    2.757533    0.504391
  H      0.932772    2.734111    0.380661
  H     -0.057404    2.123241   -0.956501
  N     -0.187455    0.511531   -3.323325
  H     -0.131174    0.107324   -2.390092
  H     -0.999221    1.113113   -3.338213
  H      0.620793    1.106842   -3.439084

 Total Charge           Charge          ....    0
 Multiplicity           Mult            ....    1
 Number of Electrons    NEL             ....   62
 Basis Dimension        Dim             ....  142

ORBITAL ENERGIES
----------------

  NO   OCC          E(Eh)            E(eV)
   0   2.0000     -14.688140      -399.6846
   1   2.0000     -14.687769      -399.6745
   2   2.0000     -14.559748      -396.1909
   3   2.0000     -10.473646      -285.0024
   4   2.0000     -10.472791      -284.9791
   5   2.0000     -10.472754      -284.9781
   6   2.0000     -10.470810      -284.9252
   7   2.0000     -10.449711      -284.3511
   8   2.0000      -1.140235       -31.0274
   9   2.0000      -1.021080       -27.7850
  10   2.0000      -0.899206       -24.4686
  11   2.0000      -0.870499       -23.6875
  12   2.0000      -0.817787       -22.2531
  13   2.0000      -0.771492       -20.9934
  14   2.0000      -0.676829       -18.4175
  15   2.0000      -0.645724       -17.5710
  16   2.0000      -0.596988       -16.2449
  17   2.0000      -0.542644       -14.7661
  18   2.0000      -0.523067       -14.2334
  19   2.0000      -0.507521       -13.8103
  20   2.0000      -0.499518       -13.5926
  21   2.0000      -0.497487       -13.5373
  22   2.0000      -0.479824       -13.0567
  23   2.0000      -0.473526       -12.8853
  24   2.0000      -0.451159       -12.2767
  25   2.0000      -0.440897       -11.9974
  26   2.0000      -0.437750       -11.9118
  27   2.0000      -0.324054        -8.8180
  28   2.0000      -0.281912        -7.6712
  29   2.0000      -0.273620        -7.4456
  30   2.0000      -0.257340        -7.0026
  31   0.0000       0.058947         1.6040
  32   0.0000       0.080829         2.1995
  33   0.0000       0.141883         3.8608
  34   0.0000       0.151769         4.1299
  35   0.0000       0.169855         4.6220

MULLIKEN ATOMIC CHARGES
-----------------------
   0 C :    0.103809
   1 C :   -0.081010
   2 C :   -0.087926
   3 N :   -0.412703
   4 N :   -0.409261
   5 H :    0.245580
   6 H :    0.245924
   7 C :   -0.497372
   8 C :   -0.494970
   9 H :    0.223985
  10 H :    0.224062
  11 H :    0.267345
  12 H :    0.223775
  13 H :    0.224470
  14 H :    0.248557
  15 N :   -0.994751
  16 H :    0.380503
  17 H :    0.294930
  18 H :    0.295052
Sum of atomic charges:    0.0000000

LOEWDIN ATOMIC CHARGES
----------------------
   0 C :   -0.210655
   1 C :   -0.128163
   2 C :   -0.126489
   3 N :   -0.044645
   4 N :   -0.046505
   5 H :    0.141686
   6 H :    0.141865
   7 C :   -0.244620
   8 C :   -0.246766
   9 H :    0.125536
  10 H :    0.125558
  11 H :    0.154110
  12 H :    0.125281
  13 H :    0.125374
  14 H :    0.145661
  15 N :   -0.675805
  16 H :    0.224928
  17 H :    0.206775
  18 H :    0.206875

  Mayer bond orders larger than 0.100000
B(  0-C ,  3-N ) :   1.2161 B(  0-C ,  4-N ) :   1.2341 B(  0-C , 16-H ) :   0.1036
B(  1-C ,  2-C ) :   1.6896 B(  1-C ,  4-N ) :   1.0932 B(  1-C ,  5-H ) :   0.9032
B(  2-C ,  3-N ) :   1.1020 B(  2-C ,  6-H ) :   0.9030 B(  3-N ,  7-C ) :   0.9449
B(  4-N ,  8-C ) :   0.9453 B(  7-C ,  9-H ) :   0.9159 B(  7-C , 10-H ) :   0.9158
B(  7-C , 11-H ) :   0.9093 B(  8-C , 12-H ) :   0.9159 B(  8-C , 13-H ) :   0.9154
B(  8-C , 14-H ) :   0.9020 B( 15-N , 16-H ) :   0.7721 B( 15-N , 17-H ) :   0.8903
B( 15-N , 18-H ) :   0.8903

Dispersion correction           -0.008778513
FINAL SINGLE POINT ENERGY      -360.564691494629

DIPOLE MOMENT
-------------
                                X             Y             Z
Electronic contribution:      0.34585      -1.13512       6.47564
Nuclear contribution   :     -0.24925       1.54782      -4.74430
                        -----------------------------------------
Total Dipole Moment    :      0.09659       0.41270       1.73134
                        -----------------------------------------
Magnitude (a.u.)       :      1.78247
Magnitude (Debye)      :      4.53068

Rotational constants in cm-1:     0.077589     0.048266     0.030236
Rotational constants in MHz :  2326.066616  1446.989013   906.456681

                             ****ORCA TERMINATED NORMALLY****
TOTAL RUN TIME: 0 days 0 hours 1 minutes 8 seconds 680 msec
