                         Program Version 5.0.3 -  RELEASE  -
|  1> ! PBEh-3c def2/J TightSCF DefGrid3
|  2>
|  3> %maxcore 60000
|  4>
|  5> %pal
|  6> nprocs 4
|  7> end
|  8>
|  9> *xyzfile 0 1 21.xyz
| 10>
| 11>                          ****END OF INPUT****

CARTESIAN COORDINATES (ANGSTROEM)
---------------------------------
  Na    -1.155163    2.739209    1.341528
  H     -1.442978   -1.794941   -0.126125
  O     -0.401409    2.511957   -0.740465
  H      1.549110    1.293540    1.664041
  Mg     0.655754   -2.338419    0.228744
  H      1.698328   -1.699415   -3.206224
  Al     0.384957    0.908174   -0.555689
  H     -1.443639   -0.480513   -1.638768
  H      2.279437   -1.739894   -0.593872
  Mg    -0.754341   -0.369993    1.634349
  O      0.675806    1.105307    1.292039
  Cl    -2.222445    0.888818    2.927271
  Al     1.386333   -0.920013   -1.852387
  H     -0.627030    2.800934   -1.633693
  H      0.214596   -2.005311    1.965027
  B     -0.797318   -0.899439   -0.705777

 Total Charge           Charge          ....    0
 Multiplicity           Mult            ....    1
 Number of Electrons    NEL             ....  106
 Basis Dimension        Dim             ....  164

ORBITAL ENERGIES
----------------

  NO   OCC          E(Eh)            E(eV)
   0   2.0000    -102.255344     -2782.5094
   1   2.0000     -56.589343     -1539.8743
   2   2.0000     -56.555004     -1538.9399
   3   2.0000     -47.370938     -1289.0288
   4   2.0000     -47.356545     -1288.6371
   5   2.0000     -38.965154     -1060.2958
   6   2.0000     -19.510019      -530.8946
   7   2.0000     -19.480076      -530.0798
   8   2.0000      -9.719840      -264.4903
   9   2.0000      -7.403537      -201.4605
  10   2.0000      -7.402275      -201.4261
  11   2.0000      -7.401482      -201.4046
  12   2.0000      -6.888256      -187.4390
  13   2.0000      -4.319807      -117.5479
  14   2.0000      -4.294805      -116.8676
  15   2.0000      -2.784268       -75.7638
  16   2.0000      -2.780395       -75.6584
  17   2.0000      -2.810658       -76.4819
  18   2.0000      -2.808581       -76.4254
  19   2.0000      -2.807955       -76.4083
  20   2.0000      -2.784683       -75.7751
  21   2.0000      -3.322708       -90.4155
  22   2.0000      -3.304520       -89.9206
  23   2.0000      -2.403002       -65.3890
  24   2.0000      -2.007094       -54.6158
  25   2.0000      -2.005101       -54.5616
  26   2.0000      -2.003721       -54.5240
  27   2.0000      -1.988583       -54.1121
  28   2.0000      -1.988085       -54.0986
  29   2.0000      -1.987097       -54.0717
  30   2.0000      -1.279273       -34.8108
  31   2.0000      -1.277874       -34.7727
  32   2.0000      -1.276147       -34.7257
  33   2.0000      -1.098720       -29.8977
  34   2.0000      -1.067999       -29.0617
  35   2.0000      -0.848409       -23.0864
  36   2.0000      -0.603019       -16.4090
  37   2.0000      -0.556531       -15.1440
  38   2.0000      -0.542331       -14.7576
  39   2.0000      -0.460934       -12.5427
  40   2.0000      -0.441414       -12.0115
  41   2.0000      -0.424886       -11.5617
  42   2.0000      -0.420972       -11.4552
  43   2.0000      -0.403056       -10.9677
  44   2.0000      -0.378240       -10.2924
  45   2.0000      -0.374759       -10.1977
  46   2.0000      -0.357029        -9.7153
  47   2.0000      -0.351086        -9.5535
  48   2.0000      -0.343482        -9.3466
  49   2.0000      -0.330301        -8.9879
  50   2.0000      -0.305323        -8.3083
  51   2.0000      -0.215404        -5.8614
  52   2.0000      -0.203144        -5.5278
  53   0.0000      -0.048077        -1.3082
  54   0.0000      -0.021097        -0.5741
  55   0.0000       0.004853         0.1321
  56   0.0000       0.025263         0.6875
  57   0.0000       0.034719         0.9447

MULLIKEN ATOMIC CHARGES
-----------------------
   0 Na:    0.599531
   1 H :    0.061274
   2 O :   -0.844872
   3 H :    0.460411
   4 Mg:    0.183147
   5 H :   -0.083809
   6 Al:    0.823242
   7 H :    0.133519
   8 H :   -0.156615
   9 Mg:    0.525686
  10 O :   -0.860960
  11 Cl:   -0.417102
  12 Al:    0.293079
  13 H :    0.446493
  14 H :   -0.180187
  15 B :   -0.982837
Sum of atomic charges:   -0.0000000

LOEWDIN ATOMIC CHARGES
----------------------
   0 Na:    0.175695
   1 H :    0.162954
   2 O :   -0.408686
   3 H :    0.357625
   4 Mg:   -0.109327
   5 H :   -0.063227
   6 Al:    0.375926
   7 H :    0.093160
   8 H :    0.028437
   9 Mg:   -0.371287
  10 O :   -0.317034
  11 Cl:    0.133443
  12 Al:    0.099381
  13 H :    0.337161
  14 H :    0.042187
  15 B :   -0.536408

  Mayer bond orders larger than 0.100000
B(  0-Na,  2-O ) :   0.2322 B(  0-Na, 10-O ) :   0.1299 B(  0-Na, 11-Cl) :   0.2990
B(  1-H ,  4-Mg) :   0.1139 B(  1-H , 15-B ) :   0.7170 B(  2-O ,  6-Al) :   0.8115
B(  2-O , 13-H ) :   0.7578 B(  3-H , 10-O ) :   0.7416 B(  4-Mg,  8-H ) :   0.4919
B(  4-Mg,  9-Mg) :   0.2157 B(  4-Mg, 12-Al) :   0.4010 B(  4-Mg, 14-H ) :   0.5720
B(  4-Mg, 15-B ) :   0.7305 B(  5-H , 12-Al) :   0.9511 B(  6-Al, 10-O ) :   0.5182
B(  6-Al, 12-Al) :   0.8883 B(  6-Al, 15-B ) :   0.4185 B(  7-H , 15-B ) :   0.9274
B(  8-H , 12-Al) :   0.4329 B(  9-Mg, 10-O ) :   0.3800 B(  9-Mg, 11-Cl) :   0.7546
B(  9-Mg, 14-H ) :   0.3924 B(  9-Mg, 15-B ) :   0.5056 B( 12-Al, 15-B ) :   0.3976

Dispersion correction           -0.010000870
FINAL SINGLE POINT ENERGY     -1684.924821103570

DIPOLE MOMENT
-------------
                                X             Y             Z
Electronic contribution:     -5.20796       7.45201       8.27823
Nuclear contribution   :      5.52579      -6.06270      -6.94557
                        -----------------------------------------
Total Dipole Moment    :      0.31782       1.38931       1.33265
                        -----------------------------------------
Magnitude (a.u.)       :      1.95120
Magnitude (Debye)      :      4.95955

Rotational constants in cm-1:     0.037172     0.017926     0.013429
Rotational constants in MHz :  1114.373864   537.410432   402.584048

                             ****ORCA TERMINATED NORMALLY****
TOTAL RUN TIME: 0 days 0 hours 2 minutes 55 seconds 213 msec
