                         Program Version 5.0.3 -  RELEASE  -
|  1> ! PBEh-3c def2/J TightSCF DefGrid3
|  2>
|  3> %maxcore 60000
|  4>
|  5> %pal
|  6> nprocs 4
|  7> end
|  8>
|  9> *xyzfile 0 1 butadiene_scis.xyz
| 10>
| 11>                          ****END OF INPUT****

CARTESIAN COORDINATES (ANGSTROEM)
---------------------------------
  C      0.309455    1.488577    0.428935
  C      0.008695    0.730768   -0.617888
  C     -0.008695   -0.730768   -0.617888
  C     -0.309455   -1.488577    0.428935
  H     -0.219875    1.212131   -1.559655
  H      0.291885    2.564838    0.367168
  H      0.593882    1.052574    1.374964
  H      0.219875   -1.212131   -1.559655
  H     -0.593882   -1.052574    1.374964
  H     -0.291885   -2.564838    0.367168

 Total Charge           Charge          ....    0
 Multiplicity           Mult            ....    1
 Number of Electrons    NEL             ....   30
 Basis Dimension        Dim             ....   72

ORBITAL ENERGIES
----------------

  NO   OCC          E(Eh)            E(eV)
   0   2.0000     -10.448554      -284.3196
   1   2.0000     -10.448245      -284.3112
   2   2.0000     -10.437555      -284.0203
   3   2.0000     -10.437532      -284.0197
   4   2.0000      -0.902476       -24.5576
   5   2.0000      -0.818420       -22.2703
   6   2.0000      -0.695833       -18.9346
   7   2.0000      -0.599212       -16.3054
   8   2.0000      -0.558713       -15.2034
   9   2.0000      -0.499395       -13.5892
  10   2.0000      -0.484793       -13.1919
  11   2.0000      -0.424282       -11.5453
  12   2.0000      -0.401843       -10.9347
  13   2.0000      -0.362119        -9.8537
  14   2.0000      -0.278330        -7.5737
  15   0.0000      -0.002051        -0.0558
  16   0.0000       0.105107         2.8601
  17   0.0000       0.160152         4.3580
  18   0.0000       0.177620         4.8333
  19   0.0000       0.208973         5.6864

MULLIKEN ATOMIC CHARGES
-----------------------
   0 C :   -0.478055
   1 C :   -0.179911
   2 C :   -0.179911
   3 C :   -0.478055
   4 H :    0.220162
   5 H :    0.220848
   6 H :    0.216957
   7 H :    0.220162
   8 H :    0.216957
   9 H :    0.220848
Sum of atomic charges:    0.0000000

LOEWDIN ATOMIC CHARGES
----------------------
   0 C :   -0.252155
   1 C :   -0.147499
   2 C :   -0.147499
   3 C :   -0.252155
   4 H :    0.133481
   5 H :    0.134197
   6 H :    0.131976
   7 H :    0.133481
   8 H :    0.131976
   9 H :    0.134197

  Mayer bond orders larger than 0.100000
B(  0-C ,  1-C ) :   1.8846 B(  0-C ,  5-H ) :   0.9273 B(  0-C ,  6-H ) :   0.9278
B(  1-C ,  2-C ) :   1.0756 B(  1-C ,  4-H ) :   0.9154 B(  2-C ,  3-C ) :   1.8846
B(  2-C ,  7-H ) :   0.9154 B(  3-C ,  8-H ) :   0.9278 B(  3-C ,  9-H ) :   0.9273

Dispersion correction           -0.003645572
FINAL SINGLE POINT ENERGY      -155.629350167532

DIPOLE MOMENT
-------------
                                X             Y             Z
Electronic contribution:      0.00000       0.00000      -0.81137
Nuclear contribution   :     -0.00000       0.00000       0.77646
                        -----------------------------------------
Total Dipole Moment    :      0.00000       0.00000      -0.03491
                        -----------------------------------------
Magnitude (a.u.)       :      0.03491
Magnitude (Debye)      :      0.08874

Rotational constants in cm-1:     0.721348     0.192005     0.154741
Rotational constants in MHz : 21625.459240  5756.175736  4639.025241

                             ****ORCA TERMINATED NORMALLY****
TOTAL RUN TIME: 0 days 0 hours 1 minutes 7 seconds 91 msec
