                         Program Version 5.0.3 -  RELEASE  -
|  1> ! PBEh-3c def2/J TightSCF DefGrid3
|  2>
|  3> %maxcore 60000
|  4>
|  5> %pal
|  6> nprocs 4
|  7> end
|  8>
|  9> *xyzfile 0 1 PCH_NIS.xyz
| 10>
| 11>                          ****END OF INPUT****

CARTESIAN COORDINATES (ANGSTROEM)
---------------------------------
  P      0.000000    0.000000    3.969345
  C      0.000000    0.000000    5.492708
  H      0.000000    0.000000    6.564214
  N      0.000000    0.000000   -1.543710
  O      0.000000    2.281514   -1.942986
  O      0.000000   -2.281514   -1.942986
  C      0.000000   -1.149654   -2.335768
  C      0.000000   -0.661765   -3.754614
  C      0.000000    0.661765   -3.754614
  H      0.000000    1.349343   -4.586022
  H      0.000000   -1.349343   -4.586022
  C      0.000000    1.149654   -2.335768
  I      0.000000    0.000000    0.473391

 Total Charge           Charge          ....    0
 Multiplicity           Mult            ....    1
 Number of Electrons    NEL             ....   96
 Basis Dimension        Dim             ....  170

ORBITAL ENERGIES
----------------

  NO   OCC          E(Eh)            E(eV)
   0   2.0000     -77.760872     -2115.9809
   1   2.0000     -19.512716      -530.9680
   2   2.0000     -19.512701      -530.9676
   3   2.0000     -14.718349      -400.5066
   4   2.0000     -10.590872      -288.1923
   5   2.0000     -10.590832      -288.1912
   6   2.0000     -10.500082      -285.7218
   7   2.0000     -10.499353      -285.7019
   8   2.0000     -10.499070      -285.6942
   9   2.0000      -7.134690      -194.1448
  10   2.0000      -6.838714      -186.0909
  11   2.0000      -5.123763      -139.4247
  12   2.0000      -5.098469      -138.7364
  13   2.0000      -5.098353      -138.7332
  14   2.0000      -4.928214      -134.1035
  15   2.0000      -4.928211      -134.1034
  16   2.0000      -4.928091      -134.1002
  17   2.0000      -2.076850       -56.5140
  18   2.0000      -2.068779       -56.2943
  19   2.0000      -2.068645       -56.2907
  20   2.0000      -2.047142       -55.7056
  21   2.0000      -2.047127       -55.7052
  22   2.0000      -1.205563       -32.8050
  23   2.0000      -1.188017       -32.3276
  24   2.0000      -1.077855       -29.3299
  25   2.0000      -0.931109       -25.3368
  26   2.0000      -0.818196       -22.2642
  27   2.0000      -0.798900       -21.7392
  28   2.0000      -0.775311       -21.0973
  29   2.0000      -0.695065       -18.9137
  30   2.0000      -0.646655       -17.5964
  31   2.0000      -0.621066       -16.9001
  32   2.0000      -0.582316       -15.8456
  33   2.0000      -0.553501       -15.0615
  34   2.0000      -0.541136       -14.7251
  35   2.0000      -0.526707       -14.3324
  36   2.0000      -0.502851       -13.6833
  37   2.0000      -0.501954       -13.6589
  38   2.0000      -0.472339       -12.8530
  39   2.0000      -0.426083       -11.5943
  40   2.0000      -0.386733       -10.5235
  41   2.0000      -0.372879       -10.1465
  42   2.0000      -0.366950        -9.9852
  43   2.0000      -0.344067        -9.3625
  44   2.0000      -0.343177        -9.3383
  45   2.0000      -0.340269        -9.2592
  46   2.0000      -0.329203        -8.9581
  47   2.0000      -0.304512        -8.2862
  48   0.0000      -0.079555        -2.1648
  49   0.0000      -0.061680        -1.6784
  50   0.0000      -0.035344        -0.9618
  51   0.0000      -0.035249        -0.9592
  52   0.0000       0.087686         2.3861

MULLIKEN ATOMIC CHARGES
-----------------------
   0 P :    0.146243
   1 C :   -0.390680
   2 H :    0.258601
   3 N :   -0.768781
   4 O :   -0.330821
   5 O :   -0.330821
   6 C :    0.573324
   7 C :   -0.289215
   8 C :   -0.289215
   9 H :    0.268786
  10 H :    0.268786
  11 C :    0.573324
  12 I :    0.310471
Sum of atomic charges:    0.0000000

LOEWDIN ATOMIC CHARGES
----------------------
   0 P :    0.233878
   1 C :   -0.363017
   2 H :    0.157716
   3 N :   -0.283764
   4 O :   -0.167835
   5 O :   -0.167835
   6 C :    0.119626
   7 C :   -0.125232
   8 C :   -0.125232
   9 H :    0.161313
  10 H :    0.161313
  11 C :    0.119626
  12 I :    0.279444

  Mayer bond orders larger than 0.100000
B(  0-P ,  1-C ) :   2.9236 B(  1-C ,  2-H ) :   0.8903 B(  3-N ,  6-C ) :   0.9733
B(  3-N , 11-C ) :   0.9733 B(  3-N , 12-I ) :   0.8539 B(  4-O , 11-C ) :   2.0898
B(  5-O ,  6-C ) :   2.0898 B(  6-C ,  7-C ) :   0.9673 B(  7-C ,  8-C ) :   1.7738
B(  7-C , 10-H ) :   0.9100 B(  8-C ,  9-H ) :   0.9100 B(  8-C , 11-C ) :   0.9673

Dispersion correction           -0.007366930
FINAL SINGLE POINT ENERGY     -1035.275128157044

DIPOLE MOMENT
-------------
                                X             Y             Z
Electronic contribution:      0.00000      -0.00000      35.93611
Nuclear contribution   :      0.00000       0.00000     -36.10227
                        -----------------------------------------
Total Dipole Moment    :      0.00000      -0.00000      -0.16616
                        -----------------------------------------
Magnitude (a.u.)       :      0.16616
Magnitude (Debye)      :      0.42234

Rotational constants in cm-1:     0.079330     0.010619     0.009365
Rotational constants in MHz :  2378.257039   318.340112   280.759257

                             ****ORCA TERMINATED NORMALLY****
TOTAL RUN TIME: 0 days 0 hours 2 minutes 22 seconds 658 msec
