                         Program Version 5.0.3 -  RELEASE  -
|  1> ! PBEh-3c def2/J TightSCF DefGrid3
|  2>
|  3> %maxcore 60000
|  4>
|  5> %pal
|  6> nprocs 4
|  7> end
|  8>
|  9> *xyzfile 0 1 32.xyz
| 10>
| 11>                          ****END OF INPUT****

CARTESIAN COORDINATES (ANGSTROEM)
---------------------------------
  N     -0.244278    2.634399    0.274663
  C      0.810066    1.871650    0.729460
  C      0.465712    0.538226    0.712259
  C     -0.877938    0.476347    0.208367
  C     -1.771620   -0.583676   -0.037892
  C     -3.026724   -0.287425   -0.539892
  C     -3.421513    1.043433   -0.803161
  C     -2.563225    2.104302   -0.561218
  C     -1.292650    1.806628   -0.053384
  H     -0.240095    3.634361    0.189664
  H      1.735299    2.335807    1.031090
  H     -1.503055   -1.616265    0.144076
  H     -4.404980    1.219445   -1.217642
  H     -2.866691    3.122024   -0.770177
  O     -3.898110   -1.322382   -0.830813
  C     -4.930682   -1.456143    0.142439
  H     -5.532914   -0.547551    0.209977
  H     -4.508985   -1.676811    1.126037
  H     -5.558576   -2.282751   -0.179571
  C      1.344633   -0.620957    1.061808
  C      1.951100   -1.272814   -0.194129
  N      2.757908   -0.350840   -0.972902
  C      4.065667   -0.022566   -0.724686
  C      4.859718   -0.991899    0.129484
  H      0.774349   -1.375972    1.610104
  H      2.153306   -0.289066    1.716613
  H      1.148687   -1.639703   -0.835427
  H      2.559909   -2.131946    0.082062
  H      2.258513    0.381148   -1.456181
  O      4.573554    0.980666   -1.205852
  H      4.850455   -1.991773   -0.303723
  H      4.452165   -1.058763    1.138222
  H      5.880997   -0.629140    0.180334

 Total Charge           Charge          ....    0
 Multiplicity           Mult            ....    1
 Number of Electrons    NEL             ....  124
 Basis Dimension        Dim             ....  287

ORBITAL ENERGIES
----------------

  NO   OCC          E(Eh)            E(eV)
   0   2.0000     -19.506809      -530.8073
   1   2.0000     -19.447318      -529.1884
   2   2.0000     -14.689946      -399.7338
   3   2.0000     -14.649160      -398.6239
   4   2.0000     -10.541564      -286.8505
   5   2.0000     -10.496326      -285.6196
   6   2.0000     -10.484132      -285.2877
   7   2.0000     -10.483669      -285.2751
   8   2.0000     -10.482179      -285.2346
   9   2.0000     -10.481616      -285.2193
  10   2.0000     -10.456802      -284.5440
  11   2.0000     -10.452320      -284.4221
  12   2.0000     -10.450833      -284.3816
  13   2.0000     -10.447311      -284.2858
  14   2.0000     -10.446954      -284.2761
  15   2.0000     -10.446372      -284.2602
  16   2.0000     -10.437783      -284.0265
  17   2.0000      -1.155140       -31.4329
  18   2.0000      -1.132416       -30.8146
  19   2.0000      -1.092534       -29.7294
  20   2.0000      -1.016590       -27.6628
  21   2.0000      -0.941239       -25.6124
  22   2.0000      -0.902463       -24.5573
  23   2.0000      -0.845310       -23.0021
  24   2.0000      -0.832060       -22.6415
  25   2.0000      -0.822855       -22.3910
  26   2.0000      -0.807697       -21.9785
  27   2.0000      -0.768220       -20.9043
  28   2.0000      -0.731974       -19.9180
  29   2.0000      -0.702400       -19.1133
  30   2.0000      -0.670860       -18.2550
  31   2.0000      -0.649249       -17.6670
  32   2.0000      -0.629758       -17.1366
  33   2.0000      -0.612868       -16.6770
  34   2.0000      -0.573571       -15.6077
  35   2.0000      -0.559417       -15.2225
  36   2.0000      -0.553904       -15.0725
  37   2.0000      -0.543395       -14.7865
  38   2.0000      -0.524932       -14.2841
  39   2.0000      -0.519577       -14.1384
  40   2.0000      -0.515136       -14.0176
  41   2.0000      -0.506623       -13.7859
  42   2.0000      -0.498151       -13.5554
  43   2.0000      -0.492896       -13.4124
  44   2.0000      -0.480434       -13.0733
  45   2.0000      -0.474002       -12.8982
  46   2.0000      -0.466047       -12.6818
  47   2.0000      -0.458020       -12.4634
  48   2.0000      -0.452683       -12.3181
  49   2.0000      -0.450283       -12.2528
  50   2.0000      -0.429954       -11.6996
  51   2.0000      -0.424394       -11.5483
  52   2.0000      -0.408502       -11.1159
  53   2.0000      -0.405961       -11.0468
  54   2.0000      -0.394170       -10.7259
  55   2.0000      -0.378470       -10.2987
  56   2.0000      -0.329142        -8.9564
  57   2.0000      -0.326932        -8.8963
  58   2.0000      -0.301950        -8.2165
  59   2.0000      -0.291295        -7.9265
  60   2.0000      -0.258307        -7.0289
  61   2.0000      -0.246421        -6.7055
  62   0.0000       0.000849         0.0231
  63   0.0000       0.046005         1.2519
  64   0.0000       0.065115         1.7719
  65   0.0000       0.083128         2.2620
  66   0.0000       0.121601         3.3089

MULLIKEN ATOMIC CHARGES
-----------------------
   0 N :   -0.699453
   1 C :   -0.054929
   2 C :    0.008969
   3 C :    0.072502
   4 C :   -0.433104
   5 C :    0.361758
   6 C :   -0.312609
   7 C :   -0.262073
   8 C :    0.365618
   9 H :    0.362266
  10 H :    0.253332
  11 H :    0.213396
  12 H :    0.229011
  13 H :    0.216868
  14 O :   -0.485846
  15 C :   -0.377027
  16 H :    0.198447
  17 H :    0.202606
  18 H :    0.220679
  19 C :   -0.532316
  20 C :   -0.296380
  21 N :   -0.596566
  22 C :    0.487712
  23 C :   -0.778645
  24 H :    0.228938
  25 H :    0.230564
  26 H :    0.250013
  27 H :    0.232895
  28 H :    0.369393
  29 O :   -0.419697
  30 H :    0.241516
  31 H :    0.230640
  32 H :    0.271519
Sum of atomic charges:   -0.0000000

LOEWDIN ATOMIC CHARGES
----------------------
   0 N :   -0.155548
   1 C :   -0.080304
   2 C :   -0.113306
   3 C :   -0.057154
   4 C :   -0.154324
   5 C :    0.043343
   6 C :   -0.158915
   7 C :   -0.151666
   8 C :    0.012711
   9 H :    0.263810
  10 H :    0.141691
  11 H :    0.142636
  12 H :    0.142637
  13 H :    0.137996
  14 O :   -0.220462
  15 C :   -0.172415
  16 H :    0.107961
  17 H :    0.110567
  18 H :    0.124308
  19 C :   -0.236906
  20 C :   -0.147129
  21 N :   -0.243299
  22 C :    0.104385
  23 C :   -0.398898
  24 H :    0.135836
  25 H :    0.132662
  26 H :    0.132694
  27 H :    0.128594
  28 H :    0.262307
  29 O :   -0.275273
  30 H :    0.145601
  31 H :    0.139966
  32 H :    0.155893

  Mayer bond orders larger than 0.100000
B(  0-N ,  1-C ) :   1.1365 B(  0-N ,  8-C ) :   1.0157 B(  0-N ,  9-H ) :   0.8313
B(  1-C ,  2-C ) :   1.5564 B(  1-C , 10-H ) :   0.9053 B(  2-C ,  3-C ) :   1.2395
B(  2-C , 19-C ) :   0.9600 B(  3-C ,  4-C ) :   1.2401 B(  3-C ,  8-C ) :   1.2434
B(  4-C ,  5-C ) :   1.4856 B(  4-C , 11-H ) :   0.9303 B(  5-C ,  6-C ) :   1.3180
B(  5-C , 14-O ) :   0.9538 B(  6-C ,  7-C ) :   1.4844 B(  6-C , 12-H ) :   0.9120
B(  7-C ,  8-C ) :   1.2897 B(  7-C , 13-H ) :   0.9200 B( 14-O , 15-C ) :   0.9516
B( 15-C , 16-H ) :   0.9118 B( 15-C , 17-H ) :   0.9124 B( 15-C , 18-H ) :   0.9283
B( 19-C , 20-C ) :   0.9442 B( 19-C , 24-H ) :   0.9126 B( 19-C , 25-H ) :   0.9239
B( 20-C , 21-N ) :   0.9747 B( 20-C , 26-H ) :   0.9084 B( 20-C , 27-H ) :   0.9076
B( 21-N , 22-C ) :   1.1529 B( 21-N , 28-H ) :   0.8124 B( 22-C , 23-C ) :   0.9254
B( 22-C , 29-O ) :   2.0301 B( 23-C , 30-H ) :   0.9093 B( 23-C , 31-H ) :   0.9088
B( 23-C , 32-H ) :   0.9159

Dispersion correction           -0.021641714
FINAL SINGLE POINT ENERGY      -763.323099634095

DIPOLE MOMENT
-------------
                                X             Y             Z
Electronic contribution:     -2.45135       7.77673      -3.82546
Nuclear contribution   :      1.50289      -7.70720       4.98370
                        -----------------------------------------
Total Dipole Moment    :     -0.94846       0.06952       1.15824
                        -----------------------------------------
Magnitude (a.u.)       :      1.49864
Magnitude (Debye)      :      3.80925

Rotational constants in cm-1:     0.032944     0.007487     0.006603
Rotational constants in MHz :   987.635159   224.447392   197.955205

                             ****ORCA TERMINATED NORMALLY****
TOTAL RUN TIME: 0 days 0 hours 4 minutes 30 seconds 692 msec
