                         Program Version 5.0.3 -  RELEASE  -
|  1> ! PBEh-3c def2/J TightSCF DefGrid3
|  2>
|  3> %maxcore 60000
|  4>
|  5> %pal
|  6> nprocs 4
|  7> end
|  8>
|  9> *xyzfile -1 1 231B.xyz
| 10>
| 11>                          ****END OF INPUT****

CARTESIAN COORDINATES (ANGSTROEM)
---------------------------------
  O      2.198290   -0.031840   -1.736150
  S      1.200240    0.007910   -2.856600
  C      2.282350    0.025370   -4.416500
  O      0.391490   -1.221350   -2.943300
  O      0.430300    1.264680   -2.884900
  F      1.501610    0.023040   -5.524560
  F      3.065340    1.132530   -4.442500
  F      3.081680   -1.069640   -4.447640

 Total Charge           Charge          ....   -1
 Multiplicity           Mult            ....    1
 Number of Electrons    NEL             ....   74
 Basis Dimension        Dim             ....  123

ORBITAL ENERGIES
----------------

  NO   OCC          E(Eh)            E(eV)
   0   2.0000     -89.636352     -2439.1291
   1   2.0000     -24.993261      -680.1012
   2   2.0000     -24.992842      -680.0898
   3   2.0000     -24.992692      -680.0857
   4   2.0000     -19.286423      -524.8102
   5   2.0000     -19.286128      -524.8022
   6   2.0000     -19.275597      -524.5157
   7   2.0000     -10.550907      -287.1048
   8   2.0000      -8.234412      -224.0698
   9   2.0000      -6.127219      -166.7301
  10   2.0000      -6.125253      -166.6766
  11   2.0000      -6.125117      -166.6729
  12   2.0000      -1.291388       -35.1405
  13   2.0000      -1.206535       -32.8315
  14   2.0000      -1.205791       -32.8113
  15   2.0000      -1.034286       -28.1444
  16   2.0000      -0.899431       -24.4748
  17   2.0000      -0.882819       -24.0227
  18   2.0000      -0.658369       -17.9151
  19   2.0000      -0.552213       -15.0265
  20   2.0000      -0.520817       -14.1722
  21   2.0000      -0.520563       -14.1652
  22   2.0000      -0.435317       -11.8456
  23   2.0000      -0.401964       -10.9380
  24   2.0000      -0.401739       -10.9319
  25   2.0000      -0.366323        -9.9682
  26   2.0000      -0.366010        -9.9596
  27   2.0000      -0.349747        -9.5171
  28   2.0000      -0.344698        -9.3797
  29   2.0000      -0.328705        -8.9445
  30   2.0000      -0.327091        -8.9006
  31   2.0000      -0.206239        -5.6120
  32   2.0000      -0.205938        -5.6039
  33   2.0000      -0.174888        -4.7590
  34   2.0000      -0.171842        -4.6761
  35   2.0000      -0.163295        -4.4435
  36   2.0000      -0.124405        -3.3852
  37   0.0000       0.285527         7.7696
  38   0.0000       0.299387         8.1467
  39   0.0000       0.300457         8.1759
  40   0.0000       0.362893         9.8748
  41   0.0000       0.372931        10.1480

MULLIKEN ATOMIC CHARGES
-----------------------
   0 O :   -0.722074
   1 S :    1.318920
   2 C :    0.758458
   3 O :   -0.699513
   4 O :   -0.699707
   5 F :   -0.320338
   6 F :   -0.317893
   7 F :   -0.317854
Sum of atomic charges:   -1.0000000

LOEWDIN ATOMIC CHARGES
----------------------
   0 O :   -0.651983
   1 S :    1.146354
   2 C :    0.230685
   3 O :   -0.624901
   4 O :   -0.625321
   5 F :   -0.160091
   6 F :   -0.157426
   7 F :   -0.157317

  Mayer bond orders larger than 0.100000
B(  0-O ,  1-S ) :   1.5671 B(  1-S ,  2-C ) :   0.7568 B(  1-S ,  3-O ) :   1.6043
B(  1-S ,  4-O ) :   1.6043 B(  2-C ,  5-F ) :   0.9815 B(  2-C ,  6-F ) :   0.9840
B(  2-C ,  7-F ) :   0.9839

Dispersion correction           -0.003558616
FINAL SINGLE POINT ENERGY      -959.955986427054

DIPOLE MOMENT
-------------
                                X             Y             Z
Electronic contribution:      3.27901       0.05521      -5.01750
Nuclear contribution   :     -2.26430      -0.03564       3.32210
                        -----------------------------------------
Total Dipole Moment    :      1.01472       0.01957      -1.69540
                        -----------------------------------------
Magnitude (a.u.)       :      1.97596
Magnitude (Debye)      :      5.02249

Rotational constants in cm-1:     0.088487     0.050282     0.050195
Rotational constants in MHz :  2652.769612  1507.425716  1504.798469

                             ****ORCA TERMINATED NORMALLY****
TOTAL RUN TIME: 0 days 0 hours 1 minutes 14 seconds 845 msec
