                         Program Version 5.0.3 -  RELEASE  -
|  1> ! PBEh-3c def2/J TightSCF DefGrid3
|  2>
|  3> %maxcore 60000
|  4>
|  5> %pal
|  6> nprocs 4
|  7> end
|  8>
|  9> *xyzfile 0 1 i6e.xyz
| 10>
| 11>                          ****END OF INPUT****

CARTESIAN COORDINATES (ANGSTROEM)
---------------------------------
  C      1.401540   -0.692893    0.141904
  C      1.000760   -2.071900    0.274583
  C      1.646564   -3.303452    0.052146
  C      0.937984   -4.483657    0.263956
  C     -0.410656   -4.463438    0.686143
  C     -1.084573   -3.260541    0.891569
  C     -0.361901   -2.084268    0.677225
  H      2.680353   -3.327608   -0.283145
  H      1.427801   -5.440935    0.097312
  H     -0.935269   -5.403325    0.845131
  H     -2.125875   -3.224975    1.200366
  N     -0.774648   -0.767292    0.760066
  C      0.291229    0.089843    0.437902
  C      0.175640    1.547997    0.556509
  C      2.727385   -0.215785   -0.273350
  C      3.893694   -0.832330    0.220383
  C      5.159282   -0.387567   -0.170333
  C      5.286288    0.683585   -1.061182
  C      4.134382    1.303236   -1.561295
  C      2.870090    0.855793   -1.176604
  H      3.799655   -1.650817    0.930097
  H      6.048188   -0.874618    0.227170
  H      6.271984    1.030489   -1.365270
  H      4.221881    2.132509   -2.261208
  H      1.978467    1.332578   -1.575563
  C     -0.896420    2.260857   -0.013974
  C     -0.971393    3.650203    0.115557
  C      0.023099    4.350251    0.806272
  C      1.096627    3.650414    1.371215
  C      1.170896    2.262889    1.252200
  H     -1.657902    1.731236   -0.578589
  H     -1.804876    4.185814   -0.335017
  H     -0.035889    5.432644    0.902783
  H      1.875003    4.186844    1.910529
  H      2.002033    1.717174    1.690650
  N     -2.032698   -0.404188    1.206714
  C     -3.052464   -0.198213    0.250708
  C     -4.205214    0.504414    0.641107
  C     -5.251261    0.685472   -0.263218
  C     -5.165723    0.171290   -1.563332
  C     -4.016173   -0.527219   -1.945123
  C     -2.959663   -0.716570   -1.049693
  H     -4.272285    0.909834    1.650000
  H     -6.136686    1.235663    0.049712
  H     -5.982952    0.314366   -2.266376
  H     -3.933693   -0.931954   -2.952071
  H     -2.068751   -1.259410   -1.351784
  H     -1.983859    0.297559    1.937219

 Total Charge           Charge          ....    0
 Multiplicity           Mult            ....    1
 Number of Electrons    NEL             ....  190
 Basis Dimension        Dim             ....  460

ORBITAL ENERGIES
----------------

  NO   OCC          E(Eh)            E(eV)
   0   2.0000     -14.723467      -400.6459
   1   2.0000     -14.699423      -399.9916
   2   2.0000     -10.502221      -285.7800
   3   2.0000     -10.496382      -285.6211
   4   2.0000     -10.482198      -285.2351
   5   2.0000     -10.474574      -285.0277
   6   2.0000     -10.461588      -284.6743
   7   2.0000     -10.459191      -284.6090
   8   2.0000     -10.458815      -284.5988
   9   2.0000     -10.458744      -284.5969
  10   2.0000     -10.458449      -284.5889
  11   2.0000     -10.457859      -284.5728
  12   2.0000     -10.457202      -284.5549
  13   2.0000     -10.457034      -284.5504
  14   2.0000     -10.455812      -284.5171
  15   2.0000     -10.452011      -284.4137
  16   2.0000     -10.451196      -284.3915
  17   2.0000     -10.449818      -284.3540
  18   2.0000     -10.448399      -284.3154
  19   2.0000     -10.448359      -284.3143
  20   2.0000     -10.447560      -284.2926
  21   2.0000     -10.447410      -284.2885
  22   2.0000     -10.446948      -284.2759
  23   2.0000     -10.446809      -284.2721
  24   2.0000     -10.446550      -284.2651
  25   2.0000     -10.445585      -284.2388
  26   2.0000     -10.445294      -284.2309
  27   2.0000     -10.440735      -284.1068
  28   2.0000      -1.152364       -31.3574
  29   2.0000      -1.018910       -27.7259
  30   2.0000      -0.964699       -26.2508
  31   2.0000      -0.955997       -26.0140
  32   2.0000      -0.948083       -25.7987
  33   2.0000      -0.927263       -25.2321
  34   2.0000      -0.888162       -24.1681
  35   2.0000      -0.862517       -23.4703
  36   2.0000      -0.842890       -22.9362
  37   2.0000      -0.842340       -22.9212
  38   2.0000      -0.837042       -22.7771
  39   2.0000      -0.833492       -22.6805
  40   2.0000      -0.829843       -22.5812
  41   2.0000      -0.803200       -21.8562
  42   2.0000      -0.788062       -21.4443
  43   2.0000      -0.717514       -19.5245
  44   2.0000      -0.710111       -19.3231
  45   2.0000      -0.696714       -18.9586
  46   2.0000      -0.694160       -18.8890
  47   2.0000      -0.682018       -18.5587
  48   2.0000      -0.676850       -18.4180
  49   2.0000      -0.665428       -18.1072
  50   2.0000      -0.648894       -17.6573
  51   2.0000      -0.638373       -17.3710
  52   2.0000      -0.613128       -16.6841
  53   2.0000      -0.609210       -16.5775
  54   2.0000      -0.585717       -15.9382
  55   2.0000      -0.577659       -15.7189
  56   2.0000      -0.558957       -15.2100
  57   2.0000      -0.554981       -15.1018
  58   2.0000      -0.540573       -14.7098
  59   2.0000      -0.529817       -14.4171
  60   2.0000      -0.522405       -14.2154
  61   2.0000      -0.510117       -13.8810
  62   2.0000      -0.509719       -13.8702
  63   2.0000      -0.508088       -13.8258
  64   2.0000      -0.506864       -13.7925
  65   2.0000      -0.495706       -13.4889
  66   2.0000      -0.491252       -13.3677
  67   2.0000      -0.488101       -13.2819
  68   2.0000      -0.486722       -13.2444
  69   2.0000      -0.477615       -12.9966
  70   2.0000      -0.474003       -12.8983
  71   2.0000      -0.468747       -12.7552
  72   2.0000      -0.462866       -12.5952
  73   2.0000      -0.448448       -12.2029
  74   2.0000      -0.432425       -11.7669
  75   2.0000      -0.422107       -11.4861
  76   2.0000      -0.420490       -11.4421
  77   2.0000      -0.416346       -11.3294
  78   2.0000      -0.410763       -11.1774
  79   2.0000      -0.406308       -11.0562
  80   2.0000      -0.403904       -10.9908
  81   2.0000      -0.402922       -10.9641
  82   2.0000      -0.393521       -10.7082
  83   2.0000      -0.388366       -10.5680
  84   2.0000      -0.385160       -10.4807
  85   2.0000      -0.367741       -10.0067
  86   2.0000      -0.334826        -9.1111
  87   2.0000      -0.309501        -8.4220
  88   2.0000      -0.302597        -8.2341
  89   2.0000      -0.298999        -8.1362
  90   2.0000      -0.289001        -7.8641
  91   2.0000      -0.285383        -7.7657
  92   2.0000      -0.263045        -7.1578
  93   2.0000      -0.257775        -7.0144
  94   2.0000      -0.230422        -6.2701
  95   0.0000      -0.025040        -0.6814
  96   0.0000       0.004853         0.1321
  97   0.0000       0.009523         0.2591
  98   0.0000       0.016480         0.4484
  99   0.0000       0.021625         0.5885

MULLIKEN ATOMIC CHARGES
-----------------------
   0 C :   -0.048017
   1 C :    0.102259
   2 C :   -0.357405
   3 C :   -0.223441
   4 C :   -0.244936
   5 C :   -0.276449
   6 C :    0.361733
   7 H :    0.224050
   8 H :    0.215159
   9 H :    0.217939
  10 H :    0.240749
  11 N :   -0.495095
  12 C :    0.346066
  13 C :    0.000098
  14 C :    0.018626
  15 C :   -0.307593
  16 C :   -0.209622
  17 C :   -0.235542
  18 C :   -0.206910
  19 C :   -0.283478
  20 H :    0.229905
  21 H :    0.217598
  22 H :    0.217820
  23 H :    0.218946
  24 H :    0.232979
  25 C :   -0.278774
  26 C :   -0.217080
  27 C :   -0.229695
  28 C :   -0.207623
  29 C :   -0.265805
  30 H :    0.260728
  31 H :    0.226731
  32 H :    0.223872
  33 H :    0.225766
  34 H :    0.247160
  35 N :   -0.531737
  36 C :    0.311512
  37 C :   -0.292503
  38 C :   -0.216829
  39 C :   -0.239250
  40 C :   -0.216861
  41 C :   -0.273778
  42 H :    0.219734
  43 H :    0.222409
  44 H :    0.219849
  45 H :    0.226446
  46 H :    0.264678
  47 H :    0.365612
Sum of atomic charges:    0.0000000

LOEWDIN ATOMIC CHARGES
----------------------
   0 C :   -0.077351
   1 C :   -0.050560
   2 C :   -0.130984
   3 C :   -0.153841
   4 C :   -0.137377
   5 C :   -0.155618
   6 C :    0.026115
   7 H :    0.141624
   8 H :    0.134972
   9 H :    0.136206
  10 H :    0.149079
  11 N :    0.009706
  12 C :    0.029096
  13 C :   -0.066704
  14 C :   -0.036880
  15 C :   -0.134336
  16 C :   -0.135468
  17 C :   -0.141149
  18 C :   -0.133272
  19 C :   -0.120952
  20 H :    0.141332
  21 H :    0.136026
  22 H :    0.135445
  23 H :    0.136797
  24 H :    0.145205
  25 C :   -0.129003
  26 C :   -0.134658
  27 C :   -0.131277
  28 C :   -0.133211
  29 C :   -0.109235
  30 H :    0.152975
  31 H :    0.140110
  32 H :    0.138261
  33 H :    0.140017
  34 H :    0.151546
  35 N :   -0.166547
  36 C :    0.014442
  37 C :   -0.169727
  38 C :   -0.120917
  39 C :   -0.162301
  40 C :   -0.117690
  41 C :   -0.172996
  42 H :    0.136663
  43 H :    0.138282
  44 H :    0.136898
  45 H :    0.139848
  46 H :    0.153366
  47 H :    0.258043

  Mayer bond orders larger than 0.100000
B(  0-C ,  1-C ) :   1.2211 B(  0-C , 11-N ) :   0.1058 B(  0-C , 12-C ) :   1.4283
B(  0-C , 14-C ) :   0.9888 B(  1-C ,  2-C ) :   1.2827 B(  1-C ,  6-C ) :   1.2261
B(  2-C ,  3-C ) :   1.4896 B(  2-C ,  7-H ) :   0.9227 B(  3-C ,  4-C ) :   1.3622
B(  3-C ,  8-H ) :   0.9214 B(  4-C ,  5-C ) :   1.4718 B(  4-C ,  9-H ) :   0.9205
B(  5-C ,  6-C ) :   1.3010 B(  5-C , 10-H ) :   0.9074 B(  6-C , 11-N ) :   1.0090
B( 11-N , 12-C ) :   1.0345 B( 11-N , 35-N ) :   1.0510 B( 12-C , 13-C ) :   0.9811
B( 13-C , 25-C ) :   1.3700 B( 13-C , 29-C ) :   1.3876 B( 14-C , 15-C ) :   1.3832
B( 14-C , 19-C ) :   1.3858 B( 15-C , 16-C ) :   1.4292 B( 15-C , 20-H ) :   0.9176
B( 16-C , 17-C ) :   1.4223 B( 16-C , 21-H ) :   0.9207 B( 17-C , 18-C ) :   1.4116
B( 17-C , 22-H ) :   0.9200 B( 18-C , 19-C ) :   1.4354 B( 18-C , 23-H ) :   0.9204
B( 19-C , 24-H ) :   0.9166 B( 25-C , 26-C ) :   1.4286 B( 25-C , 30-H ) :   0.8971
B( 26-C , 27-C ) :   1.4188 B( 26-C , 31-H ) :   0.9182 B( 27-C , 28-C ) :   1.4081
B( 27-C , 32-H ) :   0.9185 B( 28-C , 29-C ) :   1.4348 B( 28-C , 33-H ) :   0.9183
B( 29-C , 34-H ) :   0.9107 B( 35-N , 36-C ) :   0.9136 B( 35-N , 47-H ) :   0.8229
B( 36-C , 37-C ) :   1.3396 B( 36-C , 41-C ) :   1.3651 B( 37-C , 38-C ) :   1.4577
B( 37-C , 42-H ) :   0.9173 B( 38-C , 39-C ) :   1.4127 B( 38-C , 43-H ) :   0.9182
B( 39-C , 40-C ) :   1.4273 B( 39-C , 44-H ) :   0.9191 B( 40-C , 41-C ) :   1.4286
B( 40-C , 45-H ) :   0.9179 B( 41-C , 46-H ) :   0.8930

Dispersion correction           -0.040949675
FINAL SINGLE POINT ENERGY     -1109.851551827618

DIPOLE MOMENT
-------------
                                X             Y             Z
Electronic contribution:      0.31883      -2.83524       2.71272
Nuclear contribution   :     -0.67974       3.73190      -2.50294
                        -----------------------------------------
Total Dipole Moment    :     -0.36091       0.89666       0.20978
                        -----------------------------------------
Magnitude (a.u.)       :      0.98908
Magnitude (Debye)      :      2.51403

Rotational constants in cm-1:     0.008054     0.005133     0.003535
Rotational constants in MHz :   241.451453   153.896280   105.978310

                             ****ORCA TERMINATED NORMALLY****
TOTAL RUN TIME: 0 days 0 hours 10 minutes 4 seconds 512 msec
