                         Program Version 5.0.3 -  RELEASE  -
|  1> ! PBEh-3c def2/J TightSCF DefGrid3
|  2>
|  3> %maxcore 60000
|  4>
|  5> %pal
|  6> nprocs 4
|  7> end
|  8>
|  9> *xyzfile 0 1 ge2h6.xyz
| 10>
| 11>                          ****END OF INPUT****

CARTESIAN COORDINATES (ANGSTROEM)
---------------------------------
  Ge    -0.000000    0.000000   -1.211257
  Ge    -0.000000   -0.000000    1.211257
  H      1.248285    0.720698   -1.745073
  H     -0.000000   -1.441396   -1.745073
  H     -1.248285    0.720698   -1.745073
  H      1.248285   -0.720698    1.745073
  H     -0.000000    1.441396    1.745073
  H     -1.248285   -0.720698    1.745073

 Total Charge           Charge          ....    0
 Multiplicity           Mult            ....    1
 Number of Electrons    NEL             ....   70
 Basis Dimension        Dim             ....   76

ORBITAL ENERGIES
----------------

  NO   OCC          E(Eh)            E(eV)
   0   2.0000    -400.258091    -10891.5764
   1   2.0000    -400.258072    -10891.5758
   2   2.0000     -50.394657     -1371.3083
   3   2.0000     -50.394639     -1371.3079
   4   2.0000     -44.808902     -1219.3122
   5   2.0000     -44.808782     -1219.3089
   6   2.0000     -44.808685     -1219.3063
   7   2.0000     -44.808684     -1219.3063
   8   2.0000     -44.808677     -1219.3061
   9   2.0000     -44.808677     -1219.3061
  10   2.0000      -6.490134      -176.6055
  11   2.0000      -6.490097      -176.6045
  12   2.0000      -4.609965      -125.4435
  13   2.0000      -4.609965      -125.4435
  14   2.0000      -4.609915      -125.4422
  15   2.0000      -4.609915      -125.4422
  16   2.0000      -4.609685      -125.4359
  17   2.0000      -4.609283      -125.4250
  18   2.0000      -1.340753       -36.4838
  19   2.0000      -1.338885       -36.4329
  20   2.0000      -1.338880       -36.4328
  21   2.0000      -1.337911       -36.4064
  22   2.0000      -1.337899       -36.4061
  23   2.0000      -1.335809       -36.3492
  24   2.0000      -1.335800       -36.3490
  25   2.0000      -1.333800       -36.2945
  26   2.0000      -1.333797       -36.2945
  27   2.0000      -1.332064       -36.2473
  28   2.0000      -0.649662       -17.6782
  29   2.0000      -0.580896       -15.8070
  30   2.0000      -0.406765       -11.0687
  31   2.0000      -0.406762       -11.0686
  32   2.0000      -0.379502       -10.3268
  33   2.0000      -0.379498       -10.3267
  34   2.0000      -0.331797        -9.0286
  35   0.0000       0.047576         1.2946
  36   0.0000       0.056223         1.5299
  37   0.0000       0.056224         1.5299
  38   0.0000       0.104103         2.8328
  39   0.0000       0.126344         3.4380

MULLIKEN ATOMIC CHARGES
-----------------------
   0 Ge:   -0.056818
   1 Ge:   -0.056818
   2 H :    0.018931
   3 H :    0.018956
   4 H :    0.018931
   5 H :    0.018931
   6 H :    0.018956
   7 H :    0.018931
Sum of atomic charges:    0.0000000

LOEWDIN ATOMIC CHARGES
----------------------
   0 Ge:   -0.066705
   1 Ge:   -0.066705
   2 H :    0.022231
   3 H :    0.022243
   4 H :    0.022231
   5 H :    0.022231
   6 H :    0.022243
   7 H :    0.022231

  Mayer bond orders larger than 0.100000
B(  0-Ge,  1-Ge) :   0.9906 B(  0-Ge,  2-H ) :   0.9568 B(  0-Ge,  3-H ) :   0.9568
B(  0-Ge,  4-H ) :   0.9568 B(  1-Ge,  5-H ) :   0.9568 B(  1-Ge,  6-H ) :   0.9568
B(  1-Ge,  7-H ) :   0.9568

Dispersion correction           -0.002291343
FINAL SINGLE POINT ENERGY     -4155.571812068989

DIPOLE MOMENT
-------------
                                X             Y             Z
Electronic contribution:      0.00000       0.00000       0.00000
Nuclear contribution   :      0.00000       0.00000       0.00000
                        -----------------------------------------
Total Dipole Moment    :      0.00000       0.00000       0.00000
                        -----------------------------------------
Magnitude (a.u.)       :      0.00000
Magnitude (Debye)      :      0.00000

Rotational constants in cm-1:     1.341587     0.070920     0.070920
Rotational constants in MHz : 40219.756757  2126.118968  2126.118968

                             ****ORCA TERMINATED NORMALLY****
TOTAL RUN TIME: 0 days 0 hours 1 minutes 25 seconds 463 msec
