                         Program Version 5.0.3 -  RELEASE  -
|  1> ! PBEh-3c def2/J TightSCF DefGrid3
|  2>
|  3> %maxcore 60000
|  4>
|  5> %pal
|  6> nprocs 4
|  7> end
|  8>
|  9> *xyzfile 0 1 me2s-ch2.xyz
| 10>
| 11>                          ****END OF INPUT****

CARTESIAN COORDINATES (ANGSTROEM)
---------------------------------
  C     -1.607867   -0.317473    0.315920
  H     -2.313889   -0.886469   -0.266730
  H     -1.624989   -0.365527    1.396734
  S     -0.166976   -0.065740   -0.456998
  C      1.220807   -1.069182    0.215145
  C      0.467028    1.503570    0.177710
  H      1.245950   -0.945163    1.297546
  H      2.165453   -0.761527   -0.233530
  H      0.996765   -2.102380   -0.037797
  H      0.443133    1.467753    1.266211
  H     -0.203318    2.277934   -0.183538
  H      1.482713    1.665733   -0.179591

 Total Charge           Charge          ....    0
 Multiplicity           Mult            ....    1
 Number of Electrons    NEL             ....   42
 Basis Dimension        Dim             ....   79

ORBITAL ENERGIES
----------------

  NO   OCC          E(Eh)            E(eV)
   0   2.0000     -89.654754     -2439.6299
   1   2.0000     -10.463328      -284.7216
   2   2.0000     -10.456688      -284.5410
   3   2.0000     -10.388951      -282.6977
   4   2.0000      -8.285097      -225.4490
   5   2.0000      -6.175157      -168.0346
   6   2.0000      -6.174091      -168.0055
   7   2.0000      -6.170005      -167.8944
   8   2.0000      -0.942039       -25.6342
   9   2.0000      -0.796769       -21.6812
  10   2.0000      -0.774087       -21.0640
  11   2.0000      -0.637231       -17.3399
  12   2.0000      -0.524681       -14.2773
  13   2.0000      -0.516426       -14.0527
  14   2.0000      -0.498752       -13.5717
  15   2.0000      -0.475850       -12.9485
  16   2.0000      -0.465109       -12.6563
  17   2.0000      -0.432158       -11.7596
  18   2.0000      -0.421407       -11.4671
  19   2.0000      -0.333587        -9.0774
  20   2.0000      -0.208237        -5.6664
  21   0.0000       0.087424         2.3789
  22   0.0000       0.102431         2.7873
  23   0.0000       0.125963         3.4276
  24   0.0000       0.142829         3.8866
  25   0.0000       0.166500         4.5307

MULLIKEN ATOMIC CHARGES
-----------------------
   0 C :   -0.790195
   1 H :    0.224979
   2 H :    0.203990
   3 S :    0.330164
   4 C :   -0.752661
   5 C :   -0.728155
   6 H :    0.245564
   7 H :    0.234600
   8 H :    0.264095
   9 H :    0.253013
  10 H :    0.278064
  11 H :    0.236541
Sum of atomic charges:   -0.0000000

LOEWDIN ATOMIC CHARGES
----------------------
   0 C :   -0.772693
   1 H :    0.131003
   2 H :    0.114818
   3 S :    0.662525
   4 C :   -0.503126
   5 C :   -0.470252
   6 H :    0.135248
   7 H :    0.133402
   8 H :    0.144360
   9 H :    0.139278
  10 H :    0.152042
  11 H :    0.133396

  Mayer bond orders larger than 0.100000
B(  0-C ,  1-H ) :   0.9231 B(  0-C ,  2-H ) :   0.9175 B(  0-C ,  3-S ) :   1.3777
B(  3-S ,  4-C ) :   0.8341 B(  3-S ,  5-C ) :   0.9139 B(  4-C ,  6-H ) :   0.9035
B(  4-C ,  7-H ) :   0.8992 B(  4-C ,  8-H ) :   0.9088 B(  5-C ,  9-H ) :   0.8987
B(  5-C , 10-H ) :   0.9005 B(  5-C , 11-H ) :   0.8998

Dispersion correction           -0.005119564
FINAL SINGLE POINT ENERGY      -516.517122895823

DIPOLE MOMENT
-------------
                                X             Y             Z
Electronic contribution:     -1.10532      -0.27451      -3.06924
Nuclear contribution   :      2.27549       0.36498       3.18326
                        -----------------------------------------
Total Dipole Moment    :      1.17017       0.09047       0.11403
                        -----------------------------------------
Magnitude (a.u.)       :      1.17919
Magnitude (Debye)      :      2.99726

Rotational constants in cm-1:     0.229466     0.199722     0.130166
Rotational constants in MHz :  6879.206059  5987.526529  3902.286347

                             ****ORCA TERMINATED NORMALLY****
TOTAL RUN TIME: 0 days 0 hours 1 minutes 19 seconds 636 msec
