                         Program Version 5.0.3 -  RELEASE  -
|  1> ! PBEh-3c def2/J TightSCF DefGrid3
|  2>
|  3> %maxcore 60000
|  4>
|  5> %pal
|  6> nprocs 4
|  7> end
|  8>
|  9> *xyzfile 0 1 hf_3.xyz
| 10>
| 11>                          ****END OF INPUT****

CARTESIAN COORDINATES (ANGSTROEM)
---------------------------------
  H      0.000000    1.164150    0.000000
  H      1.008183   -0.582075    0.000000
  H     -1.008183   -0.582075    0.000000
  F     -0.527520   -1.395778    0.000000
  F     -0.945019    1.154735    0.000000
  F      1.472540    0.241043    0.000000

 Total Charge           Charge          ....    0
 Multiplicity           Mult            ....    1
 Number of Electrons    NEL             ....   30
 Basis Dimension        Dim             ....   51

ORBITAL ENERGIES
----------------

  NO   OCC          E(Eh)            E(eV)
   0   2.0000     -25.100790      -683.0272
   1   2.0000     -25.100693      -683.0246
   2   2.0000     -25.100683      -683.0243
   3   2.0000      -1.346319       -36.6352
   4   2.0000      -1.322297       -35.9815
   5   2.0000      -1.322290       -35.9813
   6   2.0000      -0.639224       -17.3942
   7   2.0000      -0.639222       -17.3941
   8   2.0000      -0.628244       -17.0954
   9   2.0000      -0.514389       -13.9972
  10   2.0000      -0.506673       -13.7873
  11   2.0000      -0.493683       -13.4338
  12   2.0000      -0.493680       -13.4337
  13   2.0000      -0.491138       -13.3645
  14   2.0000      -0.491137       -13.3645
  15   0.0000       0.120446         3.2775
  16   0.0000       0.208529         5.6744
  17   0.0000       0.208530         5.6744
  18   0.0000       0.765021        20.8173
  19   0.0000       0.765025        20.8174

MULLIKEN ATOMIC CHARGES
-----------------------
   0 H :    0.529657
   1 H :    0.529674
   2 H :    0.529668
   3 F :   -0.529670
   4 F :   -0.529660
   5 F :   -0.529670
Sum of atomic charges:   -0.0000000

LOEWDIN ATOMIC CHARGES
----------------------
   0 H :    0.379014
   1 H :    0.379023
   2 H :    0.379021
   3 F :   -0.379022
   4 F :   -0.379015
   5 F :   -0.379021

  Mayer bond orders larger than 0.100000
B(  0-H ,  4-F ) :   0.6252 B(  0-H ,  5-F ) :   0.1106 B(  1-H ,  3-F ) :   0.1106
B(  1-H ,  5-F ) :   0.6252 B(  2-H ,  3-F ) :   0.6252 B(  2-H ,  4-F ) :   0.1106

Dispersion correction           -0.000951284
FINAL SINGLE POINT ENERGY      -300.753099903247

DIPOLE MOMENT
-------------
                                X             Y             Z
Electronic contribution:      0.00000       0.00001       0.00000
Nuclear contribution   :     -0.00000      -0.00000       0.00000
                        -----------------------------------------
Total Dipole Moment    :      0.00000       0.00001       0.00000
                        -----------------------------------------
Magnitude (a.u.)       :      0.00001
Magnitude (Debye)      :      0.00002

Rotational constants in cm-1:     0.257381     0.257381     0.128690
Rotational constants in MHz :  7716.076799  7716.073725  3858.037631

                             ****ORCA TERMINATED NORMALLY****
TOTAL RUN TIME: 0 days 0 hours 0 minutes 46 seconds 543 msec
