                         Program Version 5.0.3 -  RELEASE  -
|  1> ! PBEh-3c def2/J TightSCF DefGrid3
|  2>
|  3> %maxcore 60000
|  4>
|  5> %pal
|  6> nprocs 4
|  7> end
|  8>
|  9> *xyzfile 0 2 28.xyz
| 10>
| 11>                          ****END OF INPUT****

CARTESIAN COORDINATES (ANGSTROEM)
---------------------------------
  N     -2.524776    0.274757   -0.011788
  N     -1.162095    0.850617   -0.032762
  H     -1.609059   -1.088848   -1.093776
  F     -0.049161   -1.307064   -1.605750
  H     -0.316515   -1.050466    0.932011
  H      2.484729    0.531693    1.070437
  H     -0.837504    0.908815   -1.008388
  B      1.579177    0.750820    0.304806
  H      1.424653    1.904678    0.003171
  B     -0.016608    0.170312    0.927213
  H     -0.173308    0.543130    2.048949
  Al     1.092998   -1.199498   -0.314578
  H      1.934549   -2.470953    0.033009
  O     -2.518930   -0.868090   -0.728921
  H      1.982330    0.238411   -0.817913
  H     -1.290480    1.811686    0.294281

 Total Charge           Charge          ....    0
 Multiplicity           Mult            ....    2
 Number of Electrons    NEL             ....   63
 Basis Dimension        Dim             ....  126

ORBITAL ENERGIES
----------------
                 SPIN UP ORBITALS
  NO   OCC          E(Eh)            E(eV)
   0   1.0000     -56.639454     -1541.2379
   1   1.0000     -25.085628      -682.6146
   2   1.0000     -19.590511      -533.0849
   3   1.0000     -14.783373      -402.2760
   4   1.0000     -14.774959      -402.0471
   5   1.0000      -6.964392      -189.5107
   6   1.0000      -6.917182      -188.2261
   7   1.0000      -4.374616      -119.0394
   8   1.0000      -2.866106       -77.9907
   9   1.0000      -2.864565       -77.9488
  10   1.0000      -2.860462       -77.8371
  11   1.0000      -1.289647       -35.0931
  12   1.0000      -1.271416       -34.5970
  13   1.0000      -1.099843       -29.9282
  14   1.0000      -0.871068       -23.7030
  15   1.0000      -0.695011       -18.9122
  16   1.0000      -0.679090       -18.4790
  17   1.0000      -0.672202       -18.2916
  18   1.0000      -0.611439       -16.6381
  19   1.0000      -0.554021       -15.0757
  20   1.0000      -0.544460       -14.8155
  21   1.0000      -0.518145       -14.0994
  22   1.0000      -0.506957       -13.7950
  23   1.0000      -0.500952       -13.6316
  24   1.0000      -0.482712       -13.1353
  25   1.0000      -0.445079       -12.1112
  26   1.0000      -0.429739       -11.6938
  27   1.0000      -0.389998       -10.6124
  28   1.0000      -0.374429       -10.1887
  29   1.0000      -0.369972       -10.0674
  30   1.0000      -0.340928        -9.2771
  31   1.0000      -0.322853        -8.7853
  32   0.0000       0.026668         0.7257
  33   0.0000       0.044163         1.2017
  34   0.0000       0.068966         1.8767
  35   0.0000       0.071409         1.9431
  36   0.0000       0.085203         2.3185

                 SPIN DOWN ORBITALS
  NO   OCC          E(Eh)            E(eV)
   0   1.0000     -56.639448     -1541.2377
   1   1.0000     -25.085654      -682.6153
   2   1.0000     -19.582893      -532.8776
   3   1.0000     -14.775604      -402.0646
   4   1.0000     -14.762458      -401.7069
   5   1.0000      -6.963937      -189.4984
   6   1.0000      -6.917157      -188.2254
   7   1.0000      -4.374607      -119.0391
   8   1.0000      -2.866099       -77.9905
   9   1.0000      -2.864555       -77.9485
  10   1.0000      -2.860456       -77.8370
  11   1.0000      -1.287581       -35.0369
  12   1.0000      -1.249202       -33.9925
  13   1.0000      -1.092422       -29.7263
  14   1.0000      -0.833697       -22.6860
  15   1.0000      -0.691140       -18.8069
  16   1.0000      -0.671776       -18.2800
  17   1.0000      -0.666251       -18.1296
  18   1.0000      -0.601573       -16.3696
  19   1.0000      -0.553316       -15.0565
  20   1.0000      -0.520851       -14.1731
  21   1.0000      -0.503689       -13.7061
  22   1.0000      -0.499203       -13.5840
  23   1.0000      -0.485485       -13.2107
  24   1.0000      -0.456590       -12.4245
  25   1.0000      -0.438514       -11.9326
  26   1.0000      -0.412186       -11.2161
  27   1.0000      -0.389049       -10.5866
  28   1.0000      -0.374248       -10.1838
  29   1.0000      -0.368690       -10.0326
  30   1.0000      -0.334774        -9.1097
  31   0.0000      -0.058878        -1.6022
  32   0.0000       0.026950         0.7334
  33   0.0000       0.045019         1.2250
  34   0.0000       0.069914         1.9024
  35   0.0000       0.073752         2.0069

MULLIKEN ATOMIC CHARGES AND SPIN POPULATIONS
--------------------------------------------
   0 N :    0.105742    0.817647
   1 N :   -0.637599   -0.037606
   2 H :    0.479255   -0.008181
   3 F :   -0.536156   -0.000276
   4 H :   -0.007625   -0.001713
   5 H :    0.115455   -0.000032
   6 H :    0.420873    0.018067
   7 B :   -0.610631    0.004657
   8 H :    0.087245   -0.000440
   9 B :   -0.169355    0.019801
  10 H :    0.120672   -0.002078
  11 Al:    0.765405    0.000591
  12 H :   -0.088455    0.000042
  13 O :   -0.487060    0.187140
  14 H :    0.012044    0.000695
  15 H :    0.430187    0.001686
Sum of atomic charges         :    0.0000000

LOEWDIN ATOMIC CHARGES AND SPIN POPULATIONS
-------------------------------------------
   0 N :    0.007724    0.769212
   1 N :   -0.161048   -0.011004
   2 H :    0.324261   -0.005826
   3 F :   -0.310676   -0.000386
   4 H :    0.069862   -0.000913
   5 H :    0.062746    0.000081
   6 H :    0.282804    0.015192
   7 B :   -0.509621    0.002679
   8 H :    0.051590   -0.000155
   9 B :   -0.306492    0.019977
  10 H :    0.050852   -0.000873
  11 Al:    0.366085    0.000773
  12 H :   -0.061590    0.000014
  13 O :   -0.252547    0.209553
  14 H :    0.089667    0.000402
  15 H :    0.296383    0.001273

  Mayer bond orders larger than 0.100000
B(  0-N ,  1-N ) :   0.9441 B(  0-N , 13-O ) :   1.2620 B(  1-N ,  6-H ) :   0.7694
B(  1-N ,  9-B ) :   0.5940 B(  1-N , 15-H ) :   0.7888 B(  2-H ,  3-F ) :   0.1383
B(  2-H , 13-O ) :   0.6168 B(  3-F , 11-Al) :   0.6771 B(  4-H ,  9-B ) :   0.7330
B(  4-H , 11-Al) :   0.2154 B(  5-H ,  7-B ) :   0.9540 B(  7-B ,  8-H ) :   0.9454
B(  7-B ,  9-B ) :   0.7123 B(  7-B , 11-Al) :   0.4493 B(  7-B , 14-H ) :   0.6016
B(  9-B , 10-H ) :   0.9677 B(  9-B , 11-Al) :   0.3801 B( 11-Al, 12-H ) :   0.9612
B( 11-Al, 14-H ) :   0.3225

Dispersion correction           -0.007896486
FINAL SINGLE POINT ENERGY      -581.052945469868

DIPOLE MOMENT
-------------
                                X             Y             Z
Electronic contribution:     -3.43991      -4.07174      -4.33576
Nuclear contribution   :      3.01577       4.70912       3.75125
                        -----------------------------------------
Total Dipole Moment    :     -0.42414       0.63739      -0.58452
                        -----------------------------------------
Magnitude (a.u.)       :      0.96323
Magnitude (Debye)      :      2.44834

Rotational constants in cm-1:     0.101604     0.054985     0.040314
Rotational constants in MHz :  3046.021053  1648.415389  1208.578414

                             ****ORCA TERMINATED NORMALLY****
TOTAL RUN TIME: 0 days 0 hours 3 minutes 37 seconds 836 msec
