                         Program Version 5.0.3 -  RELEASE  -
|  1> ! PBEh-3c def2/J TightSCF DefGrid3
|  2>
|  3> %maxcore 60000
|  4>
|  5> %pal
|  6> nprocs 4
|  7> end
|  8>
|  9> *xyzfile 0 1 13-Cyclohexadiene.xyz
| 10>
| 11>                          ****END OF INPUT****

CARTESIAN COORDINATES (ANGSTROEM)
---------------------------------
  C      1.425072    0.064404   -0.241300
  H      2.506316    0.184407   -0.243565
  C      0.726228    0.103966   -1.387832
  H      1.227292    0.271791   -2.338605
  C     -0.726228   -0.103966   -1.387832
  H     -1.227292   -0.271791   -2.338605
  C     -1.425072   -0.064404   -0.241300
  H     -2.506316   -0.184407   -0.243565
  C     -0.731802    0.239418    1.067738
  H     -0.763329    1.329969    1.234277
  H     -1.272110   -0.209868    1.909287
  C      0.731802   -0.239418    1.067738
  H      0.763329   -1.329969    1.234277
  H      1.272110    0.209868    1.909287

 Total Charge           Charge          ....    0
 Multiplicity           Mult            ....    1
 Number of Electrons    NEL             ....   44
 Basis Dimension        Dim             ....  106

ORBITAL ENERGIES
----------------

  NO   OCC          E(Eh)            E(eV)
   0   2.0000     -10.443181      -284.1734
   1   2.0000     -10.443155      -284.1727
   2   2.0000     -10.441631      -284.1312
   3   2.0000     -10.441419      -284.1255
   4   2.0000     -10.439395      -284.0704
   5   2.0000     -10.439104      -284.0624
   6   2.0000      -0.931079       -25.3360
   7   2.0000      -0.827122       -22.5071
   8   2.0000      -0.826190       -22.4818
   9   2.0000      -0.692801       -18.8521
  10   2.0000      -0.659651       -17.9500
  11   2.0000      -0.569233       -15.4896
  12   2.0000      -0.549074       -14.9411
  13   2.0000      -0.499496       -13.5920
  14   2.0000      -0.479503       -13.0479
  15   2.0000      -0.471132       -12.8202
  16   2.0000      -0.444629       -12.0990
  17   2.0000      -0.419790       -11.4231
  18   2.0000      -0.383226       -10.4281
  19   2.0000      -0.366159        -9.9637
  20   2.0000      -0.351951        -9.5771
  21   2.0000      -0.249487        -6.7889
  22   0.0000       0.000686         0.0187
  23   0.0000       0.113518         3.0890
  24   0.0000       0.147350         4.0096
  25   0.0000       0.185698         5.0531
  26   0.0000       0.191230         5.2036

MULLIKEN ATOMIC CHARGES
-----------------------
   0 C :   -0.219479
   1 H :    0.218648
   2 C :   -0.206583
   3 H :    0.215871
   4 C :   -0.206584
   5 H :    0.215871
   6 C :   -0.219479
   7 H :    0.218648
   8 C :   -0.463360
   9 H :    0.230101
  10 H :    0.224802
  11 C :   -0.463360
  12 H :    0.230101
  13 H :    0.224802
Sum of atomic charges:   -0.0000000

LOEWDIN ATOMIC CHARGES
----------------------
   0 C :   -0.138317
   1 H :    0.131946
   2 C :   -0.156939
   3 H :    0.133372
   4 C :   -0.156939
   5 H :    0.133372
   6 C :   -0.138317
   7 H :    0.131946
   8 C :   -0.236462
   9 H :    0.134801
  10 H :    0.131599
  11 C :   -0.236462
  12 H :    0.134801
  13 H :    0.131599

  Mayer bond orders larger than 0.100000
B(  0-C ,  1-H ) :   0.9232 B(  0-C ,  2-C ) :   1.8358 B(  0-C , 11-C ) :   0.9906
B(  2-C ,  3-H ) :   0.9189 B(  2-C ,  4-C ) :   1.0931 B(  4-C ,  5-H ) :   0.9189
B(  4-C ,  6-C ) :   1.8358 B(  6-C ,  7-H ) :   0.9232 B(  6-C ,  8-C ) :   0.9906
B(  8-C ,  9-H ) :   0.9022 B(  8-C , 10-H ) :   0.9194 B(  8-C , 11-C ) :   0.9829
B( 11-C , 12-H ) :   0.9022 B( 11-C , 13-H ) :   0.9194

Dispersion correction           -0.006786596
FINAL SINGLE POINT ENERGY      -232.897356323718

DIPOLE MOMENT
-------------
                                X             Y             Z
Electronic contribution:     -0.00000       0.00000      -2.02680
Nuclear contribution   :     -0.00000       0.00000       2.21052
                        -----------------------------------------
Total Dipole Moment    :     -0.00000       0.00000       0.18372
                        -----------------------------------------
Magnitude (a.u.)       :      0.18372
Magnitude (Debye)      :      0.46698

Rotational constants in cm-1:     0.168468     0.168034     0.089113
Rotational constants in MHz :  5050.536592  5037.532961  2671.554197

                             ****ORCA TERMINATED NORMALLY****
TOTAL RUN TIME: 0 days 0 hours 1 minutes 12 seconds 790 msec
