                         Program Version 5.0.3 -  RELEASE  -
|  1> ! PBEh-3c def2/J TightSCF DefGrid3
|  2>
|  3> %maxcore 60000
|  4>
|  5> %pal
|  6> nprocs 4
|  7> end
|  8>
|  9> *xyzfile 0 2 oclo.xyz
| 10>
| 11>                          ****END OF INPUT****

CARTESIAN COORDINATES (ANGSTROEM)
---------------------------------
  Cl     0.000000    0.362551    0.000000
  O     -1.259082   -0.401688    0.000000
  O      1.259082   -0.401688    0.000000

 Total Charge           Charge          ....    0
 Multiplicity           Mult            ....    2
 Number of Electrons    NEL             ....   33
 Basis Dimension        Dim             ....   48

ORBITAL ENERGIES
----------------
                 SPIN UP ORBITALS
  NO   OCC          E(Eh)            E(eV)
   0   1.0000    -102.544697     -2790.3831
   1   1.0000     -19.563203      -532.3418
   2   1.0000     -19.563146      -532.3403
   3   1.0000      -9.992414      -271.9074
   4   1.0000      -7.679943      -208.9819
   5   1.0000      -7.675912      -208.8722
   6   1.0000      -7.673567      -208.8084
   7   1.0000      -1.331903       -36.2429
   8   1.0000      -1.187257       -32.3069
   9   1.0000      -0.842161       -22.9164
  10   1.0000      -0.635269       -17.2865
  11   1.0000      -0.610849       -16.6220
  12   1.0000      -0.600872       -16.3506
  13   1.0000      -0.471979       -12.8432
  14   1.0000      -0.416952       -11.3458
  15   1.0000      -0.415053       -11.2942
  16   1.0000      -0.331727        -9.0267
  17   0.0000       0.041220         1.1217
  18   0.0000       0.076837         2.0908
  19   0.0000       0.382921        10.4198
  20   0.0000       0.637805        17.3555
  21   0.0000       0.639940        17.4137

                 SPIN DOWN ORBITALS
  NO   OCC          E(Eh)            E(eV)
   0   1.0000    -102.541273     -2790.2899
   1   1.0000     -19.551344      -532.0191
   2   1.0000     -19.551297      -532.0179
   3   1.0000      -9.989141      -271.8183
   4   1.0000      -7.678257      -208.9360
   5   1.0000      -7.672040      -208.7668
   6   1.0000      -7.663420      -208.5322
   7   1.0000      -1.312955       -35.7273
   8   1.0000      -1.161867       -31.6160
   9   1.0000      -0.805661       -21.9232
  10   1.0000      -0.600609       -16.3434
  11   1.0000      -0.584877       -15.9153
  12   1.0000      -0.579609       -15.7720
  13   1.0000      -0.405384       -11.0310
  14   1.0000      -0.400749       -10.9049
  15   1.0000      -0.371268       -10.1027
  16   0.0000      -0.123480        -3.3601
  17   0.0000       0.057793         1.5726
  18   0.0000       0.087548         2.3823
  19   0.0000       0.389078        10.5873
  20   0.0000       0.647871        17.6295

MULLIKEN ATOMIC CHARGES AND SPIN POPULATIONS
--------------------------------------------
   0 Cl:    1.035265    0.310077
   1 O :   -0.517633    0.344961
   2 O :   -0.517632    0.344962
Sum of atomic charges         :   -0.0000000

LOEWDIN ATOMIC CHARGES AND SPIN POPULATIONS
-------------------------------------------
   0 Cl:    1.027145    0.321219
   1 O :   -0.513573    0.339390
   2 O :   -0.513572    0.339391

  Mayer bond orders larger than 0.100000
B(  0-Cl,  1-O ) :   1.4998 B(  0-Cl,  2-O ) :   1.4998 B(  1-O ,  2-O ) :   0.3114

Dispersion correction           -0.000638440
FINAL SINGLE POINT ENERGY      -609.605912882783

DIPOLE MOMENT
-------------
                                X             Y             Z
Electronic contribution:      0.00000       1.34842      -0.00000
Nuclear contribution   :      0.00000      -0.49849       0.00000
                        -----------------------------------------
Total Dipole Moment    :      0.00000       0.84993      -0.00000
                        -----------------------------------------
Magnitude (a.u.)       :      0.84993
Magnitude (Debye)      :      2.16034

Rotational constants in cm-1:     1.716134     0.332327     0.278413
Rotational constants in MHz : 51448.388849  9962.923793  8346.611647

                             ****ORCA TERMINATED NORMALLY****
TOTAL RUN TIME: 0 days 0 hours 1 minutes 1 seconds 375 msec
