                         Program Version 5.0.3 -  RELEASE  -
|  1> ! PBEh-3c def2/J TightSCF DefGrid3
|  2>
|  3> %maxcore 60000
|  4>
|  5> %pal
|  6> nprocs 4
|  7> end
|  8>
|  9> *xyzfile 0 1 ts2h2o.xyz
| 10>
| 11>                          ****END OF INPUT****

CARTESIAN COORDINATES (ANGSTROEM)
---------------------------------
  C     -1.094908   -0.109878    0.013862
  H     -2.177815   -0.240734    0.034061
  O     -0.383756   -1.176409    0.002027
  H     -1.174996    1.865664    0.005092
  H      0.722755    0.879763   -0.019176
  H      0.737132   -0.773021   -0.023569
  O      1.648136    0.090485   -0.099401
  N     -0.552711    1.073193    0.003236
  H      2.216305    0.102634    0.676761

 Total Charge           Charge          ....    0
 Multiplicity           Mult            ....    1
 Number of Electrons    NEL             ....   34
 Basis Dimension        Dim             ....   70

ORBITAL ENERGIES
----------------

  NO   OCC          E(Eh)            E(eV)
   0   2.0000     -19.496761      -530.5339
   1   2.0000     -19.471547      -529.8477
   2   2.0000     -14.638526      -398.3346
   3   2.0000     -10.557418      -287.2819
   4   2.0000      -1.173911       -31.9437
   5   2.0000      -1.078753       -29.3544
   6   2.0000      -0.995395       -27.0861
   7   2.0000      -0.699356       -19.0304
   8   2.0000      -0.637459       -17.3462
   9   2.0000      -0.576395       -15.6845
  10   2.0000      -0.555056       -15.1039
  11   2.0000      -0.479332       -13.0433
  12   2.0000      -0.471323       -12.8254
  13   2.0000      -0.422262       -11.4903
  14   2.0000      -0.355186        -9.6651
  15   2.0000      -0.330270        -8.9871
  16   2.0000      -0.326251        -8.8777
  17   0.0000       0.045972         1.2510
  18   0.0000       0.142849         3.8871
  19   0.0000       0.155064         4.2195
  20   0.0000       0.200804         5.4642
  21   0.0000       0.249207         6.7813

MULLIKEN ATOMIC CHARGES
-----------------------
   0 C :    0.291398
   1 H :    0.216529
   2 O :   -0.564414
   3 H :    0.346296
   4 H :    0.467375
   5 H :    0.469707
   6 O :   -0.877118
   7 N :   -0.766001
   8 H :    0.416228
Sum of atomic charges:   -0.0000000

LOEWDIN ATOMIC CHARGES
----------------------
   0 C :    0.075688
   1 H :    0.111070
   2 O :   -0.341343
   3 H :    0.242777
   4 H :    0.342609
   5 H :    0.359605
   6 O :   -0.664384
   7 N :   -0.426416
   8 H :    0.300394

  Mayer bond orders larger than 0.100000
B(  0-C ,  1-H ) :   0.8971 B(  0-C ,  2-O ) :   1.4632 B(  0-C ,  7-N ) :   1.5522
B(  2-O ,  5-H ) :   0.3894 B(  2-O ,  7-N ) :   0.1228 B(  3-H ,  7-N ) :   0.8395
B(  4-H ,  6-O ) :   0.4101 B(  4-H ,  7-N ) :   0.3548 B(  5-H ,  6-O ) :   0.3828
B(  6-O ,  8-H ) :   0.7976

Dispersion correction           -0.002712889
FINAL SINGLE POINT ENERGY      -245.764847157204

DIPOLE MOMENT
-------------
                                X             Y             Z
Electronic contribution:     -0.94936      -1.06944      -0.06540
Nuclear contribution   :      0.34438       1.84658       0.68016
                        -----------------------------------------
Total Dipole Moment    :     -0.60499       0.77714       0.61475
                        -----------------------------------------
Magnitude (a.u.)       :      1.16098
Magnitude (Debye)      :      2.95097

Rotational constants in cm-1:     0.383188     0.217908     0.140276
Rotational constants in MHz : 11487.685046  6532.705795  4205.361623

                             ****ORCA TERMINATED NORMALLY****
TOTAL RUN TIME: 0 days 0 hours 0 minutes 47 seconds 485 msec
