                         Program Version 5.0.3 -  RELEASE  -
|  1> ! PBEh-3c def2/J TightSCF DefGrid3
|  2>
|  3> %maxcore 60000
|  4>
|  5> %pal
|  6> nprocs 4
|  7> end
|  8>
|  9> *xyzfile 0 1 33.xyz
| 10>
| 11>                          ****END OF INPUT****

CARTESIAN COORDINATES (ANGSTROEM)
---------------------------------
  N      1.521951    1.121427    0.000000
  C      0.820070    1.160904   -1.140049
  H      1.399559    1.127175   -2.054699
  C     -0.568996    1.246324   -1.193100
  H     -1.073235    1.278375   -2.148612
  C     -1.281045    1.293707    0.000000
  H     -2.360127    1.362060    0.000000
  C     -0.568996    1.246324    1.193100
  H     -1.073235    1.278375    2.148612
  C      0.820070    1.160904    1.140049
  H      1.399559    1.127175    2.054699
  C      0.160085   -2.234436    0.666264
  H      1.070485   -2.075367    1.225883
  H     -0.749536   -2.391443    1.228536
  C      0.160085   -2.234436   -0.666264
  H      1.070485   -2.075367   -1.225883
  H     -0.749536   -2.391443   -1.228536

 Total Charge           Charge          ....    0
 Multiplicity           Mult            ....    1
 Number of Electrons    NEL             ....   58
 Basis Dimension        Dim             ....  138

ORBITAL ENERGIES
----------------

  NO   OCC          E(Eh)            E(eV)
   0   2.0000     -14.637117      -398.2962
   1   2.0000     -10.480542      -285.1901
   2   2.0000     -10.480508      -285.1891
   3   2.0000     -10.467280      -284.8292
   4   2.0000     -10.456300      -284.5304
   5   2.0000     -10.456285      -284.5300
   6   2.0000     -10.432956      -283.8952
   7   2.0000     -10.432003      -283.8692
   8   2.0000      -1.043414       -28.3927
   9   2.0000      -0.898922       -24.4609
  10   2.0000      -0.851632       -23.1741
  11   2.0000      -0.841277       -22.8923
  12   2.0000      -0.707019       -19.2390
  13   2.0000      -0.706893       -19.2355
  14   2.0000      -0.644609       -17.5407
  15   2.0000      -0.598587       -16.2884
  16   2.0000      -0.544354       -14.8126
  17   2.0000      -0.535072       -14.5600
  18   2.0000      -0.524739       -14.2789
  19   2.0000      -0.489152       -13.3105
  20   2.0000      -0.469760       -12.7828
  21   2.0000      -0.465259       -12.6603
  22   2.0000      -0.453251       -12.3336
  23   2.0000      -0.419106       -11.4045
  24   2.0000      -0.402588       -10.9550
  25   2.0000      -0.330413        -8.9910
  26   2.0000      -0.311748        -8.4831
  27   2.0000      -0.305771        -8.3205
  28   2.0000      -0.302759        -8.2385
  29   0.0000      -0.001242        -0.0338
  30   0.0000       0.011689         0.3181
  31   0.0000       0.047765         1.2997
  32   0.0000       0.146454         3.9852
  33   0.0000       0.172769         4.7013

MULLIKEN ATOMIC CHARGES
-----------------------
   0 N :   -0.358600
   1 C :   -0.038902
   2 H :    0.229885
   3 C :   -0.288521
   4 H :    0.228675
   5 C :   -0.132530
   6 H :    0.231851
   7 C :   -0.288520
   8 H :    0.228675
   9 C :   -0.038902
  10 H :    0.229885
  11 C :   -0.425545
  12 H :    0.216563
  13 H :    0.207484
  14 C :   -0.425545
  15 H :    0.216563
  16 H :    0.207484
Sum of atomic charges:   -0.0000000

LOEWDIN ATOMIC CHARGES
----------------------
   0 N :   -0.139828
   1 C :   -0.055305
   2 H :    0.128350
   3 C :   -0.161335
   4 H :    0.140606
   5 C :   -0.101708
   6 H :    0.139579
   7 C :   -0.161335
   8 H :    0.140606
   9 C :   -0.055305
  10 H :    0.128350
  11 C :   -0.259469
  12 H :    0.131307
  13 H :    0.126824
  14 C :   -0.259469
  15 H :    0.131307
  16 H :    0.126824

  Mayer bond orders larger than 0.100000
B(  0-N ,  1-C ) :   1.4978 B(  0-N ,  9-C ) :   1.4978 B(  1-C ,  2-H ) :   0.9181
B(  1-C ,  3-C ) :   1.3816 B(  3-C ,  4-H ) :   0.9139 B(  3-C ,  5-C ) :   1.4161
B(  5-C ,  6-H ) :   0.9190 B(  5-C ,  7-C ) :   1.4161 B(  7-C ,  8-H ) :   0.9139
B(  7-C ,  9-C ) :   1.3816 B(  9-C , 10-H ) :   0.9181 B( 11-C , 12-H ) :   0.9280
B( 11-C , 13-H ) :   0.9315 B( 11-C , 14-C ) :   1.9804 B( 14-C , 15-H ) :   0.9280
B( 14-C , 16-H ) :   0.9315

Dispersion correction           -0.008983004
FINAL SINGLE POINT ENERGY      -326.137516950020

DIPOLE MOMENT
-------------
                                X             Y             Z
Electronic contribution:      1.28573       5.22571       0.00000
Nuclear contribution   :     -2.15308      -5.15525      -0.00000
                        -----------------------------------------
Total Dipole Moment    :     -0.86735       0.07045       0.00000
                        -----------------------------------------
Magnitude (a.u.)       :      0.87021
Magnitude (Debye)      :      2.21190

Rotational constants in cm-1:     0.088880     0.050267     0.048773
Rotational constants in MHz :  2664.542808  1506.979638  1462.188318

                             ****ORCA TERMINATED NORMALLY****
TOTAL RUN TIME: 0 days 0 hours 1 minutes 34 seconds 637 msec
