                         Program Version 5.0.3 -  RELEASE  -
|  1> ! PBEh-3c def2/J TightSCF DefGrid3
|  2>
|  3> %maxcore 60000
|  4>
|  5> %pal
|  6> nprocs 4
|  7> end
|  8>
|  9> *xyzfile 0 1 06a.xyz
| 10>
| 11>                          ****END OF INPUT****

CARTESIAN COORDINATES (ANGSTROEM)
---------------------------------
  O      1.390784   -2.270080    0.000000
  N      1.324216    0.012865    0.000000
  C     -1.397314    0.021213    0.000000
  C     -0.694840    1.248653    0.000000
  C      0.670492    1.198941    0.000000
  C      0.711051   -1.232725    0.000000
  C     -0.727169   -1.172593    0.000000
  H     -2.479389    0.023154    0.000000
  H     -1.203634    2.198666    0.000000
  H      1.295511    2.080322    0.000000
  H     -1.251697   -2.116278    0.000000
  H      2.361988    0.007864    0.000000

 Total Charge           Charge          ....    0
 Multiplicity           Mult            ....    1
 Number of Electrons    NEL             ....   50
 Basis Dimension        Dim             ....  115

ORBITAL ENERGIES
----------------

  NO   OCC          E(Eh)            E(eV)
   0   2.0000     -19.444290      -529.1060
   1   2.0000     -14.707519      -400.2119
   2   2.0000     -10.547867      -287.0220
   3   2.0000     -10.517380      -286.1924
   4   2.0000     -10.476908      -285.0912
   5   2.0000     -10.459393      -284.6146
   6   2.0000     -10.452957      -284.4394
   7   2.0000      -1.137098       -30.9420
   8   2.0000      -1.061928       -28.8965
   9   2.0000      -0.919234       -25.0136
  10   2.0000      -0.852260       -23.1912
  11   2.0000      -0.737462       -20.0674
  12   2.0000      -0.721401       -19.6303
  13   2.0000      -0.635021       -17.2798
  14   2.0000      -0.577218       -15.7069
  15   2.0000      -0.556547       -15.1444
  16   2.0000      -0.528709       -14.3869
  17   2.0000      -0.504822       -13.7369
  18   2.0000      -0.486858       -13.2481
  19   2.0000      -0.446724       -12.1560
  20   2.0000      -0.436676       -11.8826
  21   2.0000      -0.393931       -10.7194
  22   2.0000      -0.359377        -9.7791
  23   2.0000      -0.305894        -8.3238
  24   2.0000      -0.259123        -7.0511
  25   0.0000      -0.022950        -0.6245
  26   0.0000       0.037469         1.0196
  27   0.0000       0.102398         2.7864
  28   0.0000       0.161582         4.3969
  29   0.0000       0.180790         4.9195

MULLIKEN ATOMIC CHARGES
-----------------------
   0 O :   -0.443983
   1 N :   -0.657511
   2 C :   -0.100832
   3 C :   -0.365249
   4 C :    0.066642
   5 C :    0.544495
   6 C :   -0.417702
   7 H :    0.238871
   8 H :    0.237464
   9 H :    0.259254
  10 H :    0.255627
  11 H :    0.382924
Sum of atomic charges:   -0.0000000

LOEWDIN ATOMIC CHARGES
----------------------
   0 O :   -0.303737
   1 N :   -0.143278
   2 C :   -0.090524
   3 C :   -0.214884
   4 C :   -0.029117
   5 C :    0.099407
   6 C :   -0.186229
   7 H :    0.144048
   8 H :    0.146624
   9 H :    0.142627
  10 H :    0.154960
  11 H :    0.280102

  Mayer bond orders larger than 0.100000
B(  0-O ,  5-C ) :   1.9736 B(  1-N ,  4-C ) :   1.1613 B(  1-N ,  5-C ) :   1.0020
B(  1-N , 11-H ) :   0.8062 B(  2-C ,  3-C ) :   1.2223 B(  2-C ,  6-C ) :   1.5694
B(  2-C ,  7-H ) :   0.9175 B(  3-C ,  4-C ) :   1.5921 B(  3-C ,  8-H ) :   0.9144
B(  4-C ,  9-H ) :   0.9014 B(  5-C ,  6-C ) :   1.1112 B(  6-C , 10-H ) :   0.9120

Dispersion correction           -0.006050713
FINAL SINGLE POINT ENERGY      -322.813936283742

DIPOLE MOMENT
-------------
                                X             Y             Z
Electronic contribution:      1.98689      -1.91416       0.00000
Nuclear contribution   :     -2.27228       3.66755       0.00000
                        -----------------------------------------
Total Dipole Moment    :     -0.28539       1.75339       0.00000
                        -----------------------------------------
Magnitude (a.u.)       :      1.77647
Magnitude (Debye)      :      4.51542

Rotational constants in cm-1:     0.190477     0.093225     0.062591
Rotational constants in MHz :  5710.351992  2794.817812  1876.434431

                             ****ORCA TERMINATED NORMALLY****
TOTAL RUN TIME: 0 days 0 hours 1 minutes 22 seconds 826 msec
