                         Program Version 5.0.3 -  RELEASE  -
|  1> ! PBEh-3c def2/J TightSCF DefGrid3
|  2>
|  3> %maxcore 60000
|  4>
|  5> %pal
|  6> nprocs 4
|  7> end
|  8>
|  9> *xyzfile 0 1 230.xyz
| 10>
| 11>                          ****END OF INPUT****

CARTESIAN COORDINATES (ANGSTROEM)
---------------------------------
  C      0.630040    1.182510    2.074030
  C     -0.015980   -0.089480    1.523460
  N     -0.016560   -0.107660    0.007750
  H      0.941850   -0.108110   -0.372230
  H     -0.499550   -0.944680   -0.351290
  H     -0.496210    0.722190   -0.372700
  H     -1.061160   -0.177760    1.846390
  H      0.519950   -0.991720    1.836950
  H      0.625880    1.126610    3.169830
  H      1.657550    1.288500    1.713300
  H      0.052690    2.069610    1.780010
  O      2.444690    0.406350   -0.408880
  S      3.069630    0.006820   -1.737780
  C      4.145530    1.410600   -2.148270
  O      3.937110   -1.170800   -1.604870
  O      2.017400   -0.048250   -2.778960
  H      4.631150    1.188830   -3.104880
  H      3.531470    2.314080   -2.226980
  H      4.890430    1.510230   -1.351670

 Total Charge           Charge          ....    0
 Multiplicity           Mult            ....    1
 Number of Electrons    NEL             ....   76
 Basis Dimension        Dim             ....  145

ORBITAL ENERGIES
----------------

  NO   OCC          E(Eh)            E(eV)
   0   2.0000     -89.763151     -2442.5795
   1   2.0000     -19.428384      -528.6732
   2   2.0000     -19.409287      -528.1535
   3   2.0000     -19.406034      -528.0650
   4   2.0000     -14.768138      -401.8615
   5   2.0000     -10.544029      -286.9176
   6   2.0000     -10.471407      -284.9415
   7   2.0000     -10.424898      -283.6759
   8   2.0000      -8.361655      -227.5322
   9   2.0000      -6.253976      -170.1793
  10   2.0000      -6.252809      -170.1476
  11   2.0000      -6.252483      -170.1387
  12   2.0000      -1.166715       -31.7479
  13   2.0000      -1.120070       -30.4787
  14   2.0000      -1.026742       -27.9391
  15   2.0000      -1.022596       -27.8262
  16   2.0000      -0.891100       -24.2481
  17   2.0000      -0.795393       -21.6437
  18   2.0000      -0.756725       -20.5915
  19   2.0000      -0.674909       -18.3652
  20   2.0000      -0.667180       -18.1549
  21   2.0000      -0.600636       -16.3441
  22   2.0000      -0.584923       -15.9166
  23   2.0000      -0.543041       -14.7769
  24   2.0000      -0.502277       -13.6677
  25   2.0000      -0.487269       -13.2593
  26   2.0000      -0.483830       -13.1657
  27   2.0000      -0.477893       -13.0041
  28   2.0000      -0.470506       -12.8031
  29   2.0000      -0.451304       -12.2806
  30   2.0000      -0.436116       -11.8673
  31   2.0000      -0.433677       -11.8010
  32   2.0000      -0.349530        -9.5112
  33   2.0000      -0.338861        -9.2209
  34   2.0000      -0.308330        -8.3901
  35   2.0000      -0.295112        -8.0304
  36   2.0000      -0.290823        -7.9137
  37   2.0000      -0.261753        -7.1227
  38   0.0000       0.050553         1.3756
  39   0.0000       0.103316         2.8114
  40   0.0000       0.116834         3.1792
  41   0.0000       0.146275         3.9803
  42   0.0000       0.156058         4.2466

MULLIKEN ATOMIC CHARGES
-----------------------
   0 C :   -0.659526
   1 C :   -0.318820
   2 N :   -0.797625
   3 H :    0.476105
   4 H :    0.414866
   5 H :    0.413596
   6 H :    0.245655
   7 H :    0.281010
   8 H :    0.242208
   9 H :    0.306607
  10 H :    0.214562
  11 O :   -0.782738
  12 S :    1.407202
  13 C :   -0.780685
  14 O :   -0.669428
  15 O :   -0.717349
  16 H :    0.249974
  17 H :    0.231199
  18 H :    0.243188
Sum of atomic charges:    0.0000000

LOEWDIN ATOMIC CHARGES
----------------------
   0 C :   -0.373358
   1 C :   -0.145462
   2 N :   -0.253006
   3 H :    0.296419
   4 H :    0.285458
   5 H :    0.287551
   6 H :    0.132653
   7 H :    0.152611
   8 H :    0.146285
   9 H :    0.170583
  10 H :    0.130280
  11 O :   -0.698564
  12 S :    1.214431
  13 C :   -0.499218
  14 O :   -0.613337
  15 O :   -0.654466
  16 H :    0.144654
  17 H :    0.135290
  18 H :    0.141197

  Mayer bond orders larger than 0.100000
B(  0-C ,  1-C ) :   0.9887 B(  0-C ,  8-H ) :   0.9130 B(  0-C ,  9-H ) :   0.8737
B(  0-C , 10-H ) :   0.9229 B(  1-C ,  2-N ) :   0.8724 B(  1-C ,  6-H ) :   0.9076
B(  1-C ,  7-H ) :   0.8935 B(  2-N ,  3-H ) :   0.5254 B(  2-N ,  4-H ) :   0.8058
B(  2-N ,  5-H ) :   0.8055 B(  3-H , 11-O ) :   0.2596 B( 11-O , 12-S ) :   1.2992
B( 12-S , 13-C ) :   0.8834 B( 12-S , 14-O ) :   1.6672 B( 12-S , 15-O ) :   1.5886
B( 13-C , 16-H ) :   0.8996 B( 13-C , 17-H ) :   0.9026 B( 13-C , 18-H ) :   0.8990

Dispersion correction           -0.008953115
FINAL SINGLE POINT ENERGY      -798.200280407549

DIPOLE MOMENT
-------------
                                X             Y             Z
Electronic contribution:      5.05870      -4.82304      -8.24254
Nuclear contribution   :     -8.39810       5.74431      10.61197
                        -----------------------------------------
Total Dipole Moment    :     -3.33940       0.92128       2.36942
                        -----------------------------------------
Magnitude (a.u.)       :      4.19697
Magnitude (Debye)      :     10.66784

Rotational constants in cm-1:     0.101810     0.025686     0.024192
Rotational constants in MHz :  3052.177948   770.060973   725.271388

                             ****ORCA TERMINATED NORMALLY****
TOTAL RUN TIME: 0 days 0 hours 1 minutes 36 seconds 36 msec
