                         Program Version 5.0.3 -  RELEASE  -
|  1> ! PBEh-3c def2/J TightSCF DefGrid3
|  2>
|  3> %maxcore 60000
|  4>
|  5> %pal
|  6> nprocs 4
|  7> end
|  8>
|  9> *xyzfile 0 1 24.xyz
| 10>
| 11>                          ****END OF INPUT****

CARTESIAN COORDINATES (ANGSTROEM)
---------------------------------
  H     -1.110560   -0.141139    0.060860
  F     -1.020328   -0.772588   -2.245784
  F     -1.174174    1.541953   -1.995979
  S     -0.956910    1.879572    2.564041
  H      0.985744    0.096856    3.836888
  F      0.868383    0.492774   -1.607524
  Si     0.297763    0.162161    2.538341
  F     -0.592776   -1.195459    2.419624
  B     -0.383985    0.582485   -2.509309
  O      1.332824    0.137185    1.290797
  Al     1.421310   -0.595333   -0.253844
  Si    -1.386256   -1.519195   -0.510256
  H     -1.207649    1.822738    1.240130
  H      0.203387   -1.855593   -0.424749
  H     -0.023140    0.619679   -3.639549
  H      2.746367   -1.256096   -0.763689

 Total Charge           Charge          ....    0
 Multiplicity           Mult            ....    1
 Number of Electrons    NEL             ....  112
 Basis Dimension        Dim             ....  174

ORBITAL ENERGIES
----------------

  NO   OCC          E(Eh)            E(eV)
   0   2.0000     -89.588830     -2437.8360
   1   2.0000     -66.834270     -1818.6530
   2   2.0000     -66.805833     -1817.8791
   3   2.0000     -56.668643     -1542.0322
   4   2.0000     -25.170874      -684.9343
   5   2.0000     -25.166241      -684.8082
   6   2.0000     -25.105131      -683.1453
   7   2.0000     -25.099885      -683.0026
   8   2.0000     -19.510464      -530.9067
   9   2.0000      -8.231379      -223.9872
  10   2.0000      -7.105801      -193.3587
  11   2.0000      -6.121211      -166.5666
  12   2.0000      -6.119151      -166.5106
  13   2.0000      -6.114680      -166.3889
  14   2.0000      -5.596564      -152.2902
  15   2.0000      -5.576153      -151.7348
  16   2.0000      -4.401431      -119.7690
  17   2.0000      -3.890665      -105.8704
  18   2.0000      -3.888870      -105.8215
  19   2.0000      -3.886611      -105.7601
  20   2.0000      -3.868442      -105.2657
  21   2.0000      -3.865216      -105.1779
  22   2.0000      -3.861401      -105.0741
  23   2.0000      -2.893125       -78.7259
  24   2.0000      -2.891379       -78.6784
  25   2.0000      -2.887193       -78.5645
  26   2.0000      -1.399112       -38.0718
  27   2.0000      -1.368747       -37.2455
  28   2.0000      -1.332481       -36.2586
  29   2.0000      -1.314919       -35.7808
  30   2.0000      -1.101055       -29.9612
  31   2.0000      -0.825741       -22.4696
  32   2.0000      -0.734711       -19.9925
  33   2.0000      -0.686707       -18.6862
  34   2.0000      -0.661561       -18.0020
  35   2.0000      -0.633263       -17.2319
  36   2.0000      -0.624885       -17.0040
  37   2.0000      -0.595835       -16.2135
  38   2.0000      -0.583464       -15.8769
  39   2.0000      -0.569070       -15.4852
  40   2.0000      -0.559495       -15.2246
  41   2.0000      -0.551140       -14.9973
  42   2.0000      -0.531460       -14.4618
  43   2.0000      -0.526231       -14.3195
  44   2.0000      -0.519355       -14.1324
  45   2.0000      -0.503953       -13.7133
  46   2.0000      -0.491302       -13.3690
  47   2.0000      -0.455065       -12.3829
  48   2.0000      -0.446141       -12.1401
  49   2.0000      -0.431229       -11.7343
  50   2.0000      -0.429528       -11.6880
  51   2.0000      -0.427119       -11.6225
  52   2.0000      -0.389539       -10.5999
  53   2.0000      -0.370973       -10.0947
  54   2.0000      -0.320652        -8.7254
  55   2.0000      -0.311988        -8.4896
  56   0.0000      -0.035599        -0.9687
  57   0.0000      -0.019224        -0.5231
  58   0.0000       0.037011         1.0071
  59   0.0000       0.039570         1.0768
  60   0.0000       0.050641         1.3780

MULLIKEN ATOMIC CHARGES
-----------------------
   0 H :   -0.099256
   1 F :   -0.413204
   2 F :   -0.306533
   3 S :   -0.414821
   4 H :   -0.017468
   5 F :   -0.429140
   6 Si:    1.010620
   7 F :   -0.463608
   8 B :    0.672191
   9 O :   -0.720605
  10 Al:    0.854163
  11 Si:    0.364113
  12 H :    0.211781
  13 H :   -0.140806
  14 H :   -0.025280
  15 H :   -0.082146
Sum of atomic charges:    0.0000000

LOEWDIN ATOMIC CHARGES
----------------------
   0 H :   -0.032141
   1 F :   -0.186745
   2 F :   -0.159660
   3 S :   -0.138889
   4 H :   -0.024867
   5 F :   -0.130357
   6 Si:    0.430956
   7 F :   -0.262815
   8 B :    0.219957
   9 O :   -0.338939
  10 Al:    0.348184
  11 Si:    0.234655
  12 H :    0.129325
  13 H :   -0.009397
  14 H :   -0.012615
  15 H :   -0.066652

  Mayer bond orders larger than 0.100000
B(  0-H , 11-Si) :   0.9032 B(  1-F ,  8-B ) :   0.5847 B(  1-F , 11-Si) :   0.3934
B(  2-F ,  8-B ) :   1.0910 B(  3-S ,  6-Si) :   1.0603 B(  3-S , 12-H ) :   0.9025
B(  4-H ,  6-Si) :   0.9255 B(  5-F ,  8-B ) :   0.5242 B(  5-F , 10-Al) :   0.4496
B(  6-Si,  7-F ) :   0.8347 B(  6-Si,  9-O ) :   1.0813 B(  8-B , 14-H ) :   0.9465
B(  9-O , 10-Al) :   0.8907 B( 10-Al, 11-Si) :   0.2193 B( 10-Al, 13-H ) :   0.3504
B( 10-Al, 15-H ) :   0.9412 B( 11-Si, 13-H ) :   0.5798

Dispersion correction           -0.009393257
FINAL SINGLE POINT ENERGY     -1720.546195920394

DIPOLE MOMENT
-------------
                                X             Y             Z
Electronic contribution:     -2.10021       0.18396      -5.84192
Nuclear contribution   :      2.41195      -0.61725       5.38781
                        -----------------------------------------
Total Dipole Moment    :      0.31175      -0.43328      -0.45411
                        -----------------------------------------
Magnitude (a.u.)       :      0.70081
Magnitude (Debye)      :      1.78132

Rotational constants in cm-1:     0.032656     0.015588     0.014732
Rotational constants in MHz :   978.988363   467.306190   441.665122

                             ****ORCA TERMINATED NORMALLY****
TOTAL RUN TIME: 0 days 0 hours 2 minutes 34 seconds 262 msec
