                         Program Version 5.0.3 -  RELEASE  -
|  1> ! PBEh-3c def2/J TightSCF DefGrid3
|  2>
|  3> %maxcore 60000
|  4>
|  5> %pal
|  6> nprocs 4
|  7> end
|  8>
|  9> *xyzfile 0 2 16.xyz
| 10>
| 11>                          ****END OF INPUT****

CARTESIAN COORDINATES (ANGSTROEM)
---------------------------------
  Si     1.247047    0.827704    0.082727
  H      1.978684    2.449694   -1.474555
  O      1.664583    1.533129   -1.473322
  B     -0.407506    1.382271    1.234632
  H     -0.351603    2.148446    2.153598
  B     -0.718592   -1.988428   -0.202563
  H     -1.180906    1.863561    0.378371
  Si    -0.643104   -0.647248    1.772576
  Mg    -1.540571    0.209392   -0.573422
  H     -0.805027   -3.086981    0.344586
  B      0.510265   -0.917570   -0.157467
  Mg     0.933877   -2.714477    1.345565
  H     -1.410776    0.677998   -2.274139
  H     -1.656368   -1.907186   -0.995918
  Al     1.959775   -0.251182    2.199454
  Li     0.420222    0.420878   -2.360121

 Total Charge           Charge          ....    0
 Multiplicity           Mult            ....    2
 Number of Electrons    NEL             ....   97
 Basis Dimension        Dim             ....  171

ORBITAL ENERGIES
----------------
                 SPIN UP ORBITALS
  NO   OCC          E(Eh)            E(eV)
   0   1.0000     -66.745138     -1816.2275
   1   1.0000     -66.708543     -1815.2318
   2   1.0000     -56.599558     -1540.1523
   3   1.0000     -47.383380     -1289.3673
   4   1.0000     -47.372419     -1289.0691
   5   1.0000     -19.523527      -531.2622
   6   1.0000      -6.949259      -189.0989
   7   1.0000      -6.936870      -188.7618
   8   1.0000      -6.934153      -188.6879
   9   1.0000      -5.513850      -150.0395
  10   1.0000      -5.482212      -149.1786
  11   1.0000      -4.335159      -117.9657
  12   1.0000      -3.806240      -103.5730
  13   1.0000      -3.804960      -103.5382
  14   1.0000      -3.803088      -103.4873
  15   1.0000      -3.773510      -102.6824
  16   1.0000      -3.773190      -102.6737
  17   1.0000      -3.770188      -102.5920
  18   1.0000      -2.821605       -76.7798
  19   1.0000      -2.820052       -76.7375
  20   1.0000      -2.823221       -76.8237
  21   1.0000      -3.332610       -90.6849
  22   1.0000      -3.323989       -90.4503
  23   1.0000      -2.111968       -57.4696
  24   1.0000      -2.014629       -54.8208
  25   1.0000      -2.014400       -54.8146
  26   1.0000      -2.013435       -54.7883
  27   1.0000      -2.008384       -54.6509
  28   1.0000      -2.007431       -54.6250
  29   1.0000      -2.005440       -54.5708
  30   1.0000      -1.120874       -30.5005
  31   1.0000      -0.698145       -18.9975
  32   1.0000      -0.625640       -17.0245
  33   1.0000      -0.596089       -16.2204
  34   1.0000      -0.527140       -14.3442
  35   1.0000      -0.494438       -13.4543
  36   1.0000      -0.471250       -12.8234
  37   1.0000      -0.436347       -11.8736
  38   1.0000      -0.433938       -11.8081
  39   1.0000      -0.424689       -11.5564
  40   1.0000      -0.392854       -10.6901
  41   1.0000      -0.358060        -9.7433
  42   1.0000      -0.339461        -9.2372
  43   1.0000      -0.305612        -8.3161
  44   1.0000      -0.270304        -7.3554
  45   1.0000      -0.247000        -6.7212
  46   1.0000      -0.230306        -6.2670
  47   1.0000      -0.217817        -5.9271
  48   1.0000      -0.200438        -5.4542
  49   0.0000      -0.067175        -1.8279
  50   0.0000      -0.038525        -1.0483
  51   0.0000      -0.016326        -0.4443
  52   0.0000      -0.009991        -0.2719
  53   0.0000       0.005108         0.1390

                 SPIN DOWN ORBITALS
  NO   OCC          E(Eh)            E(eV)
   0   1.0000     -66.745161     -1816.2282
   1   1.0000     -66.708084     -1815.2193
   2   1.0000     -56.599255     -1540.1440
   3   1.0000     -47.380585     -1289.2913
   4   1.0000     -47.372328     -1289.0666
   5   1.0000     -19.523563      -531.2632
   6   1.0000      -6.948946      -189.0904
   7   1.0000      -6.936454      -188.7505
   8   1.0000      -6.933958      -188.6826
   9   1.0000      -5.513874      -150.0401
  10   1.0000      -5.481666      -149.1637
  11   1.0000      -4.334716      -117.9536
  12   1.0000      -3.806267      -103.5738
  13   1.0000      -3.805252      -103.5462
  14   1.0000      -3.802882      -103.4817
  15   1.0000      -3.772873      -102.6651
  16   1.0000      -3.771882      -102.6381
  17   1.0000      -3.769737      -102.5798
  18   1.0000      -2.821362       -76.7732
  19   1.0000      -2.819972       -76.7353
  20   1.0000      -2.821993       -76.7903
  21   1.0000      -3.327135       -90.5359
  22   1.0000      -3.323832       -90.4461
  23   1.0000      -2.111979       -57.4699
  24   1.0000      -2.011476       -54.7350
  25   1.0000      -2.010379       -54.7052
  26   1.0000      -2.009889       -54.6918
  27   1.0000      -2.008283       -54.6481
  28   1.0000      -2.007298       -54.6214
  29   1.0000      -2.005214       -54.5646
  30   1.0000      -1.120937       -30.5022
  31   1.0000      -0.695590       -18.9280
  32   1.0000      -0.625035       -17.0081
  33   1.0000      -0.593926       -16.1616
  34   1.0000      -0.524167       -14.2633
  35   1.0000      -0.493174       -13.4199
  36   1.0000      -0.468268       -12.7422
  37   1.0000      -0.434228       -11.8159
  38   1.0000      -0.431976       -11.7547
  39   1.0000      -0.421931       -11.4813
  40   1.0000      -0.391606       -10.6562
  41   1.0000      -0.350024        -9.5246
  42   1.0000      -0.337410        -9.1814
  43   1.0000      -0.302820        -8.2401
  44   1.0000      -0.268098        -7.2953
  45   1.0000      -0.242211        -6.5909
  46   1.0000      -0.228191        -6.2094
  47   1.0000      -0.215835        -5.8732
  48   0.0000      -0.089866        -2.4454
  49   0.0000      -0.047619        -1.2958
  50   0.0000      -0.033458        -0.9104
  51   0.0000      -0.009759        -0.2655
  52   0.0000      -0.003821        -0.1040

MULLIKEN ATOMIC CHARGES AND SPIN POPULATIONS
--------------------------------------------
   0 Si:    0.437837   -0.023181
   1 H :    0.454993   -0.000175
   2 O :   -0.807064   -0.000524
   3 B :   -0.440606    0.000033
   4 H :    0.109044   -0.000237
   5 B :   -0.289561   -0.009959
   6 H :    0.047630    0.038216
   7 Si:   -0.037593    0.115036
   8 Mg:   -0.050506    0.032056
   9 H :    0.021938    0.001764
  10 B :   -0.447071    0.019126
  11 Mg:    0.021149    0.731765
  12 H :   -0.211499   -0.000122
  13 H :    0.036921    0.000424
  14 Al:    0.348715    0.094154
  15 Li:    0.805672    0.001621
Sum of atomic charges         :   -0.0000000

LOEWDIN ATOMIC CHARGES AND SPIN POPULATIONS
-------------------------------------------
   0 Si:    0.423562   -0.000198
   1 H :    0.343363   -0.000035
   2 O :   -0.440609   -0.000983
   3 B :   -0.414094    0.014306
   4 H :    0.048392    0.000736
   5 B :   -0.199572    0.007724
   6 H :    0.129659    0.025625
   7 Si:    0.406736    0.098456
   8 Mg:   -0.411064    0.034856
   9 H :    0.116866    0.005150
  10 B :   -0.263387    0.023925
  11 Mg:   -0.346539    0.662439
  12 H :   -0.017590   -0.000036
  13 H :    0.116170    0.000662
  14 Al:    0.225115    0.126632
  15 Li:    0.282993    0.000741

  Mayer bond orders larger than 0.100000
B(  0-Si,  2-O ) :   0.7435 B(  0-Si,  3-B ) :   0.6704 B(  0-Si,  7-Si) :   0.2023
B(  0-Si,  8-Mg) :   0.1583 B(  0-Si, 10-B ) :   1.0306 B(  0-Si, 14-Al) :   0.5796
B(  1-H ,  2-O ) :   0.7499 B(  2-O , 15-Li) :   0.2644 B(  3-B ,  4-H ) :   0.9600
B(  3-B ,  6-H ) :   0.6904 B(  3-B ,  7-Si) :   0.7191 B(  3-B ,  8-Mg) :   0.4024
B(  5-B ,  7-Si) :   0.3196 B(  5-B ,  8-Mg) :   0.3585 B(  5-B ,  9-H ) :   0.7782
B(  5-B , 10-B ) :   0.8654 B(  5-B , 11-Mg) :   0.3756 B(  5-B , 13-H ) :   0.8042
B(  6-H ,  8-Mg) :   0.2431 B(  7-Si,  8-Mg) :   0.3146 B(  7-Si, 10-B ) :   0.4966
B(  7-Si, 11-Mg) :   0.5565 B(  7-Si, 14-Al) :   0.3485 B(  8-Mg, 10-B ) :   0.3833
B(  8-Mg, 12-H ) :   0.8218 B(  8-Mg, 13-H ) :   0.1770 B(  9-H , 11-Mg) :   0.2002
B( 10-B , 11-Mg) :   0.3352 B( 10-B , 14-Al) :   0.2644 B( 11-Mg, 14-Al) :   0.4269
B( 12-H , 15-Li) :   0.1294

Dispersion correction           -0.012351093
FINAL SINGLE POINT ENERGY     -1380.505081991652

DIPOLE MOMENT
-------------
                                X             Y             Z
Electronic contribution:      5.21288      -3.90600       1.27228
Nuclear contribution   :     -5.10275       3.94260      -3.12877
                        -----------------------------------------
Total Dipole Moment    :      0.11012       0.03661      -1.85649
                        -----------------------------------------
Magnitude (a.u.)       :      1.86012
Magnitude (Debye)      :      4.72804

Rotational constants in cm-1:     0.035312     0.026594     0.021901
Rotational constants in MHz :  1058.615555   797.255861   656.572814

                             ****ORCA TERMINATED NORMALLY****
TOTAL RUN TIME: 0 days 0 hours 9 minutes 15 seconds 114 msec
