                         Program Version 5.0.3 -  RELEASE  -
|  1> ! PBEh-3c def2/J TightSCF DefGrid3
|  2>
|  3> %maxcore 60000
|  4>
|  5> %pal
|  6> nprocs 4
|  7> end
|  8>
|  9> *xyzfile 1 3 f+.xyz
| 10>
| 11>                          ****END OF INPUT****

CARTESIAN COORDINATES (ANGSTROEM)
---------------------------------
  F      0.000000    0.000000    0.000000

 Total Charge           Charge          ....    1
 Multiplicity           Mult            ....    3
 Number of Electrons    NEL             ....    8
 Basis Dimension        Dim             ....   15

ORBITAL ENERGIES
----------------
                 SPIN UP ORBITALS
  NO   OCC          E(Eh)            E(eV)
   0   1.0000     -25.985900      -707.1123
   1   1.0000      -2.065431       -56.2032
   2   1.0000      -1.319190       -35.8970
   3   1.0000      -1.319190       -35.8970
   4   1.0000      -1.217091       -33.1187
   5   0.0000       0.569894        15.5076
   6   0.0000       0.569894        15.5076
   7   0.0000       0.623093        16.9552
   8   0.0000       0.698139        18.9973
   9   0.0000       0.698139        18.9973

                 SPIN DOWN ORBITALS
  NO   OCC          E(Eh)            E(eV)
   0   1.0000     -25.907632      -704.9825
   1   1.0000      -1.818425       -49.4818
   2   1.0000      -1.133652       -30.8482
   3   0.0000      -0.770988       -20.9797
   4   0.0000      -0.770988       -20.9797
   5   0.0000       0.659342        17.9416
   6   0.0000       0.717356        19.5203
   7   0.0000       0.717356        19.5203

MULLIKEN ATOMIC CHARGES AND SPIN POPULATIONS
--------------------------------------------
   0 F :    1.000000    2.000000
Sum of atomic charges         :    1.0000000

LOEWDIN ATOMIC CHARGES AND SPIN POPULATIONS
-------------------------------------------
   0 F :    1.000000    2.000000

Dispersion correction            0.000000000
FINAL SINGLE POINT ENERGY       -98.903802509933

DIPOLE MOMENT
-------------
                                X             Y             Z
Electronic contribution:      0.00000       0.00000      -0.00000
Nuclear contribution   :      0.00000       0.00000       0.00000
                        -----------------------------------------
Total Dipole Moment    :      0.00000       0.00000      -0.00000
                        -----------------------------------------
Magnitude (a.u.)       :      0.00000
Magnitude (Debye)      :      0.00000

Rotational constants in cm-1:     0.000000     0.000000     0.000000
Rotational constants in MHz :     0.000000     0.000000     0.000000

                             ****ORCA TERMINATED NORMALLY****
TOTAL RUN TIME: 0 days 0 hours 0 minutes 4 seconds 872 msec
