                         Program Version 5.0.3 -  RELEASE  -
|  1> ! PBEh-3c def2/J TightSCF DefGrid3
|  2>
|  3> %maxcore 60000
|  4>
|  5> %pal
|  6> nprocs 4
|  7> end
|  8>
|  9> *xyzfile 0 1 57B.xyz
| 10>
| 11>                          ****END OF INPUT****

CARTESIAN COORDINATES (ANGSTROEM)
---------------------------------
  C      0.209875    1.876212    0.124378
  H     -0.148270    2.041943   -0.888915
  H      1.234458    2.232922    0.205819
  H     -0.394222    2.449848    0.822731
  C      0.173029    0.423049    0.540087
  O      0.457657    0.070688    1.678625
  N     -0.199367   -0.442667   -0.439154
  H     -0.360495   -0.084677   -1.365223
  C     -0.236160   -1.869547   -0.221067
  H     -0.158072   -2.036454    0.848929
  H     -1.171400   -2.287897   -0.587805
  H      0.592967   -2.373419   -0.718405

 Total Charge           Charge          ....    0
 Multiplicity           Mult            ....    1
 Number of Electrons    NEL             ....   40
 Basis Dimension        Dim             ....   89

ORBITAL ENERGIES
----------------

  NO   OCC          E(Eh)            E(eV)
   0   2.0000     -19.446813      -529.1747
   1   2.0000     -14.661536      -398.9607
   2   2.0000     -10.542891      -286.8867
   3   2.0000     -10.464046      -284.7412
   4   2.0000     -10.439504      -284.0733
   5   2.0000      -1.133529       -30.8449
   6   2.0000      -1.019002       -27.7284
   7   2.0000      -0.840308       -22.8659
   8   2.0000      -0.768366       -20.9083
   9   2.0000      -0.655151       -17.8276
  10   2.0000      -0.569055       -15.4848
  11   2.0000      -0.529464       -14.4074
  12   2.0000      -0.520695       -14.1688
  13   2.0000      -0.482295       -13.1239
  14   2.0000      -0.462032       -12.5725
  15   2.0000      -0.451435       -12.2842
  16   2.0000      -0.441962       -12.0264
  17   2.0000      -0.403778       -10.9874
  18   2.0000      -0.303178        -8.2499
  19   2.0000      -0.298136        -8.1127
  20   0.0000       0.069925         1.9028
  21   0.0000       0.119130         3.2417
  22   0.0000       0.176790         4.8107
  23   0.0000       0.187864         5.1120
  24   0.0000       0.201216         5.4754

MULLIKEN ATOMIC CHARGES
-----------------------
   0 C :   -0.747483
   1 H :    0.204826
   2 H :    0.256280
   3 H :    0.260257
   4 C :    0.520630
   5 O :   -0.431789
   6 N :   -0.625613
   7 H :    0.352671
   8 C :   -0.493814
   9 H :    0.269132
  10 H :    0.216883
  11 H :    0.218021
Sum of atomic charges:   -0.0000000

LOEWDIN ATOMIC CHARGES
----------------------
   0 C :   -0.390117
   1 H :    0.123215
   2 H :    0.155742
   3 H :    0.157018
   4 C :    0.103996
   5 O :   -0.286585
   6 N :   -0.251636
   7 H :    0.250829
   8 C :   -0.260060
   9 H :    0.155958
  10 H :    0.121797
  11 H :    0.119846

  Mayer bond orders larger than 0.100000
B(  0-C ,  1-H ) :   0.9228 B(  0-C ,  2-H ) :   0.9102 B(  0-C ,  3-H ) :   0.9109
B(  0-C ,  4-C ) :   0.9251 B(  4-C ,  5-O ) :   1.9948 B(  4-C ,  6-N ) :   1.1356
B(  6-N ,  7-H ) :   0.8290 B(  6-N ,  8-C ) :   0.9508 B(  8-C ,  9-H ) :   0.8963
B(  8-C , 10-H ) :   0.9238 B(  8-C , 11-H ) :   0.9207

Dispersion correction           -0.004436984
FINAL SINGLE POINT ENERGY      -247.989028408457

DIPOLE MOMENT
-------------
                                X             Y             Z
Electronic contribution:      0.55747       0.12957       2.29343
Nuclear contribution   :     -0.90459      -0.05859      -3.74951
                        -----------------------------------------
Total Dipole Moment    :     -0.34712       0.07099      -1.45608
                        -----------------------------------------
Magnitude (a.u.)       :      1.49856
Magnitude (Debye)      :      3.80905

Rotational constants in cm-1:     0.333105     0.129925     0.096846
Rotational constants in MHz :  9986.236475  3895.061749  2903.381870

                             ****ORCA TERMINATED NORMALLY****
TOTAL RUN TIME: 0 days 0 hours 1 minutes 12 seconds 45 msec
