                         Program Version 5.0.3 -  RELEASE  -
|  1> ! PBEh-3c def2/J TightSCF DefGrid3
|  2>
|  3> %maxcore 60000
|  4>
|  5> %pal
|  6> nprocs 4
|  7> end
|  8>
|  9> *xyzfile 0 1 28A.xyz
| 10>
| 11>                          ****END OF INPUT****

CARTESIAN COORDINATES (ANGSTROEM)
---------------------------------
  C      1.208790    0.000000    0.697006
  H      2.145965    0.000000    1.235986
  C      1.208790    0.000000   -0.697006
  H      2.145965    0.000000   -1.235986
  C      0.000000    0.000000   -1.393118
  H      0.000000    0.000000   -2.475122
  C     -1.208790    0.000000   -0.697006
  H     -2.145965    0.000000   -1.235986
  C     -1.208790    0.000000    0.697006
  H     -2.145965    0.000000    1.235986
  C      0.000000    0.000000    1.393118
  H      0.000000    0.000000    2.475122

 Total Charge           Charge          ....    0
 Multiplicity           Mult            ....    1
 Number of Electrons    NEL             ....   42
 Basis Dimension        Dim             ....  102

ORBITAL ENERGIES
----------------

  NO   OCC          E(Eh)            E(eV)
   0   2.0000     -10.448941      -284.3301
   1   2.0000     -10.448768      -284.3254
   2   2.0000     -10.448672      -284.3228
   3   2.0000     -10.448150      -284.3086
   4   2.0000     -10.448059      -284.3061
   5   2.0000     -10.447875      -284.3011
   6   2.0000      -0.951716       -25.8975
   7   2.0000      -0.835642       -22.7390
   8   2.0000      -0.834959       -22.7204
   9   2.0000      -0.679070       -18.4784
  10   2.0000      -0.678801       -18.4711
  11   2.0000      -0.591851       -16.1051
  12   2.0000      -0.526168       -14.3177
  13   2.0000      -0.508238       -13.8298
  14   2.0000      -0.482163       -13.1203
  15   2.0000      -0.481330       -13.0976
  16   2.0000      -0.420603       -11.4452
  17   2.0000      -0.398777       -10.8513
  18   2.0000      -0.397968       -10.8293
  19   2.0000      -0.292571        -7.9613
  20   2.0000      -0.292158        -7.9500
  21   0.0000       0.018961         0.5160
  22   0.0000       0.019060         0.5187
  23   0.0000       0.140870         3.8333
  24   0.0000       0.195854         5.3295
  25   0.0000       0.201797         5.4912

MULLIKEN ATOMIC CHARGES
-----------------------
   0 C :   -0.219451
   1 H :    0.220092
   2 C :   -0.219451
   3 H :    0.220092
   4 C :   -0.220888
   5 H :    0.219607
   6 C :   -0.219452
   7 H :    0.220092
   8 C :   -0.219451
   9 H :    0.220092
  10 C :   -0.220889
  11 H :    0.219607
Sum of atomic charges:    0.0000000

LOEWDIN ATOMIC CHARGES
----------------------
   0 C :   -0.135772
   1 H :    0.135745
   2 C :   -0.135772
   3 H :    0.135745
   4 C :   -0.135563
   5 H :    0.135617
   6 C :   -0.135772
   7 H :    0.135745
   8 C :   -0.135772
   9 H :    0.135745
  10 C :   -0.135563
  11 H :    0.135617

  Mayer bond orders larger than 0.100000
B(  0-C ,  1-H ) :   0.9199 B(  0-C ,  2-C ) :   1.4267 B(  0-C , 10-C ) :   1.4263
B(  2-C ,  3-H ) :   0.9199 B(  2-C ,  4-C ) :   1.4263 B(  4-C ,  5-H ) :   0.9201
B(  4-C ,  6-C ) :   1.4263 B(  6-C ,  7-H ) :   0.9199 B(  6-C ,  8-C ) :   1.4267
B(  8-C ,  9-H ) :   0.9199 B(  8-C , 10-C ) :   1.4263 B( 10-C , 11-H ) :   0.9201

Dispersion correction           -0.005879475
FINAL SINGLE POINT ENERGY      -231.725733204451

DIPOLE MOMENT
-------------
                                X             Y             Z
Electronic contribution:     -0.00000       0.00000       0.00000
Nuclear contribution   :     -0.00000       0.00000       0.00000
                        -----------------------------------------
Total Dipole Moment    :     -0.00000       0.00000       0.00000
                        -----------------------------------------
Magnitude (a.u.)       :      0.00000
Magnitude (Debye)      :      0.00000

Rotational constants in cm-1:     0.190542     0.189905     0.095112
Rotational constants in MHz :  5712.312446  5693.221589  2851.375520

                             ****ORCA TERMINATED NORMALLY****
TOTAL RUN TIME: 0 days 0 hours 0 minutes 56 seconds 920 msec
