                         Program Version 5.0.3 -  RELEASE  -
|  1> ! PBEh-3c def2/J TightSCF DefGrid3
|  2>
|  3> %maxcore 60000
|  4>
|  5> %pal
|  6> nprocs 4
|  7> end
|  8>
|  9> *xyzfile 0 1 hooh.xyz
| 10>
| 11>                          ****END OF INPUT****

CARTESIAN COORDINATES (ANGSTROEM)
---------------------------------
  H      0.953175   -0.713015    0.495947
  O      0.723828    0.059149   -0.031243
  O     -0.723828   -0.059149   -0.031243
  H     -0.953175    0.713015    0.495947

 Total Charge           Charge          ....    0
 Multiplicity           Mult            ....    1
 Number of Electrons    NEL             ....   18
 Basis Dimension        Dim             ....   34

ORBITAL ENERGIES
----------------

  NO   OCC          E(Eh)            E(eV)
   0   2.0000     -19.546031      -531.8745
   1   2.0000     -19.545996      -531.8736
   2   2.0000      -1.225015       -33.3344
   3   2.0000      -0.993459       -27.0334
   4   2.0000      -0.589233       -16.0338
   5   2.0000      -0.557388       -15.1673
   6   2.0000      -0.479204       -13.0398
   7   2.0000      -0.377091       -10.2612
   8   2.0000      -0.339649        -9.2423
   9   0.0000       0.080429         2.1886
  10   0.0000       0.131998         3.5918
  11   0.0000       0.179509         4.8847
  12   0.0000       0.873188        23.7607
  13   0.0000       0.889721        24.2105

MULLIKEN ATOMIC CHARGES
-----------------------
   0 H :    0.437022
   1 O :   -0.437022
   2 O :   -0.437022
   3 H :    0.437022
Sum of atomic charges:   -0.0000000

LOEWDIN ATOMIC CHARGES
----------------------
   0 H :    0.305441
   1 O :   -0.305441
   2 O :   -0.305441
   3 H :    0.305441

  Mayer bond orders larger than 0.100000
B(  0-H ,  1-O ) :   0.7833 B(  1-O ,  2-O ) :   1.0024 B(  2-O ,  3-H ) :   0.7833

Dispersion correction           -0.000470917
FINAL SINGLE POINT ENERGY      -151.220408040481

DIPOLE MOMENT
-------------
                                X             Y             Z
Electronic contribution:     -0.00000      -0.00000      -0.14363
Nuclear contribution   :      0.00000       0.00000       0.92964
                        -----------------------------------------
Total Dipole Moment    :     -0.00000      -0.00000       0.78601
                        -----------------------------------------
Magnitude (a.u.)       :      0.78601
Magnitude (Debye)      :      1.99787

Rotational constants in cm-1:    10.131044     0.881522     0.854282
Rotational constants in MHz : 303721.044823 26427.363292 25610.738885

                             ****ORCA TERMINATED NORMALLY****
TOTAL RUN TIME: 0 days 0 hours 0 minutes 50 seconds 237 msec
