                         Program Version 5.0.3 -  RELEASE  -
|  1> ! PBEh-3c def2/J TightSCF DefGrid3
|  2>
|  3> %maxcore 60000
|  4>
|  5> %pal
|  6> nprocs 4
|  7> end
|  8>
|  9> *xyzfile 0 1 38.xyz
| 10>
| 11>                          ****END OF INPUT****

CARTESIAN COORDINATES (ANGSTROEM)
---------------------------------
  H      2.895241    2.426716    0.142673
  Si     3.232274    0.846171    2.706457
  H      0.887359   -1.434601    2.078299
  Al    -2.197727   -2.193544   -2.276237
  H     -3.062252    0.532538   -0.526464
  H      1.187660    1.231543   -0.418603
  Si     1.666913   -0.284065    1.539292
  H     -2.844910   -0.631484    0.629941
  N     -2.816347   -0.450953   -0.378695
  H      4.045155    3.367663    1.636866
  C      0.798514    0.325453    0.059884
  S     -4.070999   -1.505633   -1.210549
  F     -2.157162   -3.344610   -3.464291
  N     -0.267025   -0.187440   -0.488156
  B     -1.297491   -0.810415   -1.006990
  P      4.000795    2.112661    0.976573

 Total Charge           Charge          ....    0
 Multiplicity           Mult            ....    1
 Number of Electrons    NEL             ....  112
 Basis Dimension        Dim             ....  177

ORBITAL ENERGIES
----------------

  NO   OCC          E(Eh)            E(eV)
   0   2.0000     -89.647009     -2439.4191
   1   2.0000     -77.706289     -2114.4956
   2   2.0000     -66.719530     -1815.5307
   3   2.0000     -66.700257     -1815.0063
   4   2.0000     -56.672014     -1542.1239
   5   2.0000     -25.092158      -682.7923
   6   2.0000     -14.778670      -402.1481
   7   2.0000     -14.659528      -398.9060
   8   2.0000     -10.503931      -285.8265
   9   2.0000      -8.283579      -225.4077
  10   2.0000      -7.016565      -190.9304
  11   2.0000      -6.784469      -184.6148
  12   2.0000      -6.177311      -168.0932
  13   2.0000      -6.168365      -167.8498
  14   2.0000      -6.166048      -167.7867
  15   2.0000      -5.494810      -149.5214
  16   2.0000      -5.480258      -149.1254
  17   2.0000      -4.875226      -132.6616
  18   2.0000      -4.874283      -132.6360
  19   2.0000      -4.873119      -132.6043
  20   2.0000      -4.408552      -119.9628
  21   2.0000      -3.787232      -103.0558
  22   2.0000      -3.782669      -102.9316
  23   2.0000      -3.781895      -102.9106
  24   2.0000      -3.772629      -102.6585
  25   2.0000      -3.770948      -102.6127
  26   2.0000      -3.768820      -102.5548
  27   2.0000      -2.900488       -78.9263
  28   2.0000      -2.896811       -78.8262
  29   2.0000      -2.893527       -78.7369
  30   2.0000      -1.291799       -35.1517
  31   2.0000      -1.090459       -29.6729
  32   2.0000      -1.006086       -27.3770
  33   2.0000      -0.814833       -22.1727
  34   2.0000      -0.753415       -20.5015
  35   2.0000      -0.689873       -18.7724
  36   2.0000      -0.663598       -18.0574
  37   2.0000      -0.629513       -17.1299
  38   2.0000      -0.587732       -15.9930
  39   2.0000      -0.558927       -15.2092
  40   2.0000      -0.556107       -15.1324
  41   2.0000      -0.524646       -14.2763
  42   2.0000      -0.504127       -13.7180
  43   2.0000      -0.502255       -13.6671
  44   2.0000      -0.490441       -13.3456
  45   2.0000      -0.447091       -12.1660
  46   2.0000      -0.424581       -11.5534
  47   2.0000      -0.418701       -11.3934
  48   2.0000      -0.393913       -10.7189
  49   2.0000      -0.354179        -9.6377
  50   2.0000      -0.347356        -9.4520
  51   2.0000      -0.336908        -9.1677
  52   2.0000      -0.325297        -8.8518
  53   2.0000      -0.272667        -7.4197
  54   2.0000      -0.236566        -6.4373
  55   2.0000      -0.202375        -5.5069
  56   0.0000      -0.072917        -1.9842
  57   0.0000      -0.066774        -1.8170
  58   0.0000      -0.041570        -1.1312
  59   0.0000      -0.017089        -0.4650
  60   0.0000       0.021305         0.5797

MULLIKEN ATOMIC CHARGES
-----------------------
   0 H :    0.061501
   1 Si:    0.058600
   2 H :   -0.005457
   3 Al:    0.973601
   4 H :    0.429335
   5 H :    0.244248
   6 Si:   -0.034322
   7 H :    0.434269
   8 N :   -0.815991
   9 H :    0.081848
  10 C :   -0.227565
  11 S :   -0.110467
  12 F :   -0.508157
  13 N :   -0.219430
  14 B :   -0.035815
  15 P :   -0.326198
Sum of atomic charges:    0.0000000

LOEWDIN ATOMIC CHARGES
----------------------
   0 H :    0.017854
   1 Si:   -0.112406
   2 H :   -0.019546
   3 Al:    0.455132
   4 H :    0.288603
   5 H :    0.144242
   6 Si:   -0.040332
   7 H :    0.291666
   8 N :   -0.348916
   9 H :    0.033952
  10 C :   -0.163975
  11 S :    0.083136
  12 F :   -0.253162
  13 N :   -0.075400
  14 B :   -0.196171
  15 P :   -0.104676

  Mayer bond orders larger than 0.100000
B(  0-H , 15-P ) :   0.9226 B(  1-Si,  6-Si) :   1.2893 B(  1-Si, 10-C ) :   0.1086
B(  1-Si, 15-P ) :   1.0244 B(  2-H ,  6-Si) :   0.9472 B(  3-Al, 11-S ) :   0.8442
B(  3-Al, 12-F ) :   0.9071 B(  3-Al, 14-B ) :   0.8800 B(  4-H ,  8-N ) :   0.7811
B(  5-H , 10-C ) :   0.8621 B(  6-Si, 10-C ) :   1.2579 B(  7-H ,  8-N ) :   0.7780
B(  8-N , 11-S ) :   0.8770 B(  8-N , 14-B ) :   0.5219 B(  9-H , 15-P ) :   0.9301
B( 10-C , 13-N ) :   1.3513 B( 13-N , 14-B ) :   1.9157

Dispersion correction           -0.010095857
FINAL SINGLE POINT ENERGY     -1834.431929957807

DIPOLE MOMENT
-------------
                                X             Y             Z
Electronic contribution:     -7.66350      -9.76690      -9.72633
Nuclear contribution   :      4.25571       9.85911       8.58994
                        -----------------------------------------
Total Dipole Moment    :     -3.40779       0.09221      -1.13639
                        -----------------------------------------
Magnitude (a.u.)       :      3.59345
Magnitude (Debye)      :      9.13383

Rotational constants in cm-1:     0.050560     0.005864     0.005634
Rotational constants in MHz :  1515.753816   175.802437   168.894083

                             ****ORCA TERMINATED NORMALLY****
TOTAL RUN TIME: 0 days 0 hours 3 minutes 31 seconds 844 msec
