                         Program Version 5.0.3 -  RELEASE  -
|  1> ! PBEh-3c def2/J TightSCF DefGrid3
|  2>
|  3> %maxcore 60000
|  4>
|  5> %pal
|  6> nprocs 4
|  7> end
|  8>
|  9> *xyzfile 0 1 B9.xyz
| 10>
| 11>                          ****END OF INPUT****

CARTESIAN COORDINATES (ANGSTROEM)
---------------------------------
  C     -0.189664    1.832638    0.638601
  H      0.196678    2.328188    1.534168
  O      0.148233    2.576351   -0.531934
  C      0.295140    0.390403    0.585502
  H      1.388409    0.381532    0.515051
  H      0.041886   -0.105891    1.524318
  C     -0.295140   -0.390403   -0.585502
  H     -0.041886    0.105891   -1.524318
  H     -1.388409   -0.381532   -0.515051
  H      1.106938    2.638025   -0.562948
  H     -1.278214    1.859587    0.690590
  C      0.189664   -1.832638   -0.638601
  H     -0.196678   -2.328188   -1.534168
  H      1.278214   -1.859587   -0.690590
  O     -0.148233   -2.576351    0.531934
  H     -1.106938   -2.638025    0.562948

 Total Charge           Charge          ....    0
 Multiplicity           Mult            ....    1
 Number of Electrons    NEL             ....   50
 Basis Dimension        Dim             ....  110

ORBITAL ENERGIES
----------------

  NO   OCC          E(Eh)            E(eV)
   0   2.0000     -19.484493      -530.2000
   1   2.0000     -19.484485      -530.1998
   2   2.0000     -10.479690      -285.1669
   3   2.0000     -10.479654      -285.1659
   4   2.0000     -10.432526      -283.8835
   5   2.0000     -10.432302      -283.8774
   6   2.0000      -1.120880       -30.5007
   7   2.0000      -1.119872       -30.4733
   8   2.0000      -0.880379       -23.9563
   9   2.0000      -0.797288       -21.6953
  10   2.0000      -0.709445       -19.3050
  11   2.0000      -0.663433       -18.0529
  12   2.0000      -0.569303       -15.4915
  13   2.0000      -0.546311       -14.8659
  14   2.0000      -0.530746       -14.4423
  15   2.0000      -0.518012       -14.0958
  16   2.0000      -0.495551       -13.4846
  17   2.0000      -0.454664       -12.3720
  18   2.0000      -0.440939       -11.9986
  19   2.0000      -0.419697       -11.4205
  20   2.0000      -0.387201       -10.5363
  21   2.0000      -0.384609       -10.4657
  22   2.0000      -0.365128        -9.9356
  23   2.0000      -0.329006        -8.9527
  24   2.0000      -0.319824        -8.7029
  25   0.0000       0.124053         3.3757
  26   0.0000       0.131390         3.5753
  27   0.0000       0.172185         4.6854
  28   0.0000       0.172886         4.7045
  29   0.0000       0.189447         5.1551

MULLIKEN ATOMIC CHARGES
-----------------------
   0 C :   -0.161078
   1 H :    0.193362
   2 O :   -0.623835
   3 C :   -0.447376
   4 H :    0.197187
   5 H :    0.227925
   6 C :   -0.447376
   7 H :    0.227925
   8 H :    0.197187
   9 H :    0.408414
  10 H :    0.205401
  11 C :   -0.161078
  12 H :    0.193362
  13 H :    0.205401
  14 O :   -0.623835
  15 H :    0.408414
Sum of atomic charges:   -0.0000000

LOEWDIN ATOMIC CHARGES
----------------------
   0 C :   -0.095272
   1 H :    0.101188
   2 O :   -0.414743
   3 C :   -0.266165
   4 H :    0.117408
   5 H :    0.134816
   6 C :   -0.266165
   7 H :    0.134816
   8 H :    0.117408
   9 H :    0.305084
  10 H :    0.117685
  11 C :   -0.095272
  12 H :    0.101188
  13 H :    0.117685
  14 O :   -0.414743
  15 H :    0.305084

  Mayer bond orders larger than 0.100000
B(  0-C ,  1-H ) :   0.9161 B(  0-C ,  2-O ) :   1.0111 B(  0-C ,  3-C ) :   0.9703
B(  0-C , 10-H ) :   0.9167 B(  2-O ,  9-H ) :   0.7963 B(  3-C ,  4-H ) :   0.9221
B(  3-C ,  5-H ) :   0.9020 B(  3-C ,  6-C ) :   0.9688 B(  6-C ,  7-H ) :   0.9020
B(  6-C ,  8-H ) :   0.9221 B(  6-C , 11-C ) :   0.9703 B( 11-C , 12-H ) :   0.9161
B( 11-C , 13-H ) :   0.9167 B( 11-C , 14-O ) :   1.0111 B( 14-O , 15-H ) :   0.7963

Dispersion correction           -0.006552237
FINAL SINGLE POINT ENERGY      -308.208368763957

DIPOLE MOMENT
-------------
                                X             Y             Z
Electronic contribution:      0.00000       0.00000       0.00000
Nuclear contribution   :     -0.00000      -0.00000      -0.00000
                        -----------------------------------------
Total Dipole Moment    :      0.00000       0.00000       0.00000
                        -----------------------------------------
Magnitude (a.u.)       :      0.00000
Magnitude (Debye)      :      0.00000

Rotational constants in cm-1:     0.326056     0.049256     0.045798
Rotational constants in MHz :  9774.909892  1476.654661  1372.997794

                             ****ORCA TERMINATED NORMALLY****
TOTAL RUN TIME: 0 days 0 hours 1 minutes 46 seconds 693 msec
