                         Program Version 5.0.3 -  RELEASE  -
|  1> ! PBEh-3c def2/J TightSCF DefGrid3
|  2>
|  3> %maxcore 60000
|  4>
|  5> %pal
|  6> nprocs 4
|  7> end
|  8>
|  9> *xyzfile 1 1 229A.xyz
| 10>
| 11>                          ****END OF INPUT****

CARTESIAN COORDINATES (ANGSTROEM)
---------------------------------
  C      1.077760    1.086900    1.963490
  C      0.138390   -0.027100    1.509130
  N      0.056070   -0.035750   -0.006170
  H      1.014480   -0.036190   -0.386150
  H     -0.426920   -0.872770   -0.365200
  H     -0.423570    0.794100   -0.386620
  H     -0.875270    0.090690    1.911010
  H      0.529290   -1.011240    1.782170
  H      1.134860    1.082040    3.058840
  H      2.085320    0.934930    1.556820
  H      0.716620    2.078530    1.652560

 Total Charge           Charge          ....    1
 Multiplicity           Mult            ....    1
 Number of Electrons    NEL             ....   26
 Basis Dimension        Dim             ....   61

ORBITAL ENERGIES
----------------

  NO   OCC          E(Eh)            E(eV)
   0   2.0000     -14.972827      -407.4313
   1   2.0000     -10.700671      -291.1801
   2   2.0000     -10.620408      -288.9960
   3   2.0000      -1.311465       -35.6868
   4   2.0000      -1.051432       -28.6109
   5   2.0000      -0.916812       -24.9477
   6   2.0000      -0.861977       -23.4556
   7   2.0000      -0.851235       -23.1633
   8   2.0000      -0.754484       -20.5306
   9   2.0000      -0.701315       -19.0838
  10   2.0000      -0.635798       -17.3009
  11   2.0000      -0.622254       -16.9324
  12   2.0000      -0.603111       -16.4115
  13   0.0000      -0.126178        -3.4335
  14   0.0000      -0.063322        -1.7231
  15   0.0000      -0.061824        -1.6823
  16   0.0000      -0.038182        -1.0390
  17   0.0000      -0.002259        -0.0615

MULLIKEN ATOMIC CHARGES
-----------------------
   0 C :   -0.663487
   1 C :   -0.353574
   2 N :   -0.785623
   3 H :    0.453613
   4 H :    0.462018
   5 H :    0.456575
   6 H :    0.312295
   7 H :    0.306545
   8 H :    0.305772
   9 H :    0.249332
  10 H :    0.256535
Sum of atomic charges:    1.0000000

LOEWDIN ATOMIC CHARGES
----------------------
   0 C :   -0.370775
   1 C :   -0.148147
   2 N :   -0.219132
   3 H :    0.309325
   4 H :    0.311727
   5 H :    0.310270
   6 H :    0.166619
   7 H :    0.163336
   8 H :    0.178971
   9 H :    0.147292
  10 H :    0.150513

  Mayer bond orders larger than 0.100000
B(  0-C ,  1-C ) :   0.9764 B(  0-C ,  8-H ) :   0.8909 B(  0-C ,  9-H ) :   0.9061
B(  0-C , 10-H ) :   0.9051 B(  1-C ,  2-N ) :   0.8100 B(  1-C ,  6-H ) :   0.8780
B(  1-C ,  7-H ) :   0.8798 B(  2-N ,  3-H ) :   0.7722 B(  2-N ,  4-H ) :   0.7701
B(  2-N ,  5-H ) :   0.7707

Dispersion correction           -0.003522579
FINAL SINGLE POINT ENERGY      -135.238509614963

DIPOLE MOMENT
-------------
                                X             Y             Z
Electronic contribution:     -0.87104      -0.88434      -1.43565
Nuclear contribution   :      0.39800       0.37542       0.04605
                        -----------------------------------------
Total Dipole Moment    :     -0.47304      -0.50892      -1.38961
                        -----------------------------------------
Magnitude (a.u.)       :      1.55363
Magnitude (Debye)      :      3.94902

Rotational constants in cm-1:     0.965232     0.279678     0.246015
Rotational constants in MHz : 28936.923318  8384.522148  7375.341096

                             ****ORCA TERMINATED NORMALLY****
TOTAL RUN TIME: 0 days 0 hours 0 minutes 54 seconds 873 msec
