                         Program Version 5.0.3 -  RELEASE  -
|  1> ! PBEh-3c def2/J TightSCF DefGrid3
|  2>
|  3> %maxcore 60000
|  4>
|  5> %pal
|  6> nprocs 4
|  7> end
|  8>
|  9> *xyzfile 0 1 ch3oh.xyz
| 10>
| 11>                          ****END OF INPUT****

CARTESIAN COORDINATES (ANGSTROEM)
---------------------------------
  C     -0.139269    0.334720    0.000000
  O     -0.139269   -1.083411    0.000000
  H     -1.179803    0.647591    0.000000
  H      0.767744   -1.385391    0.000000
  H      0.345299    0.743245    0.889542
  H      0.345299    0.743245   -0.889542

 Total Charge           Charge          ....    0
 Multiplicity           Mult            ....    1
 Number of Electrons    NEL             ....   18
 Basis Dimension        Dim             ....   38

ORBITAL ENERGIES
----------------

  NO   OCC          E(Eh)            E(eV)
   0   2.0000     -19.481175      -530.1097
   1   2.0000     -10.473181      -284.9897
   2   2.0000      -1.118528       -30.4367
   3   2.0000      -0.761029       -20.7086
   4   2.0000      -0.567342       -15.4382
   5   2.0000      -0.497992       -13.5511
   6   2.0000      -0.480327       -13.0704
   7   2.0000      -0.387206       -10.5364
   8   2.0000      -0.325093        -8.8462
   9   0.0000       0.131645         3.5822
  10   0.0000       0.194672         5.2973
  11   0.0000       0.219593         5.9754
  12   0.0000       0.233307         6.3486
  13   0.0000       0.239596         6.5197

MULLIKEN ATOMIC CHARGES
-----------------------
   0 C :   -0.368931
   1 O :   -0.629072
   2 H :    0.218025
   3 H :    0.413146
   4 H :    0.183416
   5 H :    0.183416
Sum of atomic charges:    0.0000000

LOEWDIN ATOMIC CHARGES
----------------------
   0 C :   -0.197174
   1 O :   -0.424587
   2 H :    0.122362
   3 H :    0.304922
   4 H :    0.097239
   5 H :    0.097239

  Mayer bond orders larger than 0.100000
B(  0-C ,  1-O ) :   1.0152 B(  0-C ,  2-H ) :   0.9248 B(  0-C ,  4-H ) :   0.9185
B(  0-C ,  5-H ) :   0.9185 B(  1-O ,  3-H ) :   0.7966

Dispersion correction           -0.001080967
FINAL SINGLE POINT ENERGY      -115.467026443635

DIPOLE MOMENT
-------------
                                X             Y             Z
Electronic contribution:     -0.10141      -1.78593      -0.00000
Nuclear contribution   :      0.68492       2.16301       0.00000
                        -----------------------------------------
Total Dipole Moment    :      0.58351       0.37708      -0.00000
                        -----------------------------------------
Magnitude (a.u.)       :      0.69474
Magnitude (Debye)      :      1.76590

Rotational constants in cm-1:     4.301874     0.829709     0.801000
Rotational constants in MHz : 128966.934189 24874.064008 24013.381259

                             ****ORCA TERMINATED NORMALLY****
TOTAL RUN TIME: 0 days 0 hours 1 minutes 17 seconds 457 msec
