                         Program Version 5.0.3 -  RELEASE  -
|  1> ! PBEh-3c def2/J TightSCF DefGrid3
|  2>
|  3> %maxcore 60000
|  4>
|  5> %pal
|  6> nprocs 4
|  7> end
|  8>
|  9> *xyzfile 0 1 Dibenzocarbazole.xyz
| 10>
| 11>                          ****END OF INPUT****

CARTESIAN COORDINATES (ANGSTROEM)
---------------------------------
  C     -3.839341   -0.332344   -1.714879
  C     -2.435834   -0.290775   -1.868684
  C     -1.634693   -0.424368   -0.688263
  C     -2.266817   -0.441069    0.575123
  C     -3.634232   -0.406003    0.689676
  C     -4.424275   -0.386274   -0.472708
  C     -1.763657   -0.233903   -3.131970
  C     -0.391403   -0.551708   -3.159698
  C      0.389764   -0.725493   -2.004094
  C     -0.227443   -0.614612   -0.790415
  C     -2.162253   -0.026436   -4.511774
  C     -1.043262   -0.358455   -5.300413
  N      0.017470   -0.637278   -4.470192
  C     -3.311648    0.512044   -5.178289
  C     -3.349039    0.443362   -6.609147
  C     -2.228809   -0.049412   -7.336449
  C     -1.068271   -0.397779   -6.706018
  C     -4.356606    1.208219   -4.531136
  C     -5.421087    1.723429   -5.232795
  C     -5.500171    1.570402   -6.627327
  C     -4.475606    0.948474   -7.296028
  H     -4.463876   -0.370464   -2.591752
  H      0.932056   -0.917864   -4.773427
  H      0.344520   -0.727016    0.121613
  H      1.448077   -0.939124   -2.079268
  H     -5.502398   -0.428083   -0.391224
  H     -1.646075   -0.512426    1.459564
  H     -4.103265   -0.428417    1.664080
  H     -2.296036   -0.093265   -8.415688
  H     -0.196407   -0.709707   -7.266137
  H     -4.294660    1.384539   -3.470169
  H     -6.193520    2.266723   -4.705263
  H     -6.345911    1.969623   -7.170504
  H     -4.501842    0.861047   -8.375248

 Total Charge           Charge          ....    0
 Multiplicity           Mult            ....    1
 Number of Electrons    NEL             ....  140
 Basis Dimension        Dim             ....  341

ORBITAL ENERGIES
----------------

  NO   OCC          E(Eh)            E(eV)
   0   2.0000     -14.691052      -399.7639
   1   2.0000     -10.491407      -285.4857
   2   2.0000     -10.491263      -285.4818
   3   2.0000     -10.463403      -284.7237
   4   2.0000     -10.463163      -284.7171
   5   2.0000     -10.456623      -284.5392
   6   2.0000     -10.456533      -284.5367
   7   2.0000     -10.456006      -284.5224
   8   2.0000     -10.455973      -284.5215
   9   2.0000     -10.455452      -284.5073
  10   2.0000     -10.455039      -284.4961
  11   2.0000     -10.453547      -284.4555
  12   2.0000     -10.453504      -284.4543
  13   2.0000     -10.447357      -284.2870
  14   2.0000     -10.447351      -284.2869
  15   2.0000     -10.445458      -284.2354
  16   2.0000     -10.445423      -284.2344
  17   2.0000     -10.443030      -284.1693
  18   2.0000     -10.442953      -284.1672
  19   2.0000     -10.442223      -284.1473
  20   2.0000     -10.442171      -284.1459
  21   2.0000      -1.098792       -29.8996
  22   2.0000      -0.972216       -26.4553
  23   2.0000      -0.971979       -26.4489
  24   2.0000      -0.920613       -25.0511
  25   2.0000      -0.910155       -24.7666
  26   2.0000      -0.889582       -24.2068
  27   2.0000      -0.852288       -23.1919
  28   2.0000      -0.837581       -22.7917
  29   2.0000      -0.829859       -22.5816
  30   2.0000      -0.819030       -22.2869
  31   2.0000      -0.792840       -21.5743
  32   2.0000      -0.725870       -19.7519
  33   2.0000      -0.710167       -19.3246
  34   2.0000      -0.693860       -18.8809
  35   2.0000      -0.685686       -18.6585
  36   2.0000      -0.684836       -18.6353
  37   2.0000      -0.643239       -17.5034
  38   2.0000      -0.628175       -17.0935
  39   2.0000      -0.600272       -16.3342
  40   2.0000      -0.598269       -16.2797
  41   2.0000      -0.562110       -15.2958
  42   2.0000      -0.560318       -15.2470
  43   2.0000      -0.557162       -15.1611
  44   2.0000      -0.532222       -14.4825
  45   2.0000      -0.517786       -14.0897
  46   2.0000      -0.507513       -13.8101
  47   2.0000      -0.502698       -13.6791
  48   2.0000      -0.489090       -13.3088
  49   2.0000      -0.485938       -13.2230
  50   2.0000      -0.481654       -13.1065
  51   2.0000      -0.475311       -12.9339
  52   2.0000      -0.471776       -12.8377
  53   2.0000      -0.464926       -12.6513
  54   2.0000      -0.444036       -12.0828
  55   2.0000      -0.439449       -11.9580
  56   2.0000      -0.436810       -11.8862
  57   2.0000      -0.429919       -11.6987
  58   2.0000      -0.405774       -11.0417
  59   2.0000      -0.391494       -10.6531
  60   2.0000      -0.390226       -10.6186
  61   2.0000      -0.381464       -10.3802
  62   2.0000      -0.378102       -10.2887
  63   2.0000      -0.350904        -9.5486
  64   2.0000      -0.345471        -9.4007
  65   2.0000      -0.313761        -8.5379
  66   2.0000      -0.285557        -7.7704
  67   2.0000      -0.271605        -7.3908
  68   2.0000      -0.244670        -6.6578
  69   2.0000      -0.226988        -6.1767
  70   0.0000      -0.032497        -0.8843
  71   0.0000      -0.008742        -0.2379
  72   0.0000       0.012079         0.3287
  73   0.0000       0.025840         0.7031
  74   0.0000       0.045558         1.2397

MULLIKEN ATOMIC CHARGES
-----------------------
   0 C :   -0.375938
   1 C :    0.045624
   2 C :    0.114549
   3 C :   -0.276376
   4 C :   -0.231318
   5 C :   -0.219680
   6 C :    0.069706
   7 C :    0.330190
   8 C :   -0.272676
   9 C :   -0.309166
  10 C :    0.069673
  11 C :    0.328679
  12 N :   -0.784366
  13 C :    0.046215
  14 C :    0.113671
  15 C :   -0.308267
  16 C :   -0.272897
  17 C :   -0.376142
  18 C :   -0.218812
  19 C :   -0.231628
  20 C :   -0.275716
  21 H :    0.260052
  22 H :    0.359297
  23 H :    0.215166
  24 H :    0.214847
  25 H :    0.219523
  26 H :    0.211319
  27 H :    0.216980
  28 H :    0.215269
  29 H :    0.214824
  30 H :    0.259590
  31 H :    0.219527
  32 H :    0.217004
  33 H :    0.211277
Sum of atomic charges:    0.0000000

LOEWDIN ATOMIC CHARGES
----------------------
   0 C :   -0.137801
   1 C :   -0.018351
   2 C :   -0.043072
   3 C :   -0.118547
   4 C :   -0.146252
   5 C :   -0.131826
   6 C :   -0.052372
   7 C :    0.031915
   8 C :   -0.156940
   9 C :   -0.116853
  10 C :   -0.052603
  11 C :    0.032252
  12 N :   -0.151226
  13 C :   -0.018530
  14 C :   -0.043004
  15 C :   -0.116686
  16 C :   -0.156996
  17 C :   -0.137769
  18 C :   -0.131769
  19 C :   -0.146312
  20 C :   -0.118483
  21 H :    0.147421
  22 H :    0.264303
  23 H :    0.138648
  24 H :    0.138870
  25 H :    0.136766
  26 H :    0.135793
  27 H :    0.136034
  28 H :    0.138624
  29 H :    0.138888
  30 H :    0.147314
  31 H :    0.136761
  32 H :    0.136056
  33 H :    0.135744

  Mayer bond orders larger than 0.100000
B(  0-C ,  1-C ) :   1.2829 B(  0-C ,  5-C ) :   1.5287 B(  0-C , 21-H ) :   0.9034
B(  1-C ,  2-C ) :   1.2697 B(  1-C ,  6-C ) :   1.0958 B(  1-C , 10-C ) :  -0.1135
B(  2-C ,  3-C ) :   1.2511 B(  2-C ,  9-C ) :   1.2048 B(  3-C ,  4-C ) :   1.5216
B(  3-C , 26-H ) :   0.9266 B(  4-C ,  5-C ) :   1.3206 B(  4-C , 27-H ) :   0.9196
B(  5-C , 25-H ) :   0.9195 B(  6-C ,  7-C ) :   1.3006 B(  6-C , 10-C ) :   1.1465
B(  6-C , 13-C ) :  -0.1127 B(  7-C ,  8-C ) :   1.2113 B(  7-C , 12-N ) :   1.0417
B(  8-C ,  9-C ) :   1.5815 B(  8-C , 24-H ) :   0.9192 B(  9-C , 23-H ) :   0.9235
B( 10-C , 11-C ) :   1.3014 B( 10-C , 13-C ) :   1.0952 B( 11-C , 12-N ) :   1.0441
B( 11-C , 16-C ) :   1.2101 B( 12-N , 22-H ) :   0.8339 B( 13-C , 14-C ) :   1.2697
B( 13-C , 17-C ) :   1.2840 B( 14-C , 15-C ) :   1.2042 B( 14-C , 20-C ) :   1.2519
B( 15-C , 16-C ) :   1.5829 B( 15-C , 28-H ) :   0.9233 B( 16-C , 29-H ) :   0.9193
B( 17-C , 18-C ) :   1.5281 B( 17-C , 30-H ) :   0.9034 B( 18-C , 19-C ) :   1.3213
B( 18-C , 31-H ) :   0.9194 B( 19-C , 20-C ) :   1.5209 B( 19-C , 32-H ) :   0.9196
B( 20-C , 33-H ) :   0.9265

Dispersion correction           -0.027914592
FINAL SINGLE POINT ENERGY      -822.933875440080

DIPOLE MOMENT
-------------
                                X             Y             Z
Electronic contribution:      4.57331      -1.22272      -1.49480
Nuclear contribution   :     -3.72521       0.97337       1.21374
                        -----------------------------------------
Total Dipole Moment    :      0.84810      -0.24934      -0.28106
                        -----------------------------------------
Magnitude (a.u.)       :      0.92760
Magnitude (Debye)      :      2.35778

Rotational constants in cm-1:     0.018940     0.008602     0.006034
Rotational constants in MHz :   567.812395   257.878635   180.892291

                             ****ORCA TERMINATED NORMALLY****
TOTAL RUN TIME: 0 days 0 hours 5 minutes 32 seconds 758 msec
