                         Program Version 5.0.3 -  RELEASE  -
|  1> ! PBEh-3c def2/J TightSCF DefGrid3
|  2>
|  3> %maxcore 60000
|  4>
|  5> %pal
|  6> nprocs 4
|  7> end
|  8>
|  9> *xyzfile 0 2 P5.xyz
| 10>
| 11>                          ****END OF INPUT****

CARTESIAN COORDINATES (ANGSTROEM)
---------------------------------
  C      0.053534   -0.501035    0.000000
  C      0.028986    0.955979    0.000000
  Cl    -1.686858   -1.139469    0.000000
  Cl     0.877330   -1.136480   -1.478200
  Cl     0.877330   -1.136480    1.478200
  H     -0.075161    1.478742   -0.939036
  H     -0.075161    1.478742    0.939036

 Total Charge           Charge          ....    0
 Multiplicity           Mult            ....    2
 Number of Electrons    NEL             ....   65
 Basis Dimension        Dim             ....   88

ORBITAL ENERGIES
----------------
                 SPIN UP ORBITALS
  NO   OCC          E(Eh)            E(eV)
   0   1.0000    -102.324022     -2784.3782
   1   1.0000    -102.323971     -2784.3768
   2   1.0000    -102.316854     -2784.1831
   3   1.0000     -10.645303      -289.6734
   4   1.0000     -10.501276      -285.7542
   5   1.0000      -9.791328      -266.4356
   6   1.0000      -9.791299      -266.4348
   7   1.0000      -9.783783      -266.2303
   8   1.0000      -7.479579      -203.5297
   9   1.0000      -7.479558      -203.5291
  10   1.0000      -7.472804      -203.3453
  11   1.0000      -7.470280      -203.2767
  12   1.0000      -7.470274      -203.2765
  13   1.0000      -7.470164      -203.2735
  14   1.0000      -7.470152      -203.2732
  15   1.0000      -7.462897      -203.0757
  16   1.0000      -7.462439      -203.0633
  17   1.0000      -1.041192       -28.3323
  18   1.0000      -0.926833       -25.2204
  19   1.0000      -0.919519       -25.0214
  20   1.0000      -0.852300       -23.1923
  21   1.0000      -0.672357       -18.2958
  22   1.0000      -0.570810       -15.5325
  23   1.0000      -0.544438       -14.8149
  24   1.0000      -0.537868       -14.6361
  25   1.0000      -0.485534       -13.2120
  26   1.0000      -0.410944       -11.1824
  27   1.0000      -0.403659       -10.9841
  28   1.0000      -0.388667       -10.5762
  29   1.0000      -0.373109       -10.1528
  30   1.0000      -0.371503       -10.1091
  31   1.0000      -0.357443        -9.7265
  32   1.0000      -0.310411        -8.4467
  33   0.0000      -0.009061        -0.2466
  34   0.0000       0.036609         0.9962
  35   0.0000       0.049404         1.3443
  36   0.0000       0.153023         4.1640
  37   0.0000       0.201697         5.4884

                 SPIN DOWN ORBITALS
  NO   OCC          E(Eh)            E(eV)
   0   1.0000    -102.323797     -2784.3721
   1   1.0000    -102.323746     -2784.3707
   2   1.0000    -102.315695     -2784.1516
   3   1.0000     -10.647046      -289.7208
   4   1.0000     -10.485472      -285.3242
   5   1.0000      -9.791102      -266.4294
   6   1.0000      -9.791074      -266.4287
   7   1.0000      -9.782616      -266.1985
   8   1.0000      -7.479047      -203.5152
   9   1.0000      -7.479026      -203.5146
  10   1.0000      -7.470087      -203.2714
  11   1.0000      -7.470073      -203.2710
  12   1.0000      -7.469862      -203.2653
  13   1.0000      -7.469858      -203.2652
  14   1.0000      -7.469736      -203.2619
  15   1.0000      -7.461729      -203.0440
  16   1.0000      -7.461378      -203.0344
  17   1.0000      -1.035948       -28.1896
  18   1.0000      -0.925378       -25.1808
  19   1.0000      -0.913323       -24.8528
  20   1.0000      -0.817584       -22.2476
  21   1.0000      -0.660266       -17.9667
  22   1.0000      -0.563871       -15.3437
  23   1.0000      -0.537789       -14.6340
  24   1.0000      -0.523646       -14.2491
  25   1.0000      -0.480593       -13.0776
  26   1.0000      -0.404280       -11.0010
  27   1.0000      -0.400786       -10.9059
  28   1.0000      -0.380382       -10.3507
  29   1.0000      -0.370895       -10.0926
  30   1.0000      -0.369192       -10.0462
  31   1.0000      -0.355882        -9.6840
  32   0.0000      -0.080255        -2.1838
  33   0.0000      -0.006590        -0.1793
  34   0.0000       0.036267         0.9869
  35   0.0000       0.068805         1.8723
  36   0.0000       0.171226         4.6593

MULLIKEN ATOMIC CHARGES AND SPIN POPULATIONS
--------------------------------------------
   0 C :   -0.172849   -0.074234
   1 C :   -0.325280    1.043238
   2 Cl:   -0.028549    0.105234
   3 Cl:   -0.005926    0.018981
   4 Cl:   -0.005926    0.018981
   5 H :    0.269265   -0.056100
   6 H :    0.269265   -0.056100
Sum of atomic charges         :    0.0000000

LOEWDIN ATOMIC CHARGES AND SPIN POPULATIONS
-------------------------------------------
   0 C :   -0.220865   -0.026490
   1 C :   -0.244003    0.930641
   2 Cl:    0.026937    0.109050
   3 Cl:    0.062754    0.021003
   4 Cl:    0.062754    0.021003
   5 H :    0.156211   -0.027603
   6 H :    0.156211   -0.027603

  Mayer bond orders larger than 0.100000
B(  0-C ,  1-C ) :   0.9588 B(  0-C ,  2-Cl) :   0.9696 B(  0-C ,  3-Cl) :   1.0192
B(  0-C ,  4-Cl) :   1.0192 B(  1-C ,  5-H ) :   0.8987 B(  1-C ,  6-H ) :   0.8987

Dispersion correction           -0.003979140
FINAL SINGLE POINT ENERGY     -1456.272716591796

DIPOLE MOMENT
-------------
                                X             Y             Z
Electronic contribution:      0.18814      -4.76575      -0.00000
Nuclear contribution   :     -0.17936       5.52713       0.00000
                        -----------------------------------------
Total Dipole Moment    :      0.00879       0.76138      -0.00000
                        -----------------------------------------
Magnitude (a.u.)       :      0.76143
Magnitude (Debye)      :      1.93541

Rotational constants in cm-1:     0.078119     0.077659     0.054005
Rotational constants in MHz :  2341.946152  2328.158049  1619.042551

                             ****ORCA TERMINATED NORMALLY****
TOTAL RUN TIME: 0 days 0 hours 2 minutes 25 seconds 570 msec
