                         Program Version 5.0.3 -  RELEASE  -
|  1> ! PBEh-3c def2/J TightSCF DefGrid3
|  2>
|  3> %maxcore 60000
|  4>
|  5> %pal
|  6> nprocs 4
|  7> end
|  8>
|  9> *xyzfile 0 1 hi.xyz
| 10>
| 11>                          ****END OF INPUT****

CARTESIAN COORDINATES (ANGSTROEM)
---------------------------------
  I      0.000000    0.000000    0.794928
  H      0.000000    0.000000   -0.794928

 Total Charge           Charge          ....    0
 Multiplicity           Mult            ....    1
 Number of Electrons    NEL             ....   26
 Basis Dimension        Dim             ....   28

ORBITAL ENERGIES
----------------

  NO   OCC          E(Eh)            E(eV)
   0   2.0000      -7.105748      -193.3572
   1   2.0000      -5.089459      -138.4912
   2   2.0000      -5.072616      -138.0329
   3   2.0000      -5.072616      -138.0329
   4   2.0000      -2.044539       -55.6347
   5   2.0000      -2.037933       -55.4550
   6   2.0000      -2.037933       -55.4550
   7   2.0000      -2.023393       -55.0593
   8   2.0000      -2.023392       -55.0593
   9   2.0000      -0.791741       -21.5444
  10   2.0000      -0.464267       -12.6333
  11   2.0000      -0.322135        -8.7657
  12   2.0000      -0.322135        -8.7657
  13   0.0000       0.006739         0.1834
  14   0.0000       0.283903         7.7254
  15   0.0000       0.386196        10.5089
  16   0.0000       0.428866        11.6700
  17   0.0000       0.428866        11.6700

MULLIKEN ATOMIC CHARGES
-----------------------
   0 I :   -0.148368
   1 H :    0.148368
Sum of atomic charges:    0.0000000

LOEWDIN ATOMIC CHARGES
----------------------
   0 I :   -0.099383
   1 H :    0.099383

  Mayer bond orders larger than 0.100000
B(  0-I ,  1-H ) :   0.9579

Dispersion correction           -0.000217165
FINAL SINGLE POINT ENERGY      -298.332481088463

DIPOLE MOMENT
-------------
                                X             Y             Z
Electronic contribution:     -0.00000       0.00000       2.12107
Nuclear contribution   :      0.00000       0.00000      -2.38880
                        -----------------------------------------
Total Dipole Moment    :     -0.00000       0.00000      -0.26773
                        -----------------------------------------
Magnitude (a.u.)       :      0.26773
Magnitude (Debye)      :      0.68053

Rotational constants in cm-1:     0.000000     6.668943     6.668943
Rotational constants in MHz :     0.000000 199929.871497 199929.871497

                             ****ORCA TERMINATED NORMALLY****
TOTAL RUN TIME: 0 days 0 hours 0 minutes 47 seconds 651 msec
