                         Program Version 5.0.3 -  RELEASE  -
|  1> ! PBEh-3c def2/J TightSCF DefGrid3
|  2>
|  3> %maxcore 60000
|  4>
|  5> %pal
|  6> nprocs 4
|  7> end
|  8>
|  9> *xyzfile 0 1 nme3.xyz
| 10>
| 11>                          ****END OF INPUT****

CARTESIAN COORDINATES (ANGSTROEM)
---------------------------------
  N      0.000000    0.000000    0.406811
  C      0.000000    1.373111   -0.065540
  H      0.000000    1.431564   -1.167025
  H     -0.884521    1.889773    0.305518
  H      0.884521    1.889773    0.305518
  C     -1.189149   -0.686555   -0.065540
  H     -1.239771   -0.715782   -1.167025
  H     -1.194331   -1.710904    0.305518
  H     -2.078851   -0.178869    0.305518
  C      1.189149   -0.686555   -0.065540
  H      1.239771   -0.715782   -1.167025
  H      2.078851   -0.178869    0.305518
  H      1.194331   -1.710904    0.305518

 Total Charge           Charge          ....    0
 Multiplicity           Mult            ....    1
 Number of Electrons    NEL             ....   34
 Basis Dimension        Dim             ....   78

ORBITAL ENERGIES
----------------

  NO   OCC          E(Eh)            E(eV)
   0   2.0000     -14.623582      -397.9279
   1   2.0000     -10.446905      -284.2747
   2   2.0000     -10.446904      -284.2747
   3   2.0000     -10.446833      -284.2728
   4   2.0000      -1.018618       -27.7180
   5   2.0000      -0.782653       -21.2971
   6   2.0000      -0.782653       -21.2971
   7   2.0000      -0.660200       -17.9650
   8   2.0000      -0.527276       -14.3479
   9   2.0000      -0.522337       -14.2135
  10   2.0000      -0.522337       -14.2135
  11   2.0000      -0.443845       -12.0776
  12   2.0000      -0.443844       -12.0776
  13   2.0000      -0.418299       -11.3825
  14   2.0000      -0.406325       -11.0567
  15   2.0000      -0.406325       -11.0567
  16   2.0000      -0.261560        -7.1174
  17   0.0000       0.125271         3.4088
  18   0.0000       0.197087         5.3630
  19   0.0000       0.197088         5.3630
  20   0.0000       0.205338         5.5875
  21   0.0000       0.212777         5.7900

MULLIKEN ATOMIC CHARGES
-----------------------
   0 N :   -0.368263
   1 C :   -0.491127
   2 H :    0.175573
   3 H :    0.219156
   4 H :    0.219156
   5 C :   -0.491147
   6 H :    0.175558
   7 H :    0.219175
   8 H :    0.219168
   9 C :   -0.491147
  10 H :    0.175558
  11 H :    0.219168
  12 H :    0.219175
Sum of atomic charges:   -0.0000000

LOEWDIN ATOMIC CHARGES
----------------------
   0 N :   -0.233836
   1 C :   -0.259139
   2 H :    0.093444
   3 H :    0.121821
   4 H :    0.121821
   5 C :   -0.259144
   6 H :    0.093439
   7 H :    0.121826
   8 H :    0.121824
   9 C :   -0.259144
  10 H :    0.093439
  11 H :    0.121824
  12 H :    0.121826

  Mayer bond orders larger than 0.100000
B(  0-N ,  1-C ) :   0.9977 B(  0-N ,  5-C ) :   0.9977 B(  0-N ,  9-C ) :   0.9977
B(  1-C ,  2-H ) :   0.9058 B(  1-C ,  3-H ) :   0.9283 B(  1-C ,  4-H ) :   0.9283
B(  5-C ,  6-H ) :   0.9058 B(  5-C ,  7-H ) :   0.9283 B(  5-C ,  8-H ) :   0.9283
B(  9-C , 10-H ) :   0.9058 B(  9-C , 11-H ) :   0.9283 B(  9-C , 12-H ) :   0.9283

Dispersion correction           -0.004891466
FINAL SINGLE POINT ENERGY      -174.086864066224

DIPOLE MOMENT
-------------
                                X             Y             Z
Electronic contribution:     -0.00000      -0.00000       1.50264
Nuclear contribution   :      0.00000      -0.00000      -1.79920
                        -----------------------------------------
Total Dipole Moment    :     -0.00000      -0.00000      -0.29656
                        -----------------------------------------
Magnitude (a.u.)       :      0.29656
Magnitude (Debye)      :      0.75380

Rotational constants in cm-1:     0.293982     0.293982     0.167795
Rotational constants in MHz :  8813.353781  8813.352540  5030.363323

                             ****ORCA TERMINATED NORMALLY****
TOTAL RUN TIME: 0 days 0 hours 1 minutes 10 seconds 597 msec
