                         Program Version 5.0.3 -  RELEASE  -
|  1> ! PBEh-3c def2/J TightSCF DefGrid3
|  2>
|  3> %maxcore 60000
|  4>
|  5> %pal
|  6> nprocs 4
|  7> end
|  8>
|  9> *xyzfile 0 1 53.xyz
| 10>
| 11>                          ****END OF INPUT****

CARTESIAN COORDINATES (ANGSTROEM)
---------------------------------
  C      0.856839    0.515004   -1.325351
  H      1.515103    1.059151   -0.662339
  C      1.344175   -0.518907   -2.123948
  H      2.394162   -0.776873   -2.093142
  C      0.479085   -1.220230   -2.962921
  H      0.857362   -2.022436   -3.581929
  C     -0.873552   -0.886085   -3.005557
  H     -1.544128   -1.429228   -3.657521
  C     -1.361119    0.149458   -2.209258
  H     -2.410293    0.409939   -2.244326
  C     -0.497166    0.849628   -1.368113
  H     -0.864833    1.646811   -0.737068
  C      0.083207    0.654002    2.429623
  O      0.329697    1.697428    1.842384
  N     -0.220840   -0.501004    1.778456
  H     -0.195639   -0.508020    0.771819
  H     -0.376616   -1.356496    2.274158
  C      0.106052    0.559110    3.938041
  H      1.137766    0.643323    4.273114
  H     -0.315852   -0.367532    4.319066
  H     -0.443412    1.402957    4.344811

 Total Charge           Charge          ....    0
 Multiplicity           Mult            ....    1
 Number of Electrons    NEL             ....   74
 Basis Dimension        Dim             ....  172

ORBITAL ENERGIES
----------------

  NO   OCC          E(Eh)            E(eV)
   0   2.0000     -19.449871      -529.2579
   1   2.0000     -14.649045      -398.6208
   2   2.0000     -10.547185      -287.0035
   3   2.0000     -10.449413      -284.3430
   4   2.0000     -10.448919      -284.3295
   5   2.0000     -10.448267      -284.3118
   6   2.0000     -10.448145      -284.3085
   7   2.0000     -10.445028      -284.2237
   8   2.0000     -10.444408      -284.2068
   9   2.0000     -10.440024      -284.0875
  10   2.0000      -1.134791       -30.8792
  11   2.0000      -0.997730       -27.1496
  12   2.0000      -0.951927       -25.9032
  13   2.0000      -0.834944       -22.7200
  14   2.0000      -0.834896       -22.7187
  15   2.0000      -0.825279       -22.4570
  16   2.0000      -0.678326       -18.4582
  17   2.0000      -0.676976       -18.4215
  18   2.0000      -0.656854       -17.8739
  19   2.0000      -0.602509       -16.3951
  20   2.0000      -0.589705       -16.0467
  21   2.0000      -0.534089       -14.5333
  22   2.0000      -0.523498       -14.2451
  23   2.0000      -0.507304       -13.8044
  24   2.0000      -0.505243       -13.7484
  25   2.0000      -0.480636       -13.0788
  26   2.0000      -0.479125       -13.0377
  27   2.0000      -0.460015       -12.5176
  28   2.0000      -0.456257       -12.4154
  29   2.0000      -0.421049       -11.4573
  30   2.0000      -0.419231       -11.4079
  31   2.0000      -0.396236       -10.7821
  32   2.0000      -0.395655       -10.7663
  33   2.0000      -0.314467        -8.5571
  34   2.0000      -0.306312        -8.3352
  35   2.0000      -0.293183        -7.9779
  36   2.0000      -0.290463        -7.9039
  37   0.0000       0.017790         0.4841
  38   0.0000       0.018089         0.4922
  39   0.0000       0.069990         1.9045
  40   0.0000       0.127208         3.4615
  41   0.0000       0.144692         3.9373

MULLIKEN ATOMIC CHARGES
-----------------------
   0 C :   -0.261211
   1 H :    0.258089
   2 C :   -0.221889
   3 H :    0.221190
   4 C :   -0.222017
   5 H :    0.219663
   6 C :   -0.221836
   7 H :    0.219775
   8 C :   -0.221702
   9 H :    0.221769
  10 C :   -0.261772
  11 H :    0.259738
  12 C :    0.499668
  13 O :   -0.432305
  14 N :   -0.806182
  15 H :    0.408946
  16 H :    0.358106
  17 C :   -0.744359
  18 H :    0.255364
  19 H :    0.209908
  20 H :    0.261058
Sum of atomic charges:   -0.0000000

LOEWDIN ATOMIC CHARGES
----------------------
   0 C :   -0.144931
   1 H :    0.149771
   2 C :   -0.140181
   3 H :    0.135975
   4 C :   -0.138692
   5 H :    0.135262
   6 C :   -0.138572
   7 H :    0.135321
   8 C :   -0.139656
   9 H :    0.136270
  10 C :   -0.144767
  11 H :    0.150389
  12 C :    0.101708
  13 O :   -0.286651
  14 N :   -0.373162
  15 H :    0.266554
  16 H :    0.249863
  17 C :   -0.393433
  18 H :    0.156025
  19 H :    0.126095
  20 H :    0.156810

  Mayer bond orders larger than 0.100000
B(  0-C ,  1-H ) :   0.9010 B(  0-C ,  2-C ) :   1.4123 B(  0-C , 10-C ) :   1.4279
B(  2-C ,  3-H ) :   0.9206 B(  2-C ,  4-C ) :   1.4246 B(  4-C ,  5-H ) :   0.9205
B(  4-C ,  6-C ) :   1.4267 B(  6-C ,  7-H ) :   0.9205 B(  6-C ,  8-C ) :   1.4244
B(  8-C ,  9-H ) :   0.9204 B(  8-C , 10-C ) :   1.4122 B( 10-C , 11-H ) :   0.9003
B( 12-C , 13-O ) :   1.9977 B( 12-C , 14-N ) :   1.1662 B( 12-C , 17-C ) :   0.9280
B( 14-N , 15-H ) :   0.7847 B( 14-N , 16-H ) :   0.8331 B( 17-C , 18-H ) :   0.9090
B( 17-C , 19-H ) :   0.9225 B( 17-C , 20-H ) :   0.9119

Dispersion correction           -0.010877693
FINAL SINGLE POINT ENERGY      -440.501677856132

DIPOLE MOMENT
-------------
                                X             Y             Z
Electronic contribution:      0.24149       1.33015      -4.06221
Nuclear contribution   :     -0.49771      -2.70751       4.53001
                        -----------------------------------------
Total Dipole Moment    :     -0.25622      -1.37736       0.46780
                        -----------------------------------------
Magnitude (a.u.)       :      1.47702
Magnitude (Debye)      :      3.75430

Rotational constants in cm-1:     0.101234     0.018034     0.017768
Rotational constants in MHz :  3034.933409   540.633457   532.672736

                             ****ORCA TERMINATED NORMALLY****
TOTAL RUN TIME: 0 days 0 hours 2 minutes 3 seconds 563 msec
