                         Program Version 5.0.3 -  RELEASE  -
|  1> ! PBEh-3c def2/J TightSCF DefGrid3
|  2>
|  3> %maxcore 60000
|  4>
|  5> %pal
|  6> nprocs 4
|  7> end
|  8>
|  9> *xyzfile 0 1 BrBr_NCH.xyz
| 10>
| 11>                          ****END OF INPUT****

CARTESIAN COORDINATES (ANGSTROEM)
---------------------------------
  Br     0.000000    0.000000    1.919978
  Br     0.000000    0.000000   -0.367147
  N      0.000000    0.000000   -3.235006
  C      0.000000    0.000000   -4.376626
  H      0.000000    0.000000   -5.444276

 Total Charge           Charge          ....    0
 Multiplicity           Mult            ....    1
 Number of Electrons    NEL             ....   84
 Basis Dimension        Dim             ....   96

ORBITAL ENERGIES
----------------

  NO   OCC          E(Eh)            E(eV)
   0   2.0000    -484.552346    -13185.3397
   1   2.0000    -484.546895    -13185.1913
   2   2.0000     -63.214373     -1720.1505
   3   2.0000     -63.209679     -1720.0228
   4   2.0000     -56.919690     -1548.8635
   5   2.0000     -56.915723     -1548.7556
   6   2.0000     -56.915723     -1548.7556
   7   2.0000     -56.914625     -1548.7257
   8   2.0000     -56.911244     -1548.6337
   9   2.0000     -56.911244     -1548.6337
  10   2.0000     -14.689656      -399.7259
  11   2.0000     -10.523425      -286.3570
  12   2.0000      -9.042692      -246.0642
  13   2.0000      -9.038421      -245.9479
  14   2.0000      -6.821148      -185.6129
  15   2.0000      -6.815695      -185.4645
  16   2.0000      -6.801977      -185.0912
  17   2.0000      -6.801977      -185.0912
  18   2.0000      -6.798559      -184.9982
  19   2.0000      -6.798559      -184.9982
  20   2.0000      -2.834196       -77.1224
  21   2.0000      -2.828523       -76.9680
  22   2.0000      -2.828419       -76.9652
  23   2.0000      -2.828419       -76.9652
  24   2.0000      -2.823685       -76.8364
  25   2.0000      -2.823685       -76.8364
  26   2.0000      -2.811997       -76.5183
  27   2.0000      -2.811978       -76.5178
  28   2.0000      -2.809039       -76.4378
  29   2.0000      -2.809017       -76.4372
  30   2.0000      -1.050335       -28.5811
  31   2.0000      -0.921182       -25.0666
  32   2.0000      -0.787648       -21.4330
  33   2.0000      -0.694834       -18.9074
  34   2.0000      -0.494967       -13.4687
  35   2.0000      -0.439315       -11.9544
  36   2.0000      -0.439315       -11.9544
  37   2.0000      -0.433003       -11.7826
  38   2.0000      -0.397356       -10.8126
  39   2.0000      -0.397356       -10.8126
  40   2.0000      -0.310599        -8.4518
  41   2.0000      -0.310599        -8.4518
  42   0.0000      -0.079832        -2.1723
  43   0.0000       0.036465         0.9923
  44   0.0000       0.036465         0.9923
  45   0.0000       0.118069         3.2128
  46   0.0000       0.315108         8.5745

MULLIKEN ATOMIC CHARGES
-----------------------
   0 Br:   -0.053220
   1 Br:    0.018746
   2 N :   -0.179454
   3 C :   -0.099335
   4 H :    0.313263
Sum of atomic charges:    0.0000000

LOEWDIN ATOMIC CHARGES
----------------------
   0 Br:   -0.050600
   1 Br:    0.016891
   2 N :   -0.054401
   3 C :   -0.078383
   4 H :    0.166492

  Mayer bond orders larger than 0.100000
B(  0-Br,  1-Br) :   1.0333 B(  2-N ,  3-C ) :   3.1154 B(  3-C ,  4-H ) :   0.8550

Dispersion correction           -0.001534867
FINAL SINGLE POINT ENERGY     -5239.222670411948

DIPOLE MOMENT
-------------
                                X             Y             Z
Electronic contribution:      0.00000      -0.00000      15.85515
Nuclear contribution   :      0.00000       0.00000     -17.59030
                        -----------------------------------------
Total Dipole Moment    :      0.00000      -0.00000      -1.73515
                        -----------------------------------------
Magnitude (a.u.)       :      1.73515
Magnitude (Debye)      :      4.41040

Rotational constants in cm-1:     0.000000     0.023758     0.023758
Rotational constants in MHz :     0.000000   712.257737   712.257737

                             ****ORCA TERMINATED NORMALLY****
TOTAL RUN TIME: 0 days 0 hours 1 minutes 17 seconds 340 msec
