                         Program Version 5.0.3 -  RELEASE  -
|  1> ! PBEh-3c def2/J TightSCF DefGrid3
|  2>
|  3> %maxcore 60000
|  4>
|  5> %pal
|  6> nprocs 4
|  7> end
|  8>
|  9> *xyzfile 0 1 Pentahelicene_TS.xyz
| 10>
| 11>                          ****END OF INPUT****

CARTESIAN COORDINATES (ANGSTROEM)
---------------------------------
  C      0.390777   -0.000912    0.410239
  C      0.399136    1.287594   -0.290794
  C      0.191032   -1.351409   -0.146715
  C      0.204693    1.564610   -1.728938
  C      0.684277   -1.828856   -1.374630
  C      0.360458   -3.065065   -1.893431
  C     -0.478176   -3.930271   -1.187608
  C     -0.848334   -3.576644    0.086911
  C      0.381892    0.038095    1.838160
  C     -0.070760   -1.062990    2.627455
  C     -0.609405   -2.157704    2.052183
  C     -0.471705   -2.341297    0.648520
  C      0.673408    1.221301    2.551094
  C      0.683474    2.410225    1.904773
  C      0.396435    2.461063    0.522802
  C     -0.477396    2.765368   -2.111168
  C     -0.616604    3.836041   -1.185510
  C     -0.059219    3.723689    0.036429
  H      0.780353    1.166779    3.626501
  H      0.794741    3.340668    2.446102
  H     -1.392864   -4.272313    0.712115
  H     -0.769277   -4.885242   -1.603829
  H      0.784729   -3.368146   -2.841368
  H      1.413625   -1.257834   -1.901065
  C      0.721112    0.827249   -2.813251
  H     -0.045603    4.560492    0.721891
  H     -1.084145    4.754658   -1.514504
  C     -0.862697    2.981324   -3.448445
  H     -1.065477   -2.941961    2.642262
  H     -0.066339   -0.943247    3.702938
  C      0.396341    1.086999   -4.129346
  C     -0.469636    2.133525   -4.454575
  H     -1.426795    3.876993   -3.674351
  H     -0.761141    2.321514   -5.479157
  H      0.841110    0.485944   -4.911025
  H      1.477980    0.095010   -2.639197

 Total Charge           Charge          ....    0
 Multiplicity           Mult            ....    1
 Number of Electrons    NEL             ....  146
 Basis Dimension        Dim             ....  358

ORBITAL ENERGIES
----------------

  NO   OCC          E(Eh)            E(eV)
   0   2.0000     -10.481826      -285.2250
   1   2.0000     -10.481315      -285.2111
   2   2.0000     -10.471867      -284.9540
   3   2.0000     -10.470292      -284.9111
   4   2.0000     -10.465233      -284.7735
   5   2.0000     -10.465043      -284.7683
   6   2.0000     -10.462101      -284.6882
   7   2.0000     -10.461682      -284.6768
   8   2.0000     -10.452604      -284.4298
   9   2.0000     -10.451814      -284.4083
  10   2.0000     -10.451297      -284.3943
  11   2.0000     -10.451260      -284.3932
  12   2.0000     -10.450435      -284.3708
  13   2.0000     -10.450410      -284.3701
  14   2.0000     -10.449688      -284.3505
  15   2.0000     -10.449571      -284.3473
  16   2.0000     -10.449289      -284.3396
  17   2.0000     -10.448928      -284.3298
  18   2.0000     -10.448506      -284.3183
  19   2.0000     -10.447959      -284.3034
  20   2.0000     -10.447695      -284.2962
  21   2.0000     -10.447070      -284.2792
  22   2.0000      -0.996027       -27.1033
  23   2.0000      -0.976196       -26.5636
  24   2.0000      -0.953526       -25.9468
  25   2.0000      -0.923135       -25.1198
  26   2.0000      -0.895819       -24.3765
  27   2.0000      -0.880779       -23.9672
  28   2.0000      -0.857358       -23.3299
  29   2.0000      -0.842898       -22.9364
  30   2.0000      -0.829900       -22.5827
  31   2.0000      -0.811567       -22.0839
  32   2.0000      -0.800365       -21.7790
  33   2.0000      -0.726083       -19.7577
  34   2.0000      -0.721634       -19.6367
  35   2.0000      -0.695280       -18.9195
  36   2.0000      -0.689266       -18.7559
  37   2.0000      -0.689072       -18.7506
  38   2.0000      -0.652958       -17.7679
  39   2.0000      -0.624800       -17.0017
  40   2.0000      -0.607747       -16.5376
  41   2.0000      -0.604123       -16.4390
  42   2.0000      -0.570968       -15.5368
  43   2.0000      -0.565333       -15.3835
  44   2.0000      -0.561246       -15.2723
  45   2.0000      -0.533305       -14.5120
  46   2.0000      -0.529370       -14.4049
  47   2.0000      -0.528375       -14.3778
  48   2.0000      -0.499304       -13.5867
  49   2.0000      -0.493746       -13.4355
  50   2.0000      -0.491857       -13.3841
  51   2.0000      -0.491156       -13.3650
  52   2.0000      -0.482979       -13.1425
  53   2.0000      -0.471315       -12.8251
  54   2.0000      -0.469414       -12.7734
  55   2.0000      -0.458548       -12.4777
  56   2.0000      -0.447989       -12.1904
  57   2.0000      -0.444134       -12.0855
  58   2.0000      -0.425942       -11.5905
  59   2.0000      -0.425626       -11.5819
  60   2.0000      -0.422220       -11.4892
  61   2.0000      -0.401777       -10.9329
  62   2.0000      -0.392724       -10.6865
  63   2.0000      -0.383751       -10.4424
  64   2.0000      -0.382410       -10.4059
  65   2.0000      -0.374078       -10.1792
  66   2.0000      -0.352119        -9.5816
  67   2.0000      -0.336098        -9.1457
  68   2.0000      -0.307383        -8.3643
  69   2.0000      -0.289257        -7.8711
  70   2.0000      -0.277717        -7.5571
  71   2.0000      -0.254202        -6.9172
  72   2.0000      -0.234084        -6.3697
  73   0.0000      -0.043953        -1.1960
  74   0.0000      -0.026765        -0.7283
  75   0.0000       0.003862         0.1051
  76   0.0000       0.007555         0.2056
  77   0.0000       0.029602         0.8055

MULLIKEN ATOMIC CHARGES
-----------------------
   0 C :    0.095468
   1 C :    0.088398
   2 C :    0.064515
   3 C :    0.059497
   4 C :   -0.306099
   5 C :   -0.204867
   6 C :   -0.236578
   7 C :   -0.259859
   8 C :    0.079051
   9 C :   -0.264707
  10 C :   -0.296301
  11 C :    0.095353
  12 C :   -0.274756
  13 C :   -0.273908
  14 C :    0.077814
  15 C :    0.095338
  16 C :   -0.293300
  17 C :   -0.263553
  18 H :    0.219697
  19 H :    0.219566
  20 H :    0.214967
  21 H :    0.220555
  22 H :    0.216749
  23 H :    0.205600
  24 C :   -0.330698
  25 H :    0.215333
  26 H :    0.217064
  27 C :   -0.259489
  28 H :    0.216728
  29 H :    0.214915
  30 C :   -0.204910
  31 C :   -0.234824
  32 H :    0.215731
  33 H :    0.220905
  34 H :    0.217520
  35 H :    0.233083
Sum of atomic charges:   -0.0000000

LOEWDIN ATOMIC CHARGES
----------------------
   0 C :   -0.010619
   1 C :   -0.011262
   2 C :   -0.016516
   3 C :   -0.015714
   4 C :   -0.119925
   5 C :   -0.137107
   6 C :   -0.132975
   7 C :   -0.125418
   8 C :   -0.027505
   9 C :   -0.125211
  10 C :   -0.120330
  11 C :   -0.028058
  12 C :   -0.121386
  13 C :   -0.121390
  14 C :   -0.027078
  15 C :   -0.027487
  16 C :   -0.120320
  17 C :   -0.125131
  18 H :    0.139968
  19 H :    0.139990
  20 H :    0.137460
  21 H :    0.137594
  22 H :    0.136894
  23 H :    0.134395
  24 C :   -0.121155
  25 H :    0.138666
  26 H :    0.139698
  27 C :   -0.125291
  28 H :    0.139637
  29 H :    0.138590
  30 C :   -0.137853
  31 C :   -0.132998
  32 H :    0.137657
  33 H :    0.137788
  34 H :    0.137006
  35 H :    0.135384

  Mayer bond orders larger than 0.100000
B(  0-C ,  1-C ) :   1.2049 B(  0-C ,  2-C ) :   1.0509 B(  0-C ,  8-C ) :   1.3098
B(  1-C ,  3-C ) :   1.0519 B(  1-C , 14-C ) :   1.3116 B(  2-C ,  4-C ) :   1.3345
B(  2-C , 11-C ) :   1.2806 B(  3-C , 15-C ) :   1.2852 B(  3-C , 24-C ) :   1.3295
B(  4-C ,  5-C ) :   1.4911 B(  4-C , 23-H ) :   0.9014 B(  5-C ,  6-C ) :   1.3480
B(  5-C , 22-H ) :   0.9206 B(  6-C ,  7-C ) :   1.4889 B(  6-C , 21-H ) :   0.9183
B(  7-C , 11-C ) :   1.2800 B(  7-C , 20-H ) :   0.9238 B(  8-C ,  9-C ) :   1.1638
B(  8-C , 12-C ) :   1.2247 B(  9-C , 10-C ) :   1.6242 B(  9-C , 29-H ) :   0.9236
B( 10-C , 11-C ) :   1.1664 B( 10-C , 28-H ) :   0.9233 B( 12-C , 13-C ) :   1.5566
B( 12-C , 18-H ) :   0.9212 B( 13-C , 14-C ) :   1.2247 B( 13-C , 19-H ) :   0.9211
B( 14-C , 17-C ) :   1.1627 B( 15-C , 16-C ) :   1.1659 B( 15-C , 27-C ) :   1.2802
B( 16-C , 17-C ) :   1.6256 B( 16-C , 26-H ) :   0.9230 B( 17-C , 25-H ) :   0.9234
B( 24-C , 30-C ) :   1.4907 B( 24-C , 35-H ) :   0.8963 B( 27-C , 31-C ) :   1.4894
B( 27-C , 32-H ) :   0.9232 B( 30-C , 31-C ) :   1.3505 B( 30-C , 34-H ) :   0.9203
B( 31-C , 33-H ) :   0.9181

Dispersion correction           -0.030631085
FINAL SINGLE POINT ENERGY      -844.890776609932

DIPOLE MOMENT
-------------
                                X             Y             Z
Electronic contribution:      0.68781       1.42986       2.76232
Nuclear contribution   :     -0.75652      -1.36726      -2.69116
                        -----------------------------------------
Total Dipole Moment    :     -0.06872       0.06260       0.07116
                        -----------------------------------------
Magnitude (a.u.)       :      0.11707
Magnitude (Debye)      :      0.29756

Rotational constants in cm-1:     0.014628     0.009194     0.005978
Rotational constants in MHz :   438.528410   275.641980   179.221983

                             ****ORCA TERMINATED NORMALLY****
TOTAL RUN TIME: 0 days 0 hours 5 minutes 56 seconds 27 msec
