                         Program Version 5.0.3 -  RELEASE  -
|  1> ! PBEh-3c def2/J TightSCF DefGrid3
|  2>
|  3> %maxcore 60000
|  4>
|  5> %pal
|  6> nprocs 4
|  7> end
|  8>
|  9> *xyzfile 0 1 SER_xar.xyz
| 10>
| 11>                          ****END OF INPUT****

CARTESIAN COORDINATES (ANGSTROEM)
---------------------------------
  N     -0.932385   -0.680155    0.068546
  C      0.123603    0.264306   -0.214738
  C      1.428965   -0.491130    0.029105
  O      1.448682   -1.580088    0.595607
  C      0.043736    1.547513    0.633461
  O     -0.793614    2.520775    0.064312
  H     -0.609861   -1.565602    0.434205
  H      0.076547    0.574006   -1.262987
  H     -0.268686    1.256213    1.642828
  H      1.035572    1.992724    0.708890
  H     -1.606250    2.048190   -0.196061
  N      2.535289    0.146007   -0.412612
  H      2.417701    1.016073   -0.902183
  C      3.865337   -0.404029   -0.250181
  H      4.277352   -0.731907   -1.202909
  H      4.530355    0.333320    0.192844
  H      3.784687   -1.259962    0.411530
  C     -2.240584   -0.444327   -0.154054
  O     -2.669349    0.637950   -0.563639
  C     -3.165829   -1.603882    0.110527
  H     -3.570762   -1.944044   -0.840416
  H     -3.996136   -1.253395    0.717160
  H     -2.673995   -2.436339    0.606356

 Total Charge           Charge          ....    0
 Multiplicity           Mult            ....    1
 Number of Electrons    NEL             ....   86
 Basis Dimension        Dim             ....  189

ORBITAL ENERGIES
----------------

  NO   OCC          E(Eh)            E(eV)
   0   2.0000     -19.482748      -530.1525
   1   2.0000     -19.470264      -529.8128
   2   2.0000     -19.464493      -529.6558
   3   2.0000     -14.684287      -399.5798
   4   2.0000     -14.670061      -399.1926
   5   2.0000     -10.569157      -287.6014
   6   2.0000     -10.561400      -287.3903
   7   2.0000     -10.499706      -285.7115
   8   2.0000     -10.488008      -285.3932
   9   2.0000     -10.481492      -285.2159
  10   2.0000     -10.447524      -284.2916
  11   2.0000      -1.169817       -31.8323
  12   2.0000      -1.153759       -31.3954
  13   2.0000      -1.109033       -30.1783
  14   2.0000      -1.044831       -28.4313
  15   2.0000      -1.035583       -28.1796
  16   2.0000      -0.878207       -23.8972
  17   2.0000      -0.829236       -22.5647
  18   2.0000      -0.793431       -21.5904
  19   2.0000      -0.730433       -19.8761
  20   2.0000      -0.682115       -18.5613
  21   2.0000      -0.660706       -17.9787
  22   2.0000      -0.619352       -16.8534
  23   2.0000      -0.579654       -15.7732
  24   2.0000      -0.565557       -15.3896
  25   2.0000      -0.549397       -14.9499
  26   2.0000      -0.532874       -14.5002
  27   2.0000      -0.531138       -14.4530
  28   2.0000      -0.514315       -13.9952
  29   2.0000      -0.492826       -13.4105
  30   2.0000      -0.486078       -13.2268
  31   2.0000      -0.476685       -12.9712
  32   2.0000      -0.467862       -12.7312
  33   2.0000      -0.463061       -12.6005
  34   2.0000      -0.456079       -12.4105
  35   2.0000      -0.439328       -11.9547
  36   2.0000      -0.417699       -11.3662
  37   2.0000      -0.395506       -10.7623
  38   2.0000      -0.341289        -9.2869
  39   2.0000      -0.326600        -8.8872
  40   2.0000      -0.322263        -8.7692
  41   2.0000      -0.317611        -8.6426
  42   2.0000      -0.303603        -8.2615
  43   0.0000       0.035237         0.9588
  44   0.0000       0.053541         1.4569
  45   0.0000       0.109592         2.9822
  46   0.0000       0.130877         3.5614
  47   0.0000       0.153514         4.1773

MULLIKEN ATOMIC CHARGES
-----------------------
   0 N :   -0.648657
   1 C :   -0.230021
   2 C :    0.538645
   3 O :   -0.439183
   4 C :   -0.116116
   5 O :   -0.645186
   6 H :    0.392122
   7 H :    0.265487
   8 H :    0.195081
   9 H :    0.193720
  10 H :    0.452198
  11 N :   -0.634950
  12 H :    0.370074
  13 C :   -0.495378
  14 H :    0.228395
  15 H :    0.227776
  16 H :    0.269410
  17 C :    0.549679
  18 O :   -0.475703
  19 C :   -0.744132
  20 H :    0.259907
  21 H :    0.262058
  22 H :    0.224774
Sum of atomic charges:    0.0000000

LOEWDIN ATOMIC CHARGES
----------------------
   0 N :   -0.219858
   1 C :   -0.116418
   2 C :    0.114976
   3 O :   -0.283513
   4 C :   -0.090028
   5 O :   -0.421318
   6 H :    0.272183
   7 H :    0.145453
   8 H :    0.107988
   9 H :    0.112718
  10 H :    0.309408
  11 N :   -0.234398
  12 H :    0.260172
  13 C :   -0.254910
  14 H :    0.125882
  15 H :    0.127500
  16 H :    0.156233
  17 C :    0.119307
  18 O :   -0.300366
  19 C :   -0.382188
  20 H :    0.159468
  21 H :    0.158151
  22 H :    0.133560

  Mayer bond orders larger than 0.100000
B(  0-N ,  1-C ) :   0.9333 B(  0-N ,  6-H ) :   0.7627 B(  0-N , 17-C ) :   1.1912
B(  1-C ,  2-C ) :   0.8993 B(  1-C ,  4-C ) :   0.9329 B(  1-C ,  7-H ) :   0.8774
B(  2-C ,  3-O ) :   1.9487 B(  2-C , 11-N ) :   1.1519 B(  4-C ,  5-O ) :   1.0822
B(  4-C ,  8-H ) :   0.8928 B(  4-C ,  9-H ) :   0.9083 B(  5-O , 10-H ) :   0.6855
B( 10-H , 18-O ) :   0.1078 B( 11-N , 12-H ) :   0.8188 B( 11-N , 13-C ) :   0.9437
B( 13-C , 14-H ) :   0.9178 B( 13-C , 15-H ) :   0.9204 B( 13-C , 16-H ) :   0.8989
B( 17-C , 18-O ) :   1.8569 B( 17-C , 19-C ) :   0.9365 B( 19-C , 20-H ) :   0.9059
B( 19-C , 21-H ) :   0.9088 B( 19-C , 22-H ) :   0.9195

Dispersion correction           -0.012394155
FINAL SINGLE POINT ENERGY      -569.848751165997

DIPOLE MOMENT
-------------
                                X             Y             Z
Electronic contribution:     -2.42210       1.18165      -0.60898
Nuclear contribution   :      3.56731      -1.98368       0.36850
                        -----------------------------------------
Total Dipole Moment    :      1.14521      -0.80202      -0.24048
                        -----------------------------------------
Magnitude (a.u.)       :      1.41865
Magnitude (Debye)      :      3.60592

Rotational constants in cm-1:     0.060642     0.021785     0.016951
Rotational constants in MHz :  1818.013059   653.097658   508.172151

                             ****ORCA TERMINATED NORMALLY****
TOTAL RUN TIME: 0 days 0 hours 2 minutes 28 seconds 482 msec
