                         Program Version 5.0.3 -  RELEASE  -
|  1> ! PBEh-3c def2/J TightSCF DefGrid3
|  2>
|  3> %maxcore 60000
|  4>
|  5> %pal
|  6> nprocs 4
|  7> end
|  8>
|  9> *xyzfile 0 1 methylfuran.xyz
| 10>
| 11>                          ****END OF INPUT****

CARTESIAN COORDINATES (ANGSTROEM)
---------------------------------
  C     -0.695369   -1.703039   -0.000014
  C      0.667754   -1.697120    0.000144
  C      1.061309   -0.317643    0.000122
  C     -0.088324    0.424797   -0.000076
  O     -1.177171   -0.417942   -0.000129
  H     -1.444353   -2.486159   -0.000063
  H      1.315683   -2.567446    0.000267
  H      2.073260    0.074801    0.000266
  C     -0.373976    1.882674   -0.000114
  H     -0.953260    2.181157   -0.887535
  H     -0.953249    2.181267    0.887281
  H      0.567694    2.444654   -0.000149

 Total Charge           Charge          ....    0
 Multiplicity           Mult            ....    1
 Number of Electrons    NEL             ....   44
 Basis Dimension        Dim             ....  102

ORBITAL ENERGIES
----------------

  NO   OCC          E(Eh)            E(eV)
   0   2.0000     -19.557946      -532.1988
   1   2.0000     -10.500633      -285.7368
   2   2.0000     -10.490787      -285.4688
   3   2.0000     -10.446544      -284.2649
   4   2.0000     -10.441380      -284.1244
   5   2.0000     -10.438635      -284.0497
   6   2.0000      -1.210726       -32.9455
   7   2.0000      -0.887766       -24.1573
   8   2.0000      -0.864966       -23.5369
   9   2.0000      -0.766209       -20.8496
  10   2.0000      -0.666205       -18.1284
  11   2.0000      -0.620382       -16.8814
  12   2.0000      -0.585072       -15.9206
  13   2.0000      -0.519500       -14.1363
  14   2.0000      -0.499207       -13.5841
  15   2.0000      -0.459309       -12.4984
  16   2.0000      -0.457864       -12.4591
  17   2.0000      -0.457684       -12.4542
  18   2.0000      -0.443021       -12.0552
  19   2.0000      -0.420570       -11.4443
  20   2.0000      -0.321621        -8.7518
  21   2.0000      -0.257264        -7.0005
  22   0.0000       0.041325         1.1245
  23   0.0000       0.105731         2.8771
  24   0.0000       0.154120         4.1938
  25   0.0000       0.170556         4.6411
  26   0.0000       0.190917         5.1951

MULLIKEN ATOMIC CHARGES
-----------------------
   0 C :    0.019292
   1 C :   -0.289108
   2 C :   -0.345963
   3 C :    0.368642
   4 O :   -0.416652
   5 H :    0.233553
   6 H :    0.222864
   7 H :    0.219355
   8 C :   -0.725889
   9 H :    0.240015
  10 H :    0.240015
  11 H :    0.233876
Sum of atomic charges:    0.0000000

LOEWDIN ATOMIC CHARGES
----------------------
   0 C :   -0.044097
   1 C :   -0.193850
   2 C :   -0.205918
   3 C :    0.041972
   4 O :   -0.097508
   5 H :    0.137238
   6 H :    0.142766
   7 H :    0.141350
   8 C :   -0.356519
   9 H :    0.144823
  10 H :    0.144822
  11 H :    0.144921

  Mayer bond orders larger than 0.100000
B(  0-C ,  1-C ) :   1.6395 B(  0-C ,  4-O ) :   1.0837 B(  0-C ,  5-H ) :   0.9158
B(  1-C ,  2-C ) :   1.2625 B(  1-C ,  6-H ) :   0.9210 B(  2-C ,  3-C ) :   1.5957
B(  2-C ,  7-H ) :   0.9241 B(  3-C ,  4-O ) :   1.0655 B(  3-C ,  8-C ) :   0.9710
B(  8-C ,  9-H ) :   0.9111 B(  8-C , 10-H ) :   0.9111 B(  8-C , 11-H ) :   0.9272

Dispersion correction           -0.005009640
FINAL SINGLE POINT ENERGY      -268.756900781362

DIPOLE MOMENT
-------------
                                X             Y             Z
Electronic contribution:     -1.14114      -3.07643      -0.00010
Nuclear contribution   :      1.33182       3.20648       0.00015
                        -----------------------------------------
Total Dipole Moment    :      0.19068       0.13005       0.00004
                        -----------------------------------------
Magnitude (a.u.)       :      0.23081
Magnitude (Debye)      :      0.58667

Rotational constants in cm-1:     0.291506     0.117360     0.085013
Rotational constants in MHz :  8739.133857  3518.354978  2548.622611

                             ****ORCA TERMINATED NORMALLY****
TOTAL RUN TIME: 0 days 0 hours 1 minutes 34 seconds 669 msec
