                         Program Version 5.0.3 -  RELEASE  -
|  1> ! PBEh-3c def2/J TightSCF DefGrid3
|  2>
|  3> %maxcore 60000
|  4>
|  5> %pal
|  6> nprocs 4
|  7> end
|  8>
|  9> *xyzfile 0 1 14a.xyz
| 10>
| 11>                          ****END OF INPUT****

CARTESIAN COORDINATES (ANGSTROEM)
---------------------------------
  H     -2.973468    1.363332    0.000000
  H     -0.808595    2.552991    0.000000
  H      2.174557    2.040258    0.000000
  H     -0.998958   -2.456713    0.000000
  H     -3.072551   -1.100218    0.000000
  H      1.799175   -2.148915    0.000000
  H      3.496093   -0.309626    0.000000
  C      2.434004   -0.130518    0.000000
  C      0.265735   -0.696552    0.000000
  C     -0.954163   -1.375505    0.000000
  C     -2.050382    0.799208    0.000000
  C     -2.108851   -0.609065    0.000000
  C      0.350790    0.723517    0.000000
  C      1.737072    1.056324    0.000000
  C     -0.838662    1.470916    0.000000
  N      1.548206   -1.179434    0.000000

 Total Charge           Charge          ....    0
 Multiplicity           Mult            ....    1
 Number of Electrons    NEL             ....   62
 Basis Dimension        Dim             ....  149

ORBITAL ENERGIES
----------------

  NO   OCC          E(Eh)            E(eV)
   0   2.0000     -14.684537      -399.5866
   1   2.0000     -10.478619      -285.1377
   2   2.0000     -10.476353      -285.0761
   3   2.0000     -10.444668      -284.2139
   4   2.0000     -10.440755      -284.1074
   5   2.0000     -10.439893      -284.0839
   6   2.0000     -10.439279      -284.0672
   7   2.0000     -10.433806      -283.9183
   8   2.0000     -10.430629      -283.8319
   9   2.0000      -1.089082       -29.6354
  10   2.0000      -0.934524       -25.4297
  11   2.0000      -0.873854       -23.7788
  12   2.0000      -0.822541       -22.3825
  13   2.0000      -0.802300       -21.8317
  14   2.0000      -0.700730       -19.0678
  15   2.0000      -0.669327       -18.2133
  16   2.0000      -0.654697       -17.8152
  17   2.0000      -0.608476       -16.5575
  18   2.0000      -0.547553       -14.8997
  19   2.0000      -0.533987       -14.5305
  20   2.0000      -0.497745       -13.5443
  21   2.0000      -0.489437       -13.3183
  22   2.0000      -0.483784       -13.1644
  23   2.0000      -0.468417       -12.7463
  24   2.0000      -0.449271       -12.2253
  25   2.0000      -0.409336       -11.1386
  26   2.0000      -0.388236       -10.5644
  27   2.0000      -0.385648       -10.4940
  28   2.0000      -0.323739        -8.8094
  29   2.0000      -0.259030        -7.0486
  30   2.0000      -0.240866        -6.5543
  31   0.0000       0.011007         0.2995
  32   0.0000       0.052432         1.4267
  33   0.0000       0.098206         2.6723
  34   0.0000       0.128382         3.4935
  35   0.0000       0.157313         4.2807

MULLIKEN ATOMIC CHARGES
-----------------------
   0 H :    0.211765
   1 H :    0.208836
   2 H :    0.212134
   3 H :    0.210080
   4 H :    0.213723
   5 H :    0.359056
   6 H :    0.237817
   7 C :   -0.006697
   8 C :    0.365708
   9 C :   -0.271634
  10 C :   -0.228966
  11 C :   -0.241803
  12 C :    0.096631
  13 C :   -0.369446
  14 C :   -0.308480
  15 N :   -0.688724
Sum of atomic charges:    0.0000000

LOEWDIN ATOMIC CHARGES
----------------------
   0 H :    0.133037
   1 H :    0.136044
   2 H :    0.139291
   3 H :    0.134447
   4 H :    0.133954
   5 H :    0.261291
   6 H :    0.134911
   7 C :   -0.080387
   8 C :    0.015979
   9 C :   -0.163147
  10 C :   -0.157351
  11 C :   -0.143532
  12 C :   -0.063027
  13 C :   -0.200896
  14 C :   -0.128120
  15 N :   -0.152494

  Mayer bond orders larger than 0.100000
B(  0-H , 10-C ) :   0.9214 B(  1-H , 14-C ) :   0.9312 B(  2-H , 13-C ) :   0.9349
B(  3-H ,  9-C ) :   0.9208 B(  4-H , 11-C ) :   0.9208 B(  5-H , 15-N ) :   0.8330
B(  6-H ,  7-C ) :   0.9109 B(  7-C , 13-C ) :   1.5839 B(  7-C , 15-N ) :   1.1468
B(  8-C ,  9-C ) :   1.2940 B(  8-C , 12-C ) :   1.2393 B(  8-C , 15-N ) :   1.0252
B(  9-C , 11-C ) :   1.4979 B( 10-C , 11-C ) :   1.3588 B( 10-C , 14-C ) :   1.5013
B( 12-C , 13-C ) :   1.2496 B( 12-C , 14-C ) :   1.2835

Dispersion correction           -0.009402084
FINAL SINGLE POINT ENERGY      -363.015047558050

DIPOLE MOMENT
-------------
                                X             Y             Z
Electronic contribution:      1.34395      -0.71642       0.00000
Nuclear contribution   :     -0.76177       0.03398       0.00000
                        -----------------------------------------
Total Dipole Moment    :      0.58218      -0.68244       0.00000
                        -----------------------------------------
Magnitude (a.u.)       :      0.89703
Magnitude (Debye)      :      2.28006

Rotational constants in cm-1:     0.129587     0.054873     0.038550
Rotational constants in MHz :  3884.929476  1645.065613  1155.690699

                             ****ORCA TERMINATED NORMALLY****
TOTAL RUN TIME: 0 days 0 hours 1 minutes 38 seconds 801 msec
