                         Program Version 5.0.3 -  RELEASE  -
|  1> ! PBEh-3c def2/J TightSCF DefGrid3
|  2>
|  3> %maxcore 60000
|  4>
|  5> %pal
|  6> nprocs 4
|  7> end
|  8>
|  9> *xyzfile 0 1 MET_xbo.xyz
| 10>
| 11>                          ****END OF INPUT****

CARTESIAN COORDINATES (ANGSTROEM)
---------------------------------
  N      1.541390   -1.011653    0.598924
  H      1.735903   -1.287951    1.546707
  C      0.269713   -0.363196    0.312856
  H      0.031404   -0.591959   -0.725531
  C     -0.798755   -0.906403    1.244891
  H     -0.532648   -0.641305    2.269967
  H     -0.810928   -1.994348    1.158954
  C     -2.185321   -0.347324    0.959241
  H     -2.902572   -0.768012    1.664457
  H     -2.179187    0.735461    1.072962
  S     -2.710204   -0.774533   -0.725751
  C     -4.302243    0.076571   -0.709791
  H     -4.763495   -0.076390   -1.682101
  H     -4.163797    1.143058   -0.545985
  H     -4.952404   -0.334488    0.059723
  C      0.428670    1.154735    0.465911
  O      0.056939    1.755460    1.471265
  N      1.032158    1.735585   -0.592727
  H      1.438569    1.110773   -1.278279
  C      2.517827   -1.122014   -0.336136
  O      2.387855   -0.682775   -1.478270
  C      3.770928   -1.835322    0.103348
  H      4.619089   -1.173148   -0.051895
  H      3.910517   -2.705971   -0.533030
  H      3.744311   -2.151985    1.142880
  C      1.392955    3.136418   -0.576299
  H      2.397860    3.293769   -0.183318
  H      1.338908    3.538997   -1.583983
  H      0.689214    3.660410    0.062889

 Total Charge           Charge          ....    0
 Multiplicity           Mult            ....    1
 Number of Electrons    NEL             ....  110
 Basis Dimension        Dim             ....  230

ORBITAL ENERGIES
----------------

  NO   OCC          E(Eh)            E(eV)
   0   2.0000     -89.568713     -2437.2886
   1   2.0000     -19.470113      -529.8087
   2   2.0000     -19.453625      -529.3600
   3   2.0000     -14.678197      -399.4140
   4   2.0000     -14.648961      -398.6185
   5   2.0000     -10.562548      -287.4215
   6   2.0000     -10.538073      -286.7555
   7   2.0000     -10.489391      -285.4308
   8   2.0000     -10.462352      -284.6951
   9   2.0000     -10.458247      -284.5834
  10   2.0000     -10.456532      -284.5367
  11   2.0000     -10.452158      -284.4177
  12   2.0000     -10.451247      -284.3929
  13   2.0000      -8.207672      -223.3421
  14   2.0000      -6.098847      -165.9581
  15   2.0000      -6.095852      -165.8766
  16   2.0000      -6.089897      -165.7145
  17   2.0000      -1.156480       -31.4694
  18   2.0000      -1.134982       -30.8844
  19   2.0000      -1.039580       -28.2884
  20   2.0000      -1.011870       -27.5344
  21   2.0000      -0.914189       -24.8763
  22   2.0000      -0.868705       -23.6387
  23   2.0000      -0.833824       -22.6895
  24   2.0000      -0.803817       -21.8730
  25   2.0000      -0.766059       -20.8455
  26   2.0000      -0.710132       -19.3237
  27   2.0000      -0.675501       -18.3813
  28   2.0000      -0.650258       -17.6944
  29   2.0000      -0.640060       -17.4169
  30   2.0000      -0.603596       -16.4247
  31   2.0000      -0.566289       -15.4095
  32   2.0000      -0.558644       -15.2015
  33   2.0000      -0.532094       -14.4790
  34   2.0000      -0.517440       -14.0802
  35   2.0000      -0.507776       -13.8173
  36   2.0000      -0.501842       -13.6558
  37   2.0000      -0.490238       -13.3401
  38   2.0000      -0.489782       -13.3276
  39   2.0000      -0.478826       -13.0295
  40   2.0000      -0.472219       -12.8497
  41   2.0000      -0.467435       -12.7195
  42   2.0000      -0.457915       -12.4605
  43   2.0000      -0.441496       -12.0137
  44   2.0000      -0.427109       -11.6222
  45   2.0000      -0.423605       -11.5269
  46   2.0000      -0.416894       -11.3443
  47   2.0000      -0.409970       -11.1558
  48   2.0000      -0.395713       -10.7679
  49   2.0000      -0.352477        -9.5914
  50   2.0000      -0.336974        -9.1695
  51   2.0000      -0.322735        -8.7821
  52   2.0000      -0.297101        -8.0845
  53   2.0000      -0.289731        -7.8840
  54   2.0000      -0.258826        -7.0430
  55   0.0000       0.041120         1.1189
  56   0.0000       0.065231         1.7750
  57   0.0000       0.079093         2.1522
  58   0.0000       0.113404         3.0859
  59   0.0000       0.136762         3.7215

MULLIKEN ATOMIC CHARGES
-----------------------
   0 N :   -0.622758
   1 H :    0.363355
   2 C :   -0.209801
   3 H :    0.287931
   4 C :   -0.450216
   5 H :    0.245864
   6 H :    0.242109
   7 C :   -0.551080
   8 H :    0.248868
   9 H :    0.278915
  10 S :    0.003677
  11 C :   -0.743684
  12 H :    0.255886
  13 H :    0.247705
  14 H :    0.241363
  15 C :    0.566896
  16 O :   -0.446496
  17 N :   -0.642950
  18 H :    0.403207
  19 C :    0.541978
  20 O :   -0.458211
  21 C :   -0.744440
  22 H :    0.260733
  23 H :    0.265149
  24 H :    0.215610
  25 C :   -0.492197
  26 H :    0.217462
  27 H :    0.222042
  28 H :    0.253083
Sum of atomic charges:   -0.0000000

LOEWDIN ATOMIC CHARGES
----------------------
   0 N :   -0.213169
   1 H :    0.259780
   2 C :   -0.100624
   3 H :    0.153371
   4 C :   -0.249988
   5 H :    0.143350
   6 H :    0.135241
   7 C :   -0.331032
   8 H :    0.129424
   9 H :    0.143333
  10 S :    0.138170
  11 C :   -0.464139
  12 H :    0.141184
  13 H :    0.131479
  14 H :    0.128455
  15 C :    0.102862
  16 O :   -0.291361
  17 N :   -0.241514
  18 H :    0.268162
  19 C :    0.114470
  20 O :   -0.298292
  21 C :   -0.384218
  22 H :    0.158305
  23 H :    0.161273
  24 H :    0.128992
  25 C :   -0.255030
  26 H :    0.119318
  27 H :    0.125952
  28 H :    0.146245

  Mayer bond orders larger than 0.100000
B(  0-N ,  1-H ) :   0.8202 B(  0-N ,  2-C ) :   0.9148 B(  0-N , 19-C ) :   1.1662
B(  2-C ,  3-H ) :   0.8625 B(  2-C ,  4-C ) :   0.9850 B(  2-C , 15-C ) :   0.8674
B(  4-C ,  5-H ) :   0.8980 B(  4-C ,  6-H ) :   0.9060 B(  4-C ,  7-C ) :   0.9805
B(  7-C ,  8-H ) :   0.8929 B(  7-C ,  9-H ) :   0.8631 B(  7-C , 10-S ) :   1.0094
B( 10-S , 11-C ) :   1.0206 B( 11-C , 12-H ) :   0.9102 B( 11-C , 13-H ) :   0.8961
B( 11-C , 14-H ) :   0.8982 B( 15-C , 16-O ) :   1.9435 B( 15-C , 17-N ) :   1.1853
B( 16-O , 17-N ) :   0.1017 B( 17-N , 18-H ) :   0.7471 B( 17-N , 25-C ) :   0.9611
B( 19-C , 20-O ) :   1.8963 B( 19-C , 21-C ) :   0.9322 B( 21-C , 22-H ) :   0.9078
B( 21-C , 23-H ) :   0.9060 B( 21-C , 24-H ) :   0.9216 B( 25-C , 26-H ) :   0.9191
B( 25-C , 27-H ) :   0.9244 B( 25-C , 28-H ) :   0.9075

Dispersion correction           -0.017391062
FINAL SINGLE POINT ENERGY      -970.988915614538

DIPOLE MOMENT
-------------
                                X             Y             Z
Electronic contribution:      0.70384      -2.03404      -1.89874
Nuclear contribution   :     -0.31989       1.56109       2.50962
                        -----------------------------------------
Total Dipole Moment    :      0.38395      -0.47295       0.61088
                        -----------------------------------------
Magnitude (a.u.)       :      0.86272
Magnitude (Debye)      :      2.19285

Rotational constants in cm-1:     0.030123     0.013562     0.011427
Rotational constants in MHz :   903.067755   406.591946   342.560887

                             ****ORCA TERMINATED NORMALLY****
TOTAL RUN TIME: 0 days 0 hours 3 minutes 16 seconds 956 msec
