                         Program Version 5.0.3 -  RELEASE  -
|  1> ! PBEh-3c def2/J TightSCF DefGrid3
|  2>
|  3> %maxcore 60000
|  4>
|  5> %pal
|  6> nprocs 4
|  7> end
|  8>
|  9> *xyzfile 0 1 28.xyz
| 10>
| 11>                          ****END OF INPUT****

CARTESIAN COORDINATES (ANGSTROEM)
---------------------------------
  C      0.758108    1.405971   -1.802500
  H      1.453352    2.232572   -1.844721
  C      1.232498    0.106506   -1.634993
  H      2.295996   -0.072815   -1.554575
  C      0.335862   -0.959106   -1.564004
  H      0.706092   -1.967980   -1.438128
  C     -1.035471   -0.725744   -1.659109
  H     -1.732870   -1.550537   -1.601822
  C     -1.511170    0.573930   -1.824691
  H     -2.575172    0.754948   -1.886400
  C     -0.613417    1.638215   -1.898497
  H     -0.981883    2.646868   -2.030105
  N     -0.342542    0.841034    1.456396
  H     -0.715849    1.742795    1.193503
  C      1.049605    0.768047    1.588409
  O      1.740515    1.762471    1.443575
  C      1.528505   -0.566031    1.906520
  H      2.585557   -0.718247    2.040641
  C      0.648796   -1.580412    2.032736
  H      0.954723   -2.588832    2.269261
  N     -0.696450   -1.395380    1.862644
  H     -1.345198   -2.157939    1.961513
  C     -1.270898   -0.170579    1.563229
  O     -2.468687   -0.019756    1.421117

 Total Charge           Charge          ....    0
 Multiplicity           Mult            ....    1
 Number of Electrons    NEL             ....  100
 Basis Dimension        Dim             ....  230

ORBITAL ENERGIES
----------------

  NO   OCC          E(Eh)            E(eV)
   0   2.0000     -19.475585      -529.9576
   1   2.0000     -19.469020      -529.7790
   2   2.0000     -14.710891      -400.3037
   3   2.0000     -14.687734      -399.6736
   4   2.0000     -10.601710      -288.4872
   5   2.0000     -10.566324      -287.5243
   6   2.0000     -10.531752      -286.5835
   7   2.0000     -10.460899      -284.6555
   8   2.0000     -10.450350      -284.3685
   9   2.0000     -10.448556      -284.3197
  10   2.0000     -10.447845      -284.3003
  11   2.0000     -10.447535      -284.2919
  12   2.0000     -10.447281      -284.2850
  13   2.0000     -10.446552      -284.2651
  14   2.0000      -1.188836       -32.3499
  15   2.0000      -1.150262       -31.3002
  16   2.0000      -1.086148       -29.5556
  17   2.0000      -1.026422       -27.9304
  18   2.0000      -0.952130       -25.9088
  19   2.0000      -0.892523       -24.2868
  20   2.0000      -0.835594       -22.7377
  21   2.0000      -0.834783       -22.7156
  22   2.0000      -0.772435       -21.0190
  23   2.0000      -0.742729       -20.2107
  24   2.0000      -0.678659       -18.4672
  25   2.0000      -0.678048       -18.4506
  26   2.0000      -0.671063       -18.2605
  27   2.0000      -0.629176       -17.1207
  28   2.0000      -0.591314       -16.0905
  29   2.0000      -0.586327       -15.9548
  30   2.0000      -0.546007       -14.8576
  31   2.0000      -0.537779       -14.6337
  32   2.0000      -0.524788       -14.2802
  33   2.0000      -0.515729       -14.0337
  34   2.0000      -0.507888       -13.8203
  35   2.0000      -0.484627       -13.1874
  36   2.0000      -0.481515       -13.1027
  37   2.0000      -0.480452       -13.0738
  38   2.0000      -0.478830       -13.0296
  39   2.0000      -0.461955       -12.5704
  40   2.0000      -0.425765       -11.5856
  41   2.0000      -0.416558       -11.3351
  42   2.0000      -0.397592       -10.8190
  43   2.0000      -0.397176       -10.8077
  44   2.0000      -0.354110        -9.6358
  45   2.0000      -0.332627        -9.0513
  46   2.0000      -0.321599        -8.7511
  47   2.0000      -0.296418        -8.0659
  48   2.0000      -0.290555        -7.9064
  49   2.0000      -0.290409        -7.9024
  50   0.0000      -0.016223        -0.4415
  51   0.0000       0.017905         0.4872
  52   0.0000       0.019280         0.5246
  53   0.0000       0.047417         1.2903
  54   0.0000       0.101062         2.7500

MULLIKEN ATOMIC CHARGES
-----------------------
   0 C :   -0.209514
   1 H :    0.231600
   2 C :   -0.228692
   3 H :    0.226153
   4 C :   -0.225605
   5 H :    0.212805
   6 C :   -0.235238
   7 H :    0.221150
   8 C :   -0.211817
   9 H :    0.229326
  10 C :   -0.243041
  11 H :    0.223817
  12 N :   -0.713261
  13 H :    0.397942
  14 C :    0.578637
  15 O :   -0.400816
  16 C :   -0.445293
  17 H :    0.260030
  18 C :    0.081827
  19 H :    0.268073
  20 N :   -0.677928
  21 H :    0.387790
  22 C :    0.694020
  23 O :   -0.421964
Sum of atomic charges:   -0.0000000

LOEWDIN ATOMIC CHARGES
----------------------
   0 C :   -0.128064
   1 H :    0.141715
   2 C :   -0.136093
   3 H :    0.138086
   4 C :   -0.142133
   5 H :    0.132170
   6 C :   -0.141964
   7 H :    0.135383
   8 C :   -0.130819
   9 H :    0.140474
  10 C :   -0.145590
  11 H :    0.136286
  12 N :   -0.191870
  13 H :    0.286232
  14 C :    0.125720
  15 O :   -0.247278
  16 C :   -0.238800
  17 H :    0.160758
  18 C :   -0.016059
  19 H :    0.147327
  20 N :   -0.185855
  21 H :    0.279420
  22 C :    0.147396
  23 O :   -0.266443

  Mayer bond orders larger than 0.100000
B(  0-C ,  1-H ) :   0.9158 B(  0-C ,  2-C ) :   1.4323 B(  0-C , 10-C ) :   1.4196
B(  2-C ,  3-H ) :   0.9174 B(  2-C ,  4-C ) :   1.4224 B(  4-C ,  5-H ) :   0.9221
B(  4-C ,  6-C ) :   1.4228 B(  6-C ,  7-H ) :   0.9193 B(  6-C ,  8-C ) :   1.4304
B(  8-C ,  9-H ) :   0.9167 B(  8-C , 10-C ) :   1.4217 B( 10-C , 11-H ) :   0.9189
B( 12-N , 13-H ) :   0.7972 B( 12-N , 14-C ) :   0.9830 B( 12-N , 22-C ) :   1.0695
B( 14-C , 15-O ) :   2.0268 B( 14-C , 16-C ) :   1.0589 B( 16-C , 17-H ) :   0.9088
B( 16-C , 18-C ) :   1.6457 B( 18-C , 19-H ) :   0.9009 B( 18-C , 20-N ) :   1.0774
B( 20-N , 21-H ) :   0.8118 B( 20-N , 22-C ) :   1.0170 B( 22-C , 23-O ) :   2.0353

Dispersion correction           -0.017203149
FINAL SINGLE POINT ENERGY      -645.672782922298

DIPOLE MOMENT
-------------
                                X             Y             Z
Electronic contribution:     -1.05728       1.14803       5.40635
Nuclear contribution   :      1.18642      -2.75738      -5.12132
                        -----------------------------------------
Total Dipole Moment    :      0.12914      -1.60935       0.28503
                        -----------------------------------------
Magnitude (a.u.)       :      1.63949
Magnitude (Debye)      :      4.16724

Rotational constants in cm-1:     0.031913     0.022457     0.018727
Rotational constants in MHz :   956.738774   673.232950   561.418246

                             ****ORCA TERMINATED NORMALLY****
TOTAL RUN TIME: 0 days 0 hours 3 minutes 9 seconds 730 msec
