                         Program Version 5.0.3 -  RELEASE  -
|  1> ! PBEh-3c def2/J TightSCF DefGrid3
|  2>
|  3> %maxcore 60000
|  4>
|  5> %pal
|  6> nprocs 4
|  7> end
|  8>
|  9> *xyzfile 0 1 17.xyz
| 10>
| 11>                          ****END OF INPUT****

CARTESIAN COORDINATES (ANGSTROEM)
---------------------------------
  N      0.873758   -2.118284    0.000000
  P      0.000000    0.418134    0.000000
  H      0.209450   -2.880727    0.000000
  F     -0.864586    1.813387    0.000000
  H      1.463126   -2.221816    0.815071
  H     -0.735368   -0.220068    1.031927
  H      1.463126   -2.221816   -0.815071
  H     -0.735368   -0.220068   -1.031927

 Total Charge           Charge          ....    0
 Multiplicity           Mult            ....    1
 Number of Electrons    NEL             ....   36
 Basis Dimension        Dim             ....   58

ORBITAL ENERGIES
----------------

  NO   OCC          E(Eh)            E(eV)
   0   2.0000     -77.763393     -2116.0495
   1   2.0000     -25.039482      -681.3589
   2   2.0000     -14.639945      -398.3731
   3   2.0000      -6.829531      -185.8410
   4   2.0000      -4.921612      -133.9239
   5   2.0000      -4.919301      -133.8610
   6   2.0000      -4.917636      -133.8157
   7   2.0000      -1.260810       -34.3084
   8   2.0000      -0.974206       -26.5095
   9   2.0000      -0.685340       -18.6490
  10   2.0000      -0.551628       -15.0106
  11   2.0000      -0.550938       -14.9918
  12   2.0000      -0.504011       -13.7148
  13   2.0000      -0.486409       -13.2359
  14   2.0000      -0.461874       -12.5682
  15   2.0000      -0.380497       -10.3538
  16   2.0000      -0.350835        -9.5467
  17   2.0000      -0.279810        -7.6140
  18   0.0000       0.078429         2.1342
  19   0.0000       0.098739         2.6868
  20   0.0000       0.120584         3.2812
  21   0.0000       0.195735         5.3262
  22   0.0000       0.199548         5.4300

MULLIKEN ATOMIC CHARGES
-----------------------
   0 N :   -0.954127
   1 P :    0.338077
   2 H :    0.341239
   3 F :   -0.486927
   4 H :    0.345061
   5 H :    0.035808
   6 H :    0.345061
   7 H :    0.035808
Sum of atomic charges:   -0.0000000

LOEWDIN ATOMIC CHARGES
----------------------
   0 N :   -0.600717
   1 P :    0.285479
   2 H :    0.230041
   3 F :   -0.385078
   4 H :    0.233024
   5 H :    0.002114
   6 H :    0.233024
   7 H :    0.002114

  Mayer bond orders larger than 0.100000
B(  0-N ,  1-P ) :   0.1291 B(  0-N ,  2-H ) :   0.8620 B(  0-N ,  4-H ) :   0.8614
B(  0-N ,  6-H ) :   0.8614 B(  1-P ,  3-F ) :   0.8096 B(  1-P ,  5-H ) :   0.9501
B(  1-P ,  7-H ) :   0.9501

Dispersion correction           -0.002238495
FINAL SINGLE POINT ENERGY      -498.244440963602

DIPOLE MOMENT
-------------
                                X             Y             Z
Electronic contribution:     -1.90651       7.92625       0.00000
Nuclear contribution   :      2.47245      -9.76267       0.00000
                        -----------------------------------------
Total Dipole Moment    :      0.56594      -1.83642       0.00000
                        -----------------------------------------
Magnitude (a.u.)       :      1.92164
Magnitude (Debye)      :      4.88443

Rotational constants in cm-1:     2.430054     0.094713     0.094695
Rotational constants in MHz : 72851.176677  2839.432997  2838.874078

                             ****ORCA TERMINATED NORMALLY****
TOTAL RUN TIME: 0 days 0 hours 0 minutes 35 seconds 887 msec
