                         Program Version 5.0.3 -  RELEASE  -
|  1> ! PBEh-3c def2/J TightSCF DefGrid3
|  2>
|  3> %maxcore 60000
|  4>
|  5> %pal
|  6> nprocs 4
|  7> end
|  8>
|  9> *xyzfile -1 1 2h.xyz
| 10>
| 11>                          ****END OF INPUT****

CARTESIAN COORDINATES (ANGSTROEM)
---------------------------------
  H     -0.637688    5.379018    1.694885
  O     -0.395624    4.743736    1.002023
  C     -1.476014    4.688996    0.051872
  H     -1.688804    5.686887   -0.350996
  H     -2.386506    4.292287    0.521157
  C     -1.080818    3.761994   -1.080588
  H     -1.943797    3.628910   -1.738732
  O     -0.003962    4.364418   -1.870142
  C      1.143975    3.522348   -1.858016
  H      1.247638    2.975872   -2.798891
  N      2.340886    4.366308   -1.750566
  C      2.452532    5.235587   -0.689483
  H      1.604519    5.224356   -0.008669
  C      3.518893    6.053403   -0.519446
  H      3.572776    6.726061    0.326160
  C      4.592751    6.045156   -1.483692
  O      5.618076    6.735370   -1.453605
  N      4.379495    5.158443   -2.550251
  H      5.095959    5.130460   -3.271231
  C      3.309812    4.311087   -2.755812
  O      3.223768    3.582799   -3.742316
  C     -0.565748    2.391948   -0.623729
  H     -0.927758    2.114885    0.367773
  C      0.959301    2.551247   -0.674464
  H      1.303762    3.017416    0.250964
  O      1.672011    1.337735   -0.832477
  H      1.159144    0.815149   -1.479252
  O     -0.903385    1.367777   -1.587676
  P     -2.260231    0.474974   -1.258231
  O     -2.438836   -0.396673   -2.463561
  O     -3.338995    1.374773   -0.738254
  O     -1.791554   -0.420501    0.031403
  C     -0.746304   -1.388919   -0.172501
  H      0.157867   -0.901667   -0.554170
  H     -1.081096   -2.135736   -0.901808
  C     -0.404509   -2.041494    1.144662
  H     -0.075058   -1.291463    1.873349
  O     -1.569986   -2.727607    1.683857
  C     -1.183400   -3.929482    2.325456
  H     -1.514104   -3.933858    3.365484
  N     -1.866165   -5.077676    1.653334
  C     -2.481148   -4.961531    0.435012
  H     -2.456104   -3.966566    0.009768
  C     -3.092997   -6.006079   -0.177922
  H     -3.574787   -5.879680   -1.138170
  C     -3.117564   -7.299452    0.455980
  O     -3.637206   -8.331224    0.012658
  N     -2.475688   -7.324710    1.704396
  H     -2.465335   -8.213933    2.197935
  C     -1.845896   -6.282819    2.349721
  O     -1.303100   -6.398145    3.448312
  C      0.653825   -3.137672    1.009432
  H      0.530127   -3.688433    0.070685
  C      0.341518   -4.041752    2.218812
  H      0.669206   -5.076583    2.079150
  O      0.914319   -3.475955    3.395536
  H      1.726744   -3.020122    3.092231
  O      1.955098   -2.556708    1.094758
  H      2.586165   -3.152959    0.657887

 Total Charge           Charge          ....   -1
 Multiplicity           Mult            ....    1
 Number of Electrons    NEL             ....  286
 Basis Dimension        Dim             ....  602

ORBITAL ENERGIES
----------------

  NO   OCC          E(Eh)            E(eV)
   0   2.0000     -77.713997     -2114.7054
   1   2.0000     -19.464890      -529.6666
   2   2.0000     -19.451159      -529.2929
   3   2.0000     -19.437699      -528.9267
   4   2.0000     -19.432919      -528.7966
   5   2.0000     -19.426331      -528.6173
   6   2.0000     -19.417094      -528.3660
   7   2.0000     -19.409629      -528.1629
   8   2.0000     -19.404428      -528.0213
   9   2.0000     -19.402376      -527.9655
  10   2.0000     -19.398943      -527.8721
  11   2.0000     -19.393448      -527.7226
  12   2.0000     -19.384836      -527.4882
  13   2.0000     -19.273432      -524.4567
  14   2.0000     -19.269388      -524.3467
  15   2.0000     -14.650395      -398.6575
  16   2.0000     -14.635406      -398.2497
  17   2.0000     -14.633823      -398.2066
  18   2.0000     -14.622863      -397.9083
  19   2.0000     -10.541191      -286.8404
  20   2.0000     -10.529062      -286.5104
  21   2.0000     -10.503558      -285.8163
  22   2.0000     -10.497405      -285.6489
  23   2.0000     -10.482972      -285.2562
  24   2.0000     -10.455948      -284.5208
  25   2.0000     -10.454126      -284.4712
  26   2.0000     -10.451005      -284.3863
  27   2.0000     -10.447053      -284.2788
  28   2.0000     -10.442235      -284.1477
  29   2.0000     -10.429579      -283.8033
  30   2.0000     -10.417051      -283.4624
  31   2.0000     -10.414374      -283.3895
  32   2.0000     -10.411493      -283.3111
  33   2.0000     -10.407126      -283.1923
  34   2.0000     -10.401243      -283.0322
  35   2.0000     -10.390260      -282.7334
  36   2.0000     -10.384938      -282.5885
  37   2.0000      -6.758503      -183.9082
  38   2.0000      -4.853680      -132.0753
  39   2.0000      -4.852212      -132.0354
  40   2.0000      -4.850019      -131.9757
  41   2.0000      -1.129804       -30.7435
  42   2.0000      -1.113186       -30.2913
  43   2.0000      -1.112102       -30.2618
  44   2.0000      -1.091750       -29.7080
  45   2.0000      -1.084173       -29.5018
  46   2.0000      -1.078643       -29.3514
  47   2.0000      -1.071461       -29.1559
  48   2.0000      -1.061986       -28.8981
  49   2.0000      -1.059509       -28.8307
  50   2.0000      -1.050264       -28.5791
  51   2.0000      -1.037182       -28.2232
  52   2.0000      -1.015960       -27.6457
  53   2.0000      -1.004749       -27.3406
  54   2.0000      -0.998594       -27.1731
  55   2.0000      -0.966639       -26.3036
  56   2.0000      -0.954988       -25.9865
  57   2.0000      -0.903681       -24.5904
  58   2.0000      -0.861589       -23.4450
  59   2.0000      -0.830976       -22.6120
  60   2.0000      -0.819907       -22.3108
  61   2.0000      -0.810073       -22.0432
  62   2.0000      -0.783066       -21.3083
  63   2.0000      -0.780483       -21.2380
  64   2.0000      -0.763458       -20.7748
  65   2.0000      -0.707947       -19.2642
  66   2.0000      -0.697367       -18.9763
  67   2.0000      -0.696176       -18.9439
  68   2.0000      -0.693639       -18.8749
  69   2.0000      -0.659308       -17.9407
  70   2.0000      -0.645719       -17.5709
  71   2.0000      -0.627915       -17.0864
  72   2.0000      -0.608040       -16.5456
  73   2.0000      -0.601624       -16.3710
  74   2.0000      -0.582645       -15.8546
  75   2.0000      -0.577634       -15.7182
  76   2.0000      -0.562396       -15.3036
  77   2.0000      -0.558942       -15.2096
  78   2.0000      -0.551676       -15.0119
  79   2.0000      -0.544878       -14.8269
  80   2.0000      -0.530546       -14.4369
  81   2.0000      -0.521178       -14.1820
  82   2.0000      -0.518441       -14.1075
  83   2.0000      -0.517055       -14.0698
  84   2.0000      -0.505545       -13.7566
  85   2.0000      -0.496401       -13.5078
  86   2.0000      -0.490835       -13.3563
  87   2.0000      -0.488755       -13.2997
  88   2.0000      -0.474105       -12.9011
  89   2.0000      -0.470022       -12.7899
  90   2.0000      -0.469265       -12.7693
  91   2.0000      -0.457528       -12.4500
  92   2.0000      -0.453763       -12.3475
  93   2.0000      -0.450493       -12.2585
  94   2.0000      -0.444801       -12.1036
  95   2.0000      -0.439936       -11.9713
  96   2.0000      -0.439156       -11.9501
  97   2.0000      -0.431242       -11.7347
  98   2.0000      -0.425405       -11.5759
  99   2.0000      -0.420908       -11.4535
 100   2.0000      -0.409960       -11.1556
 101   2.0000      -0.409039       -11.1305
 102   2.0000      -0.407881       -11.0990
 103   2.0000      -0.406333       -11.0569
 104   2.0000      -0.401007       -10.9120
 105   2.0000      -0.397625       -10.8199
 106   2.0000      -0.395313       -10.7570
 107   2.0000      -0.391627       -10.6567
 108   2.0000      -0.382226       -10.4009
 109   2.0000      -0.378481       -10.2990
 110   2.0000      -0.373552       -10.1649
 111   2.0000      -0.370035       -10.0692
 112   2.0000      -0.355870        -9.6837
 113   2.0000      -0.345884        -9.4120
 114   2.0000      -0.344614        -9.3774
 115   2.0000      -0.341433        -9.2909
 116   2.0000      -0.337099        -9.1729
 117   2.0000      -0.334979        -9.1152
 118   2.0000      -0.328960        -8.9515
 119   2.0000      -0.318974        -8.6797
 120   2.0000      -0.303633        -8.2623
 121   2.0000      -0.297217        -8.0877
 122   2.0000      -0.292429        -7.9574
 123   2.0000      -0.289241        -7.8706
 124   2.0000      -0.282498        -7.6872
 125   2.0000      -0.275132        -7.4867
 126   2.0000      -0.274484        -7.4691
 127   2.0000      -0.272118        -7.4047
 128   2.0000      -0.267635        -7.2827
 129   2.0000      -0.265360        -7.2208
 130   2.0000      -0.262474        -7.1423
 131   2.0000      -0.255582        -6.9547
 132   2.0000      -0.253305        -6.8928
 133   2.0000      -0.247419        -6.7326
 134   2.0000      -0.240537        -6.5454
 135   2.0000      -0.239165        -6.5080
 136   2.0000      -0.233679        -6.3587
 137   2.0000      -0.218647        -5.9497
 138   2.0000      -0.207615        -5.6495
 139   2.0000      -0.200357        -5.4520
 140   2.0000      -0.185872        -5.0578
 141   2.0000      -0.165875        -4.5137
 142   2.0000      -0.152278        -4.1437
 143   0.0000       0.050171         1.3652
 144   0.0000       0.056887         1.5480
 145   0.0000       0.101865         2.7719
 146   0.0000       0.114830         3.1247
 147   0.0000       0.145439         3.9576

MULLIKEN ATOMIC CHARGES
-----------------------
   0 H :    0.421351
   1 O :   -0.646023
   2 C :   -0.193964
   3 H :    0.198160
   4 H :    0.231969
   5 C :    0.011473
   6 H :    0.280393
   7 O :   -0.496188
   8 C :    0.186763
   9 H :    0.276805
  10 N :   -0.568274
  11 C :    0.094721
  12 H :    0.315912
  13 C :   -0.489875
  14 H :    0.241617
  15 C :    0.563238
  16 O :   -0.432409
  17 N :   -0.736225
  18 H :    0.387797
  19 C :    0.727372
  20 O :   -0.440891
  21 C :   -0.049293
  22 H :    0.265474
  23 C :   -0.017553
  24 H :    0.245356
  25 O :   -0.637642
  26 H :    0.436605
  27 O :   -0.647688
  28 P :    1.380858
  29 O :   -0.733655
  30 O :   -0.739341
  31 O :   -0.600924
  32 C :   -0.138512
  33 H :    0.199874
  34 H :    0.198467
  35 C :    0.022422
  36 H :    0.246835
  37 O :   -0.478807
  38 C :    0.211346
  39 H :    0.281031
  40 N :   -0.576814
  41 C :    0.069094
  42 H :    0.331908
  43 C :   -0.474175
  44 H :    0.266321
  45 C :    0.558178
  46 O :   -0.427241
  47 N :   -0.732426
  48 H :    0.389214
  49 C :    0.714928
  50 O :   -0.445359
  51 C :   -0.064380
  52 H :    0.218979
  53 C :   -0.025742
  54 H :    0.227098
  55 O :   -0.634921
  56 H :    0.425911
  57 O :   -0.625348
  58 H :    0.426197
Sum of atomic charges:   -1.0000000

LOEWDIN ATOMIC CHARGES
----------------------
   0 H :    0.311238
   1 O :   -0.423037
   2 C :   -0.100329
   3 H :    0.108904
   4 H :    0.127640
   5 C :   -0.013794
   6 H :    0.153096
   7 O :   -0.255587
   8 C :    0.064278
   9 H :    0.147680
  10 N :   -0.083650
  11 C :    0.005508
  12 H :    0.165169
  13 C :   -0.259111
  14 H :    0.154194
  15 C :    0.127180
  16 O :   -0.283922
  17 N :   -0.202452
  18 H :    0.282006
  19 C :    0.167517
  20 O :   -0.281393
  21 C :   -0.028525
  22 H :    0.139983
  23 C :   -0.042025
  24 H :    0.132874
  25 O :   -0.388303
  26 H :    0.315727
  27 O :   -0.359230
  28 P :    0.809482
  29 O :   -0.606747
  30 O :   -0.609195
  31 O :   -0.351709
  32 C :   -0.088105
  33 H :    0.116040
  34 H :    0.115778
  35 C :   -0.009356
  36 H :    0.136673
  37 O :   -0.221436
  38 C :    0.086970
  39 H :    0.146915
  40 N :   -0.095338
  41 C :   -0.002080
  42 H :    0.173029
  43 C :   -0.251998
  44 H :    0.164765
  45 C :    0.125714
  46 O :   -0.280010
  47 N :   -0.200172
  48 H :    0.282910
  49 C :    0.156339
  50 O :   -0.283879
  51 C :   -0.042798
  52 H :    0.118979
  53 C :   -0.042620
  54 H :    0.115856
  55 O :   -0.394658
  56 H :    0.313031
  57 O :   -0.384650
  58 H :    0.320633

  Mayer bond orders larger than 0.100000
B(  0-H ,  1-O ) :   0.7901 B(  1-O ,  2-C ) :   0.9635 B(  2-C ,  3-H ) :   0.9065
B(  2-C ,  4-H ) :   0.8881 B(  2-C ,  5-C ) :   0.9479 B(  5-C ,  6-H ) :   0.8812
B(  5-C ,  7-O ) :   0.9143 B(  5-C , 21-C ) :   0.9272 B(  7-O ,  8-C ) :   0.9969
B(  8-C ,  9-H ) :   0.8639 B(  8-C , 10-N ) :   0.8823 B(  8-C , 23-C ) :   0.8928
B( 10-N , 11-C ) :   1.0806 B( 10-N , 19-C ) :   1.0223 B( 11-C , 12-H ) :   0.8337
B( 11-C , 13-C ) :   1.5929 B( 13-C , 14-H ) :   0.9214 B( 13-C , 15-C ) :   1.0784
B( 15-C , 16-O ) :   1.9973 B( 15-C , 17-N ) :   0.9914 B( 17-N , 18-H ) :   0.8049
B( 17-N , 19-C ) :   1.0542 B( 19-C , 20-O ) :   1.9757 B( 21-C , 22-H ) :   0.8808
B( 21-C , 23-C ) :   0.9340 B( 21-C , 27-O ) :   0.9022 B( 23-C , 24-H ) :   0.8921
B( 23-C , 25-O ) :   1.0551 B( 25-O , 26-H ) :   0.7389 B( 27-O , 28-P ) :   0.8174
B( 28-P , 29-O ) :   1.7454 B( 28-P , 30-O ) :   1.7174 B( 28-P , 31-O ) :   0.8615
B( 31-O , 32-C ) :   0.9661 B( 32-C , 33-H ) :   0.8767 B( 32-C , 34-H ) :   0.8856
B( 32-C , 35-C ) :   0.9798 B( 35-C , 36-H ) :   0.8778 B( 35-C , 37-O ) :   0.9033
B( 35-C , 51-C ) :   0.9138 B( 37-O , 38-C ) :   1.0283 B( 38-C , 39-H ) :   0.8768
B( 38-C , 40-N ) :   0.8264 B( 38-C , 53-C ) :   0.9214 B( 40-N , 41-C ) :   1.0926
B( 40-N , 49-C ) :   1.0331 B( 41-C , 42-H ) :   0.8544 B( 41-C , 43-C ) :   1.5908
B( 43-C , 44-H ) :   0.9100 B( 43-C , 45-C ) :   1.0795 B( 45-C , 46-O ) :   2.0012
B( 45-C , 47-N ) :   0.9804 B( 47-N , 48-H ) :   0.8037 B( 47-N , 49-C ) :   1.0690
B( 49-C , 50-O ) :   1.9569 B( 51-C , 52-H ) :   0.8841 B( 51-C , 53-C ) :   0.9329
B( 51-C , 57-O ) :   0.9981 B( 53-C , 54-H ) :   0.9011 B( 53-C , 55-O ) :   1.0151
B( 55-O , 56-H ) :   0.7478 B( 57-O , 58-H ) :   0.7836

Dispersion correction           -0.045359648
FINAL SINGLE POINT ENERGY     -2308.299589689180

DIPOLE MOMENT
-------------
                                X             Y             Z
Electronic contribution:     -2.28646      -4.74801      -5.63473
Nuclear contribution   :      4.88707       4.53742       8.02638
                        -----------------------------------------
Total Dipole Moment    :      2.60062      -0.21059       2.39165
                        -----------------------------------------
Magnitude (a.u.)       :      3.53943
Magnitude (Debye)      :      8.99651

Rotational constants in cm-1:     0.006810     0.001224     0.001146
Rotational constants in MHz :   204.147263    36.704367    34.360518

                             ****ORCA TERMINATED NORMALLY****
TOTAL RUN TIME: 0 days 0 hours 13 minutes 51 seconds 621 msec
