                         Program Version 5.0.3 -  RELEASE  -
|  1> ! PBEh-3c def2/J TightSCF DefGrid3
|  2>
|  3> %maxcore 60000
|  4>
|  5> %pal
|  6> nprocs 4
|  7> end
|  8>
|  9> *xyzfile 0 1 kf.xyz
| 10>
| 11>                          ****END OF INPUT****

CARTESIAN COORDINATES (ANGSTROEM)
---------------------------------
  K      0.000000    0.000000   -1.088871
  F      0.000000    0.000000    1.088871

 Total Charge           Charge          ....    0
 Multiplicity           Mult            ....    1
 Number of Electrons    NEL             ....   28
 Basis Dimension        Dim             ....   39

ORBITAL ENERGIES
----------------

  NO   OCC          E(Eh)            E(eV)
   0   2.0000    -130.660652     -3555.4571
   1   2.0000     -24.838839      -675.8992
   2   2.0000     -13.541232      -368.4757
   3   2.0000     -10.800080      -293.8851
   4   2.0000     -10.800080      -293.8851
   5   2.0000     -10.799382      -293.8661
   6   2.0000      -1.473577       -40.0981
   7   2.0000      -1.025412       -27.9029
   8   2.0000      -0.799552       -21.7569
   9   2.0000      -0.799552       -21.7569
  10   2.0000      -0.782456       -21.2917
  11   2.0000      -0.255237        -6.9454
  12   2.0000      -0.253883        -6.9085
  13   2.0000      -0.253882        -6.9085
  14   0.0000      -0.028854        -0.7852
  15   0.0000       0.040218         1.0944
  16   0.0000       0.043437         1.1820
  17   0.0000       0.043437         1.1820
  18   0.0000       0.081665         2.2222

MULLIKEN ATOMIC CHARGES
-----------------------
   0 K :    0.661490
   1 F :   -0.661490
Sum of atomic charges:   -0.0000000

LOEWDIN ATOMIC CHARGES
----------------------
   0 K :    0.547777
   1 F :   -0.547777

  Mayer bond orders larger than 0.100000
B(  0-K ,  1-F ) :   0.6336

Dispersion correction           -0.000126068
FINAL SINGLE POINT ENERGY      -699.129571025199

DIPOLE MOMENT
-------------
                                X             Y             Z
Electronic contribution:      0.00000       0.00000      -2.55338
Nuclear contribution   :      0.00000       0.00000      -0.64190
                        -----------------------------------------
Total Dipole Moment    :      0.00000       0.00000      -3.19528
                        -----------------------------------------
Magnitude (a.u.)       :      3.19528
Magnitude (Debye)      :      8.12176

Rotational constants in cm-1:     0.000000     0.278010     0.278010
Rotational constants in MHz :     0.000000  8334.533402  8334.533402

                             ****ORCA TERMINATED NORMALLY****
TOTAL RUN TIME: 0 days 0 hours 0 minutes 19 seconds 336 msec
