                         Program Version 5.0.3 -  RELEASE  -
|  1> ! PBEh-3c def2/J TightSCF DefGrid3
|  2>
|  3> %maxcore 60000
|  4>
|  5> %pal
|  6> nprocs 4
|  7> end
|  8>
|  9> *xyzfile 0 1 18.xyz
| 10>
| 11>                          ****END OF INPUT****

CARTESIAN COORDINATES (ANGSTROEM)
---------------------------------
  Si     0.000000    0.000000    0.000000
  H      0.857122   -0.857122    0.857122
  H     -0.857122    0.857122    0.857122
  H     -0.857122   -0.857122   -0.857122
  H      0.857122    0.857122   -0.857122

 Total Charge           Charge          ....    0
 Multiplicity           Mult            ....    1
 Number of Electrons    NEL             ....   18
 Basis Dimension        Dim             ....   26

ORBITAL ENERGIES
----------------

  NO   OCC          E(Eh)            E(eV)
   0   2.0000     -66.728447     -1815.7733
   1   2.0000      -5.513258      -150.0234
   2   2.0000      -3.803728      -103.5047
   3   2.0000      -3.803728      -103.5047
   4   2.0000      -3.803728      -103.5047
   5   2.0000      -0.611630       -16.6433
   6   2.0000      -0.401070       -10.9137
   7   2.0000      -0.401070       -10.9137
   8   2.0000      -0.401070       -10.9137
   9   0.0000       0.083564         2.2739
  10   0.0000       0.083564         2.2739
  11   0.0000       0.083564         2.2739
  12   0.0000       0.154128         4.1940
  13   0.0000       0.243754         6.6329

MULLIKEN ATOMIC CHARGES
-----------------------
   0 Si:    0.081276
   1 H :   -0.020319
   2 H :   -0.020319
   3 H :   -0.020319
   4 H :   -0.020319
Sum of atomic charges:   -0.0000000

LOEWDIN ATOMIC CHARGES
----------------------
   0 Si:    0.091448
   1 H :   -0.022862
   2 H :   -0.022862
   3 H :   -0.022862
   4 H :   -0.022862

  Mayer bond orders larger than 0.100000
B(  0-Si,  1-H ) :   0.9676 B(  0-Si,  2-H ) :   0.9676 B(  0-Si,  3-H ) :   0.9676
B(  0-Si,  4-H ) :   0.9676

Dispersion correction           -0.000930478
FINAL SINGLE POINT ENERGY      -291.510219630756

DIPOLE MOMENT
-------------
                                X             Y             Z
Electronic contribution:     -0.00000      -0.00000      -0.00000
Nuclear contribution   :      0.00000       0.00000       0.00000
                        -----------------------------------------
Total Dipole Moment    :     -0.00000      -0.00000      -0.00000
                        -----------------------------------------
Magnitude (a.u.)       :      0.00000
Magnitude (Debye)      :      0.00000

Rotational constants in cm-1:     2.845518     2.845518     2.845518
Rotational constants in MHz : 85306.496108 85306.496108 85306.496108

                             ****ORCA TERMINATED NORMALLY****
TOTAL RUN TIME: 0 days 0 hours 0 minutes 6 seconds 332 msec
