                         Program Version 5.0.3 -  RELEASE  -
|  1> ! PBEh-3c def2/J TightSCF DefGrid3
|  2>
|  3> %maxcore 60000
|  4>
|  5> %pal
|  6> nprocs 4
|  7> end
|  8>
|  9> *xyzfile 0 1 THR_xag.xyz
| 10>
| 11>                          ****END OF INPUT****

CARTESIAN COORDINATES (ANGSTROEM)
---------------------------------
  N     -1.054404   -0.392959    0.446960
  C     -0.056564    0.320519   -0.318715
  C      1.306657   -0.373234   -0.288585
  O      2.325562    0.220118   -0.649279
  C      0.077450    1.796500    0.103620
  O      0.843141    2.506293   -0.847615
  C      0.631727    1.952719    1.511551
  H     -0.938597   -0.400090    1.451846
  H     -0.360552    0.326012   -1.364391
  H     -0.928045    2.220567    0.066651
  H      1.661324    1.988922   -0.935837
  H      0.681287    3.010538    1.758247
  H      1.638317    1.541095    1.573487
  H     -0.000004    1.465057    2.254946
  N      1.298367   -1.649104    0.140561
  H      0.399313   -2.042343    0.366337
  C      2.492889   -2.466388    0.163798
  H      2.617570   -2.929300    1.139593
  H      2.452038   -3.243209   -0.597524
  H      3.337872   -1.816459   -0.039067
  C     -2.372832   -0.586024    0.081997
  O     -3.198804   -0.937824    0.908043
  C     -2.710424   -0.379099   -1.373360
  H     -2.067719   -0.973457   -2.020618
  H     -2.594785    0.666930   -1.654557
  H     -3.743589   -0.674223   -1.516714

 Total Charge           Charge          ....    0
 Multiplicity           Mult            ....    1
 Number of Electrons    NEL             ....   94
 Basis Dimension        Dim             ....  208

ORBITAL ENERGIES
----------------

  NO   OCC          E(Eh)            E(eV)
   0   2.0000     -19.482013      -530.1325
   1   2.0000     -19.475130      -529.9452
   2   2.0000     -19.472512      -529.8740
   3   2.0000     -14.683420      -399.5562
   4   2.0000     -14.680195      -399.4684
   5   2.0000     -10.568765      -287.5907
   6   2.0000     -10.566255      -287.5224
   7   2.0000     -10.506167      -285.8873
   8   2.0000     -10.501052      -285.7482
   9   2.0000     -10.481464      -285.2151
  10   2.0000     -10.453647      -284.4582
  11   2.0000     -10.431228      -283.8482
  12   2.0000      -1.168915       -31.8078
  13   2.0000      -1.157995       -31.5106
  14   2.0000      -1.120232       -30.4831
  15   2.0000      -1.056148       -28.7392
  16   2.0000      -1.031859       -28.0783
  17   2.0000      -0.874645       -23.8003
  18   2.0000      -0.842086       -22.9143
  19   2.0000      -0.827531       -22.5183
  20   2.0000      -0.787483       -21.4285
  21   2.0000      -0.695774       -18.9330
  22   2.0000      -0.677498       -18.4356
  23   2.0000      -0.665862       -18.1190
  24   2.0000      -0.620167       -16.8756
  25   2.0000      -0.584886       -15.9156
  26   2.0000      -0.573680       -15.6106
  27   2.0000      -0.540925       -14.7193
  28   2.0000      -0.537919       -14.6375
  29   2.0000      -0.524941       -14.2844
  30   2.0000      -0.520683       -14.1685
  31   2.0000      -0.512857       -13.9555
  32   2.0000      -0.492394       -13.3987
  33   2.0000      -0.478283       -13.0148
  34   2.0000      -0.470759       -12.8100
  35   2.0000      -0.468196       -12.7403
  36   2.0000      -0.463852       -12.6221
  37   2.0000      -0.448677       -12.2091
  38   2.0000      -0.438812       -11.9407
  39   2.0000      -0.428721       -11.6661
  40   2.0000      -0.420703       -11.4479
  41   2.0000      -0.397120       -10.8062
  42   2.0000      -0.353197        -9.6110
  43   2.0000      -0.333348        -9.0709
  44   2.0000      -0.325296        -8.8517
  45   2.0000      -0.318933        -8.6786
  46   2.0000      -0.300692        -8.1823
  47   0.0000       0.036832         1.0022
  48   0.0000       0.042522         1.1571
  49   0.0000       0.110790         3.0147
  50   0.0000       0.129524         3.5245
  51   0.0000       0.140931         3.8349

MULLIKEN ATOMIC CHARGES
-----------------------
   0 N :   -0.656464
   1 C :   -0.243706
   2 C :    0.565611
   3 O :   -0.463629
   4 C :    0.052073
   5 O :   -0.639052
   6 C :   -0.679169
   7 H :    0.367818
   8 H :    0.295720
   9 H :    0.218245
  10 H :    0.442069
  11 H :    0.253650
  12 H :    0.234675
  13 H :    0.192298
  14 N :   -0.631092
  15 H :    0.380476
  16 C :   -0.497599
  17 H :    0.227915
  18 H :    0.228807
  19 H :    0.269152
  20 C :    0.497787
  21 O :   -0.399360
  22 C :   -0.792446
  23 H :    0.241242
  24 H :    0.253356
  25 H :    0.281624
Sum of atomic charges:   -0.0000000

LOEWDIN ATOMIC CHARGES
----------------------
   0 N :   -0.247961
   1 C :   -0.119537
   2 C :    0.111841
   3 O :   -0.296028
   4 C :   -0.026245
   5 O :   -0.403354
   6 C :   -0.380531
   7 H :    0.260399
   8 H :    0.162987
   9 H :    0.119800
  10 H :    0.313574
  11 H :    0.145813
  12 H :    0.136847
  13 H :    0.119343
  14 N :   -0.229869
  15 H :    0.262616
  16 C :   -0.256024
  17 H :    0.127833
  18 H :    0.126818
  19 H :    0.155660
  20 C :    0.110887
  21 O :   -0.255043
  22 C :   -0.399075
  23 H :    0.145854
  24 H :    0.152542
  25 H :    0.160852

  Mayer bond orders larger than 0.100000
B(  0-N ,  1-C ) :   0.9134 B(  0-N ,  7-H ) :   0.8103 B(  0-N , 20-C ) :   1.1080
B(  1-C ,  2-C ) :   0.9124 B(  1-C ,  4-C ) :   0.9247 B(  1-C ,  8-H ) :   0.8657
B(  2-C ,  3-O ) :   1.8709 B(  2-C , 14-N ) :   1.1965 B(  3-O , 14-N ) :   0.1023
B(  4-C ,  5-O ) :   1.0549 B(  4-C ,  6-C ) :   0.9676 B(  4-C ,  9-H ) :   0.9041
B(  5-O , 10-H ) :   0.7159 B(  6-C , 11-H ) :   0.9207 B(  6-C , 12-H ) :   0.9108
B(  6-C , 13-H ) :   0.9168 B( 14-N , 15-H ) :   0.7905 B( 14-N , 16-C ) :   0.9429
B( 16-C , 17-H ) :   0.9203 B( 16-C , 18-H ) :   0.9182 B( 16-C , 19-H ) :   0.8979
B( 20-C , 21-O ) :   2.0580 B( 20-C , 22-C ) :   0.9334 B( 22-C , 23-H ) :   0.9063
B( 22-C , 24-H ) :   0.9010 B( 22-C , 25-H ) :   0.9102

Dispersion correction           -0.015188867
FINAL SINGLE POINT ENERGY      -609.079291426300

DIPOLE MOMENT
-------------
                                X             Y             Z
Electronic contribution:     -1.86197      -0.16378      -0.59062
Nuclear contribution   :      2.20937      -0.96789       0.60936
                        -----------------------------------------
Total Dipole Moment    :      0.34740      -1.13167       0.01874
                        -----------------------------------------
Magnitude (a.u.)       :      1.18394
Magnitude (Debye)      :      3.00934

Rotational constants in cm-1:     0.034707     0.023121     0.017057
Rotational constants in MHz :  1040.477636   693.137991   511.360827

                             ****ORCA TERMINATED NORMALLY****
TOTAL RUN TIME: 0 days 0 hours 2 minutes 57 seconds 941 msec
