                         Program Version 5.0.3 -  RELEASE  -
|  1> ! PBEh-3c def2/J TightSCF DefGrid3
|  2>
|  3> %maxcore 60000
|  4>
|  5> %pal
|  6> nprocs 4
|  7> end
|  8>
|  9> *xyzfile 0 1 9.xyz
| 10>
| 11>                          ****END OF INPUT****

CARTESIAN COORDINATES (ANGSTROEM)
---------------------------------
  C     -0.567498    3.992046    0.687218
  C     -0.567498    3.992046   -0.687218
  C      0.836071    3.862184   -1.155590
  C      0.836071    3.862184    1.155590
  C      1.663358    3.652311    0.000000
  C      0.841179    2.989269    2.243996
  C     -1.379466    3.078186    1.417178
  C     -0.571312    2.656971    2.539419
  C     -2.204135    2.111284    0.732089
  C     -1.379466    3.078186   -1.417178
  C     -2.204135    2.111284   -0.732089
  C      0.841179    2.989269   -2.243996
  C     -0.571312    2.656971   -2.539419
  C      1.816792    1.909349   -2.303664
  C      2.537193    2.531617    0.000000
  C      2.614991    1.679756   -1.157519
  C      1.816792    1.909349    2.303664
  C      2.614991    1.679756    1.157519
  C      1.485580    0.758125    3.089343
  C     -0.865718    1.495729    3.210795
  C      0.214657    0.681345    3.709877
  C     -2.486434    0.856675    1.449104
  C     -1.886919    0.603167    2.712777
  C     -2.879925   -0.301740    0.704029
  C     -2.486434    0.856675   -1.449104
  C     -2.879925   -0.301740   -0.704029
  C     -0.865718    1.495729   -3.210795
  C     -1.886919    0.603167   -2.712777
  C      1.485580    0.758125   -3.089343
  C      0.214657    0.681345   -3.709877
  C      1.886919   -0.603167   -2.712777
  C      2.879925    0.301740   -0.704029
  C      2.879925    0.301740    0.704029
  C      2.486434   -0.856675   -1.449104
  C      1.886919   -0.603167    2.712777
  C      2.486434   -0.856675    1.449104
  C     -0.214657   -0.681345    3.709877
  C     -1.485580   -0.758125    3.089343
  C      0.865718   -1.495729    3.210795
  C     -2.614991   -1.679756    1.157519
  C     -1.816792   -1.909349    2.303664
  C     -2.614991   -1.679756   -1.157519
  C     -2.537193   -2.531617    0.000000
  C     -1.485580   -0.758125   -3.089343
  C     -0.214657   -0.681345   -3.709877
  C      0.865718   -1.495729   -3.210795
  C     -1.816792   -1.909349   -2.303664
  C      0.571312   -2.656971   -2.539419
  C     -0.841179   -2.989269   -2.243996
  C      2.204135   -2.111284   -0.732089
  C      2.204135   -2.111284    0.732089
  C      1.379466   -3.078186   -1.417178
  C      0.571312   -2.656971    2.539419
  C     -0.841179   -2.989269    2.243996
  C      1.379466   -3.078186    1.417178
  C     -1.663358   -3.652311    0.000000
  C     -0.836071   -3.862184   -1.155590
  C      0.567498   -3.992046   -0.687218
  C     -0.836071   -3.862184    1.155590
  C      0.567498   -3.992046    0.687218

 Total Charge           Charge          ....    0
 Multiplicity           Mult            ....    1
 Number of Electrons    NEL             ....  360
 Basis Dimension        Dim             ....  900

ORBITAL ENERGIES
----------------

  NO   OCC          E(Eh)            E(eV)
   0   2.0000     -10.529200      -286.5141
   1   2.0000     -10.529200      -286.5141
   2   2.0000     -10.528893      -286.5057
   3   2.0000     -10.528889      -286.5056
   4   2.0000     -10.528756      -286.5020
   5   2.0000     -10.528750      -286.5019
   6   2.0000     -10.528747      -286.5018
   7   2.0000     -10.528740      -286.5016
   8   2.0000     -10.528331      -286.4904
   9   2.0000     -10.528330      -286.4904
  10   2.0000     -10.528302      -286.4897
  11   2.0000     -10.528301      -286.4896
  12   2.0000     -10.527387      -286.4648
  13   2.0000     -10.527385      -286.4647
  14   2.0000     -10.527381      -286.4646
  15   2.0000     -10.527379      -286.4645
  16   2.0000     -10.522040      -286.3193
  17   2.0000     -10.522039      -286.3192
  18   2.0000     -10.521988      -286.3179
  19   2.0000     -10.521987      -286.3178
  20   2.0000     -10.521113      -286.2940
  21   2.0000     -10.521104      -286.2938
  22   2.0000     -10.521103      -286.2938
  23   2.0000     -10.521096      -286.2936
  24   2.0000     -10.520508      -286.2776
  25   2.0000     -10.520508      -286.2776
  26   2.0000     -10.520072      -286.2657
  27   2.0000     -10.520067      -286.2656
  28   2.0000     -10.520057      -286.2653
  29   2.0000     -10.520056      -286.2653
  30   2.0000     -10.515012      -286.1280
  31   2.0000     -10.515011      -286.1280
  32   2.0000     -10.514462      -286.1130
  33   2.0000     -10.514460      -286.1130
  34   2.0000     -10.513759      -286.0939
  35   2.0000     -10.513750      -286.0937
  36   2.0000     -10.513744      -286.0935
  37   2.0000     -10.513735      -286.0933
  38   2.0000     -10.512664      -286.0641
  39   2.0000     -10.512663      -286.0641
  40   2.0000     -10.512590      -286.0621
  41   2.0000     -10.512589      -286.0621
  42   2.0000     -10.511854      -286.0421
  43   2.0000     -10.511852      -286.0420
  44   2.0000     -10.511800      -286.0406
  45   2.0000     -10.511800      -286.0406
  46   2.0000     -10.511545      -286.0337
  47   2.0000     -10.511534      -286.0334
  48   2.0000     -10.511096      -286.0215
  49   2.0000     -10.511086      -286.0212
  50   2.0000     -10.510399      -286.0025
  51   2.0000     -10.510389      -286.0022
  52   2.0000     -10.510352      -286.0012
  53   2.0000     -10.510341      -286.0009
  54   2.0000     -10.508543      -285.9520
  55   2.0000     -10.508543      -285.9520
  56   2.0000     -10.507837      -285.9328
  57   2.0000     -10.507836      -285.9327
  58   2.0000     -10.502728      -285.7938
  59   2.0000     -10.502728      -285.7938
  60   2.0000      -1.101405       -29.9707
  61   2.0000      -1.087232       -29.5851
  62   2.0000      -1.086124       -29.5549
  63   2.0000      -1.063516       -28.9397
  64   2.0000      -1.062634       -28.9157
  65   2.0000      -1.039917       -28.2976
  66   2.0000      -1.037682       -28.2368
  67   2.0000      -1.017995       -27.7010
  68   2.0000      -1.010692       -27.5023
  69   2.0000      -1.010208       -27.4892
  70   2.0000      -0.994020       -27.0487
  71   2.0000      -0.974985       -26.5307
  72   2.0000      -0.959347       -26.1051
  73   2.0000      -0.959248       -26.1025
  74   2.0000      -0.955404       -25.9979
  75   2.0000      -0.946373       -25.7521
  76   2.0000      -0.936952       -25.4958
  77   2.0000      -0.933778       -25.4094
  78   2.0000      -0.899645       -24.4806
  79   2.0000      -0.897084       -24.4109
  80   2.0000      -0.895810       -24.3762
  81   2.0000      -0.888154       -24.1679
  82   2.0000      -0.884935       -24.0803
  83   2.0000      -0.860987       -23.4286
  84   2.0000      -0.860423       -23.4133
  85   2.0000      -0.850387       -23.1402
  86   2.0000      -0.848573       -23.0909
  87   2.0000      -0.838315       -22.8117
  88   2.0000      -0.825839       -22.4722
  89   2.0000      -0.816981       -22.2312
  90   2.0000      -0.796114       -21.6634
  91   2.0000      -0.793242       -21.5852
  92   2.0000      -0.775136       -21.0925
  93   2.0000      -0.769287       -20.9334
  94   2.0000      -0.763858       -20.7856
  95   2.0000      -0.754974       -20.5439
  96   2.0000      -0.747895       -20.3513
  97   2.0000      -0.741696       -20.1826
  98   2.0000      -0.736108       -20.0305
  99   2.0000      -0.726999       -19.7827
 100   2.0000      -0.712642       -19.3920
 101   2.0000      -0.702584       -19.1183
 102   2.0000      -0.690061       -18.7775
 103   2.0000      -0.677170       -18.4267
 104   2.0000      -0.676905       -18.4195
 105   2.0000      -0.675275       -18.3752
 106   2.0000      -0.662410       -18.0251
 107   2.0000      -0.660682       -17.9781
 108   2.0000      -0.643323       -17.5057
 109   2.0000      -0.638409       -17.3720
 110   2.0000      -0.634319       -17.2607
 111   2.0000      -0.627062       -17.0632
 112   2.0000      -0.617784       -16.8108
 113   2.0000      -0.616383       -16.7726
 114   2.0000      -0.591676       -16.1003
 115   2.0000      -0.589087       -16.0299
 116   2.0000      -0.577498       -15.7145
 117   2.0000      -0.576160       -15.6781
 118   2.0000      -0.575087       -15.6489
 119   2.0000      -0.569323       -15.4921
 120   2.0000      -0.566114       -15.4047
 121   2.0000      -0.564184       -15.3522
 122   2.0000      -0.561677       -15.2840
 123   2.0000      -0.546326       -14.8663
 124   2.0000      -0.544653       -14.8208
 125   2.0000      -0.543848       -14.7989
 126   2.0000      -0.543428       -14.7874
 127   2.0000      -0.542164       -14.7530
 128   2.0000      -0.542062       -14.7503
 129   2.0000      -0.533578       -14.5194
 130   2.0000      -0.529647       -14.4124
 131   2.0000      -0.528159       -14.3719
 132   2.0000      -0.525960       -14.3121
 133   2.0000      -0.515543       -14.0286
 134   2.0000      -0.515351       -14.0234
 135   2.0000      -0.504929       -13.7398
 136   2.0000      -0.503008       -13.6875
 137   2.0000      -0.499459       -13.5910
 138   2.0000      -0.491668       -13.3790
 139   2.0000      -0.491110       -13.3638
 140   2.0000      -0.490851       -13.3567
 141   2.0000      -0.489260       -13.3135
 142   2.0000      -0.488613       -13.2958
 143   2.0000      -0.486896       -13.2491
 144   2.0000      -0.477998       -13.0070
 145   2.0000      -0.474415       -12.9095
 146   2.0000      -0.471632       -12.8338
 147   2.0000      -0.470168       -12.7939
 148   2.0000      -0.466359       -12.6903
 149   2.0000      -0.458477       -12.4758
 150   2.0000      -0.445588       -12.1251
 151   2.0000      -0.440635       -11.9903
 152   2.0000      -0.439253       -11.9527
 153   2.0000      -0.438439       -11.9305
 154   2.0000      -0.436213       -11.8700
 155   2.0000      -0.432232       -11.7616
 156   2.0000      -0.427447       -11.6314
 157   2.0000      -0.425210       -11.5706
 158   2.0000      -0.421051       -11.4574
 159   2.0000      -0.416940       -11.3455
 160   2.0000      -0.414510       -11.2794
 161   2.0000      -0.412017       -11.2116
 162   2.0000      -0.403702       -10.9853
 163   2.0000      -0.399859       -10.8807
 164   2.0000      -0.394366       -10.7313
 165   2.0000      -0.385061       -10.4780
 166   2.0000      -0.364796        -9.9266
 167   2.0000      -0.362743        -9.8707
 168   2.0000      -0.335795        -9.1375
 169   2.0000      -0.331892        -9.0312
 170   2.0000      -0.331265        -9.0142
 171   2.0000      -0.318813        -8.6754
 172   2.0000      -0.315732        -8.5915
 173   2.0000      -0.289573        -7.8797
 174   2.0000      -0.285223        -7.7613
 175   2.0000      -0.278220        -7.5707
 176   2.0000      -0.274185        -7.4609
 177   2.0000      -0.271877        -7.3981
 178   2.0000      -0.263593        -7.1727
 179   2.0000      -0.246269        -6.7013
 180   0.0000      -0.167859        -4.5677
 181   0.0000      -0.148413        -4.0385
 182   0.0000      -0.121964        -3.3188
 183   0.0000      -0.097916        -2.6644
 184   0.0000      -0.078855        -2.1457

MULLIKEN ATOMIC CHARGES
-----------------------
   0 C :   -0.014414
   1 C :   -0.014416
   2 C :   -0.013122
   3 C :   -0.013123
   4 C :    0.006227
   5 C :   -0.006973
   6 C :    0.006643
   7 C :   -0.017052
   8 C :    0.006341
   9 C :    0.006636
  10 C :    0.006336
  11 C :   -0.006976
  12 C :   -0.017050
  13 C :    0.033914
  14 C :    0.004154
  15 C :   -0.012368
  16 C :    0.033917
  17 C :   -0.012367
  18 C :    0.008109
  19 C :   -0.015242
  20 C :   -0.009554
  21 C :    0.036229
  22 C :   -0.003351
  23 C :   -0.004327
  24 C :    0.036228
  25 C :   -0.004333
  26 C :   -0.015249
  27 C :   -0.003355
  28 C :    0.008108
  29 C :   -0.009559
  30 C :   -0.003357
  31 C :   -0.004332
  32 C :   -0.004328
  33 C :    0.036228
  34 C :   -0.003353
  35 C :    0.036222
  36 C :   -0.009553
  37 C :    0.008107
  38 C :   -0.015245
  39 C :   -0.012369
  40 C :    0.033914
  41 C :   -0.012369
  42 C :    0.004153
  43 C :    0.008106
  44 C :   -0.009557
  45 C :   -0.015245
  46 C :    0.033914
  47 C :   -0.017057
  48 C :   -0.006974
  49 C :    0.006338
  50 C :    0.006340
  51 C :    0.006638
  52 C :   -0.017056
  53 C :   -0.006965
  54 C :    0.006634
  55 C :    0.006225
  56 C :   -0.013124
  57 C :   -0.014411
  58 C :   -0.013123
  59 C :   -0.014410
Sum of atomic charges:   -0.0000000

LOEWDIN ATOMIC CHARGES
----------------------
   0 C :    0.004889
   1 C :    0.004887
   2 C :    0.003785
   3 C :    0.003786
   4 C :    0.007335
   5 C :    0.004681
   6 C :   -0.011077
   7 C :    0.001723
   8 C :   -0.004728
   9 C :   -0.011078
  10 C :   -0.004729
  11 C :    0.004679
  12 C :    0.001721
  13 C :   -0.007243
  14 C :   -0.047861
  15 C :    0.022058
  16 C :   -0.007242
  17 C :    0.022058
  18 C :    0.026061
  19 C :   -0.012918
  20 C :   -0.000516
  21 C :    0.005976
  22 C :   -0.004196
  23 C :   -0.008222
  24 C :    0.005976
  25 C :   -0.008224
  26 C :   -0.012920
  27 C :   -0.004199
  28 C :    0.026059
  29 C :   -0.000521
  30 C :   -0.004199
  31 C :   -0.008224
  32 C :   -0.008222
  33 C :    0.005976
  34 C :   -0.004196
  35 C :    0.005976
  36 C :   -0.000517
  37 C :    0.026061
  38 C :   -0.012918
  39 C :    0.022058
  40 C :   -0.007242
  41 C :    0.022058
  42 C :   -0.047861
  43 C :    0.026059
  44 C :   -0.000521
  45 C :   -0.012920
  46 C :   -0.007243
  47 C :    0.001721
  48 C :    0.004679
  49 C :   -0.004729
  50 C :   -0.004728
  51 C :   -0.011078
  52 C :    0.001723
  53 C :    0.004681
  54 C :   -0.011078
  55 C :    0.007335
  56 C :    0.003785
  57 C :    0.004887
  58 C :    0.003786
  59 C :    0.004889

  Mayer bond orders larger than 0.100000
B(  0-C ,  1-C ) :   1.3972 B(  0-C ,  3-C ) :   1.0815 B(  0-C ,  6-C ) :   1.2122
B(  1-C ,  2-C ) :   1.0815 B(  1-C ,  9-C ) :   1.2122 B(  2-C ,  4-C ) :   1.2128
B(  2-C , 11-C ) :   1.3907 B(  3-C ,  4-C ) :   1.2128 B(  3-C ,  5-C ) :   1.3907
B(  4-C , 14-C ) :   1.2657 B(  5-C ,  7-C ) :   1.1260 B(  5-C , 16-C ) :   1.1743
B(  6-C ,  7-C ) :   1.1923 B(  6-C ,  8-C ) :   1.2815 B(  7-C , 19-C ) :   1.3710
B(  8-C , 10-C ) :   1.2436 B(  8-C , 21-C ) :   1.1464 B(  9-C , 10-C ) :   1.2815
B(  9-C , 12-C ) :   1.1923 B( 10-C , 24-C ) :   1.1464 B( 11-C , 12-C ) :   1.1260
B( 11-C , 13-C ) :   1.1743 B( 12-C , 26-C ) :   1.3710 B( 13-C , 15-C ) :   1.3337
B( 13-C , 28-C ) :   1.1562 B( 14-C , 15-C ) :   1.2191 B( 14-C , 17-C ) :   1.2191
B( 15-C , 31-C ) :   1.1152 B( 16-C , 17-C ) :   1.3337 B( 16-C , 18-C ) :   1.1562
B( 17-C , 32-C ) :   1.1152 B( 18-C , 20-C ) :   1.3537 B( 18-C , 34-C ) :   1.1355
B( 19-C , 20-C ) :   1.1324 B( 19-C , 22-C ) :   1.1921 B( 20-C , 36-C ) :   1.1685
B( 21-C , 22-C ) :   1.3213 B( 21-C , 23-C ) :   1.1682 B( 22-C , 37-C ) :   1.1355
B( 23-C , 25-C ) :   1.3729 B( 23-C , 39-C ) :   1.1152 B( 24-C , 25-C ) :   1.1682
B( 24-C , 27-C ) :   1.3213 B( 25-C , 41-C ) :   1.1152 B( 26-C , 27-C ) :   1.1921
B( 26-C , 29-C ) :   1.1324 B( 27-C , 43-C ) :   1.1355 B( 28-C , 29-C ) :   1.3537
B( 28-C , 30-C ) :   1.1355 B( 29-C , 44-C ) :   1.1685 B( 30-C , 33-C ) :   1.3213
B( 30-C , 45-C ) :   1.1921 B( 31-C , 32-C ) :   1.3729 B( 31-C , 33-C ) :   1.1682
B( 32-C , 35-C ) :   1.1682 B( 33-C , 49-C ) :   1.1464 B( 34-C , 35-C ) :   1.3213
B( 34-C , 38-C ) :   1.1921 B( 35-C , 50-C ) :   1.1464 B( 36-C , 37-C ) :   1.3537
B( 36-C , 38-C ) :   1.1324 B( 37-C , 40-C ) :   1.1562 B( 38-C , 52-C ) :   1.3710
B( 39-C , 40-C ) :   1.3337 B( 39-C , 42-C ) :   1.2191 B( 40-C , 53-C ) :   1.1743
B( 41-C , 42-C ) :   1.2191 B( 41-C , 46-C ) :   1.3337 B( 42-C , 55-C ) :   1.2657
B( 43-C , 44-C ) :   1.3537 B( 43-C , 46-C ) :   1.1562 B( 44-C , 45-C ) :   1.1324
B( 45-C , 47-C ) :   1.3710 B( 46-C , 48-C ) :   1.1743 B( 47-C , 48-C ) :   1.1260
B( 47-C , 51-C ) :   1.1923 B( 48-C , 56-C ) :   1.3907 B( 49-C , 50-C ) :   1.2436
B( 49-C , 51-C ) :   1.2815 B( 50-C , 54-C ) :   1.2815 B( 51-C , 57-C ) :   1.2122
B( 52-C , 53-C ) :   1.1260 B( 52-C , 54-C ) :   1.1923 B( 53-C , 58-C ) :   1.3907
B( 54-C , 59-C ) :   1.2122 B( 55-C , 56-C ) :   1.2128 B( 55-C , 58-C ) :   1.2128
B( 56-C , 57-C ) :   1.0815 B( 57-C , 59-C ) :   1.3972 B( 58-C , 59-C ) :   1.0815

Dispersion correction           -0.097143128
FINAL SINGLE POINT ENERGY     -2280.980683847240

DIPOLE MOMENT
-------------
                                X             Y             Z
Electronic contribution:      0.00000       0.00000       0.00024
Nuclear contribution   :      0.00000      -0.00000       0.00000
                        -----------------------------------------
Total Dipole Moment    :      0.00000       0.00000       0.00024
                        -----------------------------------------
Magnitude (a.u.)       :      0.00024
Magnitude (Debye)      :      0.00060

Rotational constants in cm-1:     0.003188     0.002781     0.002367
Rotational constants in MHz :    95.584340    83.363383    70.959282

                             ****ORCA TERMINATED NORMALLY****
TOTAL RUN TIME: 0 days 0 hours 54 minutes 11 seconds 601 msec
