                         Program Version 5.0.3 -  RELEASE  -
|  1> ! PBEh-3c def2/J TightSCF DefGrid3
|  2>
|  3> %maxcore 60000
|  4>
|  5> %pal
|  6> nprocs 4
|  7> end
|  8>
|  9> *xyzfile 0 1 TRP_xaf.xyz
| 10>
| 11>                          ****END OF INPUT****

CARTESIAN COORDINATES (ANGSTROEM)
---------------------------------
  N     -1.121061    0.670592    0.141971
  C     -1.530248   -0.689593   -0.158868
  C     -2.876417   -1.063489    0.452671
  O     -3.226912   -2.235485    0.530181
  C     -0.453436   -1.715545    0.236468
  H     -0.741362    0.821321    1.065652
  H     -1.651682   -0.716424   -1.243593
  H     -0.397976   -1.776137    1.326352
  H     -0.774214   -2.694793   -0.113463
  C     -0.535129    1.441266   -0.847594
  O     -0.655674    1.187616   -2.035154
  N     -3.625128   -0.016483    0.874342
  H     -3.258552    0.901357    0.685986
  C     -4.971250   -0.191822    1.371207
  H     -5.104664   -1.248396    1.582043
  H     -5.119097    0.380636    2.284089
  H     -5.713536    0.114854    0.634995
  C      0.246443    2.626123   -0.338771
  H      1.294070    2.334235   -0.250636
  H     -0.096943    2.962880    0.637192
  H      0.169249    3.434570   -1.059414
  C      0.863351   -1.310373   -0.331043
  C      1.310334   -1.523062   -1.617716
  C      1.810117   -0.433226    0.279388
  H      0.865832   -2.101890   -2.410723
  C      2.806000   -0.135414   -0.692226
  C      1.915156    0.145162    1.556620
  H      2.979464   -0.794391   -2.696063
  C      2.968255    1.007077    1.818993
  H      1.194698   -0.089346    2.331686
  N      2.476223   -0.827366   -1.827062
  C      3.869526    0.731424   -0.429392
  C      3.931556    1.303695    0.833215
  H      4.616607    0.954635   -1.180145
  H      4.740021    1.982235    1.068690
  H      3.060487    1.458315    2.797740

 Total Charge           Charge          ....    0
 Multiplicity           Mult            ....    1
 Number of Electrons    NEL             ....  138
 Basis Dimension        Dim             ....  319

ORBITAL ENERGIES
----------------

  NO   OCC          E(Eh)            E(eV)
   0   2.0000     -19.461131      -529.5643
   1   2.0000     -19.451043      -529.2898
   2   2.0000     -14.689292      -399.7159
   3   2.0000     -14.664787      -399.0491
   4   2.0000     -14.657617      -398.8540
   5   2.0000     -10.551449      -287.1195
   6   2.0000     -10.540244      -286.8146
   7   2.0000     -10.485203      -285.3169
   8   2.0000     -10.484106      -285.2870
   9   2.0000     -10.480263      -285.1825
  10   2.0000     -10.463626      -284.7297
  11   2.0000     -10.455681      -284.5135
  12   2.0000     -10.453120      -284.4439
  13   2.0000     -10.449778      -284.3529
  14   2.0000     -10.448966      -284.3308
  15   2.0000     -10.446530      -284.2645
  16   2.0000     -10.445413      -284.2341
  17   2.0000     -10.441477      -284.1270
  18   2.0000     -10.436685      -283.9966
  19   2.0000      -1.146551       -31.1992
  20   2.0000      -1.136028       -30.9129
  21   2.0000      -1.093814       -29.7642
  22   2.0000      -1.035282       -28.1714
  23   2.0000      -1.012084       -27.5402
  24   2.0000      -0.945301       -25.7229
  25   2.0000      -0.903413       -24.5831
  26   2.0000      -0.862485       -23.4694
  27   2.0000      -0.832788       -22.6613
  28   2.0000      -0.820935       -22.3388
  29   2.0000      -0.806654       -21.9502
  30   2.0000      -0.790332       -21.5060
  31   2.0000      -0.730282       -19.8720
  32   2.0000      -0.706823       -19.2336
  33   2.0000      -0.674847       -18.3635
  34   2.0000      -0.657031       -17.8787
  35   2.0000      -0.648296       -17.6410
  36   2.0000      -0.636649       -17.3241
  37   2.0000      -0.616585       -16.7781
  38   2.0000      -0.596438       -16.2299
  39   2.0000      -0.559181       -15.2161
  40   2.0000      -0.551957       -15.0195
  41   2.0000      -0.544530       -14.8174
  42   2.0000      -0.540982       -14.7209
  43   2.0000      -0.518162       -14.0999
  44   2.0000      -0.515163       -14.0183
  45   2.0000      -0.508046       -13.8246
  46   2.0000      -0.499599       -13.5948
  47   2.0000      -0.498283       -13.5590
  48   2.0000      -0.483598       -13.1594
  49   2.0000      -0.478302       -13.0153
  50   2.0000      -0.476162       -12.9570
  51   2.0000      -0.468656       -12.7528
  52   2.0000      -0.460412       -12.5284
  53   2.0000      -0.452048       -12.3009
  54   2.0000      -0.443619       -12.0715
  55   2.0000      -0.434961       -11.8359
  56   2.0000      -0.430025       -11.7016
  57   2.0000      -0.416264       -11.3271
  58   2.0000      -0.410441       -11.1687
  59   2.0000      -0.399872       -10.8811
  60   2.0000      -0.393397       -10.7049
  61   2.0000      -0.389082       -10.5875
  62   2.0000      -0.329364        -8.9624
  63   2.0000      -0.325920        -8.8687
  64   2.0000      -0.312062        -8.4916
  65   2.0000      -0.300762        -8.1841
  66   2.0000      -0.293597        -7.9892
  67   2.0000      -0.268372        -7.3028
  68   2.0000      -0.241560        -6.5732
  69   0.0000      -0.001643        -0.0447
  70   0.0000       0.039900         1.0857
  71   0.0000       0.055057         1.4982
  72   0.0000       0.064039         1.7426
  73   0.0000       0.087555         2.3825

MULLIKEN ATOMIC CHARGES
-----------------------
   0 N :   -0.654315
   1 C :   -0.206711
   2 C :    0.558466
   3 O :   -0.438046
   4 C :   -0.544932
   5 H :    0.358577
   6 H :    0.302057
   7 H :    0.229994
   8 H :    0.274166
   9 C :    0.526087
  10 O :   -0.410006
  11 N :   -0.641767
  12 H :    0.372505
  13 C :   -0.494071
  14 H :    0.264548
  15 H :    0.215922
  16 H :    0.221711
  17 C :   -0.765308
  18 H :    0.285305
  19 H :    0.213899
  20 H :    0.259266
  21 C :    0.032146
  22 C :   -0.025630
  23 C :    0.017862
  24 H :    0.245816
  25 C :    0.382304
  26 C :   -0.347213
  27 H :    0.362583
  28 C :   -0.232597
  29 H :    0.200708
  30 N :   -0.690938
  31 C :   -0.276229
  32 C :   -0.247513
  33 H :    0.217490
  34 H :    0.218523
  35 H :    0.215342
Sum of atomic charges:    0.0000000

LOEWDIN ATOMIC CHARGES
----------------------
   0 N :   -0.251065
   1 C :   -0.096432
   2 C :    0.103794
   3 O :   -0.284274
   4 C :   -0.218779
   5 H :    0.252190
   6 H :    0.169144
   7 H :    0.133794
   8 H :    0.158435
   9 C :    0.117211
  10 O :   -0.260354
  11 N :   -0.246959
  12 H :    0.257910
  13 C :   -0.257581
  14 H :    0.153280
  15 H :    0.121589
  16 H :    0.121959
  17 C :   -0.390481
  18 H :    0.170018
  19 H :    0.130883
  20 H :    0.153384
  21 C :   -0.109010
  22 C :   -0.060428
  23 C :   -0.066185
  24 H :    0.140101
  25 C :    0.015404
  26 C :   -0.150300
  27 H :    0.264779
  28 C :   -0.159066
  29 H :    0.130265
  30 N :   -0.143568
  31 C :   -0.158603
  32 C :   -0.149488
  33 H :    0.137895
  34 H :    0.136134
  35 H :    0.134405

  Mayer bond orders larger than 0.100000
B(  0-N ,  1-C ) :   0.9160 B(  0-N ,  5-H ) :   0.8172 B(  0-N ,  9-C ) :   1.0857
B(  1-C ,  2-C ) :   0.9179 B(  1-C ,  4-C ) :   0.9397 B(  1-C ,  6-H ) :   0.8568
B(  2-C ,  3-O ) :   1.9600 B(  2-C , 11-N ) :   1.1589 B(  3-O , 11-N ) :   0.1008
B(  4-C ,  7-H ) :   0.9204 B(  4-C ,  8-H ) :   0.9048 B(  4-C , 21-C ) :   0.9482
B(  9-C , 10-O ) :   2.0176 B(  9-C , 17-C ) :   0.9384 B( 11-N , 12-H ) :   0.7969
B( 11-N , 13-C ) :   0.9549 B( 13-C , 14-H ) :   0.8991 B( 13-C , 15-H ) :   0.9246
B( 13-C , 16-H ) :   0.9196 B( 17-C , 18-H ) :   0.8867 B( 17-C , 19-H ) :   0.9203
B( 17-C , 20-H ) :   0.9140 B( 21-C , 22-C ) :   1.5520 B( 21-C , 23-C ) :   1.2533
B( 22-C , 24-H ) :   0.9094 B( 22-C , 30-N ) :   1.1397 B( 23-C , 25-C ) :   1.2231
B( 23-C , 26-C ) :   1.2898 B( 25-C , 30-N ) :   1.0289 B( 25-C , 31-C ) :   1.2914
B( 26-C , 28-C ) :   1.4990 B( 26-C , 29-H ) :   0.9309 B( 27-H , 30-N ) :   0.8315
B( 28-C , 32-C ) :   1.3581 B( 28-C , 35-H ) :   0.9206 B( 31-C , 32-C ) :   1.4920
B( 31-C , 33-H ) :   0.9189 B( 32-C , 34-H ) :   0.9195

Dispersion correction           -0.026917489
FINAL SINGLE POINT ENERGY      -856.623313861667

DIPOLE MOMENT
-------------
                                X             Y             Z
Electronic contribution:      5.34589      -5.03234      -5.12102
Nuclear contribution   :     -4.65677       6.21407       5.36202
                        -----------------------------------------
Total Dipole Moment    :      0.68912       1.18172       0.24100
                        -----------------------------------------
Magnitude (a.u.)       :      1.38904
Magnitude (Debye)      :      3.53067

Rotational constants in cm-1:     0.024347     0.008050     0.007702
Rotational constants in MHz :   729.901906   241.322081   230.892552

                             ****ORCA TERMINATED NORMALLY****
TOTAL RUN TIME: 0 days 0 hours 6 minutes 18 seconds 662 msec
