                         Program Version 5.0.3 -  RELEASE  -
|  1> ! PBEh-3c def2/J TightSCF DefGrid3
|  2>
|  3> %maxcore 60000
|  4>
|  5> %pal
|  6> nprocs 4
|  7> end
|  8>
|  9> *xyzfile 0 1 NaH.xyz
| 10>
| 11>                          ****END OF INPUT****

CARTESIAN COORDINATES (ANGSTROEM)
---------------------------------
  Na     0.000000    0.000000   -0.948583
  H      0.000000    0.000000    0.948583

 Total Charge           Charge          ....    0
 Multiplicity           Mult            ....    1
 Number of Electrons    NEL             ....   12
 Basis Dimension        Dim             ....   17

ORBITAL ENERGIES
----------------

  NO   OCC          E(Eh)            E(eV)
   0   2.0000     -38.940807     -1059.6332
   1   2.0000      -2.388320       -64.9895
   2   2.0000      -1.262225       -34.3469
   3   2.0000      -1.262225       -34.3469
   4   2.0000      -1.259524       -34.2734
   5   2.0000      -0.212370        -5.7789
   6   0.0000      -0.031027        -0.8443
   7   0.0000       0.031968         0.8699
   8   0.0000       0.031968         0.8699
   9   0.0000       0.079174         2.1544
  10   0.0000       0.140517         3.8237

MULLIKEN ATOMIC CHARGES
-----------------------
   0 Na:    0.180311
   1 H :   -0.180311
Sum of atomic charges:    0.0000000

LOEWDIN ATOMIC CHARGES
----------------------
   0 Na:    0.119751
   1 H :   -0.119751

  Mayer bond orders larger than 0.100000
B(  0-Na,  1-H ) :   0.9672

Dispersion correction           -0.000114950
FINAL SINGLE POINT ENERGY      -162.576685532769

DIPOLE MOMENT
-------------
                                X             Y             Z
Electronic contribution:     -0.00000       0.00000      -4.33664
Nuclear contribution   :      0.00000       0.00000       1.77807
                        -----------------------------------------
Total Dipole Moment    :     -0.00000       0.00000      -2.55857
                        -----------------------------------------
Magnitude (a.u.)       :      2.55857
Magnitude (Debye)      :      6.50337

Rotational constants in cm-1:     0.000000     4.850222     4.850222
Rotational constants in MHz :     0.000000 145405.991028 145405.991028

                             ****ORCA TERMINATED NORMALLY****
TOTAL RUN TIME: 0 days 0 hours 1 minutes 4 seconds 548 msec
