                         Program Version 5.0.3 -  RELEASE  -
|  1> ! PBEh-3c def2/J TightSCF DefGrid3
|  2>
|  3> %maxcore 60000
|  4>
|  5> %pal
|  6> nprocs 4
|  7> end
|  8>
|  9> *xyzfile 0 1 R25.xyz
| 10>
| 11>                          ****END OF INPUT****

CARTESIAN COORDINATES (ANGSTROEM)
---------------------------------
  C      0.000000    0.000000   -0.639149
  C      0.000000    0.656279   -1.923235
  C      0.000000   -0.656279   -1.923235
  C      0.000000    0.000000    0.685507
  C      0.000000   -1.281360    1.472040
  H      0.000000    1.563722   -2.500321
  H      0.000000   -2.153783    0.819047
  H      0.000000   -1.563722   -2.500321
  H      0.876938   -1.349543    2.124685
  C      0.000000    1.281360    1.472040
  H      0.000000    2.153783    0.819047
  H     -0.876938    1.349543    2.124685
  H      0.876938    1.349543    2.124685
  H     -0.876938   -1.349543    2.124685

 Total Charge           Charge          ....    0
 Multiplicity           Mult            ....    1
 Number of Electrons    NEL             ....   44
 Basis Dimension        Dim             ....  106

ORBITAL ENERGIES
----------------

  NO   OCC          E(Eh)            E(eV)
   0   2.0000     -10.482683      -285.2483
   1   2.0000     -10.481569      -285.2180
   2   2.0000     -10.464242      -284.7465
   3   2.0000     -10.420520      -283.5568
   4   2.0000     -10.414725      -283.3991
   5   2.0000     -10.414663      -283.3974
   6   2.0000      -1.003463       -27.3056
   7   2.0000      -0.866410       -23.5762
   8   2.0000      -0.757828       -20.6215
   9   2.0000      -0.708200       -19.2711
  10   2.0000      -0.655936       -17.8489
  11   2.0000      -0.618682       -16.8352
  12   2.0000      -0.520628       -14.1670
  13   2.0000      -0.474555       -12.9133
  14   2.0000      -0.470339       -12.7986
  15   2.0000      -0.448959       -12.2168
  16   2.0000      -0.421999       -11.4832
  17   2.0000      -0.419898       -11.4260
  18   2.0000      -0.401903       -10.9363
  19   2.0000      -0.397588       -10.8189
  20   2.0000      -0.346622        -9.4321
  21   2.0000      -0.225113        -6.1256
  22   0.0000       0.016850         0.4585
  23   0.0000       0.107330         2.9206
  24   0.0000       0.155422         4.2293
  25   0.0000       0.166225         4.5232
  26   0.0000       0.174891         4.7590

MULLIKEN ATOMIC CHARGES
-----------------------
   0 C :    0.230768
   1 C :   -0.237487
   2 C :   -0.237487
   3 C :   -0.084299
   4 C :   -0.686228
   5 H :    0.217894
   6 H :    0.215729
   7 H :    0.217894
   8 H :    0.208429
   9 C :   -0.686228
  10 H :    0.215729
  11 H :    0.208429
  12 H :    0.208429
  13 H :    0.208429
Sum of atomic charges:   -0.0000000

LOEWDIN ATOMIC CHARGES
----------------------
   0 C :   -0.041107
   1 C :   -0.080106
   2 C :   -0.080106
   3 C :   -0.164079
   4 C :   -0.340977
   5 H :    0.149120
   6 H :    0.128148
   7 H :    0.149120
   8 H :    0.123204
   9 C :   -0.340977
  10 H :    0.128148
  11 H :    0.123204
  12 H :    0.123204
  13 H :    0.123204

  Mayer bond orders larger than 0.100000
B(  0-C ,  1-C ) :   0.9363 B(  0-C ,  2-C ) :   0.9363 B(  0-C ,  3-C ) :   1.7095
B(  1-C ,  2-C ) :   1.7723 B(  1-C ,  5-H ) :   0.9225 B(  2-C ,  7-H ) :   0.9225
B(  3-C ,  4-C ) :   0.9873 B(  3-C ,  9-C ) :   0.9873 B(  4-C ,  6-H ) :   0.9378
B(  4-C ,  8-H ) :   0.9220 B(  4-C , 13-H ) :   0.9220 B(  9-C , 10-H ) :   0.9378
B(  9-C , 11-H ) :   0.9220 B(  9-C , 12-H ) :   0.9220

Dispersion correction           -0.006040718
FINAL SINGLE POINT ENERGY      -232.812377256727

DIPOLE MOMENT
-------------
                                X             Y             Z
Electronic contribution:      0.00000       0.00000      -5.96385
Nuclear contribution   :      0.00000      -0.00000       5.29677
                        -----------------------------------------
Total Dipole Moment    :      0.00000       0.00000      -0.66708
                        -----------------------------------------
Magnitude (a.u.)       :      0.66708
Magnitude (Debye)      :      1.69559

Rotational constants in cm-1:     0.226238     0.090443     0.066186
Rotational constants in MHz :  6782.430449  2711.405025  1984.199768

                             ****ORCA TERMINATED NORMALLY****
TOTAL RUN TIME: 0 days 0 hours 0 minutes 50 seconds 18 msec
