                         Program Version 5.0.3 -  RELEASE  -
|  1> ! PBEh-3c def2/J TightSCF DefGrid3
|  2>
|  3> %maxcore 60000
|  4>
|  5> %pal
|  6> nprocs 4
|  7> end
|  8>
|  9> *xyzfile 0 1 i22e.xyz
| 10>
| 11>                          ****END OF INPUT****

CARTESIAN COORDINATES (ANGSTROEM)
---------------------------------
  C     -2.206097   -0.150061    0.851377
  C     -1.917422   -0.102595   -0.743135
  C     -3.225302    0.568125   -1.311819
  C     -3.748077    1.524867   -0.196035
  C     -3.526600    0.697991    1.116873
  C     -0.690540    0.815096   -1.028503
  C      0.646906    0.193358   -0.618891
  C      1.598376    1.085817    0.103485
  C      1.874628    2.368248   -0.400493
  C      2.756976    3.216952    0.270999
  C      3.351371    2.804223    1.468607
  C      3.063659    1.537540    1.988262
  C      2.196373    0.680499    1.307774
  O     -1.775236   -1.351183   -1.337468
  F     -3.022541    1.235956   -2.482445
  F     -4.183128   -0.373786   -1.531066
  F     -2.972776    2.651343   -0.152902
  F     -5.032614    1.900880   -0.371238
  F     -3.407108    1.499778    2.199556
  F     -4.608600   -0.106668    1.303042
  C     -2.289617   -1.596463    1.445893
  F     -3.213106   -2.357259    0.846493
  F     -1.174033    0.465250    1.549246
  N      0.841295   -1.026920   -0.958339
  C      2.095782   -1.752613   -0.748723
  C      1.876737   -2.862730    0.289345
  C      2.521276   -2.343315   -2.101593
  F     -1.085472   -2.204578    1.332624
  F     -2.583681   -1.527520    2.769561
  H      2.890257   -1.081502   -0.391759
  H      2.679254   -1.549476   -2.841907
  H      3.457333   -2.904132   -1.983126
  H      1.746764   -3.023578   -2.478336
  H      1.588780   -2.449316    1.262293
  H      1.080755   -3.540784   -0.041981
  H      2.802847   -3.438739    0.409618
  H      1.405858    2.696470   -1.326291
  H      2.973801    4.202734   -0.135268
  H      4.029583    3.470056    1.998287
  H      3.510966    1.218181    2.927352
  H      1.957285   -0.296056    1.718990
  H     -0.812760    1.785687   -0.549659
  H     -0.681029    0.966738   -2.113664
  H     -0.791126   -1.546520   -1.315035

 Total Charge           Charge          ....    0
 Multiplicity           Mult            ....    1
 Number of Electrons    NEL             ....  222
 Basis Dimension        Dim             ....  465

ORBITAL ENERGIES
----------------

  NO   OCC          E(Eh)            E(eV)
   0   2.0000     -25.151224      -684.3996
   1   2.0000     -25.146721      -684.2771
   2   2.0000     -25.146224      -684.2635
   3   2.0000     -25.146164      -684.2619
   4   2.0000     -25.144853      -684.2262
   5   2.0000     -25.144701      -684.2221
   6   2.0000     -25.142657      -684.1665
   7   2.0000     -25.139253      -684.0739
   8   2.0000     -25.136095      -683.9879
   9   2.0000     -25.133730      -683.9236
  10   2.0000     -19.504875      -530.7546
  11   2.0000     -14.664997      -399.0549
  12   2.0000     -10.724431      -291.8266
  13   2.0000     -10.665619      -290.2262
  14   2.0000     -10.659629      -290.0633
  15   2.0000     -10.651055      -289.8299
  16   2.0000     -10.598837      -288.4090
  17   2.0000     -10.567696      -287.5616
  18   2.0000     -10.533189      -286.6227
  19   2.0000     -10.490289      -285.4553
  20   2.0000     -10.486191      -285.3438
  21   2.0000     -10.479763      -285.1688
  22   2.0000     -10.477765      -285.1145
  23   2.0000     -10.476383      -285.0769
  24   2.0000     -10.473944      -285.0105
  25   2.0000     -10.473333      -284.9939
  26   2.0000     -10.472727      -284.9774
  27   2.0000     -10.441415      -284.1253
  28   2.0000     -10.439204      -284.0652
  29   2.0000      -1.450322       -39.4653
  30   2.0000      -1.430185       -38.9173
  31   2.0000      -1.411848       -38.4183
  32   2.0000      -1.400793       -38.1175
  33   2.0000      -1.370989       -37.3065
  34   2.0000      -1.361833       -37.0574
  35   2.0000      -1.358752       -36.9735
  36   2.0000      -1.356716       -36.9181
  37   2.0000      -1.351763       -36.7834
  38   2.0000      -1.344603       -36.5885
  39   2.0000      -1.157318       -31.4922
  40   2.0000      -1.054779       -28.7020
  41   2.0000      -0.976132       -26.5619
  42   2.0000      -0.969437       -26.3797
  43   2.0000      -0.909836       -24.7579
  44   2.0000      -0.875536       -23.8245
  45   2.0000      -0.863352       -23.4930
  46   2.0000      -0.862052       -23.4576
  47   2.0000      -0.858455       -23.3598
  48   2.0000      -0.813180       -22.1278
  49   2.0000      -0.786252       -21.3950
  50   2.0000      -0.778776       -21.1916
  51   2.0000      -0.740078       -20.1385
  52   2.0000      -0.735751       -20.0208
  53   2.0000      -0.719185       -19.5700
  54   2.0000      -0.704675       -19.1752
  55   2.0000      -0.693822       -18.8799
  56   2.0000      -0.690876       -18.7997
  57   2.0000      -0.683965       -18.6116
  58   2.0000      -0.680363       -18.5136
  59   2.0000      -0.675250       -18.3745
  60   2.0000      -0.665401       -18.1065
  61   2.0000      -0.658229       -17.9113
  62   2.0000      -0.647853       -17.6290
  63   2.0000      -0.639410       -17.3992
  64   2.0000      -0.636063       -17.3081
  65   2.0000      -0.628567       -17.1042
  66   2.0000      -0.610917       -16.6239
  67   2.0000      -0.598758       -16.2930
  68   2.0000      -0.582613       -15.8537
  69   2.0000      -0.578380       -15.7385
  70   2.0000      -0.564223       -15.3533
  71   2.0000      -0.556566       -15.1449
  72   2.0000      -0.555413       -15.1136
  73   2.0000      -0.549949       -14.9649
  74   2.0000      -0.548381       -14.9222
  75   2.0000      -0.544949       -14.8288
  76   2.0000      -0.541601       -14.7377
  77   2.0000      -0.536063       -14.5870
  78   2.0000      -0.535355       -14.5678
  79   2.0000      -0.528514       -14.3816
  80   2.0000      -0.527842       -14.3633
  81   2.0000      -0.524181       -14.2637
  82   2.0000      -0.518346       -14.1049
  83   2.0000      -0.512775       -13.9533
  84   2.0000      -0.509954       -13.8765
  85   2.0000      -0.507795       -13.8178
  86   2.0000      -0.506267       -13.7762
  87   2.0000      -0.503695       -13.7062
  88   2.0000      -0.501218       -13.6388
  89   2.0000      -0.498817       -13.5735
  90   2.0000      -0.496264       -13.5040
  91   2.0000      -0.491145       -13.3647
  92   2.0000      -0.489574       -13.3220
  93   2.0000      -0.482095       -13.1185
  94   2.0000      -0.469040       -12.7632
  95   2.0000      -0.457975       -12.4621
  96   2.0000      -0.452844       -12.3225
  97   2.0000      -0.450653       -12.2629
  98   2.0000      -0.440241       -11.9796
  99   2.0000      -0.435154       -11.8412
 100   2.0000      -0.434293       -11.8177
 101   2.0000      -0.423922       -11.5355
 102   2.0000      -0.415513       -11.3067
 103   2.0000      -0.413861       -11.2617
 104   2.0000      -0.403294       -10.9742
 105   2.0000      -0.391731       -10.6596
 106   2.0000      -0.365036        -9.9331
 107   2.0000      -0.345203        -9.3935
 108   2.0000      -0.325624        -8.8607
 109   2.0000      -0.314895        -8.5687
 110   2.0000      -0.307970        -8.3803
 111   0.0000      -0.035409        -0.9635
 112   0.0000      -0.006319        -0.1719
 113   0.0000       0.014802         0.4028
 114   0.0000       0.032181         0.8757
 115   0.0000       0.092464         2.5161

MULLIKEN ATOMIC CHARGES
-----------------------
   0 C :    0.050416
   1 C :    0.033048
   2 C :    0.721051
   3 C :    0.610011
   4 C :    0.685917
   5 C :   -0.552753
   6 C :    0.277655
   7 C :    0.039884
   8 C :   -0.261059
   9 C :   -0.207858
  10 C :   -0.221757
  11 C :   -0.214094
  12 C :   -0.250718
  13 O :   -0.639856
  14 F :   -0.318417
  15 F :   -0.307037
  16 F :   -0.321394
  17 F :   -0.302422
  18 F :   -0.304302
  19 F :   -0.306766
  20 C :    1.065030
  21 F :   -0.279870
  22 F :   -0.336795
  23 N :   -0.416208
  24 C :   -0.141336
  25 C :   -0.629542
  26 C :   -0.614581
  27 F :   -0.306130
  28 F :   -0.308497
  29 H :    0.225446
  30 H :    0.226668
  31 H :    0.215300
  32 H :    0.222473
  33 H :    0.225856
  34 H :    0.229691
  35 H :    0.218655
  36 H :    0.229584
  37 H :    0.231316
  38 H :    0.231917
  39 H :    0.231325
  40 H :    0.245567
  41 H :    0.278149
  42 H :    0.291746
  43 H :    0.454688
Sum of atomic charges:   -0.0000000

LOEWDIN ATOMIC CHARGES
----------------------
   0 C :    0.094885
   1 C :    0.030124
   2 C :    0.268030
   3 C :    0.248594
   4 C :    0.266598
   5 C :   -0.246542
   6 C :    0.055192
   7 C :   -0.070819
   8 C :   -0.120645
   9 C :   -0.127715
  10 C :   -0.122343
  11 C :   -0.128003
  12 C :   -0.114693
  13 O :   -0.369789
  14 F :   -0.145204
  15 F :   -0.136673
  16 F :   -0.146488
  17 F :   -0.123166
  18 F :   -0.127213
  19 F :   -0.137205
  20 C :    0.361118
  21 F :   -0.101739
  22 F :   -0.173730
  23 N :   -0.155823
  24 C :   -0.089070
  25 C :   -0.354549
  26 C :   -0.352468
  27 F :   -0.122478
  28 F :   -0.127162
  29 H :    0.120884
  30 H :    0.131986
  31 H :    0.130368
  32 H :    0.133174
  33 H :    0.126423
  34 H :    0.136075
  35 H :    0.131702
  36 H :    0.142337
  37 H :    0.142482
  38 H :    0.142141
  39 H :    0.142804
  40 H :    0.145217
  41 H :    0.156037
  42 H :    0.167972
  43 H :    0.319374

  Mayer bond orders larger than 0.100000
B(  0-C ,  1-C ) :   0.8031 B(  0-C ,  4-C ) :   0.8507 B(  0-C , 20-C ) :   0.8924
B(  0-C , 22-F ) :   0.8698 B(  1-C ,  2-C ) :   0.8887 B(  1-C ,  5-C ) :   0.9461
B(  1-C , 13-O ) :   1.0824 B(  2-C ,  3-C ) :   0.8908 B(  2-C , 14-F ) :   0.9438
B(  2-C , 15-F ) :   0.9849 B(  3-C ,  4-C ) :   0.8972 B(  3-C , 16-F ) :   0.9470
B(  3-C , 17-F ) :   0.9747 B(  4-C , 18-F ) :   0.9695 B(  4-C , 19-F ) :   0.9757
B(  5-C ,  6-C ) :   0.9289 B(  5-C , 41-H ) :   0.8809 B(  5-C , 42-H ) :   0.8780
B(  6-C ,  7-C ) :   0.9602 B(  6-C , 23-N ) :   1.8564 B(  7-C ,  8-C ) :   1.3727
B(  7-C , 12-C ) :   1.3838 B(  8-C ,  9-C ) :   1.4316 B(  8-C , 36-H ) :   0.9171
B(  9-C , 10-C ) :   1.4169 B(  9-C , 37-H ) :   0.9159 B( 10-C , 11-C ) :   1.4156
B( 10-C , 38-H ) :   0.9157 B( 11-C , 12-C ) :   1.4280 B( 11-C , 39-H ) :   0.9162
B( 12-C , 40-H ) :   0.9009 B( 13-O , 43-H ) :   0.6325 B( 20-C , 21-F ) :   1.0332
B( 20-C , 27-F ) :   0.9876 B( 20-C , 28-F ) :   0.9909 B( 23-N , 24-C ) :   0.9471
B( 23-N , 43-H ) :   0.1644 B( 24-C , 25-C ) :   0.9765 B( 24-C , 26-C ) :   0.9816
B( 24-C , 29-H ) :   0.8862 B( 25-C , 33-H ) :   0.9177 B( 25-C , 34-H ) :   0.9168
B( 25-C , 35-H ) :   0.9194 B( 26-C , 30-H ) :   0.9273 B( 26-C , 31-H ) :   0.9220
B( 26-C , 32-H ) :   0.9208

Dispersion correction           -0.033115813
FINAL SINGLE POINT ENERGY     -1781.632750487968

DIPOLE MOMENT
-------------
                                X             Y             Z
Electronic contribution:    -58.57241       7.55633      10.59045
Nuclear contribution   :     60.90821      -6.94589     -10.57412
                        -----------------------------------------
Total Dipole Moment    :      2.33580       0.61044       0.01633
                        -----------------------------------------
Magnitude (a.u.)       :      2.41431
Magnitude (Debye)      :      6.13668

Rotational constants in cm-1:     0.007963     0.004474     0.004026
Rotational constants in MHz :   238.716393   134.135617   120.681627

                             ****ORCA TERMINATED NORMALLY****
TOTAL RUN TIME: 0 days 0 hours 9 minutes 30 seconds 674 msec
