                         Program Version 5.0.3 -  RELEASE  -
|  1> ! PBEh-3c def2/J TightSCF DefGrid3
|  2>
|  3> %maxcore 60000
|  4>
|  5> %pal
|  6> nprocs 4
|  7> end
|  8>
|  9> *xyzfile 0 1 13r_4.xyz
| 10>
| 11>                          ****END OF INPUT****

CARTESIAN COORDINATES (ANGSTROEM)
---------------------------------
  C      0.000000    0.000000   -0.614657
  H      0.000000    0.000000   -1.674393
  N      0.000000    0.000000    0.544945
  O      0.000000    0.000000    1.744105

 Total Charge           Charge          ....    0
 Multiplicity           Mult            ....    1
 Number of Electrons    NEL             ....   22
 Basis Dimension        Dim             ....   47

ORBITAL ENERGIES
----------------

  NO   OCC          E(Eh)            E(eV)
   0   2.0000     -19.533023      -531.5206
   1   2.0000     -14.813218      -403.0882
   2   2.0000     -10.515791      -286.1492
   3   2.0000      -1.279572       -34.8189
   4   2.0000      -1.022153       -27.8142
   5   2.0000      -0.674896       -18.3648
   6   2.0000      -0.597770       -16.2661
   7   2.0000      -0.562446       -15.3049
   8   2.0000      -0.562446       -15.3049
   9   2.0000      -0.322802        -8.7839
  10   2.0000      -0.322802        -8.7839
  11   0.0000       0.047922         1.3040
  12   0.0000       0.047922         1.3040
  13   0.0000       0.117863         3.2072
  14   0.0000       0.235584         6.4106
  15   0.0000       0.367910        10.0113

MULLIKEN ATOMIC CHARGES
-----------------------
   0 C :   -0.170164
   1 H :    0.326746
   2 N :    0.218873
   3 O :   -0.375454
Sum of atomic charges:    0.0000000

LOEWDIN ATOMIC CHARGES
----------------------
   0 C :   -0.193485
   1 H :    0.187712
   2 N :    0.237338
   3 O :   -0.231565

  Mayer bond orders larger than 0.100000
B(  0-C ,  1-H ) :   0.8672 B(  0-C ,  2-N ) :   2.3590 B(  0-C ,  3-O ) :   0.4340
B(  2-N ,  3-O ) :   1.6570

Dispersion correction           -0.000803281
FINAL SINGLE POINT ENERGY      -168.205544516428

DIPOLE MOMENT
-------------
                                X             Y             Z
Electronic contribution:      0.00000      -0.00000       0.82567
Nuclear contribution   :      0.00000       0.00000      -2.13168
                        -----------------------------------------
Total Dipole Moment    :      0.00000      -0.00000      -1.30601
                        -----------------------------------------
Magnitude (a.u.)       :      1.30601
Magnitude (Debye)      :      3.31962

Rotational constants in cm-1:     0.000000     0.383913     0.383913
Rotational constants in MHz :     0.000000 11509.420555 11509.420555

                             ****ORCA TERMINATED NORMALLY****
TOTAL RUN TIME: 0 days 0 hours 1 minutes 8 seconds 515 msec
