                         Program Version 5.0.3 -  RELEASE  -
|  1> ! PBEh-3c def2/J TightSCF DefGrid3
|  2>
|  3> %maxcore 60000
|  4>
|  5> %pal
|  6> nprocs 4
|  7> end
|  8>
|  9> *xyzfile 0 1 R51.xyz
| 10>
| 11>                          ****END OF INPUT****

CARTESIAN COORDINATES (ANGSTROEM)
---------------------------------
  C     -0.733108    1.240886   -0.105827
  C      0.577700    1.271928    0.148708
  C     -1.258996   -0.117878   -0.032869
  C      1.145279   -0.094283    0.440587
  C     -0.068534   -1.032847    0.203179
  C     -2.536631   -0.481505   -0.147481
  H     -1.352366    2.099316   -0.325578
  H      1.189285    2.164075    0.163511
  H     -3.314209    0.250229   -0.321284
  H     -2.842773   -1.516065   -0.070349
  H      0.103777   -1.650890   -0.680533
  H     -0.238931   -1.711505    1.038027
  C      2.369204   -0.439166   -0.408983
  H      2.119819   -0.406714   -1.471083
  H      3.184767    0.264099   -0.232824
  H      2.735117   -1.440627   -0.177193
  H      1.446032   -0.134726    1.493424

 Total Charge           Charge          ....    0
 Multiplicity           Mult            ....    1
 Number of Electrons    NEL             ....   52
 Basis Dimension        Dim             ....  125

ORBITAL ENERGIES
----------------

  NO   OCC          E(Eh)            E(eV)
   0   2.0000     -10.449863      -284.3552
   1   2.0000     -10.449594      -284.3479
   2   2.0000     -10.444843      -284.2186
   3   2.0000     -10.439849      -284.0827
   4   2.0000     -10.436052      -283.9794
   5   2.0000     -10.427623      -283.7501
   6   2.0000     -10.422409      -283.6082
   7   2.0000      -0.954005       -25.9598
   8   2.0000      -0.853668       -23.2295
   9   2.0000      -0.814926       -22.1753
  10   2.0000      -0.763880       -20.7862
  11   2.0000      -0.693390       -18.8681
  12   2.0000      -0.623398       -16.9635
  13   2.0000      -0.589700       -16.0465
  14   2.0000      -0.551113       -14.9965
  15   2.0000      -0.519323       -14.1315
  16   2.0000      -0.482669       -13.1341
  17   2.0000      -0.472389       -12.8544
  18   2.0000      -0.457147       -12.4396
  19   2.0000      -0.436527       -11.8785
  20   2.0000      -0.409029       -11.1302
  21   2.0000      -0.396398       -10.7865
  22   2.0000      -0.387193       -10.5360
  23   2.0000      -0.373103       -10.1526
  24   2.0000      -0.352661        -9.5964
  25   2.0000      -0.254617        -6.9285
  26   0.0000       0.008988         0.2446
  27   0.0000       0.102186         2.7806
  28   0.0000       0.150341         4.0910
  29   0.0000       0.170959         4.6520
  30   0.0000       0.181435         4.9371

MULLIKEN ATOMIC CHARGES
-----------------------
   0 C :   -0.211784
   1 C :   -0.194476
   2 C :    0.162069
   3 C :   -0.268883
   4 C :   -0.489338
   5 C :   -0.579600
   6 H :    0.213722
   7 H :    0.219236
   8 H :    0.211139
   9 H :    0.211372
  10 H :    0.239253
  11 H :    0.238568
  12 C :   -0.643559
  13 H :    0.219908
  14 H :    0.217543
  15 H :    0.221306
  16 H :    0.233525
Sum of atomic charges:   -0.0000000

LOEWDIN ATOMIC CHARGES
----------------------
   0 C :   -0.136134
   1 C :   -0.122294
   2 C :   -0.048348
   3 C :   -0.149517
   4 C :   -0.219831
   5 C :   -0.294690
   6 H :    0.135741
   7 H :    0.132788
   8 H :    0.131588
   9 H :    0.130978
  10 H :    0.140684
  11 H :    0.138954
  12 C :   -0.354663
  13 H :    0.128696
  14 H :    0.126985
  15 H :    0.128164
  16 H :    0.130898

  Mayer bond orders larger than 0.100000
B(  0-C ,  1-C ) :   1.7983 B(  0-C ,  2-C ) :   1.0830 B(  0-C ,  6-H ) :   0.9264
B(  1-C ,  3-C ) :   1.0057 B(  1-C ,  5-C ) :   0.1082 B(  1-C ,  7-H ) :   0.9198
B(  2-C ,  4-C ) :   0.9679 B(  2-C ,  5-C ) :   1.7965 B(  3-C ,  4-C ) :   0.9528
B(  3-C , 12-C ) :   0.9769 B(  3-C , 16-H ) :   0.9017 B(  4-C , 10-H ) :   0.9121
B(  4-C , 11-H ) :   0.9179 B(  5-C ,  8-H ) :   0.9330 B(  5-C ,  9-H ) :   0.9348
B( 12-C , 13-H ) :   0.9266 B( 12-C , 14-H ) :   0.9285 B( 12-C , 15-H ) :   0.9274

Dispersion correction           -0.008597561
FINAL SINGLE POINT ENERGY      -272.127446957498

DIPOLE MOMENT
-------------
                                X             Y             Z
Electronic contribution:     -2.82175       2.15406       0.65632
Nuclear contribution   :      3.14326      -2.16029      -0.60560
                        -----------------------------------------
Total Dipole Moment    :      0.32151      -0.00623       0.05072
                        -----------------------------------------
Magnitude (a.u.)       :      0.32555
Magnitude (Debye)      :      0.82747

Rotational constants in cm-1:     0.192720     0.067783     0.053938
Rotational constants in MHz :  5777.607826  2032.096913  1617.006463

                             ****ORCA TERMINATED NORMALLY****
TOTAL RUN TIME: 0 days 0 hours 1 minutes 7 seconds 277 msec
