                         Program Version 5.0.3 -  RELEASE  -
|  1> ! PBEh-3c def2/J TightSCF DefGrid3
|  2>
|  3> %maxcore 60000
|  4>
|  5> %pal
|  6> nprocs 4
|  7> end
|  8>
|  9> *xyzfile 0 1 2CL.xyz
| 10>
| 11>                          ****END OF INPUT****

CARTESIAN COORDINATES (ANGSTROEM)
---------------------------------
  Cl    -3.005546    0.077900   -0.221326
  H     -1.687310    0.214576   -0.513418
  C      0.044593    0.144399   -0.634438
  Cl     0.932272   -0.040274   -2.052484
  C      0.831217   -0.046022    0.586143
  H      1.914238   -0.144898    0.498626
  H      0.558697    0.746327    1.290154
  H      0.411839   -0.952008    1.046743

 Total Charge           Charge          ....    0
 Multiplicity           Mult            ....    1
 Number of Electrons    NEL             ....   50
 Basis Dimension        Dim             ....   74

ORBITAL ENERGIES
----------------

  NO   OCC          E(Eh)            E(eV)
   0   2.0000    -102.363492     -2785.4522
   1   2.0000    -102.229016     -2781.7930
   2   2.0000     -10.576625      -287.8046
   3   2.0000     -10.484733      -285.3041
   4   2.0000      -9.831814      -267.5373
   5   2.0000      -9.697963      -263.8950
   6   2.0000      -7.518076      -204.5772
   7   2.0000      -7.513404      -204.4501
   8   2.0000      -7.509701      -204.3493
   9   2.0000      -7.384275      -200.9363
  10   2.0000      -7.378098      -200.7683
  11   2.0000      -7.378063      -200.7673
  12   2.0000      -1.027569       -27.9616
  13   2.0000      -0.880008       -23.9462
  14   2.0000      -0.855856       -23.2890
  15   2.0000      -0.672352       -18.2956
  16   2.0000      -0.556406       -15.1406
  17   2.0000      -0.528348       -14.3771
  18   2.0000      -0.520847       -14.1730
  19   2.0000      -0.473212       -12.8768
  20   2.0000      -0.444084       -12.0841
  21   2.0000      -0.419500       -11.4152
  22   2.0000      -0.319390        -8.6911
  23   2.0000      -0.318840        -8.6761
  24   2.0000      -0.302878        -8.2417
  25   0.0000      -0.101449        -2.7606
  26   0.0000       0.071311         1.9405
  27   0.0000       0.137377         3.7382
  28   0.0000       0.161190         4.3862
  29   0.0000       0.165122         4.4932

MULLIKEN ATOMIC CHARGES
-----------------------
   0 Cl:   -0.438047
   1 H :    0.335448
   2 C :   -0.058964
   3 Cl:    0.028483
   4 C :   -0.707134
   5 H :    0.256671
   6 H :    0.289623
   7 H :    0.293921
Sum of atomic charges:    0.0000000

LOEWDIN ATOMIC CHARGES
----------------------
   0 Cl:   -0.348487
   1 H :    0.196813
   2 C :   -0.156065
   3 Cl:    0.212109
   4 C :   -0.416141
   5 H :    0.138462
   6 H :    0.179938
   7 H :    0.193371

  Mayer bond orders larger than 0.100000
B(  0-Cl,  1-H ) :   0.7038 B(  1-H ,  2-C ) :   0.1533 B(  2-C ,  3-Cl) :   1.3303
B(  2-C ,  4-C ) :   1.0148 B(  4-C ,  5-H ) :   0.9013 B(  4-C ,  6-H ) :   0.8702
B(  4-C ,  7-H ) :   0.8534

Dispersion correction           -0.003109685
FINAL SINGLE POINT ENERGY      -997.730599023184

DIPOLE MOMENT
-------------
                                X             Y             Z
Electronic contribution:     -2.44219       0.08770      -5.77531
Nuclear contribution   :      4.57310      -0.20377       6.08170
                        -----------------------------------------
Total Dipole Moment    :      2.13091      -0.11607       0.30639
                        -----------------------------------------
Magnitude (a.u.)       :      2.15595
Magnitude (Debye)      :      5.47999

Rotational constants in cm-1:     0.227651     0.047068     0.039327
Rotational constants in MHz :  6824.804395  1411.061543  1178.996521

                             ****ORCA TERMINATED NORMALLY****
TOTAL RUN TIME: 0 days 0 hours 0 minutes 26 seconds 769 msec
