                         Program Version 5.0.3 -  RELEASE  -
|  1> ! PBEh-3c def2/J TightSCF DefGrid3
|  2>
|  3> %maxcore 60000
|  4>
|  5> %pal
|  6> nprocs 4
|  7> end
|  8>
|  9> *xyzfile 0 1 GLY_ab.xyz
| 10>
| 11>                          ****END OF INPUT****

CARTESIAN COORDINATES (ANGSTROEM)
---------------------------------
  H     -7.554075    0.669490    1.066228
  C     -6.737340    1.056885    0.457749
  H     -6.385053    2.001968    0.884689
  H     -7.105918    1.264579   -0.551912
  C     -5.621380    0.021602    0.427343
  O     -5.698774   -1.057233    1.004709
  N     -4.524301    0.388515   -0.299786
  H     -4.455101    1.303192   -0.727114
  C     -3.336284   -0.444714   -0.398560
  H     -3.361067   -1.125126    0.457633
  C     -3.304952   -1.264728   -1.699787
  H     -3.296183   -0.596887   -2.566104
  H     -2.413347   -1.899495   -1.740277
  H     -4.189360   -1.904131   -1.749095
  C     -2.125735    0.493166   -0.331013
  O     -2.100216    1.534817   -0.985602
  N     -1.114208    0.096355    0.481762
  H     -1.165537   -0.771145    0.998554
  C      0.135359    0.824857    0.588851
  H      0.208116    1.496459   -0.269763
  H      0.158590    1.439491    1.499614
  C      1.279019   -0.187345    0.668903
  O      1.179468   -1.180948    1.386672
  N      2.357845    0.074794   -0.105493
  H      2.413227    0.913004   -0.670759
  C      3.558472   -0.751867   -0.087362
  H      3.546900   -1.300602    0.858628
  C      3.586634   -1.747060   -1.257506
  H      3.584184   -1.209854   -2.210164
  H      4.483984   -2.372141   -1.215691
  H      2.707845   -2.395657   -1.210347
  C      4.753649    0.208506   -0.170808
  O      4.752243    1.139647   -0.971547
  N      5.781667   -0.034188    0.677962
  H      5.710269   -0.794627    1.335467
  C      6.983039    0.788083    0.664741
  H      6.736536    1.835549    0.864820
  H      7.667860    0.426428    1.433276
  H      7.478320    0.739506   -0.310328

 Total Charge           Charge          ....    0
 Multiplicity           Mult            ....    1
 Number of Electrons    NEL             ....  146
 Basis Dimension        Dim             ....  325

ORBITAL ENERGIES
----------------

  NO   OCC          E(Eh)            E(eV)
   0   2.0000     -19.476472      -529.9817
   1   2.0000     -19.474088      -529.9169
   2   2.0000     -19.466710      -529.7161
   3   2.0000     -19.450032      -529.2623
   4   2.0000     -14.685124      -399.6025
   5   2.0000     -14.679750      -399.4563
   6   2.0000     -14.674564      -399.3152
   7   2.0000     -14.654469      -398.7684
   8   2.0000     -10.565599      -287.5046
   9   2.0000     -10.564186      -287.4661
  10   2.0000     -10.555797      -287.2378
  11   2.0000     -10.544417      -286.9282
  12   2.0000     -10.507600      -285.9263
  13   2.0000     -10.494785      -285.5776
  14   2.0000     -10.491055      -285.4761
  15   2.0000     -10.485571      -285.3269
  16   2.0000     -10.447306      -284.2857
  17   2.0000     -10.438415      -284.0437
  18   2.0000     -10.433962      -283.9226
  19   2.0000      -1.164020       -31.6746
  20   2.0000      -1.156747       -31.4767
  21   2.0000      -1.149163       -31.2703
  22   2.0000      -1.132338       -30.8125
  23   2.0000      -1.039956       -28.2986
  24   2.0000      -1.038824       -28.2678
  25   2.0000      -1.031663       -28.0730
  26   2.0000      -1.016421       -27.6582
  27   2.0000      -0.885010       -24.0823
  28   2.0000      -0.868223       -23.6256
  29   2.0000      -0.823622       -22.4119
  30   2.0000      -0.808211       -21.9925
  31   2.0000      -0.804912       -21.9028
  32   2.0000      -0.743106       -20.2209
  33   2.0000      -0.721335       -19.6285
  34   2.0000      -0.682025       -18.5588
  35   2.0000      -0.670450       -18.2439
  36   2.0000      -0.667321       -18.1587
  37   2.0000      -0.650206       -17.6930
  38   2.0000      -0.630464       -17.1558
  39   2.0000      -0.598166       -16.2769
  40   2.0000      -0.560948       -15.2642
  41   2.0000      -0.553421       -15.0594
  42   2.0000      -0.550248       -14.9730
  43   2.0000      -0.540781       -14.7154
  44   2.0000      -0.534721       -14.5505
  45   2.0000      -0.528249       -14.3744
  46   2.0000      -0.522298       -14.2125
  47   2.0000      -0.514501       -14.0003
  48   2.0000      -0.511214       -13.9108
  49   2.0000      -0.497697       -13.5430
  50   2.0000      -0.495192       -13.4749
  51   2.0000      -0.482552       -13.1309
  52   2.0000      -0.477586       -12.9958
  53   2.0000      -0.467880       -12.7316
  54   2.0000      -0.467465       -12.7204
  55   2.0000      -0.464340       -12.6353
  56   2.0000      -0.452673       -12.3179
  57   2.0000      -0.451698       -12.2913
  58   2.0000      -0.442717       -12.0469
  59   2.0000      -0.433324       -11.7913
  60   2.0000      -0.431733       -11.7481
  61   2.0000      -0.422267       -11.4905
  62   2.0000      -0.420596       -11.4450
  63   2.0000      -0.417226       -11.3533
  64   2.0000      -0.398971       -10.8566
  65   2.0000      -0.339745        -9.2449
  66   2.0000      -0.333097        -9.0640
  67   2.0000      -0.323623        -8.8062
  68   2.0000      -0.322026        -8.7628
  69   2.0000      -0.313649        -8.5348
  70   2.0000      -0.307822        -8.3762
  71   2.0000      -0.301319        -8.1993
  72   2.0000      -0.293222        -7.9790
  73   0.0000       0.032164         0.8752
  74   0.0000       0.044232         1.2036
  75   0.0000       0.055624         1.5136
  76   0.0000       0.072924         1.9843
  77   0.0000       0.099961         2.7201

MULLIKEN ATOMIC CHARGES
-----------------------
   0 H :    0.264050
   1 C :   -0.760659
   2 H :    0.236849
   3 H :    0.237983
   4 C :    0.513670
   5 O :   -0.430751
   6 N :   -0.630721
   7 H :    0.375141
   8 C :   -0.181902
   9 H :    0.262202
  10 C :   -0.627791
  11 H :    0.230382
  12 H :    0.215125
  13 H :    0.247832
  14 C :    0.555866
  15 O :   -0.449480
  16 N :   -0.642056
  17 H :    0.384466
  18 C :   -0.361583
  19 H :    0.262902
  20 H :    0.256644
  21 C :    0.532803
  22 O :   -0.447628
  23 N :   -0.637243
  24 H :    0.384367
  25 C :   -0.197957
  26 H :    0.258135
  27 C :   -0.625407
  28 H :    0.238062
  29 H :    0.217688
  30 H :    0.248224
  31 C :    0.557490
  32 O :   -0.438054
  33 N :   -0.635316
  34 H :    0.365333
  35 C :   -0.487281
  36 H :    0.245377
  37 H :    0.220183
  38 H :    0.243055
Sum of atomic charges:   -0.0000000

LOEWDIN ATOMIC CHARGES
----------------------
   0 H :    0.154925
   1 C :   -0.394570
   2 H :    0.144794
   3 H :    0.145434
   4 C :    0.109553
   5 O :   -0.281393
   6 N :   -0.234373
   7 H :    0.264367
   8 C :   -0.091492
   9 H :    0.145236
  10 C :   -0.352893
  11 H :    0.137020
  12 H :    0.129948
  13 H :    0.142639
  14 C :    0.116572
  15 O :   -0.295173
  16 N :   -0.224039
  17 H :    0.270093
  18 C :   -0.164600
  19 H :    0.150627
  20 H :    0.144845
  21 C :    0.106090
  22 O :   -0.294224
  23 N :   -0.212875
  24 H :    0.271392
  25 C :   -0.092616
  26 H :    0.143089
  27 C :   -0.351182
  28 H :    0.141105
  29 H :    0.131703
  30 H :    0.143022
  31 C :    0.112178
  32 O :   -0.283930
  33 N :   -0.240475
  34 H :    0.258794
  35 C :   -0.250825
  36 H :    0.136789
  37 H :    0.129019
  38 H :    0.135428

  Mayer bond orders larger than 0.100000
B(  0-H ,  1-C ) :   0.9181 B(  1-C ,  2-H ) :   0.9127 B(  1-C ,  3-H ) :   0.9126
B(  1-C ,  4-C ) :   0.9284 B(  4-C ,  5-O ) :   1.9898 B(  4-C ,  6-N ) :   1.1368
B(  6-N ,  7-H ) :   0.7992 B(  6-N ,  8-C ) :   0.9270 B(  8-C ,  9-H ) :   0.8819
B(  8-C , 10-C ) :   0.9756 B(  8-C , 14-C ) :   0.8924 B( 10-C , 11-H ) :   0.9186
B( 10-C , 12-H ) :   0.9205 B( 10-C , 13-H ) :   0.9176 B( 14-C , 15-O ) :   1.9479
B( 14-C , 16-N ) :   1.1414 B( 16-N , 17-H ) :   0.7929 B( 16-N , 18-C ) :   0.9460
B( 18-C , 19-H ) :   0.8887 B( 18-C , 20-H ) :   0.8940 B( 18-C , 21-C ) :   0.8979
B( 21-C , 22-O ) :   1.9458 B( 21-C , 23-N ) :   1.1636 B( 23-N , 24-H ) :   0.7900
B( 23-N , 25-C ) :   0.9228 B( 25-C , 26-H ) :   0.8853 B( 25-C , 27-C ) :   0.9779
B( 25-C , 31-C ) :   0.8944 B( 27-C , 28-H ) :   0.9154 B( 27-C , 29-H ) :   0.9196
B( 27-C , 30-H ) :   0.9167 B( 31-C , 32-O ) :   1.9579 B( 31-C , 33-N ) :   1.1438
B( 33-N , 34-H ) :   0.8250 B( 33-N , 35-C ) :   0.9431 B( 35-C , 36-H ) :   0.9111
B( 35-C , 37-H ) :   0.9256 B( 35-C , 38-H ) :   0.9123

Dispersion correction           -0.022509077
FINAL SINGLE POINT ENERGY      -949.163811539185

DIPOLE MOMENT
-------------
                                X             Y             Z
Electronic contribution:     -2.38229       2.21558       3.77208
Nuclear contribution   :      4.46130      -2.12968      -3.57572
                        -----------------------------------------
Total Dipole Moment    :      2.07901       0.08591       0.19636
                        -----------------------------------------
Magnitude (a.u.)       :      2.09003
Magnitude (Debye)      :      5.31244

Rotational constants in cm-1:     0.038367     0.003426     0.003397
Rotational constants in MHz :  1150.202488   102.715939   101.838332

                             ****ORCA TERMINATED NORMALLY****
TOTAL RUN TIME: 0 days 0 hours 4 minutes 44 seconds 607 msec
