                         Program Version 5.0.3 -  RELEASE  -
|  1> ! PBEh-3c def2/J TightSCF DefGrid3
|  2>
|  3> %maxcore 60000
|  4>
|  5> %pal
|  6> nprocs 4
|  7> end
|  8>
|  9> *xyzfile 0 1 NH3.xyz
| 10>
| 11>                          ****END OF INPUT****

CARTESIAN COORDINATES (ANGSTROEM)
---------------------------------
  N      0.000000    0.000000    0.110342
  H      0.000000    0.941082   -0.257464
  H     -0.815001   -0.470541   -0.257464
  H      0.815001   -0.470541   -0.257464

 Total Charge           Charge          ....    0
 Multiplicity           Mult            ....    1
 Number of Electrons    NEL             ....   10
 Basis Dimension        Dim             ....   21

ORBITAL ENERGIES
----------------

  NO   OCC          E(Eh)            E(eV)
   0   2.0000     -14.594824      -397.1454
   1   2.0000      -0.934210       -25.4211
   2   2.0000      -0.512281       -13.9399
   3   2.0000      -0.512279       -13.9398
   4   2.0000      -0.304040        -8.2733
   5   0.0000       0.142910         3.8888
   6   0.0000       0.226996         6.1769
   7   0.0000       0.226997         6.1769
   8   0.0000       0.763761        20.7830
   9   0.0000       0.763762        20.7830

MULLIKEN ATOMIC CHARGES
-----------------------
   0 N :   -0.946756
   1 H :    0.315587
   2 H :    0.315584
   3 H :    0.315584
Sum of atomic charges:   -0.0000000

LOEWDIN ATOMIC CHARGES
----------------------
   0 N :   -0.650445
   1 H :    0.216816
   2 H :    0.216815
   3 H :    0.216815

  Mayer bond orders larger than 0.100000
B(  0-N ,  1-H ) :   0.8796 B(  0-N ,  2-H ) :   0.8796 B(  0-N ,  3-H ) :   0.8796

Dispersion correction           -0.000444483
FINAL SINGLE POINT ENERGY       -56.428112543460

DIPOLE MOMENT
-------------
                                X             Y             Z
Electronic contribution:     -0.00000       0.00001       0.11778
Nuclear contribution   :      0.00000      -0.00000      -0.85103
                        -----------------------------------------
Total Dipole Moment    :     -0.00000       0.00001      -0.73325
                        -----------------------------------------
Magnitude (a.u.)       :      0.73325
Magnitude (Debye)      :      1.86377

Rotational constants in cm-1:    10.061062    10.061061     6.294485
Rotational constants in MHz : 301623.038409 301623.015522 188703.921082

                             ****ORCA TERMINATED NORMALLY****
TOTAL RUN TIME: 0 days 0 hours 1 minutes 4 seconds 142 msec
