                         Program Version 5.0.3 -  RELEASE  -
|  1> ! PBEh-3c def2/J TightSCF DefGrid3
|  2>
|  3> %maxcore 60000
|  4>
|  5> %pal
|  6> nprocs 4
|  7> end
|  8>
|  9> *xyzfile 0 1 SI5H12_2.xyz
| 10>
| 11>                          ****END OF INPUT****

CARTESIAN COORDINATES (ANGSTROEM)
---------------------------------
  Si     0.000000    1.947355   -0.861673
  Si     0.000000    0.000000    0.447787
  Si     0.000000   -1.947355   -0.861673
  Si     0.000000   -3.879973    0.469947
  H      1.202071    1.940151   -1.739160
  H     -1.202071    1.940151   -1.739160
  Si     0.000000    3.879973    0.469947
  H      1.200535    0.000000    1.327897
  H     -1.200535    0.000000    1.327897
  H      1.202071   -1.940151   -1.739160
  H     -1.202071   -1.940151   -1.739160
  H      0.000000   -5.114179   -0.357781
  H      1.205443   -3.891607    1.338018
  H     -1.205443   -3.891607    1.338018
  H      0.000000    5.114179   -0.357781
  H     -1.205443    3.891607    1.338018
  H      1.205443    3.891607    1.338018

 Total Charge           Charge          ....    0
 Multiplicity           Mult            ....    1
 Number of Electrons    NEL             ....   82
 Basis Dimension        Dim             ....  114

ORBITAL ENERGIES
----------------

  NO   OCC          E(Eh)            E(eV)
   0   2.0000     -66.735754     -1815.9722
   1   2.0000     -66.734173     -1815.9292
   2   2.0000     -66.734145     -1815.9284
   3   2.0000     -66.732536     -1815.8846
   4   2.0000     -66.732534     -1815.8846
   5   2.0000      -5.517666      -150.1433
   6   2.0000      -5.516588      -150.1140
   7   2.0000      -5.516574      -150.1136
   8   2.0000      -5.516078      -150.1001
   9   2.0000      -5.516076      -150.1001
  10   2.0000      -3.808430      -103.6327
  11   2.0000      -3.808141      -103.6248
  12   2.0000      -3.808088      -103.6233
  13   2.0000      -3.807264      -103.6009
  14   2.0000      -3.807262      -103.6009
  15   2.0000      -3.807073      -103.5957
  16   2.0000      -3.807044      -103.5949
  17   2.0000      -3.806949      -103.5924
  18   2.0000      -3.806942      -103.5921
  19   2.0000      -3.806658      -103.5844
  20   2.0000      -3.806657      -103.5844
  21   2.0000      -3.806564      -103.5819
  22   2.0000      -3.806563      -103.5818
  23   2.0000      -3.806308      -103.5749
  24   2.0000      -3.806305      -103.5748
  25   2.0000      -0.657796       -17.8995
  26   2.0000      -0.633782       -17.2461
  27   2.0000      -0.598596       -16.2886
  28   2.0000      -0.560571       -15.2539
  29   2.0000      -0.537092       -14.6150
  30   2.0000      -0.431283       -11.7358
  31   2.0000      -0.417093       -11.3497
  32   2.0000      -0.409341       -11.1387
  33   2.0000      -0.405451       -11.0329
  34   2.0000      -0.401210       -10.9175
  35   2.0000      -0.389866       -10.6088
  36   2.0000      -0.385105       -10.4792
  37   2.0000      -0.361923        -9.8484
  38   2.0000      -0.359314        -9.7774
  39   2.0000      -0.348291        -9.4775
  40   2.0000      -0.308436        -8.3930
  41   0.0000      -0.007988        -0.2174
  42   0.0000       0.028237         0.7684
  43   0.0000       0.033809         0.9200
  44   0.0000       0.034463         0.9378
  45   0.0000       0.041219         1.1216

MULLIKEN ATOMIC CHARGES
-----------------------
   0 Si:   -0.059128
   1 Si:   -0.052113
   2 Si:   -0.059128
   3 Si:    0.049709
   4 H :    0.014060
   5 H :    0.014060
   6 Si:    0.049709
   7 H :    0.015520
   8 H :    0.015520
   9 H :    0.014060
  10 H :    0.014060
  11 H :    0.000174
  12 H :   -0.004169
  13 H :   -0.004169
  14 H :    0.000174
  15 H :   -0.004169
  16 H :   -0.004169
Sum of atomic charges:   -0.0000000

LOEWDIN ATOMIC CHARGES
----------------------
   0 Si:   -0.000955
   1 Si:    0.004478
   2 Si:   -0.000955
   3 Si:    0.052590
   4 H :   -0.004618
   5 H :   -0.004618
   6 Si:    0.052590
   7 H :   -0.004810
   8 H :   -0.004810
   9 H :   -0.004618
  10 H :   -0.004618
  11 H :   -0.012846
  12 H :   -0.013491
  13 H :   -0.013491
  14 H :   -0.012846
  15 H :   -0.013491
  16 H :   -0.013491

  Mayer bond orders larger than 0.100000
B(  0-Si,  1-Si) :   0.9658 B(  0-Si,  4-H ) :   0.9611 B(  0-Si,  5-H ) :   0.9611
B(  0-Si,  6-Si) :   0.9764 B(  1-Si,  2-Si) :   0.9658 B(  1-Si,  7-H ) :   0.9616
B(  1-Si,  8-H ) :   0.9616 B(  2-Si,  3-Si) :   0.9764 B(  2-Si,  9-H ) :   0.9611
B(  2-Si, 10-H ) :   0.9611 B(  3-Si, 11-H ) :   0.9639 B(  3-Si, 12-H ) :   0.9636
B(  3-Si, 13-H ) :   0.9636 B(  6-Si, 14-H ) :   0.9639 B(  6-Si, 15-H ) :   0.9636
B(  6-Si, 16-H ) :   0.9636

Dispersion correction           -0.008167370
FINAL SINGLE POINT ENERGY     -1452.861706027264

DIPOLE MOMENT
-------------
                                X             Y             Z
Electronic contribution:      0.00000      -0.00000      -1.01761
Nuclear contribution   :      0.00000       0.00000       0.98794
                        -----------------------------------------
Total Dipole Moment    :      0.00000      -0.00000      -0.02968
                        -----------------------------------------
Magnitude (a.u.)       :      0.02968
Magnitude (Debye)      :      0.07543

Rotational constants in cm-1:     0.173755     0.014022     0.013273
Rotational constants in MHz :  5209.038080   420.379655   397.925248

                             ****ORCA TERMINATED NORMALLY****
TOTAL RUN TIME: 0 days 0 hours 1 minutes 37 seconds 956 msec
