                         Program Version 5.0.3 -  RELEASE  -
|  1> ! PBEh-3c def2/J TightSCF DefGrid3
|  2>
|  3> %maxcore 60000
|  4>
|  5> %pal
|  6> nprocs 4
|  7> end
|  8>
|  9> *xyzfile 0 1 ph3-cbh22.xyz
| 10>
| 11>                          ****END OF INPUT****

CARTESIAN COORDINATES (ANGSTROEM)
---------------------------------
  H      1.178821    1.847011    0.000000
  P     -0.032562    1.133079    0.000000
  C      0.034611   -0.587719    0.000000
  H     -0.678574    1.706845    1.101273
  H     -0.678574    1.706845   -1.101273
  B      0.034611   -1.259012    1.348844
  B      0.034611   -1.259012   -1.348844
  H     -0.045744   -0.622367    2.365816
  H     -0.045744   -0.622367   -2.365816
  H      0.102228   -2.447856    1.414943
  H      0.102228   -2.447856   -1.414943

 Total Charge           Charge          ....    0
 Multiplicity           Mult            ....    1
 Number of Electrons    NEL             ....   38
 Basis Dimension        Dim             ....   77

ORBITAL ENERGIES
----------------

  NO   OCC          E(Eh)            E(eV)
   0   2.0000     -77.821681     -2117.6356
   1   2.0000     -10.407891      -283.2131
   2   2.0000      -6.932590      -188.6454
   3   2.0000      -6.932556      -188.6445
   4   2.0000      -6.897969      -187.7033
   5   2.0000      -4.989359      -135.7674
   6   2.0000      -4.988785      -135.7517
   7   2.0000      -4.987392      -135.7138
   8   2.0000      -0.845113       -22.9967
   9   2.0000      -0.703285       -19.1373
  10   2.0000      -0.568064       -15.4578
  11   2.0000      -0.514750       -14.0070
  12   2.0000      -0.511678       -13.9235
  13   2.0000      -0.499958       -13.6046
  14   2.0000      -0.432475       -11.7682
  15   2.0000      -0.380628       -10.3574
  16   2.0000      -0.344859        -9.3841
  17   2.0000      -0.340280        -9.2595
  18   2.0000      -0.289545        -7.8789
  19   0.0000      -0.009659        -0.2628
  20   0.0000       0.026559         0.7227
  21   0.0000       0.057024         1.5517
  22   0.0000       0.064235         1.7479
  23   0.0000       0.108528         2.9532

MULLIKEN ATOMIC CHARGES
-----------------------
   0 H :    0.104812
   1 P :    0.185869
   2 C :   -0.543598
   3 H :    0.127872
   4 H :    0.127872
   5 B :   -0.048903
   6 B :   -0.048903
   7 H :    0.002010
   8 H :    0.002010
   9 H :    0.045478
  10 H :    0.045478
Sum of atomic charges:   -0.0000000

LOEWDIN ATOMIC CHARGES
----------------------
   0 H :    0.032436
   1 P :    0.587354
   2 C :   -0.510784
   3 H :    0.051975
   4 H :    0.051975
   5 B :   -0.116815
   6 B :   -0.116815
   7 H :   -0.009080
   8 H :   -0.009080
   9 H :    0.019417
  10 H :    0.019417

  Mayer bond orders larger than 0.100000
B(  0-H ,  1-P ) :   0.8780 B(  1-P ,  2-C ) :   1.1991 B(  1-P ,  3-H ) :   0.9182
B(  1-P ,  4-H ) :   0.9182 B(  2-C ,  5-B ) :   1.2234 B(  2-C ,  6-B ) :   1.2234
B(  5-B ,  7-H ) :   0.9851 B(  5-B ,  9-H ) :   0.9885 B(  6-B ,  8-H ) :   0.9851
B(  6-B , 10-H ) :   0.9885

Dispersion correction           -0.004541792
FINAL SINGLE POINT ENERGY      -432.686201413492

DIPOLE MOMENT
-------------
                                X             Y             Z
Electronic contribution:      0.00269       1.95267      -0.00000
Nuclear contribution   :     -0.08976       0.06988       0.00000
                        -----------------------------------------
Total Dipole Moment    :     -0.08706       2.02256      -0.00000
                        -----------------------------------------
Magnitude (a.u.)       :      2.02443
Magnitude (Debye)      :      5.14569

Rotational constants in cm-1:     0.283606     0.164008     0.107002
Rotational constants in MHz :  8502.284161  4916.841728  3207.847821

                             ****ORCA TERMINATED NORMALLY****
TOTAL RUN TIME: 0 days 0 hours 0 minutes 58 seconds 812 msec
