                         Program Version 5.0.3 -  RELEASE  -
|  1> ! PBEh-3c def2/J TightSCF DefGrid3
|  2>
|  3> %maxcore 60000
|  4>
|  5> %pal
|  6> nprocs 4
|  7> end
|  8>
|  9> *xyzfile 0 1 MET_xbm.xyz
| 10>
| 11>                          ****END OF INPUT****

CARTESIAN COORDINATES (ANGSTROEM)
---------------------------------
  N      1.368699   -1.180861    0.394358
  H      1.098300   -1.648916    1.242884
  C      0.373368   -0.373323   -0.297207
  H      0.612820   -0.430914   -1.360604
  C     -1.017908   -0.913376   -0.022849
  H     -1.254741   -0.728914    1.025131
  H     -1.029925   -1.989800   -0.196102
  C     -2.060301   -0.245418   -0.908336
  H     -1.938967   -0.565287   -1.943789
  H     -1.956605    0.838862   -0.874845
  S     -3.762071   -0.662203   -0.450041
  C     -3.902180    0.383333    1.017816
  H     -4.906627    0.245045    1.410405
  H     -3.759216    1.428865    0.755406
  H     -3.181998    0.100755    1.780943
  C      0.491355    1.086704    0.165615
  O     -0.290224    1.582512    0.973051
  N      1.533128    1.743052   -0.387980
  H      2.204451    1.176595   -0.893327
  C      2.653820   -1.260353   -0.028944
  O      3.062480   -0.635349   -1.007929
  C      3.551463   -2.178100    0.760071
  H      4.426007   -1.617255    1.079513
  H      3.891710   -2.974303    0.101882
  H      3.064086   -2.615353    1.627671
  C      1.881445    3.080515    0.042410
  H      2.420455    3.585786   -0.753641
  H      0.966584    3.621946    0.262605
  H      2.497799    3.072144    0.941850

 Total Charge           Charge          ....    0
 Multiplicity           Mult            ....    1
 Number of Electrons    NEL             ....  110
 Basis Dimension        Dim             ....  230

ORBITAL ENERGIES
----------------

  NO   OCC          E(Eh)            E(eV)
   0   2.0000     -89.566479     -2437.2278
   1   2.0000     -19.475194      -529.9470
   2   2.0000     -19.459073      -529.5083
   3   2.0000     -14.683215      -399.5506
   4   2.0000     -14.653609      -398.7450
   5   2.0000     -10.567419      -287.5541
   6   2.0000     -10.542927      -286.8876
   7   2.0000     -10.495907      -285.6081
   8   2.0000     -10.463611      -284.7293
   9   2.0000     -10.462370      -284.6956
  10   2.0000     -10.455983      -284.5218
  11   2.0000     -10.449351      -284.3413
  12   2.0000     -10.448055      -284.3060
  13   2.0000      -8.205388      -223.2799
  14   2.0000      -6.096788      -165.9020
  15   2.0000      -6.093466      -165.8116
  16   2.0000      -6.087493      -165.6491
  17   2.0000      -1.161600       -31.6087
  18   2.0000      -1.140303       -31.0292
  19   2.0000      -1.044276       -28.4162
  20   2.0000      -1.016495       -27.6602
  21   2.0000      -0.913945       -24.8697
  22   2.0000      -0.871224       -23.7072
  23   2.0000      -0.833742       -22.6873
  24   2.0000      -0.805036       -21.9061
  25   2.0000      -0.769225       -20.9317
  26   2.0000      -0.709754       -19.3134
  27   2.0000      -0.682415       -18.5695
  28   2.0000      -0.647701       -17.6249
  29   2.0000      -0.644109       -17.5271
  30   2.0000      -0.608560       -16.5598
  31   2.0000      -0.572532       -15.5794
  32   2.0000      -0.561162       -15.2700
  33   2.0000      -0.537066       -14.6143
  34   2.0000      -0.522286       -14.2121
  35   2.0000      -0.515731       -14.0337
  36   2.0000      -0.504159       -13.7189
  37   2.0000      -0.487694       -13.2708
  38   2.0000      -0.482488       -13.1292
  39   2.0000      -0.479773       -13.0553
  40   2.0000      -0.477465       -12.9925
  41   2.0000      -0.465912       -12.6781
  42   2.0000      -0.452293       -12.3075
  43   2.0000      -0.444561       -12.0971
  44   2.0000      -0.437127       -11.8948
  45   2.0000      -0.426240       -11.5986
  46   2.0000      -0.418255       -11.3813
  47   2.0000      -0.415436       -11.3046
  48   2.0000      -0.390657       -10.6303
  49   2.0000      -0.350356        -9.5337
  50   2.0000      -0.342323        -9.3151
  51   2.0000      -0.327939        -8.9237
  52   2.0000      -0.302428        -8.2295
  53   2.0000      -0.294642        -8.0176
  54   2.0000      -0.257669        -7.0115
  55   0.0000       0.037100         1.0095
  56   0.0000       0.057531         1.5655
  57   0.0000       0.094928         2.5831
  58   0.0000       0.110361         3.0031
  59   0.0000       0.128041         3.4842

MULLIKEN ATOMIC CHARGES
-----------------------
   0 N :   -0.624033
   1 H :    0.366667
   2 C :   -0.200607
   3 H :    0.264537
   4 C :   -0.424073
   5 H :    0.242213
   6 H :    0.238550
   7 C :   -0.575608
   8 H :    0.252810
   9 H :    0.271423
  10 S :    0.023447
  11 C :   -0.745072
  12 H :    0.249789
  13 H :    0.253955
  14 H :    0.248651
  15 C :    0.559758
  16 O :   -0.442527
  17 N :   -0.645880
  18 H :    0.404316
  19 C :    0.541792
  20 O :   -0.462167
  21 C :   -0.743950
  22 H :    0.262398
  23 H :    0.264958
  24 H :    0.217266
  25 C :   -0.492302
  26 H :    0.222444
  27 H :    0.251297
  28 H :    0.219946
Sum of atomic charges:   -0.0000000

LOEWDIN ATOMIC CHARGES
----------------------
   0 N :   -0.212161
   1 H :    0.261564
   2 C :   -0.094977
   3 H :    0.146691
   4 C :   -0.254258
   5 H :    0.138101
   6 H :    0.133635
   7 C :   -0.338963
   8 H :    0.135322
   9 H :    0.141053
  10 S :    0.151702
  11 C :   -0.462900
  12 H :    0.138203
  13 H :    0.134887
  14 H :    0.130129
  15 C :    0.099372
  16 O :   -0.287316
  17 N :   -0.245279
  18 H :    0.267799
  19 C :    0.114500
  20 O :   -0.301268
  21 C :   -0.383652
  22 H :    0.159035
  23 H :    0.161484
  24 H :    0.129949
  25 C :   -0.254360
  26 H :    0.126758
  27 H :    0.144509
  28 H :    0.120440

  Mayer bond orders larger than 0.100000
B(  0-N ,  1-H ) :   0.8192 B(  0-N ,  2-C ) :   0.9162 B(  0-N , 19-C ) :   1.1702
B(  2-C ,  3-H ) :   0.8809 B(  2-C ,  4-C ) :   0.9759 B(  2-C , 15-C ) :   0.8696
B(  4-C ,  5-H ) :   0.8944 B(  4-C ,  6-H ) :   0.9131 B(  4-C ,  7-C ) :   0.9384
B(  7-C ,  8-H ) :   0.9040 B(  7-C ,  9-H ) :   0.8787 B(  7-C , 10-S ) :   1.0320
B( 10-S , 11-C ) :   1.0163 B( 11-C , 12-H ) :   0.9100 B( 11-C , 13-H ) :   0.8953
B( 11-C , 14-H ) :   0.8918 B( 15-C , 16-O ) :   1.9458 B( 15-C , 17-N ) :   1.1870
B( 16-O , 17-N ) :   0.1001 B( 17-N , 18-H ) :   0.7419 B( 17-N , 25-C ) :   0.9603
B( 19-C , 20-O ) :   1.8859 B( 19-C , 21-C ) :   0.9329 B( 21-C , 22-H ) :   0.9075
B( 21-C , 23-H ) :   0.9054 B( 21-C , 24-H ) :   0.9211 B( 25-C , 26-H ) :   0.9251
B( 25-C , 27-H ) :   0.9092 B( 25-C , 28-H ) :   0.9182

Dispersion correction           -0.017456020
FINAL SINGLE POINT ENERGY      -970.989073115315

DIPOLE MOMENT
-------------
                                X             Y             Z
Electronic contribution:     -2.78621      -2.11330      -3.46435
Nuclear contribution   :      3.76912       1.57046       4.09869
                        -----------------------------------------
Total Dipole Moment    :      0.98291      -0.54284       0.63435
                        -----------------------------------------
Magnitude (a.u.)       :      1.28964
Magnitude (Debye)      :      3.27801

Rotational constants in cm-1:     0.033652     0.011956     0.009775
Rotational constants in MHz :  1008.870136   358.433130   293.044879

                             ****ORCA TERMINATED NORMALLY****
TOTAL RUN TIME: 0 days 0 hours 3 minutes 38 seconds 634 msec
