                         Program Version 5.0.3 -  RELEASE  -
|  1> ! PBEh-3c def2/J TightSCF DefGrid3
|  2>
|  3> %maxcore 60000
|  4>
|  5> %pal
|  6> nprocs 4
|  7> end
|  8>
|  9> *xyzfile -1 1 OHm.xyz
| 10>
| 11>                          ****END OF INPUT****

CARTESIAN COORDINATES (ANGSTROEM)
---------------------------------
  O      0.000000    0.000000   -0.482220
  H      0.000000    0.000000    0.482220

 Total Charge           Charge          ....   -1
 Multiplicity           Mult            ....    1
 Number of Electrons    NEL             ....   10
 Basis Dimension        Dim             ....   17

ORBITAL ENERGIES
----------------

  NO   OCC          E(Eh)            E(eV)
   0   2.0000     -18.994048      -516.8543
   1   2.0000      -0.580215       -15.7885
   2   2.0000      -0.043022        -1.1707
   3   2.0000       0.106276         2.8919
   4   2.0000       0.106276         2.8919
   5   0.0000       0.487816        13.2742
   6   0.0000       1.320719        35.9386
   7   0.0000       1.413785        38.4711
   8   0.0000       1.413785        38.4711
   9   0.0000       1.467498        39.9327

MULLIKEN ATOMIC CHARGES
-----------------------
   0 O :   -1.194816
   1 H :    0.194816
Sum of atomic charges:   -1.0000000

LOEWDIN ATOMIC CHARGES
----------------------
   0 O :   -1.140170
   1 H :    0.140170

  Mayer bond orders larger than 0.100000
B(  0-O ,  1-H ) :   0.9339

Dispersion correction           -0.000087273
FINAL SINGLE POINT ENERGY       -75.563057085449

DIPOLE MOMENT
-------------
                                X             Y             Z
Electronic contribution:     -0.00000      -0.00000      -0.37629
Nuclear contribution   :      0.00000       0.00000       0.85034
                        -----------------------------------------
Total Dipole Moment    :     -0.00000      -0.00000       0.47405
                        -----------------------------------------
Magnitude (a.u.)       :      0.47405
Magnitude (Debye)      :      1.20493

Rotational constants in cm-1:     0.000000    19.112662    19.112662
Rotational constants in MHz :     0.000000 572983.184304 572983.184304

                             ****ORCA TERMINATED NORMALLY****
TOTAL RUN TIME: 0 days 0 hours 0 minutes 39 seconds 211 msec
