                         Program Version 5.0.3 -  RELEASE  -
|  1> ! PBEh-3c def2/J TightSCF DefGrid3
|  2>
|  3> %maxcore 60000
|  4>
|  5> %pal
|  6> nprocs 4
|  7> end
|  8>
|  9> *xyzfile -1 1 19A.xyz
| 10>
| 11>                          ****END OF INPUT****

CARTESIAN COORDINATES (ANGSTROEM)
---------------------------------
  O      1.380508   -0.614276    0.645537
  O      0.759996    1.341651   -0.384163
  C      0.562372    0.172403    0.094221
  H     -0.500100   -0.194260    0.001452

 Total Charge           Charge          ....   -1
 Multiplicity           Mult            ....    1
 Number of Electrons    NEL             ....   24
 Basis Dimension        Dim             ....   47

ORBITAL ENERGIES
----------------

  NO   OCC          E(Eh)            E(eV)
   0   2.0000     -19.194857      -522.3186
   1   2.0000     -19.189960      -522.1854
   2   2.0000     -10.294858      -280.1373
   3   2.0000      -0.876274       -23.8446
   4   2.0000      -0.789361       -21.4796
   5   2.0000      -0.382229       -10.4010
   6   2.0000      -0.260242        -7.0815
   7   2.0000      -0.221602        -6.0301
   8   2.0000      -0.201409        -5.4806
   9   2.0000      -0.057145        -1.5550
  10   2.0000      -0.055689        -1.5154
  11   2.0000      -0.050846        -1.3836
  12   0.0000       0.326123         8.8743
  13   0.0000       0.423701        11.5295
  14   0.0000       0.565559        15.3896
  15   0.0000       0.584076        15.8935
  16   0.0000       0.754368        20.5274

MULLIKEN ATOMIC CHARGES
-----------------------
   0 O :   -0.591222
   1 O :   -0.611186
   2 C :    0.236725
   3 H :   -0.034317
Sum of atomic charges:   -1.0000000

LOEWDIN ATOMIC CHARGES
----------------------
   0 O :   -0.457587
   1 O :   -0.480030
   2 C :   -0.026586
   3 H :   -0.035797

  Mayer bond orders larger than 0.100000
B(  0-O ,  1-O ) :   0.1477 B(  0-O ,  2-C ) :   1.7838 B(  1-O ,  2-C ) :   1.7624
B(  2-C ,  3-H ) :   0.8581

Dispersion correction           -0.000739414
FINAL SINGLE POINT ENERGY      -188.782289524168

DIPOLE MOMENT
-------------
                                X             Y             Z
Electronic contribution:      0.85780       0.26193       0.09035
Nuclear contribution   :     -1.30810      -0.46197      -0.10903
                        -----------------------------------------
Total Dipole Moment    :     -0.45030      -0.20004      -0.01868
                        -----------------------------------------
Magnitude (a.u.)       :      0.49308
Magnitude (Debye)      :      1.25332

Rotational constants in cm-1:     3.462274     0.399793     0.358407
Rotational constants in MHz : 103796.353888 11985.480916 10744.770667

                             ****ORCA TERMINATED NORMALLY****
TOTAL RUN TIME: 0 days 0 hours 0 minutes 38 seconds 388 msec
