                         Program Version 5.0.3 -  RELEASE  -
|  1> ! PBEh-3c def2/J TightSCF DefGrid3
|  2>
|  3> %maxcore 60000
|  4>
|  5> %pal
|  6> nprocs 4
|  7> end
|  8>
|  9> *xyzfile 0 1 E31.xyz
| 10>
| 11>                          ****END OF INPUT****

CARTESIAN COORDINATES (ANGSTROEM)
---------------------------------
  C     -1.443477    0.517650    0.000000
  O     -0.213480    1.249336    0.000000
  C      0.991615    0.615618    0.000000
  O      1.990564    1.281732    0.000000
  C      0.994842   -0.898404    0.000000
  H     -2.229158    1.269543    0.000000
  H     -1.545479   -0.102454   -0.891435
  H     -1.545479   -0.102454    0.891435
  H      0.486100   -1.297835    0.877738
  H      2.027853   -1.234898    0.000000
  H      0.486100   -1.297835   -0.877738

 Total Charge           Charge          ....    0
 Multiplicity           Mult            ....    1
 Number of Electrons    NEL             ....   40
 Basis Dimension        Dim             ....   87

ORBITAL ENERGIES
----------------

  NO   OCC          E(Eh)            E(eV)
   0   2.0000     -19.538168      -531.6606
   1   2.0000     -19.475486      -529.9549
   2   2.0000     -10.579527      -287.8836
   3   2.0000     -10.506583      -285.8987
   4   2.0000     -10.457060      -284.5511
   5   2.0000      -1.209153       -32.9027
   6   2.0000      -1.124735       -30.6056
   7   2.0000      -0.845101       -22.9964
   8   2.0000      -0.814060       -22.1517
   9   2.0000      -0.644959       -17.5502
  10   2.0000      -0.573318       -15.6008
  11   2.0000      -0.559614       -15.2279
  12   2.0000      -0.546205       -14.8630
  13   2.0000      -0.494989       -13.4693
  14   2.0000      -0.479760       -13.0549
  15   2.0000      -0.473176       -12.8758
  16   2.0000      -0.442544       -12.0422
  17   2.0000      -0.406907       -11.0725
  18   2.0000      -0.350020        -9.5245
  19   2.0000      -0.327507        -8.9119
  20   0.0000       0.047764         1.2997
  21   0.0000       0.115046         3.1306
  22   0.0000       0.151290         4.1168
  23   0.0000       0.163136         4.4392
  24   0.0000       0.180452         4.9103

MULLIKEN ATOMIC CHARGES
-----------------------
   0 C :   -0.384926
   1 O :   -0.431681
   2 C :    0.536069
   3 O :   -0.362190
   4 C :   -0.795854
   5 H :    0.252974
   6 H :    0.209219
   7 H :    0.209219
   8 H :    0.243837
   9 H :    0.279496
  10 H :    0.243837
Sum of atomic charges:    0.0000000

LOEWDIN ATOMIC CHARGES
----------------------
   0 C :   -0.179466
   1 O :   -0.185036
   2 C :    0.141077
   3 O :   -0.197766
   4 C :   -0.406345
   5 H :    0.138457
   6 H :    0.115498
   7 H :    0.115498
   8 H :    0.148537
   9 H :    0.161008
  10 H :    0.148537

  Mayer bond orders larger than 0.100000
B(  0-C ,  1-O ) :   0.9193 B(  0-C ,  5-H ) :   0.9200 B(  0-C ,  6-H ) :   0.9110
B(  0-C ,  7-H ) :   0.9110 B(  1-O ,  2-C ) :   1.0946 B(  2-C ,  3-O ) :   2.0932
B(  2-C ,  4-C ) :   0.9418 B(  4-C ,  8-H ) :   0.9044 B(  4-C ,  9-H ) :   0.9098
B(  4-C , 10-H ) :   0.9044

Dispersion correction           -0.003934995
FINAL SINGLE POINT ENERGY      -267.803792285478

DIPOLE MOMENT
-------------
                                X             Y             Z
Electronic contribution:      3.37746       4.35048       0.00000
Nuclear contribution   :     -4.64167      -5.65325       0.00000
                        -----------------------------------------
Total Dipole Moment    :     -1.26421      -1.30277       0.00000
                        -----------------------------------------
Magnitude (a.u.)       :      1.81533
Magnitude (Debye)      :      4.61420

Rotational constants in cm-1:     0.299518     0.145214     0.101515
Rotational constants in MHz :  8979.337351  4353.397053  3043.343358

                             ****ORCA TERMINATED NORMALLY****
TOTAL RUN TIME: 0 days 0 hours 1 minutes 21 seconds 731 msec
