                         Program Version 5.0.3 -  RELEASE  -
|  1> ! PBEh-3c def2/J TightSCF DefGrid3
|  2>
|  3> %maxcore 60000
|  4>
|  5> %pal
|  6> nprocs 4
|  7> end
|  8>
|  9> *xyzfile 0 1 38B.xyz
| 10>
| 11>                          ****END OF INPUT****

CARTESIAN COORDINATES (ANGSTROEM)
---------------------------------
  C     -1.180786   -0.474807   -0.134180
  H     -1.513921   -0.238109   -1.146764
  H     -1.985575   -1.017906    0.358807
  C      0.132820   -1.270352   -0.181941
  H      0.182765   -1.928095   -1.048075
  H      0.213108   -1.901710    0.702444
  C      1.262135   -0.207647   -0.181345
  H      1.883400   -0.268325   -1.073218
  H      1.919545   -0.357530    0.674060
  C      0.551962    1.154022   -0.073478
  H      0.372099    1.562514   -1.069477
  H      1.132346    1.888425    0.482495
  C     -0.790090    0.819550    0.576334
  H     -1.529759    1.612061    0.471453
  H     -0.650050    0.627910    1.642883

 Total Charge           Charge          ....    0
 Multiplicity           Mult            ....    1
 Number of Electrons    NEL             ....   40
 Basis Dimension        Dim             ....   95

ORBITAL ENERGIES
----------------

  NO   OCC          E(Eh)            E(eV)
   0   2.0000     -10.424549      -283.6664
   1   2.0000     -10.424475      -283.6644
   2   2.0000     -10.424452      -283.6638
   3   2.0000     -10.424238      -283.6579
   4   2.0000     -10.424149      -283.6555
   5   2.0000      -0.924675       -25.1617
   6   2.0000      -0.786390       -21.3988
   7   2.0000      -0.785690       -21.3797
   8   2.0000      -0.636548       -17.3213
   9   2.0000      -0.627217       -17.0674
  10   2.0000      -0.538858       -14.6631
  11   2.0000      -0.535643       -14.5756
  12   2.0000      -0.467046       -12.7090
  13   2.0000      -0.465387       -12.6638
  14   2.0000      -0.384804       -10.4711
  15   2.0000      -0.383840       -10.4448
  16   2.0000      -0.379392       -10.3238
  17   2.0000      -0.375201       -10.2097
  18   2.0000      -0.369095       -10.0436
  19   2.0000      -0.358687        -9.7604
  20   0.0000       0.131887         3.5888
  21   0.0000       0.146915         3.9978
  22   0.0000       0.191715         5.2168
  23   0.0000       0.192102         5.2274
  24   0.0000       0.220896         6.0109

MULLIKEN ATOMIC CHARGES
-----------------------
   0 C :   -0.430805
   1 H :    0.208742
   2 H :    0.220419
   3 C :   -0.434133
   4 H :    0.220012
   5 H :    0.215679
   6 C :   -0.432682
   7 H :    0.219453
   8 H :    0.216547
   9 C :   -0.432404
  10 H :    0.209870
  11 H :    0.220634
  12 C :   -0.428495
  13 H :    0.220176
  14 H :    0.206986
Sum of atomic charges:    0.0000000

LOEWDIN ATOMIC CHARGES
----------------------
   0 C :   -0.244455
   1 H :    0.120387
   2 H :    0.123599
   3 C :   -0.246861
   4 H :    0.124321
   5 H :    0.123165
   6 C :   -0.247208
   7 H :    0.124365
   8 H :    0.123598
   9 C :   -0.244686
  10 H :    0.120748
  11 H :    0.123728
  12 C :   -0.244314
  13 H :    0.123515
  14 H :    0.120097

  Mayer bond orders larger than 0.100000
B(  0-C ,  1-H ) :   0.9239 B(  0-C ,  2-H ) :   0.9304 B(  0-C ,  3-C ) :   0.9781
B(  0-C , 12-C ) :   0.9797 B(  3-C ,  4-H ) :   0.9335 B(  3-C ,  5-H ) :   0.9305
B(  3-C ,  6-C ) :   0.9611 B(  6-C ,  7-H ) :   0.9337 B(  6-C ,  8-H ) :   0.9315
B(  6-C ,  9-C ) :   0.9752 B(  9-C , 10-H ) :   0.9249 B(  9-C , 11-H ) :   0.9309
B(  9-C , 12-C ) :   0.9806 B( 12-C , 13-H ) :   0.9293 B( 12-C , 14-H ) :   0.9214

Dispersion correction           -0.006586443
FINAL SINGLE POINT ENERGY      -196.125760433373

DIPOLE MOMENT
-------------
                                X             Y             Z
Electronic contribution:     -0.05777       0.05006       0.01443
Nuclear contribution   :      0.05774      -0.05004      -0.01299
                        -----------------------------------------
Total Dipole Moment    :     -0.00002       0.00001       0.00144
                        -----------------------------------------
Magnitude (a.u.)       :      0.00144
Magnitude (Debye)      :      0.00365

Rotational constants in cm-1:     0.218628     0.218404     0.126775
Rotational constants in MHz :  6554.314327  6547.598316  3800.624017

                             ****ORCA TERMINATED NORMALLY****
TOTAL RUN TIME: 0 days 0 hours 1 minutes 2 seconds 832 msec
