                         Program Version 5.0.3 -  RELEASE  -
|  1> ! PBEh-3c def2/J TightSCF DefGrid3
|  2>
|  3> %maxcore 60000
|  4>
|  5> %pal
|  6> nprocs 4
|  7> end
|  8>
|  9> *xyzfile 1 2 7e.xyz
| 10>
| 11>                          ****END OF INPUT****

CARTESIAN COORDINATES (ANGSTROEM)
---------------------------------
  O     -1.483082    1.344401   -0.462018
  C     -1.400316    0.143028   -0.615884
  O     -1.850076   -0.500507   -1.634823
  C     -0.756415   -0.404662    0.593320
  C      0.580187   -0.233960    0.850578
  C      1.548960    0.521375    0.066040
  H     -1.700627   -1.457238   -1.576822
  H     -1.431317   -0.815150    1.341286
  H      0.954432   -0.746782    1.735857
  H      1.146556    1.003844   -0.821610
  H      2.388854   -0.138733   -0.191325
  H      2.002843    1.284384    0.715401

 Total Charge           Charge          ....    1
 Multiplicity           Mult            ....    2
 Number of Electrons    NEL             ....   45
 Basis Dimension        Dim             ....  102

ORBITAL ENERGIES
----------------
                 SPIN UP ORBITALS
  NO   OCC          E(Eh)            E(eV)
   0   1.0000     -19.792274      -538.5752
   1   1.0000     -19.790618      -538.5301
   2   1.0000     -10.842113      -295.0289
   3   1.0000     -10.734458      -292.0994
   4   1.0000     -10.727795      -291.9181
   5   1.0000     -10.640244      -289.5358
   6   1.0000      -1.492593       -40.6155
   7   1.0000      -1.413572       -38.4653
   8   1.0000      -1.155676       -31.4475
   9   1.0000      -1.035306       -28.1721
  10   1.0000      -0.956758       -26.0347
  11   1.0000      -0.924574       -25.1589
  12   1.0000      -0.819380       -22.2965
  13   1.0000      -0.798323       -21.7235
  14   1.0000      -0.782560       -21.2945
  15   1.0000      -0.741558       -20.1788
  16   1.0000      -0.709574       -19.3085
  17   1.0000      -0.686471       -18.6798
  18   1.0000      -0.677550       -18.4371
  19   1.0000      -0.648397       -17.6438
  20   1.0000      -0.635641       -17.2967
  21   1.0000      -0.621599       -16.9146
  22   1.0000      -0.551992       -15.0205
  23   0.0000      -0.234468        -6.3802
  24   0.0000      -0.199216        -5.4210
  25   0.0000      -0.080097        -2.1796
  26   0.0000      -0.036262        -0.9868
  27   0.0000      -0.003180        -0.0865

                 SPIN DOWN ORBITALS
  NO   OCC          E(Eh)            E(eV)
   0   1.0000     -19.790908      -538.5380
   1   1.0000     -19.775099      -538.1078
   2   1.0000     -10.842903      -295.0504
   3   1.0000     -10.730035      -291.9791
   4   1.0000     -10.723093      -291.7902
   5   1.0000     -10.640235      -289.5355
   6   1.0000      -1.480295       -40.2809
   7   1.0000      -1.389291       -37.8045
   8   1.0000      -1.136160       -30.9165
   9   1.0000      -1.026113       -27.9220
  10   1.0000      -0.950368       -25.8608
  11   1.0000      -0.909925       -24.7603
  12   1.0000      -0.811887       -22.0926
  13   1.0000      -0.782929       -21.3046
  14   1.0000      -0.773075       -21.0364
  15   1.0000      -0.735872       -20.0241
  16   1.0000      -0.695290       -18.9198
  17   1.0000      -0.671051       -18.2602
  18   1.0000      -0.660391       -17.9701
  19   1.0000      -0.639008       -17.3883
  20   1.0000      -0.621032       -16.8991
  21   1.0000      -0.556914       -15.1544
  22   0.0000      -0.373522       -10.1640
  23   0.0000      -0.202926        -5.5219
  24   0.0000      -0.185914        -5.0590
  25   0.0000      -0.078691        -2.1413
  26   0.0000      -0.032939        -0.8963

MULLIKEN ATOMIC CHARGES AND SPIN POPULATIONS
--------------------------------------------
   0 O :   -0.167502    0.520856
   1 C :    0.597935   -0.063257
   2 O :   -0.461689   -0.004981
   3 C :   -0.336501    0.242992
   4 C :   -0.036376    0.297316
   5 C :   -0.724661   -0.011059
   6 H :    0.503312   -0.001404
   7 H :    0.370565   -0.008668
   8 H :    0.336236   -0.012253
   9 H :    0.278628   -0.000098
  10 H :    0.312908    0.020720
  11 H :    0.327144    0.019836
Sum of atomic charges         :    1.0000000

LOEWDIN ATOMIC CHARGES AND SPIN POPULATIONS
-------------------------------------------
   0 O :    0.038210    0.498486
   1 C :    0.176326   -0.018350
   2 O :   -0.156034   -0.008965
   3 C :   -0.109887    0.228884
   4 C :    0.061652    0.262180
   5 C :   -0.356000    0.007733
   6 H :    0.379999   -0.001082
   7 H :    0.208727   -0.002443
   8 H :    0.191562   -0.003382
   9 H :    0.163715    0.000225
  10 H :    0.196314    0.018400
  11 H :    0.205416    0.018312

  Mayer bond orders larger than 0.100000
B(  0-O ,  1-C ) :   1.7385 B(  0-O ,  3-C ) :   0.2715 B(  1-C ,  2-O ) :   1.3258
B(  1-C ,  3-C ) :   0.9787 B(  2-O ,  6-H ) :   0.7127 B(  3-C ,  4-C ) :   1.4833
B(  3-C ,  7-H ) :   0.8362 B(  4-C ,  5-C ) :   1.0551 B(  4-C ,  8-H ) :   0.8623
B(  5-C ,  9-H ) :   0.8995 B(  5-C , 10-H ) :   0.8498 B(  5-C , 11-H ) :   0.8445

Dispersion correction           -0.004933579
FINAL SINGLE POINT ENERGY      -305.465561688303

DIPOLE MOMENT
-------------
                                X             Y             Z
Electronic contribution:     -5.51967       0.12145      -1.74811
Nuclear contribution   :      6.40794      -1.65360       2.51694
                        -----------------------------------------
Total Dipole Moment    :      0.88827      -1.53215       0.76882
                        -----------------------------------------
Magnitude (a.u.)       :      1.93070
Magnitude (Debye)      :      4.90745

Rotational constants in cm-1:     0.224187     0.081274     0.076867
Rotational constants in MHz :  6720.965651  2436.520307  2304.403334

                             ****ORCA TERMINATED NORMALLY****
TOTAL RUN TIME: 0 days 0 hours 3 minutes 40 seconds 673 msec
