                         Program Version 5.0.3 -  RELEASE  -
|  1> ! PBEh-3c def2/J TightSCF DefGrid3
|  2>
|  3> %maxcore 60000
|  4>
|  5> %pal
|  6> nprocs 4
|  7> end
|  8>
|  9> *xyzfile 0 1 33.xyz
| 10>
| 11>                          ****END OF INPUT****

CARTESIAN COORDINATES (ANGSTROEM)
---------------------------------
  N     -0.325720    2.735176   -0.029892
  C      0.768116    2.089669    0.505810
  C      0.433273    0.795202    0.836014
  C     -0.947211    0.632021    0.474056
  C     -1.850081   -0.445223    0.560644
  C     -3.149964   -0.255229    0.125466
  C     -3.579570    0.984749   -0.398290
  C     -2.708850    2.058260   -0.498079
  C     -1.392241    1.867153   -0.061201
  H     -0.339735    3.689994   -0.338575
  H      1.711870    2.600395    0.610424
  H     -1.562984   -1.404688    0.971103
  H     -4.612406    1.088757   -0.702263
  H     -3.044154    3.009707   -0.890287
  O     -4.059846   -1.290484    0.248852
  C     -4.337691   -1.925087   -0.996531
  H     -3.429966   -2.363570   -1.418356
  H     -4.759168   -1.220377   -1.716585
  H     -5.061496   -2.709855   -0.792937
  C      1.346241   -0.257702    1.380326
  C      1.840198   -1.208357    0.275086
  N      2.567119   -0.520354   -0.776519
  C      3.892211   -0.169671   -0.738723
  C      4.766195   -0.918403    0.248728
  H      0.831680   -0.844786    2.146099
  H      2.208978    0.211141    1.858606
  H      0.984881   -1.708772   -0.180951
  H      2.476841   -1.983048    0.698718
  H      2.022478    0.085953   -1.372026
  O      4.349464    0.675199   -1.495619
  H      4.717038   -1.993385    0.077010
  H      4.457459   -0.727618    1.276559
  H      5.787040   -0.576760    0.113331

 Total Charge           Charge          ....    0
 Multiplicity           Mult            ....    1
 Number of Electrons    NEL             ....  124
 Basis Dimension        Dim             ....  287

ORBITAL ENERGIES
----------------

  NO   OCC          E(Eh)            E(eV)
   0   2.0000     -19.506986      -530.8121
   1   2.0000     -19.448237      -529.2134
   2   2.0000     -14.690029      -399.7360
   3   2.0000     -14.650175      -398.6515
   4   2.0000     -10.542486      -286.8756
   5   2.0000     -10.496439      -285.6226
   6   2.0000     -10.484202      -285.2896
   7   2.0000     -10.483807      -285.2789
   8   2.0000     -10.482705      -285.2489
   9   2.0000     -10.482489      -285.2430
  10   2.0000     -10.456875      -284.5460
  11   2.0000     -10.452482      -284.4265
  12   2.0000     -10.450920      -284.3840
  13   2.0000     -10.447415      -284.2886
  14   2.0000     -10.447090      -284.2798
  15   2.0000     -10.446408      -284.2612
  16   2.0000     -10.438525      -284.0467
  17   2.0000      -1.155346       -31.4386
  18   2.0000      -1.133366       -30.8405
  19   2.0000      -1.092637       -29.7322
  20   2.0000      -1.017550       -27.6889
  21   2.0000      -0.941321       -25.6147
  22   2.0000      -0.902685       -24.5633
  23   2.0000      -0.845678       -23.0121
  24   2.0000      -0.832255       -22.6468
  25   2.0000      -0.823567       -22.4104
  26   2.0000      -0.808005       -21.9869
  27   2.0000      -0.768432       -20.9101
  28   2.0000      -0.732524       -19.9330
  29   2.0000      -0.702555       -19.1175
  30   2.0000      -0.670990       -18.2586
  31   2.0000      -0.649934       -17.6856
  32   2.0000      -0.630079       -17.1453
  33   2.0000      -0.613072       -16.6825
  34   2.0000      -0.573859       -15.6155
  35   2.0000      -0.559586       -15.2271
  36   2.0000      -0.554583       -15.0910
  37   2.0000      -0.544259       -14.8100
  38   2.0000      -0.525218       -14.2919
  39   2.0000      -0.519299       -14.1308
  40   2.0000      -0.516424       -14.0526
  41   2.0000      -0.506522       -13.7832
  42   2.0000      -0.498290       -13.5592
  43   2.0000      -0.493570       -13.4307
  44   2.0000      -0.479741       -13.0544
  45   2.0000      -0.475787       -12.9468
  46   2.0000      -0.465356       -12.6630
  47   2.0000      -0.458398       -12.4736
  48   2.0000      -0.453679       -12.3452
  49   2.0000      -0.451026       -12.2731
  50   2.0000      -0.430817       -11.7231
  51   2.0000      -0.424517       -11.5517
  52   2.0000      -0.409499       -11.1430
  53   2.0000      -0.405683       -11.0392
  54   2.0000      -0.395051       -10.7499
  55   2.0000      -0.378131       -10.2895
  56   2.0000      -0.329356        -8.9622
  57   2.0000      -0.327136        -8.9018
  58   2.0000      -0.302864        -8.2414
  59   2.0000      -0.292250        -7.9525
  60   2.0000      -0.258330        -7.0295
  61   2.0000      -0.246543        -6.7088
  62   0.0000       0.000766         0.0209
  63   0.0000       0.045888         1.2487
  64   0.0000       0.064301         1.7497
  65   0.0000       0.082973         2.2578
  66   0.0000       0.121266         3.2998

MULLIKEN ATOMIC CHARGES
-----------------------
   0 N :   -0.699400
   1 C :   -0.054941
   2 C :    0.009701
   3 C :    0.072499
   4 C :   -0.434461
   5 C :    0.362936
   6 C :   -0.312377
   7 C :   -0.261989
   8 C :    0.365373
   9 H :    0.362286
  10 H :    0.252953
  11 H :    0.214041
  12 H :    0.228978
  13 H :    0.216894
  14 O :   -0.485490
  15 C :   -0.376888
  16 H :    0.201334
  17 H :    0.198559
  18 H :    0.221066
  19 C :   -0.532461
  20 C :   -0.296099
  21 N :   -0.596815
  22 C :    0.487811
  23 C :   -0.778750
  24 H :    0.231683
  25 H :    0.230801
  26 H :    0.245731
  27 H :    0.233498
  28 H :    0.368749
  29 O :   -0.419451
  30 H :    0.241092
  31 H :    0.231342
  32 H :    0.271796
Sum of atomic charges:   -0.0000000

LOEWDIN ATOMIC CHARGES
----------------------
   0 N :   -0.155519
   1 C :   -0.080263
   2 C :   -0.113181
   3 C :   -0.057130
   4 C :   -0.154475
   5 C :    0.043634
   6 C :   -0.158921
   7 C :   -0.151569
   8 C :    0.012712
   9 H :    0.263818
  10 H :    0.141563
  11 H :    0.142828
  12 H :    0.142599
  13 H :    0.138012
  14 O :   -0.220064
  15 C :   -0.172416
  16 H :    0.109962
  17 H :    0.107985
  18 H :    0.124485
  19 C :   -0.236819
  20 C :   -0.147153
  21 N :   -0.243913
  22 C :    0.104554
  23 C :   -0.398903
  24 H :    0.137006
  25 H :    0.132937
  26 H :    0.130644
  27 H :    0.128837
  28 H :    0.261930
  29 O :   -0.275000
  30 H :    0.145417
  31 H :    0.140366
  32 H :    0.156039

  Mayer bond orders larger than 0.100000
B(  0-N ,  1-C ) :   1.1366 B(  0-N ,  8-C ) :   1.0156 B(  0-N ,  9-H ) :   0.8313
B(  1-C ,  2-C ) :   1.5564 B(  1-C , 10-H ) :   0.9055 B(  2-C ,  3-C ) :   1.2394
B(  2-C , 19-C ) :   0.9593 B(  3-C ,  4-C ) :   1.2400 B(  3-C ,  8-C ) :   1.2434
B(  4-C ,  5-C ) :   1.4861 B(  4-C , 11-H ) :   0.9302 B(  5-C ,  6-C ) :   1.3173
B(  5-C , 14-O ) :   0.9533 B(  6-C ,  7-C ) :   1.4848 B(  6-C , 12-H ) :   0.9119
B(  7-C ,  8-C ) :   1.2895 B(  7-C , 13-H ) :   0.9200 B( 14-O , 15-C ) :   0.9520
B( 15-C , 16-H ) :   0.9128 B( 15-C , 17-H ) :   0.9116 B( 15-C , 18-H ) :   0.9282
B( 19-C , 20-C ) :   0.9443 B( 19-C , 24-H ) :   0.9117 B( 19-C , 25-H ) :   0.9239
B( 20-C , 21-N ) :   0.9748 B( 20-C , 26-H ) :   0.9097 B( 20-C , 27-H ) :   0.9074
B( 21-N , 22-C ) :   1.1522 B( 21-N , 28-H ) :   0.8126 B( 22-C , 23-C ) :   0.9255
B( 22-C , 29-O ) :   2.0304 B( 23-C , 30-H ) :   0.9094 B( 23-C , 31-H ) :   0.9086
B( 23-C , 32-H ) :   0.9158

Dispersion correction           -0.021646073
FINAL SINGLE POINT ENERGY      -763.323006829187

DIPOLE MOMENT
-------------
                                X             Y             Z
Electronic contribution:     -4.15158       8.18088      -0.74931
Nuclear contribution   :      3.59542      -8.12733       0.96478
                        -----------------------------------------
Total Dipole Moment    :     -0.55617       0.05356       0.21547
                        -----------------------------------------
Magnitude (a.u.)       :      0.59885
Magnitude (Debye)      :      1.52215

Rotational constants in cm-1:     0.029792     0.007773     0.006817
Rotational constants in MHz :   893.127708   233.035032   204.369159

                             ****ORCA TERMINATED NORMALLY****
TOTAL RUN TIME: 0 days 0 hours 4 minutes 30 seconds 814 msec
