                         Program Version 5.0.3 -  RELEASE  -
|  1> ! PBEh-3c def2/J TightSCF DefGrid3
|  2>
|  3> %maxcore 60000
|  4>
|  5> %pal
|  6> nprocs 4
|  7> end
|  8>
|  9> *xyzfile 0 1 c2h4.xyz
| 10>
| 11>                          ****END OF INPUT****

CARTESIAN COORDINATES (ANGSTROEM)
---------------------------------
  C      0.000000    0.662407    0.000000
  C      0.000000   -0.662407    0.000000
  H      0.921994    1.230581    0.000000
  H      0.921994   -1.230581    0.000000
  H     -0.921994    1.230581    0.000000
  H     -0.921994   -1.230581    0.000000

 Total Charge           Charge          ....    0
 Multiplicity           Mult            ....    1
 Number of Electrons    NEL             ....   16
 Basis Dimension        Dim             ....   38

ORBITAL ENERGIES
----------------

  NO   OCC          E(Eh)            E(eV)
   0   2.0000     -10.440201      -284.0923
   1   2.0000     -10.439198      -284.0650
   2   2.0000      -0.850579       -23.1454
   3   2.0000      -0.651273       -17.7220
   4   2.0000      -0.531376       -14.4595
   5   2.0000      -0.478874       -13.0308
   6   2.0000      -0.407581       -11.0908
   7   2.0000      -0.317487        -8.6393
   8   0.0000       0.041179         1.1205
   9   0.0000       0.169626         4.6157
  10   0.0000       0.195664         5.3243
  11   0.0000       0.210379         5.7247
  12   0.0000       0.319513         8.6944

MULLIKEN ATOMIC CHARGES
-----------------------
   0 C :   -0.429384
   1 C :   -0.429384
   2 H :    0.214692
   3 H :    0.214692
   4 H :    0.214692
   5 H :    0.214692
Sum of atomic charges:   -0.0000000

LOEWDIN ATOMIC CHARGES
----------------------
   0 C :   -0.260107
   1 C :   -0.260107
   2 H :    0.130053
   3 H :    0.130053
   4 H :    0.130053
   5 H :    0.130053

  Mayer bond orders larger than 0.100000
B(  0-C ,  1-C ) :   1.9829 B(  0-C ,  2-H ) :   0.9301 B(  0-C ,  4-H ) :   0.9301
B(  1-C ,  3-H ) :   0.9301 B(  1-C ,  5-H ) :   0.9301

Dispersion correction           -0.001302138
FINAL SINGLE POINT ENERGY       -78.405414520704

DIPOLE MOMENT
-------------
                                X             Y             Z
Electronic contribution:     -0.00000      -0.00000       0.00000
Nuclear contribution   :      0.00000       0.00000       0.00000
                        -----------------------------------------
Total Dipole Moment    :     -0.00000      -0.00000       0.00000
                        -----------------------------------------
Magnitude (a.u.)       :      0.00000
Magnitude (Debye)      :      0.00000

Rotational constants in cm-1:     4.918362     1.012702     0.839787
Rotational constants in MHz : 147448.776586 30360.027875 25176.194064

                             ****ORCA TERMINATED NORMALLY****
TOTAL RUN TIME: 0 days 0 hours 0 minutes 26 seconds 250 msec
