                         Program Version 5.0.3 -  RELEASE  -
|  1> ! PBEh-3c def2/J TightSCF DefGrid3
|  2>
|  3> %maxcore 60000
|  4>
|  5> %pal
|  6> nprocs 4
|  7> end
|  8>
|  9> *xyzfile 0 1 GLN_xat.xyz
| 10>
| 11>                          ****END OF INPUT****

CARTESIAN COORDINATES (ANGSTROEM)
---------------------------------
  N     -1.093501   -1.116556   -0.047019
  C     -0.350365   -0.174725    0.779418
  C     -0.375620    1.250664    0.196181
  O      0.654145    1.849247   -0.125780
  C      1.077431   -0.658856    0.962365
  C      1.801241   -0.933694   -0.370195
  C      3.261812   -0.526624   -0.295119
  O      4.175428   -1.335919   -0.225266
  H     -0.571176   -1.718583   -0.660549
  H     -0.863054   -0.134803    1.743150
  H      1.611015    0.109281    1.518391
  H      1.072695   -1.559909    1.574859
  H      1.330089   -0.365105   -1.172263
  H      1.781591   -1.991586   -0.622835
  C     -2.436460   -1.268709    0.029553
  O     -3.141612   -0.540006    0.730137
  N     -1.611887    1.768375    0.101223
  H     -2.378957    1.178831    0.410816
  C     -1.862137    3.085915   -0.442268
  H     -2.504756    3.026409   -1.318596
  H     -2.335895    3.725159    0.300088
  H     -0.907217    3.516241   -0.725981
  C     -3.019874   -2.392062   -0.786893
  H     -2.292602   -2.875439   -1.434136
  H     -3.836122   -1.998442   -1.386589
  H     -3.436527   -3.130405   -0.105074
  N      3.435906    0.819846   -0.301053
  H      4.361879    1.179329   -0.155017
  H      2.631506    1.429399   -0.266498

 Total Charge           Charge          ....    0
 Multiplicity           Mult            ....    1
 Number of Electrons    NEL             ....  108
 Basis Dimension        Dim             ....  240

ORBITAL ENERGIES
----------------

  NO   OCC          E(Eh)            E(eV)
   0   2.0000     -19.482740      -530.1523
   1   2.0000     -19.475402      -529.9526
   2   2.0000     -19.441556      -529.0316
   3   2.0000     -14.689844      -399.7310
   4   2.0000     -14.664733      -399.0477
   5   2.0000     -14.631611      -398.1464
   6   2.0000     -10.574535      -287.7477
   7   2.0000     -10.558532      -287.3123
   8   2.0000     -10.535252      -286.6788
   9   2.0000     -10.506900      -285.9073
  10   2.0000     -10.470141      -284.9070
  11   2.0000     -10.461067      -284.6601
  12   2.0000     -10.458125      -284.5800
  13   2.0000     -10.447089      -284.2797
  14   2.0000      -1.169607       -31.8266
  15   2.0000      -1.153760       -31.3954
  16   2.0000      -1.124612       -30.6022
  17   2.0000      -1.052940       -28.6520
  18   2.0000      -1.027962       -27.9723
  19   2.0000      -0.985689       -26.8220
  20   2.0000      -0.906848       -24.6766
  21   2.0000      -0.853876       -23.2351
  22   2.0000      -0.823335       -22.4041
  23   2.0000      -0.786854       -21.4114
  24   2.0000      -0.710573       -19.3357
  25   2.0000      -0.691018       -18.8035
  26   2.0000      -0.659803       -17.9541
  27   2.0000      -0.638798       -17.3826
  28   2.0000      -0.618726       -16.8364
  29   2.0000      -0.590701       -16.0738
  30   2.0000      -0.576744       -15.6940
  31   2.0000      -0.568214       -15.4619
  32   2.0000      -0.544556       -14.8181
  33   2.0000      -0.528920       -14.3926
  34   2.0000      -0.525048       -14.2873
  35   2.0000      -0.515573       -14.0295
  36   2.0000      -0.505843       -13.7647
  37   2.0000      -0.489227       -13.3125
  38   2.0000      -0.485522       -13.2117
  39   2.0000      -0.475174       -12.9302
  40   2.0000      -0.470808       -12.8113
  41   2.0000      -0.457041       -12.4367
  42   2.0000      -0.454952       -12.3799
  43   2.0000      -0.437342       -11.9007
  44   2.0000      -0.434211       -11.8155
  45   2.0000      -0.426545       -11.6069
  46   2.0000      -0.412761       -11.2318
  47   2.0000      -0.399059       -10.8590
  48   2.0000      -0.355381        -9.6704
  49   2.0000      -0.335724        -9.1355
  50   2.0000      -0.312143        -8.4939
  51   2.0000      -0.308595        -8.3973
  52   2.0000      -0.301107        -8.1935
  53   2.0000      -0.292421        -7.9572
  54   0.0000       0.028548         0.7768
  55   0.0000       0.049561         1.3486
  56   0.0000       0.074261         2.0207
  57   0.0000       0.101926         2.7735
  58   0.0000       0.140368         3.8196

MULLIKEN ATOMIC CHARGES
-----------------------
   0 N :   -0.624860
   1 C :   -0.233585
   2 C :    0.591530
   3 O :   -0.473159
   4 C :   -0.447803
   5 C :   -0.587244
   6 C :    0.488312
   7 O :   -0.417315
   8 H :    0.382865
   9 H :    0.286055
  10 H :    0.264062
  11 H :    0.251376
  12 H :    0.250243
  13 H :    0.247150
  14 C :    0.544935
  15 O :   -0.467308
  16 N :   -0.653310
  17 H :    0.414615
  18 C :   -0.496485
  19 H :    0.223528
  20 H :    0.226828
  21 H :    0.258995
  22 C :   -0.743772
  23 H :    0.220643
  24 H :    0.264456
  25 H :    0.266559
  26 N :   -0.814182
  27 H :    0.362940
  28 H :    0.413931
Sum of atomic charges:    0.0000000

LOEWDIN ATOMIC CHARGES
----------------------
   0 N :   -0.214638
   1 C :   -0.095029
   2 C :    0.112674
   3 O :   -0.305045
   4 C :   -0.228661
   5 C :   -0.283181
   6 C :    0.101706
   7 O :   -0.279286
   8 H :    0.263408
   9 H :    0.155618
  10 H :    0.149097
  11 H :    0.139593
  12 H :    0.142461
  13 H :    0.139297
  14 C :    0.115323
  15 O :   -0.302320
  16 N :   -0.234542
  17 H :    0.271226
  18 C :   -0.255424
  19 H :    0.124668
  20 H :    0.126212
  21 H :    0.150256
  22 C :   -0.382718
  23 H :    0.131631
  24 H :    0.159936
  25 H :    0.162762
  26 N :   -0.380996
  27 H :    0.253222
  28 H :    0.262750

  Mayer bond orders larger than 0.100000
B(  0-N ,  1-C ) :   0.9037 B(  0-N ,  8-H ) :   0.8034 B(  0-N , 14-C ) :   1.1795
B(  1-C ,  2-C ) :   0.8819 B(  1-C ,  4-C ) :   0.9769 B(  1-C ,  9-H ) :   0.8784
B(  2-C ,  3-O ) :   1.8572 B(  2-C , 16-N ) :   1.2279 B(  3-O , 16-N ) :   0.1086
B(  4-C ,  5-C ) :   0.9246 B(  4-C , 10-H ) :   0.9028 B(  4-C , 11-H ) :   0.9128
B(  5-C ,  6-C ) :   0.9318 B(  5-C , 12-H ) :   0.8986 B(  5-C , 13-H ) :   0.9120
B(  6-C ,  7-O ) :   2.0497 B(  6-C , 26-N ) :   1.1867 B( 14-C , 15-O ) :   1.8619
B( 14-C , 22-C ) :   0.9346 B( 16-N , 17-H ) :   0.7184 B( 16-N , 18-C ) :   0.9532
B( 18-C , 19-H ) :   0.9204 B( 18-C , 20-H ) :   0.9196 B( 18-C , 21-H ) :   0.9029
B( 22-C , 23-H ) :   0.9194 B( 22-C , 24-H ) :   0.9069 B( 22-C , 25-H ) :   0.9036
B( 26-N , 27-H ) :   0.8319 B( 26-N , 28-H ) :   0.7429

Dispersion correction           -0.017664768
FINAL SINGLE POINT ENERGY      -702.370138374317

DIPOLE MOMENT
-------------
                                X             Y             Z
Electronic contribution:      4.83417      -0.18430       1.90503
Nuclear contribution   :     -6.47731       0.29350      -2.23568
                        -----------------------------------------
Total Dipole Moment    :     -1.64315       0.10920      -0.33066
                        -----------------------------------------
Magnitude (a.u.)       :      1.67964
Magnitude (Debye)      :      4.26931

Rotational constants in cm-1:     0.031849     0.013883     0.010360
Rotational constants in MHz :   954.811677   416.200630   310.586900

                             ****ORCA TERMINATED NORMALLY****
TOTAL RUN TIME: 0 days 0 hours 3 minutes 49 seconds 38 msec
