                         Program Version 5.0.3 -  RELEASE  -
|  1> ! PBEh-3c def2/J TightSCF DefGrid3
|  2>
|  3> %maxcore 60000
|  4>
|  5> %pal
|  6> nprocs 4
|  7> end
|  8>
|  9> *xyzfile 0 1 P29.xyz
| 10>
| 11>                          ****END OF INPUT****

CARTESIAN COORDINATES (ANGSTROEM)
---------------------------------
  C     -1.812931   -0.134729    0.597831
  C     -1.442930    0.288243   -0.610517
  O     -0.249648    0.154695   -1.239926
  C      0.821185   -0.519121   -0.563124
  C      1.574401    0.395259    0.391864
  H     -1.160043   -0.653733    1.284952
  H     -2.827454    0.048785    0.921597
  H     -2.133678    0.814397   -1.259666
  H      0.432880   -1.404768   -0.051022
  H      1.479324   -0.857427   -1.364075
  H      0.932929    0.759831    1.194657
  H      2.409422   -0.147950    0.841869
  H      1.976542    1.256519   -0.144441

 Total Charge           Charge          ....    0
 Multiplicity           Mult            ....    1
 Number of Electrons    NEL             ....   40
 Basis Dimension        Dim             ....   91

ORBITAL ENERGIES
----------------

  NO   OCC          E(Eh)            E(eV)
   0   2.0000     -19.522303      -531.2289
   1   2.0000     -10.497455      -285.6503
   2   2.0000     -10.495001      -285.5835
   3   2.0000     -10.432351      -283.8787
   4   2.0000     -10.420739      -283.5627
   5   2.0000      -1.167598       -31.7719
   6   2.0000      -0.865629       -23.5550
   7   2.0000      -0.824682       -22.4407
   8   2.0000      -0.726227       -19.7616
   9   2.0000      -0.629043       -17.1171
  10   2.0000      -0.579485       -15.7686
  11   2.0000      -0.541978       -14.7480
  12   2.0000      -0.502714       -13.6795
  13   2.0000      -0.493846       -13.4382
  14   2.0000      -0.451547       -12.2872
  15   2.0000      -0.441180       -12.0051
  16   2.0000      -0.413186       -11.2434
  17   2.0000      -0.394879       -10.7452
  18   2.0000      -0.379693       -10.3320
  19   2.0000      -0.271069        -7.3762
  20   0.0000       0.068098         1.8530
  21   0.0000       0.144701         3.9375
  22   0.0000       0.156153         4.2491
  23   0.0000       0.186152         5.0654
  24   0.0000       0.192979         5.2512

MULLIKEN ATOMIC CHARGES
-----------------------
   0 C :   -0.598366
   1 C :    0.095670
   2 O :   -0.441671
   3 C :   -0.175799
   4 C :   -0.665205
   5 H :    0.219791
   6 H :    0.223775
   7 H :    0.227659
   8 H :    0.203279
   9 H :    0.229170
  10 H :    0.234881
  11 H :    0.215112
  12 H :    0.231704
Sum of atomic charges:   -0.0000000

LOEWDIN ATOMIC CHARGES
----------------------
   0 C :   -0.384435
   1 C :   -0.011994
   2 O :   -0.190128
   3 C :   -0.080797
   4 C :   -0.379056
   5 H :    0.130797
   6 H :    0.142248
   7 H :    0.129358
   8 H :    0.114071
   9 H :    0.125883
  10 H :    0.135944
  11 H :    0.132557
  12 H :    0.135552

  Mayer bond orders larger than 0.100000
B(  0-C ,  1-C ) :   1.8149 B(  0-C ,  5-H ) :   0.9232 B(  0-C ,  6-H ) :   0.9245
B(  1-C ,  2-O ) :   1.1033 B(  1-C ,  7-H ) :   0.9217 B(  2-O ,  3-C ) :   0.9212
B(  3-C ,  4-C ) :   0.9796 B(  3-C ,  8-H ) :   0.9034 B(  3-C ,  9-H ) :   0.9194
B(  4-C , 10-H ) :   0.9190 B(  4-C , 11-H ) :   0.9193 B(  4-C , 12-H ) :   0.9218

Dispersion correction           -0.005028566
FINAL SINGLE POINT ENERGY      -231.920132733515

DIPOLE MOMENT
-------------
                                X             Y             Z
Electronic contribution:     -2.10394       0.29824      -3.21682
Nuclear contribution   :      2.41511      -0.44655       3.46715
                        -----------------------------------------
Total Dipole Moment    :      0.31117      -0.14830       0.25032
                        -----------------------------------------
Magnitude (a.u.)       :      0.42600
Magnitude (Debye)      :      1.08282

Rotational constants in cm-1:     0.312510     0.119862     0.099573
Rotational constants in MHz :  9368.805164  3593.376738  2985.116657

                             ****ORCA TERMINATED NORMALLY****
TOTAL RUN TIME: 0 days 0 hours 1 minutes 7 seconds 710 msec
