                         Program Version 5.0.3 -  RELEASE  -
|  1> ! PBEh-3c def2/J TightSCF DefGrid3
|  2>
|  3> %maxcore 60000
|  4>
|  5> %pal
|  6> nprocs 4
|  7> end
|  8>
|  9> *xyzfile 0 1 h2o_4.xyz
| 10>
| 11>                          ****END OF INPUT****

CARTESIAN COORDINATES (ANGSTROEM)
---------------------------------
  O     -1.370265   -1.370265    0.001600
  H     -1.508025   -0.396133    0.009614
  H     -0.396133    1.508025   -0.009614
  H      1.876410    1.707325   -0.742395
  H     -1.876410   -1.707325   -0.742395
  H     -1.707325    1.876410    0.742395
  H      1.508025    0.396133    0.009614
  O      1.370265    1.370265    0.001600
  O     -1.370265    1.370265   -0.001600
  H      0.396133   -1.508025   -0.009614
  O      1.370265   -1.370265   -0.001600
  H      1.707325   -1.876410    0.742395

 Total Charge           Charge          ....    0
 Multiplicity           Mult            ....    1
 Number of Electrons    NEL             ....   40
 Basis Dimension        Dim             ....   76

ORBITAL ENERGIES
----------------

  NO   OCC          E(Eh)            E(eV)
   0   2.0000     -19.474153      -529.9186
   1   2.0000     -19.474118      -529.9177
   2   2.0000     -19.474118      -529.9177
   3   2.0000     -19.474025      -529.9152
   4   2.0000      -1.110902       -30.2292
   5   2.0000      -1.096765       -29.8445
   6   2.0000      -1.096765       -29.8445
   7   2.0000      -1.082922       -29.4678
   8   2.0000      -0.595366       -16.2007
   9   2.0000      -0.582341       -15.8463
  10   2.0000      -0.582340       -15.8463
  11   2.0000      -0.572700       -15.5839
  12   2.0000      -0.475379       -12.9357
  13   2.0000      -0.440378       -11.9833
  14   2.0000      -0.440378       -11.9833
  15   2.0000      -0.405627       -11.0377
  16   2.0000      -0.361581        -9.8391
  17   2.0000      -0.358747        -9.7620
  18   2.0000      -0.358747        -9.7620
  19   2.0000      -0.357221        -9.7205
  20   0.0000       0.117765         3.2046
  21   0.0000       0.157552         4.2872
  22   0.0000       0.157552         4.2872
  23   0.0000       0.180378         4.9083
  24   0.0000       0.277905         7.5622

MULLIKEN ATOMIC CHARGES
-----------------------
   0 O :   -0.872842
   1 H :    0.454408
   2 H :    0.454408
   3 H :    0.418434
   4 H :    0.418434
   5 H :    0.418434
   6 H :    0.454408
   7 O :   -0.872842
   8 O :   -0.872842
   9 H :    0.454408
  10 O :   -0.872842
  11 H :    0.418434
Sum of atomic charges:   -0.0000000

LOEWDIN ATOMIC CHARGES
----------------------
   0 O :   -0.608267
   1 H :    0.302765
   2 H :    0.302765
   3 H :    0.305502
   4 H :    0.305502
   5 H :    0.305502
   6 H :    0.302765
   7 O :   -0.608267
   8 O :   -0.608267
   9 H :    0.302765
  10 O :   -0.608267
  11 H :    0.305502

  Mayer bond orders larger than 0.100000
B(  0-O ,  1-H ) :   0.6695 B(  0-O ,  4-H ) :   0.8054 B(  0-O ,  9-H ) :   0.1468
B(  1-H ,  8-O ) :   0.1468 B(  2-H ,  7-O ) :   0.1468 B(  2-H ,  8-O ) :   0.6695
B(  3-H ,  7-O ) :   0.8054 B(  5-H ,  8-O ) :   0.8054 B(  6-H ,  7-O ) :   0.6695
B(  6-H , 10-O ) :   0.1468 B(  9-H , 10-O ) :   0.6695 B( 10-O , 11-H ) :   0.8054

Dispersion correction           -0.002988128
FINAL SINGLE POINT ENERGY      -305.086198046292

DIPOLE MOMENT
-------------
                                X             Y             Z
Electronic contribution:     -0.00000      -0.00000       0.00000
Nuclear contribution   :     -0.00000       0.00000      -0.00000
                        -----------------------------------------
Total Dipole Moment    :     -0.00000      -0.00000       0.00000
                        -----------------------------------------
Magnitude (a.u.)       :      0.00000
Magnitude (Debye)      :      0.00000

Rotational constants in cm-1:     0.120189     0.120189     0.061062
Rotational constants in MHz :  3603.186050  3603.186050  1830.603761

                             ****ORCA TERMINATED NORMALLY****
TOTAL RUN TIME: 0 days 0 hours 1 minutes 1 seconds 179 msec
