                         Program Version 5.0.3 -  RELEASE  -
|  1> ! PBEh-3c def2/J TightSCF DefGrid3
|  2>
|  3> %maxcore 60000
|  4>
|  5> %pal
|  6> nprocs 4
|  7> end
|  8>
|  9> *xyzfile 0 1 22.xyz
| 10>
| 11>                          ****END OF INPUT****

CARTESIAN COORDINATES (ANGSTROEM)
---------------------------------
  N      0.540844    2.223198   -0.913487
  C      1.400463    1.254166   -1.383134
  C      0.839523    0.007920   -1.213362
  C     -0.437866    0.222965   -0.594665
  C     -1.461087   -0.641868   -0.160897
  C     -2.586865   -0.092029    0.427134
  C     -2.725706    1.304139    0.594449
  C     -1.735281    2.176362    0.171133
  C     -0.593835    1.621814   -0.420964
  H      0.730658    3.208855   -0.908333
  H      2.361523    1.525659   -1.788732
  H     -1.387925   -1.716790   -0.265118
  H     -3.615612    1.681270    1.080092
  H     -1.840662    3.244696    0.309184
  O     -3.579610   -0.932159    0.900215
  C     -4.716173   -0.970699    0.041023
  H     -4.441344   -1.346575   -0.947485
  H     -5.165264    0.018922   -0.067576
  H     -5.433649   -1.644719    0.501635
  C      1.491676   -1.312753   -1.468204
  C      2.247544   -1.823095   -0.225796
  N      3.362366   -0.968760    0.138135
  C      3.327375    0.119921    0.975925
  C      2.194128    0.181829    1.977671
  H      2.197710   -1.235341   -2.298666
  H      0.744054   -2.056520   -1.755683
  H      2.629704   -2.828077   -0.415575
  H      1.565704   -1.890893    0.619641
  H      4.119241   -0.908629   -0.527297
  O      4.210483    0.966342    0.939138
  H      2.124073   -0.743348    2.549709
  H      1.239238    0.345116    1.478718
  H      2.394569    1.009081    2.651165

 Total Charge           Charge          ....    0
 Multiplicity           Mult            ....    1
 Number of Electrons    NEL             ....  124
 Basis Dimension        Dim             ....  287

ORBITAL ENERGIES
----------------

  NO   OCC          E(Eh)            E(eV)
   0   2.0000     -19.506830      -530.8078
   1   2.0000     -19.443572      -529.0865
   2   2.0000     -14.689319      -399.7167
   3   2.0000     -14.649044      -398.6208
   4   2.0000     -10.538197      -286.7589
   5   2.0000     -10.496452      -285.6230
   6   2.0000     -10.484111      -285.2872
   7   2.0000     -10.482475      -285.2426
   8   2.0000     -10.482122      -285.2331
   9   2.0000     -10.481565      -285.2179
  10   2.0000     -10.456796      -284.5439
  11   2.0000     -10.452016      -284.4138
  12   2.0000     -10.450743      -284.3792
  13   2.0000     -10.447286      -284.2851
  14   2.0000     -10.446508      -284.2639
  15   2.0000     -10.445352      -284.2325
  16   2.0000     -10.425576      -283.6944
  17   2.0000      -1.155163       -31.4336
  18   2.0000      -1.129098       -30.7243
  19   2.0000      -1.092010       -29.7151
  20   2.0000      -1.014507       -27.6061
  21   2.0000      -0.941190       -25.6111
  22   2.0000      -0.901687       -24.5362
  23   2.0000      -0.845382       -23.0040
  24   2.0000      -0.831994       -22.6397
  25   2.0000      -0.815651       -22.1950
  26   2.0000      -0.804686       -21.8966
  27   2.0000      -0.768092       -20.9008
  28   2.0000      -0.731540       -19.9062
  29   2.0000      -0.701928       -19.1004
  30   2.0000      -0.669873       -18.2282
  31   2.0000      -0.640807       -17.4372
  32   2.0000      -0.634723       -17.2717
  33   2.0000      -0.615553       -16.7500
  34   2.0000      -0.573513       -15.6061
  35   2.0000      -0.558680       -15.2025
  36   2.0000      -0.547027       -14.8854
  37   2.0000      -0.538889       -14.6639
  38   2.0000      -0.525265       -14.2932
  39   2.0000      -0.521531       -14.1916
  40   2.0000      -0.516436       -14.0529
  41   2.0000      -0.507891       -13.8204
  42   2.0000      -0.496681       -13.5154
  43   2.0000      -0.483149       -13.1472
  44   2.0000      -0.478548       -13.0219
  45   2.0000      -0.475644       -12.9429
  46   2.0000      -0.463072       -12.6008
  47   2.0000      -0.454980       -12.3806
  48   2.0000      -0.447500       -12.1771
  49   2.0000      -0.442663       -12.0455
  50   2.0000      -0.430645       -11.7185
  51   2.0000      -0.422365       -11.4931
  52   2.0000      -0.407335       -11.0841
  53   2.0000      -0.401807       -10.9337
  54   2.0000      -0.394361       -10.7311
  55   2.0000      -0.378183       -10.2909
  56   2.0000      -0.329182        -8.9575
  57   2.0000      -0.326737        -8.8910
  58   2.0000      -0.298712        -8.1284
  59   2.0000      -0.289241        -7.8707
  60   2.0000      -0.258212        -7.0263
  61   2.0000      -0.245405        -6.6778
  62   0.0000       0.000932         0.0254
  63   0.0000       0.045365         1.2344
  64   0.0000       0.071473         1.9449
  65   0.0000       0.083180         2.2634
  66   0.0000       0.124186         3.3793

MULLIKEN ATOMIC CHARGES
-----------------------
   0 N :   -0.692728
   1 C :   -0.041236
   2 C :   -0.000358
   3 C :    0.066667
   4 C :   -0.431286
   5 C :    0.360635
   6 C :   -0.312768
   7 C :   -0.264966
   8 C :    0.355890
   9 H :    0.363142
  10 H :    0.255234
  11 H :    0.214210
  12 H :    0.229097
  13 H :    0.217744
  14 O :   -0.486071
  15 C :   -0.377097
  16 H :    0.202894
  17 H :    0.198703
  18 H :    0.220525
  19 C :   -0.528607
  20 C :   -0.290040
  21 N :   -0.597652
  22 C :    0.493803
  23 C :   -0.781842
  24 H :    0.228365
  25 H :    0.228959
  26 H :    0.234579
  27 H :    0.243338
  28 H :    0.349227
  29 O :   -0.427674
  30 H :    0.233455
  31 H :    0.272760
  32 H :    0.263100
Sum of atomic charges:    0.0000000

LOEWDIN ATOMIC CHARGES
----------------------
   0 N :   -0.151379
   1 C :   -0.070926
   2 C :   -0.115730
   3 C :   -0.061652
   4 C :   -0.155247
   5 C :    0.042979
   6 C :   -0.159324
   7 C :   -0.151238
   8 C :    0.009297
   9 H :    0.265080
  10 H :    0.142680
  11 H :    0.142851
  12 H :    0.142729
  13 H :    0.138420
  14 O :   -0.220744
  15 C :   -0.172410
  16 H :    0.110692
  17 H :    0.108103
  18 H :    0.124248
  19 C :   -0.236203
  20 C :   -0.145212
  21 N :   -0.248000
  22 C :    0.108614
  23 C :   -0.398679
  24 H :    0.132915
  25 H :    0.135814
  26 H :    0.124232
  27 H :    0.135553
  28 H :    0.252378
  29 O :   -0.282702
  30 H :    0.141879
  31 H :    0.157980
  32 H :    0.153002

  Mayer bond orders larger than 0.100000
B(  0-N ,  1-C ) :   1.1378 B(  0-N ,  8-C ) :   1.0173 B(  0-N ,  9-H ) :   0.8316
B(  1-C ,  2-C ) :   1.5542 B(  1-C , 10-H ) :   0.9047 B(  2-C ,  3-C ) :   1.2456
B(  2-C , 19-C ) :   0.9550 B(  3-C ,  4-C ) :   1.2416 B(  3-C ,  8-C ) :   1.2448
B(  4-C ,  5-C ) :   1.4865 B(  4-C , 11-H ) :   0.9296 B(  5-C ,  6-C ) :   1.3176
B(  5-C , 14-O ) :   0.9538 B(  6-C ,  7-C ) :   1.4845 B(  6-C , 12-H ) :   0.9120
B(  7-C ,  8-C ) :   1.2919 B(  7-C , 13-H ) :   0.9198 B( 14-O , 15-C ) :   0.9513
B( 15-C , 16-H ) :   0.9123 B( 15-C , 17-H ) :   0.9118 B( 15-C , 18-H ) :   0.9283
B( 19-C , 20-C ) :   0.9466 B( 19-C , 24-H ) :   0.9264 B( 19-C , 25-H ) :   0.9135
B( 20-C , 21-N ) :   0.9726 B( 20-C , 26-H ) :   0.9131 B( 20-C , 27-H ) :   0.9028
B( 21-N , 22-C ) :   1.1349 B( 21-N , 28-H ) :   0.8267 B( 22-C , 23-C ) :   0.9328
B( 22-C , 29-O ) :   2.0248 B( 23-C , 30-H ) :   0.9111 B( 23-C , 31-H ) :   0.8874
B( 23-C , 32-H ) :   0.9190

Dispersion correction           -0.022930030
FINAL SINGLE POINT ENERGY      -763.324235453783

DIPOLE MOMENT
-------------
                                X             Y             Z
Electronic contribution:      2.69086       5.62737      -1.01974
Nuclear contribution   :     -3.57273      -5.67402       0.00402
                        -----------------------------------------
Total Dipole Moment    :     -0.88187      -0.04665      -1.01572
                        -----------------------------------------
Magnitude (a.u.)       :      1.34594
Magnitude (Debye)      :      3.42110

Rotational constants in cm-1:     0.029372     0.009277     0.008548
Rotational constants in MHz :   880.547843   278.114681   256.258544

                             ****ORCA TERMINATED NORMALLY****
TOTAL RUN TIME: 0 days 0 hours 4 minutes 37 seconds 723 msec
