                         Program Version 5.0.3 -  RELEASE  -
|  1> ! PBEh-3c def2/J TightSCF DefGrid3
|  2>
|  3> %maxcore 60000
|  4>
|  5> %pal
|  6> nprocs 4
|  7> end
|  8>
|  9> *xyzfile 0 1 R46.xyz
| 10>
| 11>                          ****END OF INPUT****

CARTESIAN COORDINATES (ANGSTROEM)
---------------------------------
  C      0.000000    0.257531    0.000000
  C      1.540396    0.284418    0.000000
  C      0.052693   -1.214504    0.000000
  C      1.400660   -1.236009    0.000000
  H      1.997934    0.723279    0.889059
  H      1.997934    0.723279   -0.889059
  H      2.129805   -2.033504    0.000000
  C     -0.956284    1.178851    0.000000
  C     -1.019394   -2.241900    0.000000
  H     -0.604084   -3.249203    0.000000
  H     -1.660345   -2.134776    0.878337
  H     -1.660345   -2.134776   -0.878337
  H     -1.989962    0.845342    0.000000
  C     -0.720499    2.656584    0.000000
  H     -1.170184    3.130608   -0.876734
  H     -1.170184    3.130608    0.876734
  H      0.343999    2.889316    0.000000

 Total Charge           Charge          ....    0
 Multiplicity           Mult            ....    1
 Number of Electrons    NEL             ....   52
 Basis Dimension        Dim             ....  125

ORBITAL ENERGIES
----------------

  NO   OCC          E(Eh)            E(eV)
   0   2.0000     -10.449510      -284.3456
   1   2.0000     -10.443620      -284.1854
   2   2.0000     -10.441931      -284.1394
   3   2.0000     -10.438622      -284.0493
   4   2.0000     -10.434708      -283.9428
   5   2.0000     -10.433727      -283.9161
   6   2.0000     -10.427756      -283.7537
   7   2.0000      -0.966148       -26.2902
   8   2.0000      -0.856126       -23.2964
   9   2.0000      -0.819240       -22.2927
  10   2.0000      -0.745186       -20.2775
  11   2.0000      -0.705907       -19.2087
  12   2.0000      -0.637844       -17.3566
  13   2.0000      -0.547704       -14.9038
  14   2.0000      -0.531048       -14.4505
  15   2.0000      -0.504583       -13.7304
  16   2.0000      -0.497414       -13.5353
  17   2.0000      -0.464547       -12.6410
  18   2.0000      -0.458075       -12.4649
  19   2.0000      -0.457416       -12.4469
  20   2.0000      -0.430945       -11.7266
  21   2.0000      -0.403060       -10.9678
  22   2.0000      -0.384472       -10.4620
  23   2.0000      -0.360357        -9.8058
  24   2.0000      -0.322887        -8.7862
  25   2.0000      -0.253002        -6.8845
  26   0.0000       0.018730         0.5097
  27   0.0000       0.107065         2.9134
  28   0.0000       0.150943         4.1074
  29   0.0000       0.162122         4.4116
  30   0.0000       0.181260         4.9323

MULLIKEN ATOMIC CHARGES
-----------------------
   0 C :    0.126726
   1 C :   -0.469571
   2 C :    0.187244
   3 C :   -0.307576
   4 H :    0.226634
   5 H :    0.226634
   6 H :    0.204470
   7 C :   -0.336123
   8 C :   -0.746693
   9 H :    0.231021
  10 H :    0.232432
  11 H :    0.232432
  12 H :    0.204088
  13 C :   -0.684973
  14 H :    0.222955
  15 H :    0.222955
  16 H :    0.227343
Sum of atomic charges:   -0.0000000

LOEWDIN ATOMIC CHARGES
----------------------
   0 C :   -0.044804
   1 C :   -0.220207
   2 C :   -0.047513
   3 C :   -0.136386
   4 H :    0.129168
   5 H :    0.129168
   6 H :    0.125042
   7 C :   -0.174589
   8 C :   -0.360061
   9 H :    0.139906
  10 H :    0.142161
  11 H :    0.142161
  12 H :    0.130802
  13 C :   -0.353923
  14 H :    0.132858
  15 H :    0.132858
  16 H :    0.133358

  Mayer bond orders larger than 0.100000
B(  0-C ,  1-C ) :   0.9539 B(  0-C ,  2-C ) :   1.0591 B(  0-C ,  7-C ) :   1.7773
B(  1-C ,  3-C ) :   1.0141 B(  1-C ,  4-H ) :   0.9048 B(  1-C ,  5-H ) :   0.9048
B(  2-C ,  3-C ) :   1.7308 B(  2-C ,  8-C ) :   0.9560 B(  3-C ,  6-H ) :   0.9310
B(  3-C ,  7-C ) :   0.1114 B(  7-C , 12-H ) :   0.9258 B(  7-C , 13-C ) :   1.0098
B(  8-C ,  9-H ) :   0.9309 B(  8-C , 10-H ) :   0.9179 B(  8-C , 11-H ) :   0.9179
B( 13-C , 14-H ) :   0.9174 B( 13-C , 15-H ) :   0.9174 B( 13-C , 16-H ) :   0.9296

Dispersion correction           -0.007776483
FINAL SINGLE POINT ENERGY      -272.094106424485

DIPOLE MOMENT
-------------
                                X             Y             Z
Electronic contribution:      1.77785      -2.03587       0.00000
Nuclear contribution   :     -1.85185       1.96049       0.00000
                        -----------------------------------------
Total Dipole Moment    :     -0.07401      -0.07538       0.00000
                        -----------------------------------------
Magnitude (a.u.)       :      0.10563
Magnitude (Debye)      :      0.26850

Rotational constants in cm-1:     0.156843     0.064179     0.046729
Rotational constants in MHz :  4702.046372  1924.039044  1400.913957

                             ****ORCA TERMINATED NORMALLY****
TOTAL RUN TIME: 0 days 0 hours 1 minutes 22 seconds 197 msec
