                         Program Version 5.0.3 -  RELEASE  -
|  1> ! PBEh-3c def2/J TightSCF DefGrid3
|  2>
|  3> %maxcore 60000
|  4>
|  5> %pal
|  6> nprocs 4
|  7> end
|  8>
|  9> *xyzfile 0 1 14.xyz
| 10>
| 11>                          ****END OF INPUT****

CARTESIAN COORDINATES (ANGSTROEM)
---------------------------------
  O     -0.996612    1.338855   -2.109345
  Al     1.734112   -0.045674    1.945722
  Si    -0.617099   -0.169537    0.894620
  H     -2.893807    2.419753   -0.280109
  Li     0.514171    0.353211   -1.724928
  H     -1.438408    1.743951   -2.866490
  Cl     1.510342   -1.722080   -2.006642
  Al    -1.638856    1.476010   -0.443534
  H      1.238660   -2.051867   -0.680184
  H     -0.723976   -2.825769    0.983658
  B      0.170624   -2.062559    1.236154
  H     -0.371610    2.503968    0.443463
  H      0.577409   -2.161412    2.379240
  B      0.339532    1.512008    0.754092
  H      1.164821   -2.307665    0.520810
  H      1.430697    1.998807    0.953472

 Total Charge           Charge          ....    0
 Multiplicity           Mult            ....    1
 Number of Electrons    NEL             ....   86
 Basis Dimension        Dim             ....  142

ORBITAL ENERGIES
----------------

  NO   OCC          E(Eh)            E(eV)
   0   2.0000    -102.322031     -2784.3240
   1   2.0000     -66.716821     -1815.4570
   2   2.0000     -56.629026     -1540.9541
   3   2.0000     -56.626773     -1540.8928
   4   2.0000     -19.517093      -531.0871
   5   2.0000      -9.789235      -266.3786
   6   2.0000      -7.475098      -203.4078
   7   2.0000      -7.470207      -203.2747
   8   2.0000      -7.469073      -203.2438
   9   2.0000      -6.970055      -189.6648
  10   2.0000      -6.929315      -188.5562
  11   2.0000      -5.496498      -149.5673
  12   2.0000      -4.363948      -118.7491
  13   2.0000      -4.360740      -118.6618
  14   2.0000      -3.789289      -103.1118
  15   2.0000      -3.786329      -103.0312
  16   2.0000      -3.784549      -102.9828
  17   2.0000      -2.855443       -77.7006
  18   2.0000      -2.852914       -77.6317
  19   2.0000      -2.850223       -77.5585
  20   2.0000      -2.847320       -77.4795
  21   2.0000      -2.846844       -77.4666
  22   2.0000      -2.845279       -77.4240
  23   2.0000      -2.117699       -57.6255
  24   2.0000      -1.109469       -30.1902
  25   2.0000      -0.937845       -25.5200
  26   2.0000      -0.673277       -18.3208
  27   2.0000      -0.620749       -16.8914
  28   2.0000      -0.591567       -16.0973
  29   2.0000      -0.537932       -14.6379
  30   2.0000      -0.496823       -13.5192
  31   2.0000      -0.489943       -13.3320
  32   2.0000      -0.460738       -12.5373
  33   2.0000      -0.420660       -11.4468
  34   2.0000      -0.416519       -11.3341
  35   2.0000      -0.403362       -10.9761
  36   2.0000      -0.395997       -10.7756
  37   2.0000      -0.379792       -10.3347
  38   2.0000      -0.374324       -10.1859
  39   2.0000      -0.324051        -8.8179
  40   2.0000      -0.297136        -8.0855
  41   2.0000      -0.262225        -7.1355
  42   2.0000      -0.251548        -6.8450
  43   0.0000      -0.050672        -1.3789
  44   0.0000      -0.034224        -0.9313
  45   0.0000      -0.010662        -0.2901
  46   0.0000      -0.001610        -0.0438
  47   0.0000       0.016361         0.4452

MULLIKEN ATOMIC CHARGES
-----------------------
   0 O :   -0.874885
   1 Al:    0.412051
   2 Si:   -0.249939
   3 H :   -0.068262
   4 Li:    0.587785
   5 H :    0.454133
   6 Cl:   -0.330332
   7 Al:    0.715391
   8 H :    0.265888
   9 H :    0.117854
  10 B :   -0.619021
  11 H :    0.024958
  12 H :    0.056785
  13 B :   -0.576733
  14 H :    0.017584
  15 H :    0.066743
Sum of atomic charges:    0.0000000

LOEWDIN ATOMIC CHARGES
----------------------
   0 O :   -0.455606
   1 Al:    0.314036
   2 Si:    0.168174
   3 H :   -0.066357
   4 Li:    0.135621
   5 H :    0.343611
   6 Cl:   -0.066896
   7 Al:    0.249461
   8 H :    0.243704
   9 H :    0.048532
  10 B :   -0.600305
  11 H :    0.092195
  12 H :    0.050500
  13 B :   -0.530961
  14 H :    0.002636
  15 H :    0.071653

  Mayer bond orders larger than 0.100000
B(  0-O ,  4-Li) :   0.2813 B(  0-O ,  5-H ) :   0.7514 B(  0-O ,  7-Al) :   0.7146
B(  1-Al,  2-Si) :   0.3198 B(  1-Al, 10-B ) :   0.1323 B(  1-Al, 13-B ) :   0.3090
B(  2-Si,  7-Al) :   0.7575 B(  2-Si, 10-B ) :   0.8026 B(  2-Si, 13-B ) :   1.4021
B(  3-H ,  7-Al) :   0.9444 B(  4-Li,  6-Cl) :   0.2646 B(  6-Cl,  8-H ) :   0.6225
B(  7-Al, 11-H ) :   0.2370 B(  7-Al, 13-B ) :   0.2975 B(  8-H , 10-B ) :   0.1033
B(  8-H , 14-H ) :   0.1933 B(  9-H , 10-B ) :   0.9420 B( 10-B , 12-H ) :   0.8841
B( 10-B , 14-H ) :   0.7282 B( 11-H , 13-B ) :   0.6993 B( 13-B , 15-H ) :   0.8703

Dispersion correction           -0.009807401
FINAL SINGLE POINT ENERGY     -1370.064165390747

DIPOLE MOMENT
-------------
                                X             Y             Z
Electronic contribution:      4.23484       0.47769      -4.53987
Nuclear contribution   :     -4.23423       0.62573       2.95313
                        -----------------------------------------
Total Dipole Moment    :      0.00061       1.10342      -1.58673
                        -----------------------------------------
Magnitude (a.u.)       :      1.93268
Magnitude (Debye)      :      4.91248

Rotational constants in cm-1:     0.033466     0.029209     0.019136
Rotational constants in MHz :  1003.273698   875.678078   573.685405

                             ****ORCA TERMINATED NORMALLY****
TOTAL RUN TIME: 0 days 0 hours 2 minutes 46 seconds 841 msec
