                         Program Version 5.0.3 -  RELEASE  -
|  1> ! PBEh-3c def2/J TightSCF DefGrid3
|  2>
|  3> %maxcore 60000
|  4>
|  5> %pal
|  6> nprocs 4
|  7> end
|  8>
|  9> *xyzfile 0 1 PRO_xae.xyz
| 10>
| 11>                          ****END OF INPUT****

CARTESIAN COORDINATES (ANGSTROEM)
---------------------------------
  N      0.981118   -0.027656    0.052867
  C     -0.095377    0.584444    0.846807
  C     -1.451040    0.429265    0.139788
  O     -2.047682    1.385417   -0.348322
  C      0.333370    2.041989    0.928637
  C      1.023424    2.265015   -0.416614
  C      1.815123    0.975653   -0.614737
  H     -0.139136    0.083049    1.814130
  H      1.041896    2.169038    1.747599
  H     -0.518884    2.697698    1.076936
  H      1.664622    3.143143   -0.434950
  H      0.265347    2.363890   -1.190907
  H      2.794507    1.038611   -0.133335
  H      1.962586    0.728014   -1.664551
  N     -1.894749   -0.844846    0.121044
  H     -1.256529   -1.551053    0.473264
  C     -3.106896   -1.218468   -0.572929
  H     -3.684043   -1.915336    0.030009
  H     -3.688319   -0.317063   -0.739611
  H     -2.893154   -1.679985   -1.537068
  C      1.260402   -1.348615    0.144124
  O      0.546052   -2.128046    0.785459
  C      2.490091   -1.818217   -0.591077
  H      2.613792   -2.878656   -0.402394
  H      2.384406   -1.650904   -1.662258
  H      3.377109   -1.280658   -0.258878

 Total Charge           Charge          ....    0
 Multiplicity           Mult            ....    1
 Number of Electrons    NEL             ....   92
 Basis Dimension        Dim             ....  208

ORBITAL ENERGIES
----------------

  NO   OCC          E(Eh)            E(eV)
   0   2.0000     -19.468367      -529.7612
   1   2.0000     -19.450199      -529.2668
   2   2.0000     -14.678511      -399.4226
   3   2.0000     -14.644126      -398.4869
   4   2.0000     -10.557997      -287.2977
   5   2.0000     -10.535438      -286.6838
   6   2.0000     -10.488440      -285.4050
   7   2.0000     -10.487620      -285.3826
   8   2.0000     -10.455121      -284.4983
   9   2.0000     -10.449133      -284.3354
  10   2.0000     -10.445718      -284.2424
  11   2.0000     -10.442824      -284.1637
  12   2.0000      -1.153826       -31.3972
  13   2.0000      -1.131437       -30.7880
  14   2.0000      -1.057527       -28.7768
  15   2.0000      -1.008584       -27.4450
  16   2.0000      -0.901028       -24.5182
  17   2.0000      -0.856854       -23.3162
  18   2.0000      -0.825117       -22.4526
  19   2.0000      -0.784484       -21.3469
  20   2.0000      -0.725744       -19.7485
  21   2.0000      -0.678189       -18.4545
  22   2.0000      -0.649975       -17.6867
  23   2.0000      -0.629029       -17.1168
  24   2.0000      -0.598918       -16.2974
  25   2.0000      -0.565292       -15.3824
  26   2.0000      -0.542278       -14.7561
  27   2.0000      -0.530807       -14.4440
  28   2.0000      -0.519766       -14.1436
  29   2.0000      -0.505336       -13.7509
  30   2.0000      -0.498172       -13.5559
  31   2.0000      -0.485982       -13.2242
  32   2.0000      -0.479390       -13.0449
  33   2.0000      -0.466603       -12.6969
  34   2.0000      -0.458061       -12.4645
  35   2.0000      -0.449096       -12.2205
  36   2.0000      -0.435157       -11.8412
  37   2.0000      -0.419479       -11.4146
  38   2.0000      -0.418290       -11.3822
  39   2.0000      -0.408965       -11.1285
  40   2.0000      -0.407056       -11.0766
  41   2.0000      -0.391826       -10.6621
  42   2.0000      -0.323571        -8.8048
  43   2.0000      -0.318771        -8.6742
  44   2.0000      -0.290231        -7.8976
  45   2.0000      -0.283676        -7.7192
  46   0.0000       0.042375         1.1531
  47   0.0000       0.066283         1.8036
  48   0.0000       0.119020         3.2387
  49   0.0000       0.144898         3.9429
  50   0.0000       0.154066         4.1923

MULLIKEN ATOMIC CHARGES
-----------------------
   0 N :   -0.449652
   1 C :   -0.234384
   2 C :    0.571800
   3 O :   -0.443807
   4 C :   -0.453227
   5 C :   -0.477610
   6 C :   -0.253220
   7 H :    0.277139
   8 H :    0.225802
   9 H :    0.273787
  10 H :    0.234727
  11 H :    0.266650
  12 H :    0.218950
  13 H :    0.234670
  14 N :   -0.653079
  15 H :    0.408661
  16 C :   -0.492909
  17 H :    0.220110
  18 H :    0.256315
  19 H :    0.215912
  20 C :    0.531903
  21 O :   -0.472841
  22 C :   -0.761787
  23 H :    0.274630
  24 H :    0.243249
  25 H :    0.238210
Sum of atomic charges:   -0.0000000

LOEWDIN ATOMIC CHARGES
----------------------
   0 N :   -0.116185
   1 C :   -0.083183
   2 C :    0.102369
   3 O :   -0.290189
   4 C :   -0.230056
   5 C :   -0.241226
   6 C :   -0.133797
   7 H :    0.148509
   8 H :    0.128320
   9 H :    0.153253
  10 H :    0.132767
  11 H :    0.147649
  12 H :    0.118063
  13 H :    0.127281
  14 N :   -0.247254
  15 H :    0.268335
  16 C :   -0.256086
  17 H :    0.123892
  18 H :    0.148378
  19 H :    0.118979
  20 C :    0.116760
  21 O :   -0.304840
  22 C :   -0.384005
  23 H :    0.157433
  24 H :    0.149113
  25 H :    0.145720

  Mayer bond orders larger than 0.100000
B(  0-N ,  1-C ) :   0.9168 B(  0-N ,  6-C ) :   0.9328 B(  0-N , 20-C ) :   1.1979
B(  1-C ,  2-C ) :   0.8702 B(  1-C ,  4-C ) :   0.9699 B(  1-C ,  7-H ) :   0.8853
B(  2-C ,  3-O ) :   1.9513 B(  2-C , 14-N ) :   1.1994 B(  3-O , 14-N ) :   0.1061
B(  4-C ,  5-C ) :   0.9665 B(  4-C ,  8-H ) :   0.9167 B(  4-C ,  9-H ) :   0.9044
B(  5-C ,  6-C ) :   0.9695 B(  5-C , 10-H ) :   0.9249 B(  5-C , 11-H ) :   0.8966
B(  6-C , 12-H ) :   0.9043 B(  6-C , 13-H ) :   0.9096 B( 14-N , 15-H ) :   0.7246
B( 14-N , 16-C ) :   0.9598 B( 16-C , 17-H ) :   0.9241 B( 16-C , 18-H ) :   0.9045
B( 16-C , 19-H ) :   0.9204 B( 20-C , 21-O ) :   1.8596 B( 20-C , 22-C ) :   0.9421
B( 22-C , 23-H ) :   0.9146 B( 22-C , 24-H ) :   0.9078 B( 22-C , 25-H ) :   0.9087

Dispersion correction           -0.015793488
FINAL SINGLE POINT ENERGY      -572.046357919262

DIPOLE MOMENT
-------------
                                X             Y             Z
Electronic contribution:     -2.81705      -0.88897       2.77114
Nuclear contribution   :      4.08875       0.89009      -3.07501
                        -----------------------------------------
Total Dipole Moment    :      1.27171       0.00112      -0.30387
                        -----------------------------------------
Magnitude (a.u.)       :      1.30751
Magnitude (Debye)      :      3.32342

Rotational constants in cm-1:     0.038632     0.029746     0.019277
Rotational constants in MHz :  1158.169592   891.754517   577.910830

                             ****ORCA TERMINATED NORMALLY****
TOTAL RUN TIME: 0 days 0 hours 2 minutes 49 seconds 115 msec
