                         Program Version 5.0.3 -  RELEASE  -
|  1> ! PBEh-3c def2/J TightSCF DefGrid3
|  2>
|  3> %maxcore 60000
|  4>
|  5> %pal
|  6> nprocs 4
|  7> end
|  8>
|  9> *xyzfile 1 2 IP_62.xyz
| 10>
| 11>                          ****END OF INPUT****

CARTESIAN COORDINATES (ANGSTROEM)
---------------------------------
  O      0.000000    0.000000    0.386908
  H      0.821305    0.000000   -0.193454
  H     -0.821305    0.000000   -0.193454

 Total Charge           Charge          ....    1
 Multiplicity           Mult            ....    2
 Number of Electrons    NEL             ....    9
 Basis Dimension        Dim             ....   19

ORBITAL ENERGIES
----------------
                 SPIN UP ORBITALS
  NO   OCC          E(Eh)            E(eV)
   0   1.0000     -20.052701      -545.6617
   1   1.0000      -1.624870       -44.2149
   2   1.0000      -1.062670       -28.9167
   3   1.0000      -0.949918       -25.8486
   4   1.0000      -0.925535       -25.1851
   5   0.0000      -0.240184        -6.5358
   6   0.0000      -0.163191        -4.4406
   7   0.0000       0.489977        13.3329
   8   0.0000       0.493386        13.4257
   9   0.0000       0.496974        13.5233

                 SPIN DOWN ORBITALS
  NO   OCC          E(Eh)            E(eV)
   0   1.0000     -20.021385      -544.8096
   1   1.0000      -1.530808       -41.6554
   2   1.0000      -1.036426       -28.2026
   3   1.0000      -0.889426       -24.2025
   4   0.0000      -0.532365       -14.4864
   5   0.0000      -0.226214        -6.1556
   6   0.0000      -0.155415        -4.2291
   7   0.0000       0.489295        13.3144
   8   0.0000       0.511006        13.9052

MULLIKEN ATOMIC CHARGES AND SPIN POPULATIONS
--------------------------------------------
   0 O :   -0.162620    1.061426
   1 H :    0.581310   -0.030713
   2 H :    0.581310   -0.030713
Sum of atomic charges         :    1.0000000

LOEWDIN ATOMIC CHARGES AND SPIN POPULATIONS
-------------------------------------------
   0 O :    0.136192    1.050059
   1 H :    0.431904   -0.025030
   2 H :    0.431904   -0.025030

  Mayer bond orders larger than 0.100000
B(  0-O ,  1-H ) :   0.6479 B(  0-O ,  2-H ) :   0.6479

Dispersion correction           -0.000209480
FINAL SINGLE POINT ENERGY       -75.809648048381

DIPOLE MOMENT
-------------
                                X             Y             Z
Electronic contribution:     -0.00000       0.00000      -0.05234
Nuclear contribution   :      0.00000       0.00000      -0.96614
                        -----------------------------------------
Total Dipole Moment    :     -0.00000       0.00000      -1.01848
                        -----------------------------------------
Magnitude (a.u.)       :      1.01848
Magnitude (Debye)      :      2.58877

Rotational constants in cm-1:    27.954341    12.396456     8.588052
Rotational constants in MHz : 838050.072993 371636.403372 257463.335383

                             ****ORCA TERMINATED NORMALLY****
TOTAL RUN TIME: 0 days 0 hours 0 minutes 9 seconds 37 msec
