                         Program Version 5.0.3 -  RELEASE  -
|  1> ! PBEh-3c def2/J TightSCF DefGrid3
|  2>
|  3> %maxcore 60000
|  4>
|  5> %pal
|  6> nprocs 4
|  7> end
|  8>
|  9> *xyzfile 0 1 oxirene.xyz
| 10>
| 11>                          ****END OF INPUT****

CARTESIAN COORDINATES (ANGSTROEM)
---------------------------------
  C      0.500162   -0.635515    0.000000
  C      0.500162    0.635515    0.000000
  H      0.830950    1.652256    0.000000
  H      0.830950   -1.652256    0.000000
  O     -0.855652    0.000000    0.000000

 Total Charge           Charge          ....    0
 Multiplicity           Mult            ....    1
 Number of Electrons    NEL             ....   22
 Basis Dimension        Dim             ....   49

ORBITAL ENERGIES
----------------

  NO   OCC          E(Eh)            E(eV)
   0   2.0000     -19.494390      -530.4693
   1   2.0000     -10.516744      -286.1752
   2   2.0000     -10.515254      -286.1346
   3   2.0000      -1.146041       -31.1854
   4   2.0000      -0.780897       -21.2493
   5   2.0000      -0.681894       -18.5553
   6   2.0000      -0.598126       -16.2758
   7   2.0000      -0.457810       -12.4576
   8   2.0000      -0.419542       -11.4163
   9   2.0000      -0.417632       -11.3644
  10   2.0000      -0.245620        -6.6837
  11   0.0000       0.017736         0.4826
  12   0.0000       0.115528         3.1437
  13   0.0000       0.151676         4.1273
  14   0.0000       0.156860         4.2684
  15   0.0000       0.188814         5.1379

MULLIKEN ATOMIC CHARGES
-----------------------
   0 C :    0.015564
   1 C :    0.015564
   2 H :    0.230538
   3 H :    0.230538
   4 O :   -0.492204
Sum of atomic charges:    0.0000000

LOEWDIN ATOMIC CHARGES
----------------------
   0 C :    0.005488
   1 C :    0.005488
   2 H :    0.158036
   3 H :    0.158036
   4 O :   -0.327050

  Mayer bond orders larger than 0.100000
B(  0-C ,  1-C ) :   1.9067 B(  0-C ,  3-H ) :   0.9136 B(  0-C ,  4-O ) :   0.8764
B(  1-C ,  2-H ) :   0.9136 B(  1-C ,  4-O ) :   0.8764

Dispersion correction           -0.001072742
FINAL SINGLE POINT ENERGY      -152.128048843786

DIPOLE MOMENT
-------------
                                X             Y             Z
Electronic contribution:     -0.52374       0.00000      -0.00000
Nuclear contribution   :      1.54648       0.00000       0.00000
                        -----------------------------------------
Total Dipole Moment    :      1.02274       0.00000      -0.00000
                        -----------------------------------------
Magnitude (a.u.)       :      1.02274
Magnitude (Debye)      :      2.59959

Rotational constants in cm-1:     1.108650     0.881911     0.491183
Rotational constants in MHz : 33236.476636 26439.024717 14725.306154

                             ****ORCA TERMINATED NORMALLY****
TOTAL RUN TIME: 0 days 0 hours 0 minutes 47 seconds 958 msec
