                         Program Version 5.0.3 -  RELEASE  -
|  1> ! PBEh-3c def2/J TightSCF DefGrid3
|  2>
|  3> %maxcore 60000
|  4>
|  5> %pal
|  6> nprocs 4
|  7> end
|  8>
|  9> *xyzfile 0 1 09A.xyz
| 10>
| 11>                          ****END OF INPUT****

CARTESIAN COORDINATES (ANGSTROEM)
---------------------------------
  N      0.124570   -0.403188   -0.817005
  H      1.114969   -0.615403   -0.845077
  H     -0.350418   -1.292734   -0.740169
  C     -0.157762    0.398564    0.371230
  H     -1.223606    0.612872    0.421017
  H      0.137231   -0.055097    1.323202
  H      0.355015    1.354986    0.286802

 Total Charge           Charge          ....    0
 Multiplicity           Mult            ....    1
 Number of Electrons    NEL             ....   18
 Basis Dimension        Dim             ....   40

ORBITAL ENERGIES
----------------

  NO   OCC          E(Eh)            E(eV)
   0   2.0000     -14.604312      -397.4035
   1   2.0000     -10.445602      -284.2393
   2   2.0000      -0.965915       -26.2839
   3   2.0000      -0.734235       -19.9796
   4   2.0000      -0.546591       -14.8735
   5   2.0000      -0.493462       -13.4278
   6   2.0000      -0.452621       -12.3165
   7   2.0000      -0.415989       -11.3196
   8   2.0000      -0.283703        -7.7200
   9   0.0000       0.137930         3.7533
  10   0.0000       0.201348         5.4789
  11   0.0000       0.212623         5.7858
  12   0.0000       0.228245         6.2109
  13   0.0000       0.233660         6.3582

MULLIKEN ATOMIC CHARGES
-----------------------
   0 N :   -0.734786
   1 H :    0.313103
   2 H :    0.313481
   3 C :   -0.503532
   4 H :    0.215974
   5 H :    0.179711
   6 H :    0.216050
Sum of atomic charges:    0.0000000

LOEWDIN ATOMIC CHARGES
----------------------
   0 N :   -0.485472
   1 H :    0.218218
   2 H :    0.217998
   3 C :   -0.280517
   4 H :    0.119824
   5 H :    0.090198
   6 H :    0.119752

  Mayer bond orders larger than 0.100000
B(  0-N ,  1-H ) :   0.8679 B(  0-N ,  2-H ) :   0.8676 B(  0-N ,  3-C ) :   1.0359
B(  3-C ,  4-H ) :   0.9266 B(  3-C ,  5-H ) :   0.9174 B(  3-C ,  6-H ) :   0.9264

Dispersion correction           -0.001526021
FINAL SINGLE POINT ENERGY       -95.642766177989

DIPOLE MOMENT
-------------
                                X             Y             Z
Electronic contribution:      0.13997      -0.46977      -0.94670
Nuclear contribution   :      0.04945       0.13150       1.40199
                        -----------------------------------------
Total Dipole Moment    :      0.18942      -0.33826       0.45529
                        -----------------------------------------
Magnitude (a.u.)       :      0.59799
Magnitude (Debye)      :      1.51996

Rotational constants in cm-1:     3.465521     0.763673     0.735069
Rotational constants in MHz : 103893.708335 22894.349880 22036.804293

                             ****ORCA TERMINATED NORMALLY****
TOTAL RUN TIME: 0 days 0 hours 0 minutes 45 seconds 737 msec
