                         Program Version 5.0.3 -  RELEASE  -
|  1> ! PBEh-3c def2/J TightSCF DefGrid3
|  2>
|  3> %maxcore 60000
|  4>
|  5> %pal
|  6> nprocs 4
|  7> end
|  8>
|  9> *xyzfile 0 1 41.xyz
| 10>
| 11>                          ****END OF INPUT****

CARTESIAN COORDINATES (ANGSTROEM)
---------------------------------
  N     -1.834902   -2.934235    0.073940
  C     -0.476200   -3.064343   -0.120506
  C      0.084550   -1.830894   -0.363426
  C     -0.994892   -0.883669   -0.315987
  C     -1.067262    0.511950   -0.489464
  C     -2.302856    1.128002   -0.395129
  C     -3.477463    0.389617   -0.128434
  C     -3.431927   -0.983872    0.050356
  C     -2.182175   -1.608446   -0.043987
  H     -2.471664   -3.691914    0.239201
  H     -0.005961   -4.033581   -0.077894
  H     -0.194067    1.111208   -0.711803
  H     -4.421877    0.915354   -0.087705
  H     -4.335194   -1.548141    0.243395
  O     -2.393927    2.491369   -0.612153
  C     -2.557487    3.227666    0.597076
  H     -1.700513    3.079908    1.258887
  H     -3.467549    2.930867    1.122928
  H     -2.626594    4.275735    0.317998
  C      1.532669   -1.523611   -0.580724
  C      2.156396   -0.839013    0.646796
  N      3.556467   -0.498702    0.477163
  C      4.067567    0.647951   -0.070540
  C      3.087826    1.780286   -0.308691
  H      1.657519   -0.873498   -1.450566
  H      2.083836   -2.442661   -0.792141
  H      2.066022   -1.502727    1.507965
  H      1.596430    0.061716    0.890721
  H      4.236524   -1.238673    0.556526
  O      5.258340    0.754884   -0.325247
  H      2.616795    2.092989    0.623163
  H      2.300815    1.484912   -1.002308
  H      3.640752    2.613563   -0.729421

 Total Charge           Charge          ....    0
 Multiplicity           Mult            ....    1
 Number of Electrons    NEL             ....  124
 Basis Dimension        Dim             ....  287

ORBITAL ENERGIES
----------------

  NO   OCC          E(Eh)            E(eV)
   0   2.0000     -19.508057      -530.8412
   1   2.0000     -19.446363      -529.1624
   2   2.0000     -14.692068      -399.7915
   3   2.0000     -14.653114      -398.7315
   4   2.0000     -10.542009      -286.8626
   5   2.0000     -10.497800      -285.6596
   6   2.0000     -10.486404      -285.3496
   7   2.0000     -10.485832      -285.3340
   8   2.0000     -10.483453      -285.2693
   9   2.0000     -10.482375      -285.2399
  10   2.0000     -10.458418      -284.5880
  11   2.0000     -10.452245      -284.4201
  12   2.0000     -10.451645      -284.4037
  13   2.0000     -10.449176      -284.3365
  14   2.0000     -10.448885      -284.3286
  15   2.0000     -10.448081      -284.3067
  16   2.0000     -10.437489      -284.0185
  17   2.0000      -1.156515       -31.4704
  18   2.0000      -1.132503       -30.8170
  19   2.0000      -1.094506       -29.7830
  20   2.0000      -1.017684       -27.6926
  21   2.0000      -0.942947       -25.6589
  22   2.0000      -0.905553       -24.6413
  23   2.0000      -0.846723       -23.0405
  24   2.0000      -0.833643       -22.6846
  25   2.0000      -0.823432       -22.4067
  26   2.0000      -0.808582       -22.0026
  27   2.0000      -0.769684       -20.9442
  28   2.0000      -0.732793       -19.9403
  29   2.0000      -0.704569       -19.1723
  30   2.0000      -0.672420       -18.2975
  31   2.0000      -0.646314       -17.5871
  32   2.0000      -0.637104       -17.3365
  33   2.0000      -0.617336       -16.7986
  34   2.0000      -0.573775       -15.6132
  35   2.0000      -0.561513       -15.2795
  36   2.0000      -0.559159       -15.2155
  37   2.0000      -0.546937       -14.8829
  38   2.0000      -0.526881       -14.3371
  39   2.0000      -0.519755       -14.1432
  40   2.0000      -0.511946       -13.9308
  41   2.0000      -0.509391       -13.8612
  42   2.0000      -0.500753       -13.6262
  43   2.0000      -0.490845       -13.3566
  44   2.0000      -0.482956       -13.1419
  45   2.0000      -0.473691       -12.8898
  46   2.0000      -0.461348       -12.5539
  47   2.0000      -0.459491       -12.5034
  48   2.0000      -0.455195       -12.3865
  49   2.0000      -0.451299       -12.2805
  50   2.0000      -0.438970       -11.9450
  51   2.0000      -0.418372       -11.3845
  52   2.0000      -0.409578       -11.1452
  53   2.0000      -0.406674       -11.0661
  54   2.0000      -0.396073       -10.7777
  55   2.0000      -0.379618       -10.3299
  56   2.0000      -0.330472        -8.9926
  57   2.0000      -0.328918        -8.9503
  58   2.0000      -0.300353        -8.1730
  59   2.0000      -0.293677        -7.9914
  60   2.0000      -0.259977        -7.0743
  61   2.0000      -0.247257        -6.7282
  62   0.0000      -0.000982        -0.0267
  63   0.0000       0.044430         1.2090
  64   0.0000       0.065450         1.7810
  65   0.0000       0.084465         2.2984
  66   0.0000       0.110769         3.0142

MULLIKEN ATOMIC CHARGES
-----------------------
   0 N :   -0.701330
   1 C :   -0.058134
   2 C :    0.024901
   3 C :    0.072106
   4 C :   -0.439127
   5 C :    0.363349
   6 C :   -0.312169
   7 C :   -0.262007
   8 C :    0.367955
   9 H :    0.360434
  10 H :    0.240357
  11 H :    0.217971
  12 H :    0.229340
  13 H :    0.216164
  14 O :   -0.484888
  15 C :   -0.376875
  16 H :    0.200721
  17 H :    0.198494
  18 H :    0.222098
  19 C :   -0.534673
  20 C :   -0.275014
  21 N :   -0.610874
  22 C :    0.498464
  23 C :   -0.787998
  24 H :    0.233547
  25 H :    0.226841
  26 H :    0.241612
  27 H :    0.239742
  28 H :    0.357014
  29 O :   -0.418645
  30 H :    0.239229
  31 H :    0.236193
  32 H :    0.275202
Sum of atomic charges:    0.0000000

LOEWDIN ATOMIC CHARGES
----------------------
   0 N :   -0.156715
   1 C :   -0.081178
   2 C :   -0.106049
   3 C :   -0.055118
   4 C :   -0.154584
   5 C :    0.044070
   6 C :   -0.158285
   7 C :   -0.151789
   8 C :    0.013721
   9 H :    0.262729
  10 H :    0.136057
  11 H :    0.141186
  12 H :    0.142857
  13 H :    0.137717
  14 O :   -0.219649
  15 C :   -0.172236
  16 H :    0.109675
  17 H :    0.107977
  18 H :    0.125000
  19 C :   -0.236411
  20 C :   -0.147140
  21 N :   -0.246407
  22 C :    0.106640
  23 C :   -0.398067
  24 H :    0.134446
  25 H :    0.133457
  26 H :    0.130133
  27 H :    0.132172
  28 H :    0.257402
  29 O :   -0.274182
  30 H :    0.145199
  31 H :    0.139974
  32 H :    0.157397

  Mayer bond orders larger than 0.100000
B(  0-N ,  1-C ) :   1.1354 B(  0-N ,  8-C ) :   1.0133 B(  0-N ,  9-H ) :   0.8323
B(  1-C ,  2-C ) :   1.5591 B(  1-C , 10-H ) :   0.9107 B(  2-C ,  3-C ) :   1.2323
B(  2-C , 19-C ) :   0.9455 B(  3-C ,  4-C ) :   1.2393 B(  3-C ,  8-C ) :   1.2434
B(  4-C ,  5-C ) :   1.4881 B(  4-C , 11-H ) :   0.9230 B(  5-C ,  6-C ) :   1.3170
B(  5-C , 14-O ) :   0.9551 B(  6-C ,  7-C ) :   1.4850 B(  6-C , 12-H ) :   0.9118
B(  7-C ,  8-C ) :   1.2889 B(  7-C , 13-H ) :   0.9202 B( 14-O , 15-C ) :   0.9515
B( 15-C , 16-H ) :   0.9129 B( 15-C , 17-H ) :   0.9117 B( 15-C , 18-H ) :   0.9279
B( 19-C , 20-C ) :   0.9456 B( 19-C , 24-H ) :   0.9140 B( 19-C , 25-H ) :   0.9289
B( 20-C , 21-N ) :   0.9544 B( 20-C , 26-H ) :   0.9135 B( 20-C , 27-H ) :   0.9034
B( 21-N , 22-C ) :   1.1507 B( 21-N , 28-H ) :   0.8240 B( 22-C , 23-C ) :   0.9252
B( 22-C , 29-O ) :   2.0327 B( 23-C , 30-H ) :   0.9094 B( 23-C , 31-H ) :   0.9030
B( 23-C , 32-H ) :   0.9147

Dispersion correction           -0.021489826
FINAL SINGLE POINT ENERGY      -763.321290700695

DIPOLE MOMENT
-------------
                                X             Y             Z
Electronic contribution:     -2.52691      -6.38718      -2.30498
Nuclear contribution   :      0.69930       4.97579       3.31209
                        -----------------------------------------
Total Dipole Moment    :     -1.82761      -1.41140       1.00711
                        -----------------------------------------
Magnitude (a.u.)       :      2.51922
Magnitude (Debye)      :      6.40334

Rotational constants in cm-1:     0.021158     0.009174     0.006614
Rotational constants in MHz :   634.292952   275.024284   198.270196

                             ****ORCA TERMINATED NORMALLY****
TOTAL RUN TIME: 0 days 0 hours 4 minutes 26 seconds 173 msec
