                         Program Version 5.0.3 -  RELEASE  -
|  1> ! PBEh-3c def2/J TightSCF DefGrid3
|  2>
|  3> %maxcore 60000
|  4>
|  5> %pal
|  6> nprocs 4
|  7> end
|  8>
|  9> *xyzfile 0 1 bithiophene_anti.xyz
| 10>
| 11>                          ****END OF INPUT****

CARTESIAN COORDINATES (ANGSTROEM)
---------------------------------
  C     -1.459533   -1.191059    0.160033
  C     -2.848807   -0.962852    0.099315
  C     -3.153956    0.326087   -0.206002
  S     -1.749764    1.259202   -0.444453
  C     -0.718512   -0.071617   -0.100089
  C      0.718512    0.071617   -0.100089
  S      1.749764   -1.259202   -0.444453
  C      3.153956   -0.326087   -0.206002
  C      2.848807    0.962852    0.099315
  C      1.459533    1.191059    0.160033
  H     -1.009966   -2.133987    0.422850
  H     -3.590735   -1.718922    0.289872
  H     -4.123532    0.774799   -0.312242
  H      4.123532   -0.774799   -0.312242
  H      3.590735    1.718922    0.289872
  H      1.009966    2.133987    0.422850

 Total Charge           Charge          ....    0
 Multiplicity           Mult            ....    1
 Number of Electrons    NEL             ....   86
 Basis Dimension        Dim             ....  168

ORBITAL ENERGIES
----------------

  NO   OCC          E(Eh)            E(eV)
   0   2.0000     -89.620372     -2438.6943
   1   2.0000     -89.620349     -2438.6937
   2   2.0000     -10.489535      -285.4347
   3   2.0000     -10.489179      -285.4251
   4   2.0000     -10.474014      -285.0124
   5   2.0000     -10.474010      -285.0123
   6   2.0000     -10.452553      -284.4284
   7   2.0000     -10.452543      -284.4281
   8   2.0000     -10.451697      -284.4051
   9   2.0000     -10.451685      -284.4048
  10   2.0000      -8.260300      -224.7742
  11   2.0000      -8.260286      -224.7738
  12   2.0000      -6.150491      -167.3634
  13   2.0000      -6.150487      -167.3633
  14   2.0000      -6.147003      -167.2684
  15   2.0000      -6.147002      -167.2684
  16   2.0000      -6.144820      -167.2091
  17   2.0000      -6.144818      -167.2090
  18   2.0000      -1.007273       -27.4093
  19   2.0000      -0.983252       -26.7556
  20   2.0000      -0.863278       -23.4910
  21   2.0000      -0.835785       -22.7429
  22   2.0000      -0.822712       -22.3871
  23   2.0000      -0.789897       -21.4942
  24   2.0000      -0.674812       -18.3626
  25   2.0000      -0.652105       -17.7447
  26   2.0000      -0.620456       -16.8835
  27   2.0000      -0.600816       -16.3490
  28   2.0000      -0.594394       -16.1743
  29   2.0000      -0.541344       -14.7307
  30   2.0000      -0.475528       -12.9398
  31   2.0000      -0.474928       -12.9235
  32   2.0000      -0.468596       -12.7511
  33   2.0000      -0.459801       -12.5118
  34   2.0000      -0.454655       -12.3718
  35   2.0000      -0.432995       -11.7824
  36   2.0000      -0.430894       -11.7252
  37   2.0000      -0.404891       -11.0176
  38   2.0000      -0.392594       -10.6830
  39   2.0000      -0.321769        -8.7558
  40   2.0000      -0.301285        -8.1984
  41   2.0000      -0.297737        -8.1018
  42   2.0000      -0.248340        -6.7577
  43   0.0000      -0.024487        -0.6663
  44   0.0000       0.036943         1.0053
  45   0.0000       0.065986         1.7956
  46   0.0000       0.068568         1.8658
  47   0.0000       0.090814         2.4712

MULLIKEN ATOMIC CHARGES
-----------------------
   0 C :   -0.213875
   1 C :   -0.132502
   2 C :   -0.448747
   3 S :    0.241912
   4 C :   -0.162145
   5 C :   -0.162146
   6 S :    0.241912
   7 C :   -0.448746
   8 C :   -0.132504
   9 C :   -0.213874
  10 H :    0.230356
  11 H :    0.230103
  12 H :    0.254898
  13 H :    0.254898
  14 H :    0.230104
  15 H :    0.230356
Sum of atomic charges:   -0.0000000

LOEWDIN ATOMIC CHARGES
----------------------
   0 C :   -0.172443
   1 C :   -0.170342
   2 C :   -0.302340
   3 S :    0.407842
   4 C :   -0.198476
   5 C :   -0.198476
   6 S :    0.407842
   7 C :   -0.302340
   8 C :   -0.170342
   9 C :   -0.172443
  10 H :    0.144759
  11 H :    0.142945
  12 H :    0.148053
  13 H :    0.148053
  14 H :    0.142945
  15 H :    0.144759

  Mayer bond orders larger than 0.100000
B(  0-C ,  1-C ) :   1.3003 B(  0-C ,  4-C ) :   1.4895 B(  0-C , 10-H ) :   0.9181
B(  1-C ,  2-C ) :   1.5325 B(  1-C , 11-H ) :   0.9169 B(  2-C ,  3-S ) :   1.2083
B(  2-C , 12-H ) :   0.9106 B(  3-S ,  4-C ) :   1.1901 B(  4-C ,  5-C ) :   1.0273
B(  5-C ,  6-S ) :   1.1901 B(  5-C ,  9-C ) :   1.4895 B(  6-S ,  7-C ) :   1.2083
B(  7-C ,  8-C ) :   1.5325 B(  7-C , 13-H ) :   0.9106 B(  8-C ,  9-C ) :   1.3003
B(  8-C , 14-H ) :   0.9169 B(  9-C , 15-H ) :   0.9181

Dispersion correction           -0.010994452
FINAL SINGLE POINT ENERGY     -1103.241773804947

DIPOLE MOMENT
-------------
                                X             Y             Z
Electronic contribution:      0.00000       0.00000      -1.60649
Nuclear contribution   :     -0.00000       0.00000       1.74271
                        -----------------------------------------
Total Dipole Moment    :      0.00000       0.00000       0.13622
                        -----------------------------------------
Magnitude (a.u.)       :      0.13622
Magnitude (Debye)      :      0.34625

Rotational constants in cm-1:     0.091716     0.021882     0.018065
Rotational constants in MHz :  2749.567099   656.004304   541.571844

                             ****ORCA TERMINATED NORMALLY****
TOTAL RUN TIME: 0 days 0 hours 2 minutes 10 seconds 786 msec
