                         Program Version 5.0.3 -  RELEASE  -
|  1> ! PBEh-3c def2/J TightSCF DefGrid3
|  2>
|  3> %maxcore 60000
|  4>
|  5> %pal
|  6> nprocs 4
|  7> end
|  8>
|  9> *xyzfile 0 1 22.xyz
| 10>
| 11>                          ****END OF INPUT****

CARTESIAN COORDINATES (ANGSTROEM)
---------------------------------
  C     -2.650606   -0.483875   -0.063682
  O     -2.004062    0.538492    0.122688
  O     -2.115069   -1.673975   -0.289232
  H     -1.123659   -1.607639   -0.283362
  C     -4.148404   -0.524706   -0.061488
  H     -4.543628    0.465990    0.126941
  H     -4.501236   -0.895637   -1.020850
  H     -4.490094   -1.219097    0.702391
  N      2.651717   -0.722942   -0.155968
  H      3.044923   -1.638332   -0.327687
  C      3.573245    0.325173    0.025486
  O      4.770391    0.106878   -0.027394
  C      2.934179    1.604636    0.266093
  H      3.553714    2.471561    0.417570
  C      1.587095    1.684626    0.295474
  H      1.064255    2.613073    0.470772
  N      0.783364    0.593944    0.105068
  H     -0.240687    0.663892    0.128858
  C      1.283297   -0.656279   -0.129104
  O      0.571264   -1.645783   -0.302574

 Total Charge           Charge          ....    0
 Multiplicity           Mult            ....    1
 Number of Electrons    NEL             ....   90
 Basis Dimension        Dim             ....  196

ORBITAL ENERGIES
----------------

  NO   OCC          E(Eh)            E(eV)
   0   2.0000     -19.534846      -531.5702
   1   2.0000     -19.501842      -530.6721
   2   2.0000     -19.501548      -530.6641
   3   2.0000     -19.478697      -530.0423
   4   2.0000     -14.707260      -400.2049
   5   2.0000     -14.704047      -400.1175
   6   2.0000     -10.619477      -288.9707
   7   2.0000     -10.597405      -288.3701
   8   2.0000     -10.576081      -287.7898
   9   2.0000     -10.534527      -286.6591
  10   2.0000     -10.466301      -284.8025
  11   2.0000     -10.452780      -284.4346
  12   2.0000      -1.225089       -33.3364
  13   2.0000      -1.205363       -32.7996
  14   2.0000      -1.161926       -31.6176
  15   2.0000      -1.131100       -30.7788
  16   2.0000      -1.094774       -29.7903
  17   2.0000      -1.037921       -28.2433
  18   2.0000      -0.898773       -24.4568
  19   2.0000      -0.854370       -23.2486
  20   2.0000      -0.780675       -21.2433
  21   2.0000      -0.753519       -20.5043
  22   2.0000      -0.689903       -18.7732
  23   2.0000      -0.677901       -18.4466
  24   2.0000      -0.639101       -17.3908
  25   2.0000      -0.600733       -16.3468
  26   2.0000      -0.575697       -15.6655
  27   2.0000      -0.558212       -15.1897
  28   2.0000      -0.556301       -15.1377
  29   2.0000      -0.548087       -14.9142
  30   2.0000      -0.541146       -14.7253
  31   2.0000      -0.529441       -14.4068
  32   2.0000      -0.495355       -13.4793
  33   2.0000      -0.487207       -13.2576
  34   2.0000      -0.476440       -12.9646
  35   2.0000      -0.472129       -12.8473
  36   2.0000      -0.455675       -12.3996
  37   2.0000      -0.451919       -12.2973
  38   2.0000      -0.431000       -11.7281
  39   2.0000      -0.383355       -10.4316
  40   2.0000      -0.377672       -10.2770
  41   2.0000      -0.352044        -9.5796
  42   2.0000      -0.350680        -9.5425
  43   2.0000      -0.332784        -9.0555
  44   2.0000      -0.300145        -8.1674
  45   0.0000      -0.022091        -0.6011
  46   0.0000       0.030214         0.8222
  47   0.0000       0.035917         0.9774
  48   0.0000       0.124958         3.4003
  49   0.0000       0.155145         4.2217

MULLIKEN ATOMIC CHARGES
-----------------------
   0 C :    0.538141
   1 O :   -0.465252
   2 O :   -0.593197
   3 H :    0.489048
   4 C :   -0.736123
   5 H :    0.253732
   6 H :    0.258643
   7 H :    0.258654
   8 N :   -0.718172
   9 H :    0.400015
  10 C :    0.565109
  11 O :   -0.389668
  12 C :   -0.453571
  13 H :    0.266932
  14 C :    0.083710
  15 H :    0.276400
  16 N :   -0.718565
  17 H :    0.450484
  18 C :    0.728910
  19 O :   -0.495230
Sum of atomic charges:    0.0000000

LOEWDIN ATOMIC CHARGES
----------------------
   0 C :    0.148573
   1 O :   -0.280907
   2 O :   -0.290172
   3 H :    0.328538
   4 C :   -0.386032
   5 H :    0.150208
   6 H :    0.159650
   7 H :    0.159630
   8 N :   -0.193715
   9 H :    0.287472
  10 C :    0.124948
  11 O :   -0.240279
  12 C :   -0.240834
  13 H :    0.163772
  14 C :   -0.004556
  15 H :    0.153561
  16 N :   -0.191508
  17 H :    0.285657
  18 C :    0.164855
  19 O :   -0.298862

  Mayer bond orders larger than 0.100000
B(  0-C ,  1-O ) :   1.8700 B(  0-C ,  2-O ) :   1.2749 B(  0-C ,  4-C ) :   0.9437
B(  1-O , 17-H ) :   0.1569 B(  2-O ,  3-H ) :   0.6030 B(  3-H , 19-O ) :   0.1498
B(  4-C ,  5-H ) :   0.9172 B(  4-C ,  6-H ) :   0.9043 B(  4-C ,  7-H ) :   0.9044
B(  8-N ,  9-H ) :   0.7969 B(  8-N , 10-C ) :   0.9621 B(  8-N , 18-C ) :   1.1089
B( 10-C , 11-O ) :   2.0436 B( 10-C , 12-C ) :   1.0649 B( 12-C , 13-H ) :   0.9065
B( 12-C , 14-C ) :   1.6278 B( 14-C , 15-H ) :   0.8995 B( 14-C , 16-N ) :   1.1054
B( 16-N , 17-H ) :   0.6386 B( 16-N , 18-C ) :   1.1122 B( 18-C , 19-O ) :   1.8119

Dispersion correction           -0.010549409
FINAL SINGLE POINT ENERGY      -642.567781511460

DIPOLE MOMENT
-------------
                                X             Y             Z
Electronic contribution:      9.42458      -0.98056      -0.25508
Nuclear contribution   :    -10.77237       1.65490       0.38928
                        -----------------------------------------
Total Dipole Moment    :     -1.34779       0.67433       0.13421
                        -----------------------------------------
Magnitude (a.u.)       :      1.51304
Magnitude (Debye)      :      3.84583

Rotational constants in cm-1:     0.093002     0.013195     0.011580
Rotational constants in MHz :  2788.133520   395.577357   347.164849

                             ****ORCA TERMINATED NORMALLY****
TOTAL RUN TIME: 0 days 0 hours 2 minutes 35 seconds 428 msec
