                         Program Version 5.0.3 -  RELEASE  -
|  1> ! PBEh-3c def2/J TightSCF DefGrid3
|  2>
|  3> %maxcore 60000
|  4>
|  5> %pal
|  6> nprocs 4
|  7> end
|  8>
|  9> *xyzfile 0 2 43.xyz
| 10>
| 11>                          ****END OF INPUT****

CARTESIAN COORDINATES (ANGSTROEM)
---------------------------------
  H     -1.178145    2.312020   -0.687151
  Al    -0.257518    1.116606   -0.235341
  Si     1.846786    1.130508   -2.211672
  B     -1.274337   -0.814891    1.110494
  N     -0.547816   -0.823479   -0.313343
  Si     2.323483   -0.641101   -0.445286
  O     -0.788220    0.619230    1.510957
  H      0.301124    0.829577   -2.250514
  N      1.612877    1.103005   -0.278665
  H      2.225643    1.722574    0.247078
  H      0.701080   -2.423424   -0.068681
  H     -1.375323    1.110254    2.100624
  H     -2.473014   -0.830178    0.969143
  N      0.758966   -1.448164   -0.350804
  F     -0.760617   -1.757435    1.973489
  H     -1.114971   -1.205102   -1.070327

 Total Charge           Charge          ....    0
 Multiplicity           Mult            ....    2
 Number of Electrons    NEL             ....   91
 Basis Dimension        Dim             ....  158

ORBITAL ENERGIES
----------------
                 SPIN UP ORBITALS
  NO   OCC          E(Eh)            E(eV)
   0   1.0000     -66.764725     -1816.7605
   1   1.0000     -66.747943     -1816.3039
   2   1.0000     -56.632167     -1541.0396
   3   1.0000     -25.051466      -681.6851
   4   1.0000     -19.542156      -531.7691
   5   1.0000     -14.701497      -400.0481
   6   1.0000     -14.673760      -399.2933
   7   1.0000     -14.659199      -398.8971
   8   1.0000      -7.022110      -191.0813
   9   1.0000      -5.533297      -150.5687
  10   1.0000      -5.521549      -150.2490
  11   1.0000      -4.363479      -118.7363
  12   1.0000      -3.825347      -104.0930
  13   1.0000      -3.823793      -104.0507
  14   1.0000      -3.820633      -103.9647
  15   1.0000      -3.814706      -103.8034
  16   1.0000      -3.811090      -103.7050
  17   1.0000      -3.808585      -103.6369
  18   1.0000      -2.854940       -77.6869
  19   1.0000      -2.853616       -77.6508
  20   1.0000      -2.849977       -77.5518
  21   1.0000      -1.279011       -34.8036
  22   1.0000      -1.154017       -31.4024
  23   1.0000      -1.078067       -29.3357
  24   1.0000      -0.960978       -26.1495
  25   1.0000      -0.865996       -23.5649
  26   1.0000      -0.679481       -18.4896
  27   1.0000      -0.645010       -17.5516
  28   1.0000      -0.606285       -16.4978
  29   1.0000      -0.586200       -15.9513
  30   1.0000      -0.574981       -15.6460
  31   1.0000      -0.546547       -14.8723
  32   1.0000      -0.526115       -14.3163
  33   1.0000      -0.519242       -14.1293
  34   1.0000      -0.495094       -13.4722
  35   1.0000      -0.487662       -13.2699
  36   1.0000      -0.447865       -12.1870
  37   1.0000      -0.441858       -12.0236
  38   1.0000      -0.410366       -11.1666
  39   1.0000      -0.400148       -10.8886
  40   1.0000      -0.371158       -10.0997
  41   1.0000      -0.366102        -9.9621
  42   1.0000      -0.338783        -9.2188
  43   1.0000      -0.307670        -8.3721
  44   1.0000      -0.279003        -7.5921
  45   1.0000      -0.224810        -6.1174
  46   0.0000      -0.003931        -0.1070
  47   0.0000       0.011841         0.3222
  48   0.0000       0.023731         0.6458
  49   0.0000       0.058489         1.5916
  50   0.0000       0.066288         1.8038

                 SPIN DOWN ORBITALS
  NO   OCC          E(Eh)            E(eV)
   0   1.0000     -66.763806     -1816.7355
   1   1.0000     -66.745580     -1816.2396
   2   1.0000     -56.632171     -1541.0397
   3   1.0000     -25.051464      -681.6850
   4   1.0000     -19.542153      -531.7690
   5   1.0000     -14.701615      -400.0513
   6   1.0000     -14.670684      -399.2096
   7   1.0000     -14.658737      -398.8845
   8   1.0000      -7.022088      -191.0807
   9   1.0000      -5.532240      -150.5399
  10   1.0000      -5.518838      -150.1752
  11   1.0000      -4.363481      -118.7363
  12   1.0000      -3.823247      -104.0358
  13   1.0000      -3.821501      -103.9883
  14   1.0000      -3.820065      -103.9493
  15   1.0000      -3.809718      -103.6677
  16   1.0000      -3.807393      -103.6044
  17   1.0000      -3.804635      -103.5294
  18   1.0000      -2.854946       -77.6870
  19   1.0000      -2.853627       -77.6511
  20   1.0000      -2.849980       -77.5519
  21   1.0000      -1.278996       -34.8032
  22   1.0000      -1.153951       -31.4006
  23   1.0000      -1.074660       -29.2430
  24   1.0000      -0.957352       -26.0509
  25   1.0000      -0.861985       -23.4558
  26   1.0000      -0.678918       -18.4743
  27   1.0000      -0.637349       -17.3431
  28   1.0000      -0.601301       -16.3622
  29   1.0000      -0.585510       -15.9325
  30   1.0000      -0.567018       -15.4293
  31   1.0000      -0.544931       -14.8283
  32   1.0000      -0.523903       -14.2561
  33   1.0000      -0.515879       -14.0378
  34   1.0000      -0.491534       -13.3753
  35   1.0000      -0.481214       -13.0945
  36   1.0000      -0.446623       -12.1532
  37   1.0000      -0.440744       -11.9933
  38   1.0000      -0.409131       -11.1330
  39   1.0000      -0.395979       -10.7751
  40   1.0000      -0.370206       -10.0738
  41   1.0000      -0.363729        -9.8976
  42   1.0000      -0.319003        -8.6805
  43   1.0000      -0.297403        -8.0927
  44   1.0000      -0.265871        -7.2347
  45   0.0000      -0.084675        -2.3041
  46   0.0000       0.005173         0.1408
  47   0.0000       0.026906         0.7322
  48   0.0000       0.035722         0.9720
  49   0.0000       0.063690         1.7331

MULLIKEN ATOMIC CHARGES AND SPIN POPULATIONS
--------------------------------------------
   0 H :   -0.080669   -0.001217
   1 Al:    0.790253   -0.003227
   2 Si:    0.133526    0.667503
   3 B :    0.530069   -0.000229
   4 N :   -0.631107   -0.006845
   5 Si:    0.473217    0.256003
   6 O :   -0.743537    0.000068
   7 H :   -0.118350   -0.021937
   8 N :   -1.006102    0.002340
   9 H :    0.393764    0.006833
  10 H :    0.375424   -0.004505
  11 H :    0.473999    0.000007
  12 H :   -0.043212   -0.000318
  13 N :   -0.600128    0.101408
  14 F :   -0.339578    0.000021
  15 H :    0.392430    0.004094
Sum of atomic charges         :    0.0000000

LOEWDIN ATOMIC CHARGES AND SPIN POPULATIONS
-------------------------------------------
   0 H :   -0.076467   -0.000746
   1 Al:    0.226810    0.005199
   2 Si:    0.047106    0.608437
   3 B :    0.065026    0.000827
   4 N :   -0.207424   -0.001801
   5 Si:    0.198724    0.265243
   6 O :   -0.338864    0.000090
   7 H :   -0.029269   -0.009851
   8 N :   -0.482240    0.020134
   9 H :    0.275734    0.008599
  10 H :    0.258119   -0.002503
  11 H :    0.357313    0.000044
  12 H :   -0.035919   -0.000263
  13 N :   -0.318712    0.103514
  14 F :   -0.212960    0.000091
  15 H :    0.273023    0.002988

  Mayer bond orders larger than 0.100000
B(  0-H ,  1-Al) :   0.9485 B(  1-Al,  2-Si) :   0.1201 B(  1-Al,  4-N ) :   0.5476
B(  1-Al,  6-O ) :   0.5516 B(  1-Al,  7-H ) :   0.1647 B(  1-Al,  8-N ) :   0.6547
B(  2-Si,  5-Si) :   0.5552 B(  2-Si,  7-H ) :   0.7760 B(  2-Si,  8-N ) :   0.6559
B(  3-B ,  4-N ) :   0.6608 B(  3-B ,  6-O ) :   0.6189 B(  3-B , 12-H ) :   0.9357
B(  3-B , 14-F ) :   1.0477 B(  4-N , 13-N ) :   0.9523 B(  4-N , 15-H ) :   0.8040
B(  5-Si,  8-N ) :   0.6992 B(  5-Si, 13-N ) :   1.0211 B(  6-O , 11-H ) :   0.7410
B(  8-N ,  9-H ) :   0.8004 B( 10-H , 13-N ) :   0.8119

Dispersion correction           -0.010694966
FINAL SINGLE POINT ENERGY     -1188.153274786580

DIPOLE MOMENT
-------------
                                X             Y             Z
Electronic contribution:      2.38490      -2.23232       2.96207
Nuclear contribution   :     -3.08461       2.70256      -2.53379
                        -----------------------------------------
Total Dipole Moment    :     -0.69971       0.47024       0.42829
                        -----------------------------------------
Magnitude (a.u.)       :      0.94559
Magnitude (Debye)      :      2.40351

Rotational constants in cm-1:     0.063620     0.027332     0.022550
Rotational constants in MHz :  1907.291138   819.381605   676.025148

                             ****ORCA TERMINATED NORMALLY****
TOTAL RUN TIME: 0 days 0 hours 4 minutes 6 seconds 220 msec
