                         Program Version 5.0.3 -  RELEASE  -
|  1> ! PBEh-3c def2/J TightSCF DefGrid3
|  2>
|  3> %maxcore 60000
|  4>
|  5> %pal
|  6> nprocs 4
|  7> end
|  8>
|  9> *xyzfile 0 2 P6.xyz
| 10>
| 11>                          ****END OF INPUT****

CARTESIAN COORDINATES (ANGSTROEM)
---------------------------------
  C     -1.212965   -0.679903   -0.307122
  C     -0.293698    0.350559    0.226832
  F     -0.471164    0.443012    1.611231
  F     -0.677474    1.589276   -0.259762
  C      1.177003    0.143224   -0.050438
  H     -2.260184   -0.437521   -0.418793
  H     -0.869935   -1.693565   -0.454181
  H      1.356606    0.130505   -1.125750
  H      1.507175   -0.803150    0.378714
  H      1.744635    0.957563    0.399270

 Total Charge           Charge          ....    0
 Multiplicity           Mult            ....    2
 Number of Electrons    NEL             ....   41
 Basis Dimension        Dim             ....   85

ORBITAL ENERGIES
----------------
                 SPIN UP ORBITALS
  NO   OCC          E(Eh)            E(eV)
   0   1.0000     -25.090793      -682.7552
   1   1.0000     -25.086470      -682.6376
   2   1.0000     -10.611474      -288.7529
   3   1.0000     -10.473084      -284.9871
   4   1.0000     -10.446780      -284.2713
   5   1.0000      -1.355121       -36.8747
   6   1.0000      -1.295113       -35.2418
   7   1.0000      -0.892552       -24.2876
   8   1.0000      -0.807109       -21.9625
   9   1.0000      -0.688354       -18.7311
  10   1.0000      -0.605590       -16.4789
  11   1.0000      -0.581859       -15.8332
  12   1.0000      -0.574552       -15.6344
  13   1.0000      -0.510192       -13.8830
  14   1.0000      -0.496100       -13.4996
  15   1.0000      -0.470738       -12.8094
  16   1.0000      -0.460309       -12.5256
  17   1.0000      -0.453269       -12.3341
  18   1.0000      -0.445358       -12.1188
  19   1.0000      -0.401761       -10.9325
  20   1.0000      -0.306105        -8.3296
  21   0.0000       0.146890         3.9971
  22   0.0000       0.153322         4.1721
  23   0.0000       0.169822         4.6211
  24   0.0000       0.189010         5.1432
  25   0.0000       0.214705         5.8424

                 SPIN DOWN ORBITALS
  NO   OCC          E(Eh)            E(eV)
   0   1.0000     -25.090164      -682.7381
   1   1.0000     -25.084194      -682.5756
   2   1.0000     -10.612643      -288.7847
   3   1.0000     -10.456899      -284.5467
   4   1.0000     -10.446627      -284.2672
   5   1.0000      -1.352130       -36.7933
   6   1.0000      -1.291070       -35.1318
   7   1.0000      -0.878555       -23.9067
   8   1.0000      -0.781570       -21.2676
   9   1.0000      -0.677552       -18.4371
  10   1.0000      -0.598416       -16.2837
  11   1.0000      -0.574929       -15.6446
  12   1.0000      -0.569512       -15.4972
  13   1.0000      -0.503393       -13.6980
  14   1.0000      -0.491456       -13.3732
  15   1.0000      -0.465555       -12.6684
  16   1.0000      -0.455906       -12.4058
  17   1.0000      -0.448163       -12.1951
  18   1.0000      -0.443523       -12.0689
  19   1.0000      -0.396359       -10.7855
  20   0.0000      -0.048913        -1.3310
  21   0.0000       0.151183         4.1139
  22   0.0000       0.157916         4.2971
  23   0.0000       0.176424         4.8007
  24   0.0000       0.199139         5.4189

MULLIKEN ATOMIC CHARGES AND SPIN POPULATIONS
--------------------------------------------
   0 C :   -0.513324    1.117772
   1 C :    0.730711   -0.047222
   2 F :   -0.352670    0.038950
   3 F :   -0.346726    0.010400
   4 C :   -0.733436    0.001608
   5 H :    0.255033   -0.061740
   6 H :    0.236285   -0.060889
   7 H :    0.236092    0.000653
   8 H :    0.230552   -0.000037
   9 H :    0.257485    0.000505
Sum of atomic charges         :   -0.0000000

LOEWDIN ATOMIC CHARGES AND SPIN POPULATIONS
-------------------------------------------
   0 C :   -0.222103    0.984856
   1 C :    0.259289    0.007446
   2 F :   -0.207183    0.045584
   3 F :   -0.196238    0.013215
   4 C :   -0.367855    0.005680
   5 H :    0.150884   -0.029030
   6 H :    0.141713   -0.029520
   7 H :    0.145261    0.001167
   8 H :    0.143507    0.000054
   9 H :    0.152724    0.000549

  Mayer bond orders larger than 0.100000
B(  0-C ,  1-C ) :   1.0018 B(  0-C ,  5-H ) :   0.9060 B(  0-C ,  6-H ) :   0.9087
B(  1-C ,  2-F ) :   0.9457 B(  1-C ,  3-F ) :   0.9508 B(  1-C ,  4-C ) :   0.9737
B(  4-C ,  7-H ) :   0.9115 B(  4-C ,  8-H ) :   0.9127 B(  4-C ,  9-H ) :   0.9113

Dispersion correction           -0.003268497
FINAL SINGLE POINT ENERGY      -316.320823576402

DIPOLE MOMENT
-------------
                                X             Y             Z
Electronic contribution:     -3.01290       4.13167       2.75675
Nuclear contribution   :      3.32298      -4.85370      -3.21843
                        -----------------------------------------
Total Dipole Moment    :      0.31008      -0.72203      -0.46167
                        -----------------------------------------
Magnitude (a.u.)       :      0.91138
Magnitude (Debye)      :      2.31654

Rotational constants in cm-1:     0.174994     0.165792     0.164391
Rotational constants in MHz :  5246.184650  4970.310168  4928.328156

                             ****ORCA TERMINATED NORMALLY****
TOTAL RUN TIME: 0 days 0 hours 2 minutes 27 seconds 426 msec
