                         Program Version 5.0.3 -  RELEASE  -
|  1> ! PBEh-3c def2/J TightSCF DefGrid3
|  2>
|  3> %maxcore 60000
|  4>
|  5> %pal
|  6> nprocs 4
|  7> end
|  8>
|  9> *xyzfile 0 1 30.xyz
| 10>
| 11>                          ****END OF INPUT****

CARTESIAN COORDINATES (ANGSTROEM)
---------------------------------
  N      0.530638    2.724306    0.598767
  C      1.628248    2.293181   -0.114744
  C      1.321324    1.141609   -0.805395
  C     -0.058320    0.854293   -0.516380
  C     -0.937435   -0.162336   -0.918085
  C     -2.244534   -0.147817   -0.449089
  C     -2.691109    0.867711    0.427134
  C     -1.834033    1.881981    0.838641
  C     -0.523046    1.867270    0.360997
  H      0.482135    3.574905    1.128733
  H      2.556643    2.840748   -0.076343
  H     -0.628165   -0.965415   -1.572059
  H     -3.707035    0.869587    0.790516
  H     -2.185594    2.654179    1.510749
  O     -3.045514   -1.164678   -0.897535
  C     -4.337539   -1.267035   -0.324521
  H     -4.283674   -1.375214    0.760766
  H     -4.958190   -0.403219   -0.573810
  H     -4.782069   -2.160349   -0.752909
  C      2.276379    0.320077   -1.613389
  C      2.908881   -0.830553   -0.809651
  N      1.963456   -1.845294   -0.389493
  C      1.307343   -1.958835    0.809469
  C      1.742151   -1.031812    1.925862
  H      1.770566   -0.096435   -2.488543
  H      3.084778    0.954268   -1.987490
  H      3.678887   -1.311781   -1.417400
  H      3.403175   -0.425716    0.071469
  H      1.601239   -2.468801   -1.094264
  O      0.431208   -2.797104    0.965302
  H      2.800902   -1.161915    2.152897
  H      1.574522    0.010274    1.656437
  H      1.153779   -1.280084    2.803369

 Total Charge           Charge          ....    0
 Multiplicity           Mult            ....    1
 Number of Electrons    NEL             ....  124
 Basis Dimension        Dim             ....  287

ORBITAL ENERGIES
----------------

  NO   OCC          E(Eh)            E(eV)
   0   2.0000     -19.510959      -530.9202
   1   2.0000     -19.435699      -528.8723
   2   2.0000     -14.684455      -399.5843
   3   2.0000     -14.645073      -398.5127
   4   2.0000     -10.532024      -286.5909
   5   2.0000     -10.494483      -285.5694
   6   2.0000     -10.480268      -285.1826
   7   2.0000     -10.479637      -285.1654
   8   2.0000     -10.479626      -285.1651
   9   2.0000     -10.475036      -285.0402
  10   2.0000     -10.449455      -284.3441
  11   2.0000     -10.448351      -284.3141
  12   2.0000     -10.443790      -284.1900
  13   2.0000     -10.442147      -284.1453
  14   2.0000     -10.440994      -284.1139
  15   2.0000     -10.432513      -283.8831
  16   2.0000     -10.423364      -283.6342
  17   2.0000      -1.159631       -31.5552
  18   2.0000      -1.122102       -30.5340
  19   2.0000      -1.086260       -29.5586
  20   2.0000      -1.009387       -27.4668
  21   2.0000      -0.934172       -25.4201
  22   2.0000      -0.896727       -24.4012
  23   2.0000      -0.842492       -22.9254
  24   2.0000      -0.830899       -22.6099
  25   2.0000      -0.811766       -22.0893
  26   2.0000      -0.799865       -21.7654
  27   2.0000      -0.766304       -20.8522
  28   2.0000      -0.728601       -19.8262
  29   2.0000      -0.699499       -19.0343
  30   2.0000      -0.661476       -17.9997
  31   2.0000      -0.638003       -17.3609
  32   2.0000      -0.629804       -17.1378
  33   2.0000      -0.610391       -16.6096
  34   2.0000      -0.572207       -15.5705
  35   2.0000      -0.556985       -15.1563
  36   2.0000      -0.551709       -15.0128
  37   2.0000      -0.532876       -14.5003
  38   2.0000      -0.522874       -14.2281
  39   2.0000      -0.521127       -14.1806
  40   2.0000      -0.512725       -13.9520
  41   2.0000      -0.493278       -13.4228
  42   2.0000      -0.489551       -13.3214
  43   2.0000      -0.483331       -13.1521
  44   2.0000      -0.475942       -12.9510
  45   2.0000      -0.463255       -12.6058
  46   2.0000      -0.455104       -12.3840
  47   2.0000      -0.445411       -12.1203
  48   2.0000      -0.440851       -11.9962
  49   2.0000      -0.439917       -11.9707
  50   2.0000      -0.433444       -11.7946
  51   2.0000      -0.411323       -11.1927
  52   2.0000      -0.407037       -11.0760
  53   2.0000      -0.399326       -10.8662
  54   2.0000      -0.395118       -10.7517
  55   2.0000      -0.372347       -10.1321
  56   2.0000      -0.347325        -9.4512
  57   2.0000      -0.317950        -8.6519
  58   2.0000      -0.289912        -7.8889
  59   2.0000      -0.285031        -7.7561
  60   2.0000      -0.246181        -6.6989
  61   2.0000      -0.229747        -6.2517
  62   0.0000       0.006754         0.1838
  63   0.0000       0.060851         1.6558
  64   0.0000       0.080336         2.1861
  65   0.0000       0.087842         2.3903
  66   0.0000       0.124388         3.3848

MULLIKEN ATOMIC CHARGES
-----------------------
   0 N :   -0.697084
   1 C :   -0.062949
   2 C :    0.015664
   3 C :    0.074212
   4 C :   -0.416999
   5 C :    0.409351
   6 C :   -0.362190
   7 C :   -0.258738
   8 C :    0.347715
   9 H :    0.356411
  10 H :    0.236902
  11 H :    0.211886
  12 H :    0.230553
  13 H :    0.212183
  14 O :   -0.466353
  15 C :   -0.402531
  16 H :    0.209186
  17 H :    0.197533
  18 H :    0.239299
  19 C :   -0.523571
  20 C :   -0.275673
  21 N :   -0.610558
  22 C :    0.514390
  23 C :   -0.783657
  24 H :    0.229184
  25 H :    0.224731
  26 H :    0.230597
  27 H :    0.229988
  28 H :    0.354886
  29 O :   -0.420428
  30 H :    0.224968
  31 H :    0.264841
  32 H :    0.266252
Sum of atomic charges:   -0.0000000

LOEWDIN ATOMIC CHARGES
----------------------
   0 N :   -0.160971
   1 C :   -0.087679
   2 C :   -0.113089
   3 C :   -0.053372
   4 C :   -0.147953
   5 C :    0.064091
   6 C :   -0.187729
   7 C :   -0.152124
   8 C :    0.002360
   9 H :    0.261188
  10 H :    0.133883
  11 H :    0.144728
  12 H :    0.140236
  13 H :    0.135731
  14 O :   -0.189973
  15 C :   -0.179653
  16 H :    0.115235
  17 H :    0.108464
  18 H :    0.130226
  19 C :   -0.235942
  20 C :   -0.143545
  21 N :   -0.247775
  22 C :    0.112649
  23 C :   -0.398244
  24 H :    0.133779
  25 H :    0.134850
  26 H :    0.122684
  27 H :    0.130739
  28 H :    0.255063
  29 O :   -0.273599
  30 H :    0.137877
  31 H :    0.153690
  32 H :    0.154177

  Mayer bond orders larger than 0.100000
B(  0-N ,  1-C ) :   1.1376 B(  0-N ,  8-C ) :   0.9985 B(  0-N ,  9-H ) :   0.8354
B(  1-C ,  2-C ) :   1.5579 B(  1-C , 10-H ) :   0.9123 B(  2-C ,  3-C ) :   1.2351
B(  2-C , 19-C ) :   0.9519 B(  3-C ,  4-C ) :   1.2923 B(  3-C ,  8-C ) :   1.2364
B(  4-C ,  5-C ) :   1.4490 B(  4-C ,  7-C ) :   0.1025 B(  4-C , 11-H ) :   0.9245
B(  5-C ,  6-C ) :   1.2796 B(  5-C , 14-O ) :   1.0149 B(  6-C ,  7-C ) :   1.4761
B(  6-C , 12-H ) :   0.9055 B(  7-C ,  8-C ) :   1.3143 B(  7-C , 13-H ) :   0.9214
B( 14-O , 15-C ) :   0.9580 B( 15-C , 16-H ) :   0.9068 B( 15-C , 17-H ) :   0.9084
B( 15-C , 18-H ) :   0.9240 B( 19-C , 20-C ) :   0.9534 B( 19-C , 24-H ) :   0.9194
B( 19-C , 25-H ) :   0.9208 B( 20-C , 21-N ) :   0.9690 B( 20-C , 26-H ) :   0.9135
B( 20-C , 27-H ) :   0.9080 B( 21-N , 22-C ) :   1.1345 B( 21-N , 28-H ) :   0.8237
B( 22-C , 23-C ) :   0.9315 B( 22-C , 29-O ) :   2.0297 B( 23-C , 30-H ) :   0.9124
B( 23-C , 31-H ) :   0.8922 B( 23-C , 32-H ) :   0.9185

Dispersion correction           -0.023181446
FINAL SINGLE POINT ENERGY      -763.323184470085

DIPOLE MOMENT
-------------
                                X             Y             Z
Electronic contribution:     -2.17896       2.11721      -1.36304
Nuclear contribution   :      2.90699      -0.37371       1.46361
                        -----------------------------------------
Total Dipole Moment    :      0.72803       1.74350       0.10057
                        -----------------------------------------
Magnitude (a.u.)       :      1.89207
Magnitude (Debye)      :      4.80927

Rotational constants in cm-1:     0.020648     0.013449     0.010097
Rotational constants in MHz :   619.014822   403.199288   302.692941

                             ****ORCA TERMINATED NORMALLY****
TOTAL RUN TIME: 0 days 0 hours 4 minutes 47 seconds 614 msec
