                         Program Version 5.0.3 -  RELEASE  -
|  1> ! PBEh-3c def2/J TightSCF DefGrid3
|  2>
|  3> %maxcore 60000
|  4>
|  5> %pal
|  6> nprocs 4
|  7> end
|  8>
|  9> *xyzfile -1 4 EA_si-.xyz
| 10>
| 11>                          ****END OF INPUT****

CARTESIAN COORDINATES (ANGSTROEM)
---------------------------------
  Si     0.000000    0.000000    0.000000

 Total Charge           Charge          ....   -1
 Multiplicity           Mult            ....    4
 Number of Electrons    NEL             ....   15
 Basis Dimension        Dim             ....   18

ORBITAL ENERGIES
----------------
                 SPIN UP ORBITALS
  NO   OCC          E(Eh)            E(eV)
   0   1.0000     -66.464810     -1808.5994
   1   1.0000      -5.238271      -142.5406
   2   1.0000      -3.530487       -96.0694
   3   1.0000      -3.530487       -96.0694
   4   1.0000      -3.530487       -96.0694
   5   1.0000      -0.241507        -6.5717
   6   1.0000       0.029687         0.8078
   7   1.0000       0.029687         0.8078
   8   1.0000       0.029687         0.8078
   9   0.0000       0.405286        11.0284
  10   0.0000       0.686167        18.6715
  11   0.0000       0.686167        18.6715
  12   0.0000       0.686167        18.6716
  13   0.0000       0.753741        20.5103

                 SPIN DOWN ORBITALS
  NO   OCC          E(Eh)            E(eV)
   0   1.0000     -66.456841     -1808.3826
   1   1.0000      -5.229404      -142.2993
   2   1.0000      -3.515974       -95.6745
   3   1.0000      -3.515974       -95.6745
   4   1.0000      -3.515974       -95.6745
   5   1.0000      -0.118017        -3.2114
   6   0.0000       0.216317         5.8863
   7   0.0000       0.216317         5.8863
   8   0.0000       0.216317         5.8863
   9   0.0000       0.449996        12.2450
  10   0.0000       0.745513        20.2864

MULLIKEN ATOMIC CHARGES AND SPIN POPULATIONS
--------------------------------------------
   0 Si:   -1.000000    3.000000
Sum of atomic charges         :   -1.0000000

LOEWDIN ATOMIC CHARGES AND SPIN POPULATIONS
-------------------------------------------
   0 Si:   -1.000000    3.000000

Dispersion correction            0.000000000
FINAL SINGLE POINT ENERGY      -289.037679489270

DIPOLE MOMENT
-------------
                                X             Y             Z
Electronic contribution:     -0.00000      -0.00000      -0.00000
Nuclear contribution   :      0.00000       0.00000       0.00000
                        -----------------------------------------
Total Dipole Moment    :     -0.00000      -0.00000      -0.00000
                        -----------------------------------------
Magnitude (a.u.)       :      0.00000
Magnitude (Debye)      :      0.00001

Rotational constants in cm-1:     0.000000     0.000000     0.000000
Rotational constants in MHz :     0.000000     0.000000     0.000000

                             ****ORCA TERMINATED NORMALLY****
TOTAL RUN TIME: 0 days 0 hours 0 minutes 5 seconds 823 msec
