                         Program Version 5.0.3 -  RELEASE  -
|  1> ! PBEh-3c def2/J TightSCF DefGrid3
|  2>
|  3> %maxcore 60000
|  4>
|  5> %pal
|  6> nprocs 4
|  7> end
|  8>
|  9> *xyzfile 0 1 11_benF3-benB.xyz
| 10>
| 11>                          ****END OF INPUT****

CARTESIAN COORDINATES (ANGSTROEM)
---------------------------------
  H     -1.982728   -2.229711    3.302752
  H     -2.449489    0.193674    3.123491
  C      0.127581   -1.959603    3.614622
  C     -1.175738   -1.515819    3.395969
  C     -1.438430   -0.150604    3.294462
  C     -0.398879    0.770556    3.412258
  C      0.904160    0.325967    3.630272
  C      1.167830   -1.039033    3.731970
  H     -0.602955    1.829871    3.332691
  H      1.711481    1.040279    3.720125
  H      0.331418   -3.018852    3.696211
  H      2.179355   -1.382919    3.899513

 Total Charge           Charge          ....    0
 Multiplicity           Mult            ....    1
 Number of Electrons    NEL             ....   42
 Basis Dimension        Dim             ....  102

ORBITAL ENERGIES
----------------

  NO   OCC          E(Eh)            E(eV)
   0   2.0000     -10.448792      -284.3261
   1   2.0000     -10.448582      -284.3204
   2   2.0000     -10.448561      -284.3198
   3   2.0000     -10.447969      -284.3037
   4   2.0000     -10.447948      -284.3031
   5   2.0000     -10.447729      -284.2972
   6   2.0000      -0.952035       -25.9062
   7   2.0000      -0.835470       -22.7343
   8   2.0000      -0.835403       -22.7325
   9   2.0000      -0.678994       -18.4764
  10   2.0000      -0.678929       -18.4746
  11   2.0000      -0.591951       -16.1078
  12   2.0000      -0.525933       -14.3114
  13   2.0000      -0.508420       -13.8348
  14   2.0000      -0.481785       -13.1100
  15   2.0000      -0.481729       -13.1085
  16   2.0000      -0.420826       -11.4513
  17   2.0000      -0.398382       -10.8405
  18   2.0000      -0.398241       -10.8367
  19   2.0000      -0.292465        -7.9584
  20   2.0000      -0.292443        -7.9578
  21   0.0000       0.019147         0.5210
  22   0.0000       0.019158         0.5213
  23   0.0000       0.140748         3.8299
  24   0.0000       0.196173         5.3381
  25   0.0000       0.201764         5.4903

MULLIKEN ATOMIC CHARGES
-----------------------
   0 H :    0.219953
   1 H :    0.219838
   2 C :   -0.220467
   3 C :   -0.219444
   4 C :   -0.220132
   5 C :   -0.219620
   6 C :   -0.220191
   7 C :   -0.219376
   8 H :    0.219877
   9 H :    0.219836
  10 H :    0.219773
  11 H :    0.219953
Sum of atomic charges:   -0.0000000

LOEWDIN ATOMIC CHARGES
----------------------
   0 H :    0.135737
   1 H :    0.135643
   2 C :   -0.135565
   3 C :   -0.135798
   4 C :   -0.135599
   5 C :   -0.135780
   6 C :   -0.135603
   7 C :   -0.135794
   8 H :    0.135728
   9 H :    0.135642
  10 H :    0.135649
  11 H :    0.135738

  Mayer bond orders larger than 0.100000
B(  0-H ,  3-C ) :   0.9199 B(  1-H ,  4-C ) :   0.9200 B(  2-C ,  3-C ) :   1.4264
B(  2-C ,  7-C ) :   1.4264 B(  2-C , 10-H ) :   0.9200 B(  3-C ,  4-C ) :   1.4265
B(  4-C ,  5-C ) :   1.4264 B(  5-C ,  6-C ) :   1.4264 B(  5-C ,  8-H ) :   0.9200
B(  6-C ,  7-C ) :   1.4265 B(  6-C ,  9-H ) :   0.9200 B(  7-C , 11-H ) :   0.9199

Dispersion correction           -0.005880317
FINAL SINGLE POINT ENERGY      -231.725787577796

DIPOLE MOMENT
-------------
                                X             Y             Z
Electronic contribution:     -0.00030      -0.00071       0.00284
Nuclear contribution   :      0.00048       0.00076      -0.00413
                        -----------------------------------------
Total Dipole Moment    :      0.00018       0.00005      -0.00129
                        -----------------------------------------
Magnitude (a.u.)       :      0.00130
Magnitude (Debye)      :      0.00332

Rotational constants in cm-1:     0.190395     0.190345     0.095185
Rotational constants in MHz :  5707.907379  5706.409432  2853.579959

                             ****ORCA TERMINATED NORMALLY****
TOTAL RUN TIME: 0 days 0 hours 1 minutes 7 seconds 506 msec
