                         Program Version 5.0.3 -  RELEASE  -
|  1> ! PBEh-3c def2/J TightSCF DefGrid3
|  2>
|  3> %maxcore 60000
|  4>
|  5> %pal
|  6> nprocs 4
|  7> end
|  8>
|  9> *xyzfile 0 1 C3H7CHCO.xyz
| 10>
| 11>                          ****END OF INPUT****

CARTESIAN COORDINATES (ANGSTROEM)
---------------------------------
  C     -1.275216   -1.000599   -1.317152
  H     -0.950400   -2.018786   -1.054666
  H     -0.829548   -0.751378   -2.292202
  H     -2.366397   -1.022500   -1.446089
  C     -0.862198    0.007963   -0.242629
  H     -1.233302    1.011389   -0.509374
  H     -1.334115   -0.246812    0.719587
  C      0.661554    0.073221   -0.049685
  H      1.139146    0.310626   -1.016539
  H      1.038211   -0.920137    0.239153
  C      1.738275    0.792767    2.086789
  O      2.318394    0.508478    3.068482
  C      1.093085    1.099508    0.980729
  H      0.862510    2.156260    0.833593

 Total Charge           Charge          ....    0
 Multiplicity           Mult            ....    1
 Number of Electrons    NEL             ....   46
 Basis Dimension        Dim             ....  106

ORBITAL ENERGIES
----------------

  NO   OCC          E(Eh)            E(eV)
   0   2.0000     -19.558792      -532.2218
   1   2.0000     -10.572019      -287.6793
   2   2.0000     -10.461050      -284.6597
   3   2.0000     -10.455003      -284.4951
   4   2.0000     -10.443228      -284.1747
   5   2.0000     -10.432807      -283.8911
   6   2.0000      -1.217776       -33.1374
   7   2.0000      -0.909238       -24.7416
   8   2.0000      -0.850644       -23.1472
   9   2.0000      -0.758231       -20.6325
  10   2.0000      -0.666571       -18.1383
  11   2.0000      -0.601498       -16.3676
  12   2.0000      -0.561698       -15.2846
  13   2.0000      -0.525624       -14.3030
  14   2.0000      -0.517396       -14.0791
  15   2.0000      -0.507463       -13.8088
  16   2.0000      -0.476357       -12.9623
  17   2.0000      -0.457423       -12.4471
  18   2.0000      -0.434434       -11.8216
  19   2.0000      -0.407292       -11.0830
  20   2.0000      -0.398544       -10.8449
  21   2.0000      -0.384751       -10.4696
  22   2.0000      -0.272759        -7.4222
  23   0.0000      -0.002106        -0.0573
  24   0.0000       0.096641         2.6297
  25   0.0000       0.138948         3.7810
  26   0.0000       0.157140         4.2760
  27   0.0000       0.177254         4.8233

MULLIKEN ATOMIC CHARGES
-----------------------
   0 C :   -0.640549
   1 H :    0.211099
   2 H :    0.210331
   3 H :    0.223946
   4 C :   -0.401637
   5 H :    0.207800
   6 H :    0.220425
   7 C :   -0.432116
   8 H :    0.225250
   9 H :    0.224763
  10 C :    0.361118
  11 O :   -0.252342
  12 C :   -0.430893
  13 H :    0.272806
Sum of atomic charges:   -0.0000000

LOEWDIN ATOMIC CHARGES
----------------------
   0 C :   -0.363055
   1 H :    0.124889
   2 H :    0.124374
   3 H :    0.130128
   4 C :   -0.244968
   5 H :    0.121286
   6 H :    0.126684
   7 C :   -0.213163
   8 H :    0.129586
   9 H :    0.131730
  10 C :    0.198583
  11 O :   -0.089781
  12 C :   -0.349266
  13 H :    0.172973

  Mayer bond orders larger than 0.100000
B(  0-C ,  1-H ) :   0.9280 B(  0-C ,  2-H ) :   0.9283 B(  0-C ,  3-H ) :   0.9297
B(  0-C ,  4-C ) :   0.9893 B(  4-C ,  5-H ) :   0.9223 B(  4-C ,  6-H ) :   0.9178
B(  4-C ,  7-C ) :   0.9623 B(  7-C ,  8-H ) :   0.9108 B(  7-C ,  9-H ) :   0.9222
B(  7-C , 12-C ) :   0.9694 B( 10-C , 11-O ) :   2.2527 B( 10-C , 12-C ) :   1.6981
B( 11-O , 12-C ) :   0.1210 B( 12-C , 13-H ) :   0.8817

Dispersion correction           -0.005738084
FINAL SINGLE POINT ENERGY      -269.951125883990

DIPOLE MOMENT
-------------
                                X             Y             Z
Electronic contribution:      7.41511       3.10924       9.09498
Nuclear contribution   :     -7.85297      -3.02068      -9.74795
                        -----------------------------------------
Total Dipole Moment    :     -0.43786       0.08857      -0.65297
                        -----------------------------------------
Magnitude (a.u.)       :      0.79116
Magnitude (Debye)      :      2.01097

Rotational constants in cm-1:     0.462236     0.044308     0.043344
Rotational constants in MHz : 13857.479068  1328.312806  1299.434044

                             ****ORCA TERMINATED NORMALLY****
TOTAL RUN TIME: 0 days 0 hours 1 minutes 22 seconds 631 msec
