                         Program Version 5.0.3 -  RELEASE  -
|  1> ! PBEh-3c def2/J TightSCF DefGrid3
|  2>
|  3> %maxcore 60000
|  4>
|  5> %pal
|  6> nprocs 4
|  7> end
|  8>
|  9> *xyzfile 0 1 h2s.xyz
| 10>
| 11>                          ****END OF INPUT****

CARTESIAN COORDINATES (ANGSTROEM)
---------------------------------
  S      0.000000    0.000000   -0.618150
  H     -0.975532    0.000000    0.309075
  H      0.975532    0.000000    0.309075

 Total Charge           Charge          ....    0
 Multiplicity           Mult            ....    1
 Number of Electrons    NEL             ....   18
 Basis Dimension        Dim             ....   22

ORBITAL ENERGIES
----------------

  NO   OCC          E(Eh)            E(eV)
   0   2.0000     -89.583038     -2437.6784
   1   2.0000      -8.225961      -223.8398
   2   2.0000      -6.116642      -166.4423
   3   2.0000      -6.113988      -166.3701
   4   2.0000      -6.108054      -166.2086
   5   2.0000      -0.821156       -22.3448
   6   2.0000      -0.498921       -13.5763
   7   2.0000      -0.411755       -11.2044
   8   2.0000      -0.303137        -8.2488
   9   0.0000       0.065546         1.7836
  10   0.0000       0.102051         2.7770
  11   0.0000       0.431359        11.7379
  12   0.0000       0.554868        15.0987
  13   0.0000       0.630902        17.1677

MULLIKEN ATOMIC CHARGES
-----------------------
   0 S :   -0.375319
   1 H :    0.187660
   2 H :    0.187660
Sum of atomic charges:    0.0000000

LOEWDIN ATOMIC CHARGES
----------------------
   0 S :   -0.210883
   1 H :    0.105441
   2 H :    0.105441

  Mayer bond orders larger than 0.100000
B(  0-S ,  1-H ) :   0.9347 B(  0-S ,  2-H ) :   0.9347

Dispersion correction           -0.000417574
FINAL SINGLE POINT ENERGY      -398.931619661288

DIPOLE MOMENT
-------------
                                X             Y             Z
Electronic contribution:      0.00000      -0.00000      -1.05118
Nuclear contribution   :      0.00000       0.00000       1.63846
                        -----------------------------------------
Total Dipole Moment    :      0.00000      -0.00000       0.58728
                        -----------------------------------------
Magnitude (a.u.)       :      0.58728
Magnitude (Debye)      :      1.49275

Rotational constants in cm-1:    10.337622     8.786645     4.749621
Rotational constants in MHz : 309914.103456 263416.981676 142390.042731

                             ****ORCA TERMINATED NORMALLY****
TOTAL RUN TIME: 0 days 0 hours 0 minutes 28 seconds 870 msec
