                         Program Version 5.0.3 -  RELEASE  -
|  1> ! PBEh-3c def2/J TightSCF DefGrid3
|  2>
|  3> %maxcore 60000
|  4>
|  5> %pal
|  6> nprocs 4
|  7> end
|  8>
|  9> *xyzfile 0 1 PhI.xyz
| 10>
| 11>                          ****END OF INPUT****

CARTESIAN COORDINATES (ANGSTROEM)
---------------------------------
  I      0.000000    0.000000    1.542040
  C      0.000000    0.000000   -0.553004
  C      0.000000    1.205567   -1.238203
  C      0.000000    1.199115   -2.625424
  C      0.000000    0.000000   -3.320969
  C      0.000000   -1.199115   -2.625424
  C      0.000000   -1.205567   -1.238203
  H      0.000000    2.142377   -0.697547
  H      0.000000    2.139678   -3.161229
  H      0.000000    0.000000   -4.403195
  H      0.000000   -2.139678   -3.161229
  H      0.000000   -2.142377   -0.697547

 Total Charge           Charge          ....    0
 Multiplicity           Mult            ....    1
 Number of Electrons    NEL             ....   66
 Basis Dimension        Dim             ....  126

ORBITAL ENERGIES
----------------

  NO   OCC          E(Eh)            E(eV)
   0   2.0000     -10.505268      -285.8629
   1   2.0000     -10.465247      -284.7739
   2   2.0000     -10.465215      -284.7730
   3   2.0000     -10.462377      -284.6958
   4   2.0000     -10.462290      -284.6934
   5   2.0000     -10.460033      -284.6320
   6   2.0000      -7.095033      -193.0657
   7   2.0000      -5.078548      -138.1943
   8   2.0000      -5.061904      -137.7414
   9   2.0000      -5.061811      -137.7389
  10   2.0000      -2.032573       -55.3091
  11   2.0000      -2.027099       -55.1602
  12   2.0000      -2.027075       -55.1595
  13   2.0000      -2.012724       -54.7690
  14   2.0000      -2.012718       -54.7688
  15   2.0000      -0.976667       -26.5765
  16   2.0000      -0.866092       -23.5676
  17   2.0000      -0.855089       -23.2682
  18   2.0000      -0.767222       -20.8772
  19   2.0000      -0.699835       -19.0435
  20   2.0000      -0.675271       -18.3751
  21   2.0000      -0.594776       -16.1847
  22   2.0000      -0.533859       -14.5270
  23   2.0000      -0.526868       -14.3368
  24   2.0000      -0.498700       -13.5703
  25   2.0000      -0.469675       -12.7805
  26   2.0000      -0.446509       -12.1501
  27   2.0000      -0.417031       -11.3480
  28   2.0000      -0.390421       -10.6239
  29   2.0000      -0.344191        -9.3659
  30   2.0000      -0.309327        -8.4172
  31   2.0000      -0.308805        -8.4030
  32   2.0000      -0.278818        -7.5870
  33   0.0000      -0.001729        -0.0471
  34   0.0000       0.002040         0.0555
  35   0.0000       0.004793         0.1304
  36   0.0000       0.148532         4.0418
  37   0.0000       0.179239         4.8773

MULLIKEN ATOMIC CHARGES
-----------------------
   0 I :    0.064835
   1 C :   -0.191783
   2 C :   -0.203230
   3 C :   -0.211363
   4 C :   -0.223184
   5 C :   -0.211363
   6 C :   -0.203229
   7 H :    0.245757
   8 H :    0.229986
   9 H :    0.227831
  10 H :    0.229986
  11 H :    0.245756
Sum of atomic charges:   -0.0000000

LOEWDIN ATOMIC CHARGES
----------------------
   0 I :    0.117406
   1 C :   -0.171851
   2 C :   -0.138879
   3 C :   -0.126696
   4 C :   -0.131836
   5 C :   -0.126696
   6 C :   -0.138879
   7 H :    0.147237
   8 H :    0.141479
   9 H :    0.140000
  10 H :    0.141479
  11 H :    0.147237

  Mayer bond orders larger than 0.100000
B(  0-I ,  1-C ) :   1.0416 B(  1-C ,  2-C ) :   1.3726 B(  1-C ,  6-C ) :   1.3726
B(  2-C ,  3-C ) :   1.4325 B(  2-C ,  7-H ) :   0.9098 B(  3-C ,  4-C ) :   1.4223
B(  3-C ,  8-H ) :   0.9157 B(  4-C ,  5-C ) :   1.4223 B(  4-C ,  9-H ) :   0.9173
B(  5-C ,  6-C ) :   1.4325 B(  5-C , 10-H ) :   0.9157 B(  6-C , 11-H ) :   0.9098

Dispersion correction           -0.007098025
FINAL SINGLE POINT ENERGY      -528.867919514535

DIPOLE MOMENT
-------------
                                X             Y             Z
Electronic contribution:     -0.00000      -0.00000     107.90046
Nuclear contribution   :      0.00000       0.00000    -108.56923
                        -----------------------------------------
Total Dipole Moment    :     -0.00000      -0.00000      -0.66877
                        -----------------------------------------
Magnitude (a.u.)       :      0.66877
Magnitude (Debye)      :      1.69988

Rotational constants in cm-1:     0.191702     0.025107     0.022200
Rotational constants in MHz :  5747.080717   752.690621   665.527067

                             ****ORCA TERMINATED NORMALLY****
TOTAL RUN TIME: 0 days 0 hours 1 minutes 57 seconds 451 msec
