                         Program Version 5.0.3 -  RELEASE  -
|  1> ! PBEh-3c def2/J TightSCF DefGrid3
|  2>
|  3> %maxcore 60000
|  4>
|  5> %pal
|  6> nprocs 4
|  7> end
|  8>
|  9> *xyzfile 0 1 bifuran_syn.xyz
| 10>
| 11>                          ****END OF INPUT****

CARTESIAN COORDINATES (ANGSTROEM)
---------------------------------
  C     -1.636028    0.000000    0.964886
  C     -2.907947    0.000000    0.335027
  C     -2.670908    0.000000   -0.994316
  O     -1.343662    0.000000   -1.234847
  C     -0.716542    0.000000   -0.037239
  C      0.716542    0.000000   -0.037239
  O      1.343662    0.000000   -1.234847
  C      2.670908    0.000000   -0.994316
  C      2.907947    0.000000    0.335027
  C      1.636028    0.000000    0.964886
  H     -1.425849    0.000000    2.016609
  H     -3.870331    0.000000    0.808721
  H     -3.303664    0.000000   -1.858832
  H      3.303664    0.000000   -1.858832
  H      3.870331    0.000000    0.808721
  H      1.425849    0.000000    2.016609

 Total Charge           Charge          ....    0
 Multiplicity           Mult            ....    1
 Number of Electrons    NEL             ....   70
 Basis Dimension        Dim             ....  162

ORBITAL ENERGIES
----------------

  NO   OCC          E(Eh)            E(eV)
   0   2.0000     -19.570144      -532.5307
   1   2.0000     -19.570101      -532.5295
   2   2.0000     -10.509446      -285.9766
   3   2.0000     -10.509094      -285.9670
   4   2.0000     -10.496229      -285.6169
   5   2.0000     -10.496208      -285.6163
   6   2.0000     -10.446327      -284.2590
   7   2.0000     -10.446250      -284.2569
   8   2.0000     -10.445329      -284.2318
   9   2.0000     -10.445315      -284.2315
  10   2.0000      -1.245947       -33.9039
  11   2.0000      -1.231725       -33.5169
  12   2.0000      -0.911428       -24.8012
  13   2.0000      -0.897615       -24.4253
  14   2.0000      -0.888284       -24.1714
  15   2.0000      -0.811550       -22.0834
  16   2.0000      -0.700011       -19.0483
  17   2.0000      -0.683960       -18.6115
  18   2.0000      -0.665014       -18.0959
  19   2.0000      -0.627229       -17.0678
  20   2.0000      -0.626625       -17.0513
  21   2.0000      -0.571472       -15.5505
  22   2.0000      -0.543799       -14.7975
  23   2.0000      -0.520958       -14.1760
  24   2.0000      -0.513882       -13.9835
  25   2.0000      -0.474413       -12.9094
  26   2.0000      -0.474345       -12.9076
  27   2.0000      -0.466984       -12.7073
  28   2.0000      -0.460114       -12.5203
  29   2.0000      -0.444316       -12.0905
  30   2.0000      -0.434740       -11.8299
  31   2.0000      -0.342669        -9.3245
  32   2.0000      -0.330227        -8.9859
  33   2.0000      -0.317805        -8.6479
  34   2.0000      -0.235758        -6.4153
  35   0.0000      -0.003849        -0.1047
  36   0.0000       0.072721         1.9788
  37   0.0000       0.086149         2.3442
  38   0.0000       0.147068         4.0019
  39   0.0000       0.161372         4.3911

MULLIKEN ATOMIC CHARGES
-----------------------
   0 C :   -0.376697
   1 C :   -0.284364
   2 C :    0.019906
   3 O :   -0.397831
   4 C :    0.357394
   5 C :    0.357397
   6 O :   -0.397831
   7 C :    0.019905
   8 C :   -0.284362
   9 C :   -0.376699
  10 H :    0.217136
  11 H :    0.227702
  12 H :    0.236753
  13 H :    0.236753
  14 H :    0.227702
  15 H :    0.217136
Sum of atomic charges:   -0.0000000

LOEWDIN ATOMIC CHARGES
----------------------
   0 C :   -0.183084
   1 C :   -0.187849
   2 C :   -0.038659
   3 O :   -0.056304
   4 C :    0.037567
   5 C :    0.037567
   6 O :   -0.056304
   7 C :   -0.038659
   8 C :   -0.187849
   9 C :   -0.183084
  10 H :    0.144419
  11 H :    0.144677
  12 H :    0.139232
  13 H :    0.139232
  14 H :    0.144677
  15 H :    0.144419

  Mayer bond orders larger than 0.100000
B(  0-C ,  1-C ) :   1.2975 B(  0-C ,  4-C ) :   1.5099 B(  0-C , 10-H ) :   0.9346
B(  1-C ,  2-C ) :   1.6175 B(  1-C , 11-H ) :   0.9215 B(  2-C ,  3-O ) :   1.1017
B(  2-C , 12-H ) :   0.9156 B(  3-O ,  4-C ) :   1.0599 B(  4-C ,  5-C ) :   1.0239
B(  5-C ,  6-O ) :   1.0599 B(  5-C ,  9-C ) :   1.5099 B(  6-O ,  7-C ) :   1.1017
B(  7-C ,  8-C ) :   1.6175 B(  7-C , 13-H ) :   0.9156 B(  8-C ,  9-C ) :   1.2975
B(  8-C , 14-H ) :   0.9215 B(  9-C , 15-H ) :   0.9346

Dispersion correction           -0.008372180
FINAL SINGLE POINT ENERGY      -457.866315482724

DIPOLE MOMENT
-------------
                                X             Y             Z
Electronic contribution:     -0.00000       0.00000      -2.73068
Nuclear contribution   :     -0.00000       0.00000       3.08971
                        -----------------------------------------
Total Dipole Moment    :     -0.00000       0.00000       0.35903
                        -----------------------------------------
Magnitude (a.u.)       :      0.35903
Magnitude (Debye)      :      0.91257

Rotational constants in cm-1:     0.157696     0.029826     0.025082
Rotational constants in MHz :  4727.598533   894.157623   751.939100

                             ****ORCA TERMINATED NORMALLY****
TOTAL RUN TIME: 0 days 0 hours 2 minutes 7 seconds 58 msec
