                         Program Version 5.0.3 -  RELEASE  -
|  1> ! PBEh-3c def2/J TightSCF DefGrid3
|  2>
|  3> %maxcore 60000
|  4>
|  5> %pal
|  6> nprocs 4
|  7> end
|  8>
|  9> *xyzfile 0 1 C2H5CO2H.xyz
| 10>
| 11>                          ****END OF INPUT****

CARTESIAN COORDINATES (ANGSTROEM)
---------------------------------
  C      0.918954    0.550711    0.530465
  O      2.133154    0.556365    0.543964
  C      0.036138   -0.663963    0.348253
  H     -0.573552   -0.773622    1.259433
  H      0.701810   -1.533115    0.282273
  C     -0.883526   -0.574245   -0.879125
  H     -1.489032   -1.486587   -0.964588
  H     -1.563309    0.283575   -0.803372
  H     -0.299931   -0.469434   -1.804187
  O      0.182795    1.693966    0.689994
  H      0.836499    2.416349    0.796890

 Total Charge           Charge          ....    0
 Multiplicity           Mult            ....    1
 Number of Electrons    NEL             ....   40
 Basis Dimension        Dim             ....   87

ORBITAL ENERGIES
----------------

  NO   OCC          E(Eh)            E(eV)
   0   2.0000     -19.542070      -531.7668
   1   2.0000     -19.487326      -530.2771
   2   2.0000     -10.584455      -288.0177
   3   2.0000     -10.459763      -284.6246
   4   2.0000     -10.444281      -284.2033
   5   2.0000      -1.212518       -32.9943
   6   2.0000      -1.119699       -30.4686
   7   2.0000      -0.880665       -23.9641
   8   2.0000      -0.748160       -20.3585
   9   2.0000      -0.668048       -18.1785
  10   2.0000      -0.560001       -15.2384
  11   2.0000      -0.550685       -14.9849
  12   2.0000      -0.518656       -14.1134
  13   2.0000      -0.498714       -13.5707
  14   2.0000      -0.472431       -12.8555
  15   2.0000      -0.438861       -11.9420
  16   2.0000      -0.426255       -11.5990
  17   2.0000      -0.411111       -11.1869
  18   2.0000      -0.375106       -10.2072
  19   2.0000      -0.332893        -9.0585
  20   0.0000       0.039249         1.0680
  21   0.0000       0.122037         3.3208
  22   0.0000       0.164626         4.4797
  23   0.0000       0.186566         5.0767
  24   0.0000       0.195291         5.3142

MULLIKEN ATOMIC CHARGES
-----------------------
   0 C :    0.525385
   1 O :   -0.391228
   2 C :   -0.526877
   3 H :    0.247222
   4 H :    0.255449
   5 C :   -0.647877
   6 H :    0.228750
   7 H :    0.237932
   8 H :    0.226632
   9 O :   -0.595947
  10 H :    0.440559
Sum of atomic charges:    0.0000000

LOEWDIN ATOMIC CHARGES
----------------------
   0 C :    0.144920
   1 O :   -0.232022
   2 C :   -0.273244
   3 H :    0.149854
   4 H :    0.147506
   5 C :   -0.355543
   6 H :    0.133014
   7 H :    0.137719
   8 H :    0.132245
   9 O :   -0.317625
  10 H :    0.333176

  Mayer bond orders larger than 0.100000
B(  0-C ,  1-O ) :   2.0668 B(  0-C ,  2-C ) :   0.9249 B(  0-C ,  9-O ) :   1.1159
B(  2-C ,  3-H ) :   0.8992 B(  2-C ,  4-H ) :   0.9114 B(  2-C ,  5-C ) :   0.9723
B(  5-C ,  6-H ) :   0.9243 B(  5-C ,  7-H ) :   0.9181 B(  5-C ,  8-H ) :   0.9246
B(  9-O , 10-H ) :   0.7624

Dispersion correction           -0.003926647
FINAL SINGLE POINT ENERGY      -267.828251568197

DIPOLE MOMENT
-------------
                                X             Y             Z
Electronic contribution:      4.24084       3.47885       2.50282
Nuclear contribution   :     -4.91783      -3.43198      -2.55172
                        -----------------------------------------
Total Dipole Moment    :     -0.67699       0.04687      -0.04890
                        -----------------------------------------
Magnitude (a.u.)       :      0.68037
Magnitude (Debye)      :      1.72936

Rotational constants in cm-1:     0.293586     0.128980     0.101477
Rotational constants in MHz :  8801.501197  3866.715897  3042.209531

                             ****ORCA TERMINATED NORMALLY****
TOTAL RUN TIME: 0 days 0 hours 1 minutes 15 seconds 52 msec
