                         Program Version 5.0.3 -  RELEASE  -
|  1> ! PBEh-3c def2/J TightSCF DefGrid3
|  2>
|  3> %maxcore 60000
|  4>
|  5> %pal
|  6> nprocs 4
|  7> end
|  8>
|  9> *xyzfile 0 1 08ts.xyz
| 10>
| 11>                          ****END OF INPUT****

CARTESIAN COORDINATES (ANGSTROEM)
---------------------------------
  H     -1.958932    1.231175    1.292398
  C     -1.060705    1.115287    0.696552
  C      0.187773    0.755563    1.243025
  C     -1.060705    1.115287   -0.696552
  H      2.349757    0.204291    0.000000
  P      1.420581    1.279455    0.000000
  C      0.187773   -1.397498    0.696470
  H      0.376796    0.794930    2.309561
  C      0.187773   -1.397498   -0.696470
  H     -1.958932    1.231175   -1.292398
  C      0.187773    0.755563   -1.243025
  H      0.376796    0.794930   -2.309561
  H      1.102461   -1.607048   -1.237100
  H     -0.720336   -1.634281    1.235148
  H      1.102461   -1.607048    1.237100
  H     -0.720336   -1.634281   -1.235148

 Total Charge           Charge          ....    0
 Multiplicity           Mult            ....    1
 Number of Electrons    NEL             ....   60
 Basis Dimension        Dim             ....  126

ORBITAL ENERGIES
----------------

  NO   OCC          E(Eh)            E(eV)
   0   2.0000     -77.737632     -2115.3485
   1   2.0000     -10.465406      -284.7782
   2   2.0000     -10.465352      -284.7767
   3   2.0000     -10.448213      -284.3103
   4   2.0000     -10.447613      -284.2940
   5   2.0000     -10.441215      -284.1199
   6   2.0000     -10.440605      -284.1033
   7   2.0000      -6.811656      -185.3546
   8   2.0000      -4.902728      -133.4100
   9   2.0000      -4.901986      -133.3898
  10   2.0000      -4.900286      -133.3436
  11   2.0000      -0.941748       -25.6263
  12   2.0000      -0.833722       -22.6867
  13   2.0000      -0.793828       -21.6011
  14   2.0000      -0.748516       -20.3682
  15   2.0000      -0.650934       -17.7128
  16   2.0000      -0.618436       -16.8285
  17   2.0000      -0.586785       -15.9672
  18   2.0000      -0.571078       -15.5398
  19   2.0000      -0.514824       -14.0091
  20   2.0000      -0.464168       -12.6307
  21   2.0000      -0.450506       -12.2589
  22   2.0000      -0.448590       -12.2068
  23   2.0000      -0.438863       -11.9421
  24   2.0000      -0.407976       -11.1016
  25   2.0000      -0.400494       -10.8980
  26   2.0000      -0.379421       -10.3246
  27   2.0000      -0.294168        -8.0047
  28   2.0000      -0.277884        -7.5616
  29   2.0000      -0.256835        -6.9888
  30   0.0000      -0.003613        -0.0983
  31   0.0000       0.026291         0.7154
  32   0.0000       0.077358         2.1050
  33   0.0000       0.108163         2.9433
  34   0.0000       0.149448         4.0667

MULLIKEN ATOMIC CHARGES
-----------------------
   0 H :    0.224183
   1 C :   -0.162297
   2 C :   -0.479587
   3 C :   -0.162297
   4 H :    0.063861
   5 P :    0.285913
   6 C :   -0.455716
   7 H :    0.235814
   8 C :   -0.455716
   9 H :    0.224183
  10 C :   -0.479587
  11 H :    0.235814
  12 H :    0.229525
  13 H :    0.233192
  14 H :    0.229525
  15 H :    0.233192
Sum of atomic charges:    0.0000000

LOEWDIN ATOMIC CHARGES
----------------------
   0 H :    0.134555
   1 C :   -0.162032
   2 C :   -0.268992
   3 C :   -0.162032
   4 H :    0.017892
   5 P :    0.314648
   6 C :   -0.275734
   7 H :    0.139133
   8 C :   -0.275734
   9 H :    0.134555
  10 C :   -0.268992
  11 H :    0.139133
  12 H :    0.132575
  13 H :    0.134224
  14 H :    0.132575
  15 H :    0.134224

  Mayer bond orders larger than 0.100000
B(  0-H ,  1-C ) :   0.9203 B(  1-C ,  2-C ) :   1.3361 B(  1-C ,  3-C ) :   1.4554
B(  2-C ,  5-P ) :   1.0069 B(  2-C ,  6-C ) :   0.3881 B(  2-C ,  7-H ) :   0.9160
B(  3-C ,  9-H ) :   0.9203 B(  3-C , 10-C ) :   1.3361 B(  4-H ,  5-P ) :   0.9300
B(  5-P , 10-C ) :   1.0069 B(  6-C ,  8-C ) :   1.4702 B(  6-C , 13-H ) :   0.9224
B(  6-C , 14-H ) :   0.9191 B(  8-C , 10-C ) :   0.3881 B(  8-C , 12-H ) :   0.9191
B(  8-C , 15-H ) :   0.9224 B( 10-C , 11-H ) :   0.9160

Dispersion correction           -0.010281895
FINAL SINGLE POINT ENERGY      -574.369047312787

DIPOLE MOMENT
-------------
                                X             Y             Z
Electronic contribution:      2.94898       6.15874      -0.00000
Nuclear contribution   :     -3.16783      -6.51520       0.00000
                        -----------------------------------------
Total Dipole Moment    :     -0.21885      -0.35646      -0.00000
                        -----------------------------------------
Magnitude (a.u.)       :      0.41828
Magnitude (Debye)      :      1.06318

Rotational constants in cm-1:     0.093427     0.077500     0.071267
Rotational constants in MHz :  2800.882689  2323.378564  2136.520439

                             ****ORCA TERMINATED NORMALLY****
TOTAL RUN TIME: 0 days 0 hours 1 minutes 36 seconds 893 msec
