                         Program Version 5.0.3 -  RELEASE  -
|  1> ! PBEh-3c def2/J TightSCF DefGrid3
|  2>
|  3> %maxcore 60000
|  4>
|  5> %pal
|  6> nprocs 4
|  7> end
|  8>
|  9> *xyzfile 0 1 B65.xyz
| 10>
| 11>                          ****END OF INPUT****

CARTESIAN COORDINATES (ANGSTROEM)
---------------------------------
  C      1.242096   -0.431692   -0.153642
  H      1.074458   -0.737096   -1.185681
  O      2.655728   -0.403256    0.015318
  C      0.601437    0.927426    0.108276
  H      0.683219    1.160092    1.175474
  H      1.199930    1.670165   -0.422464
  C     -0.861144    1.059256   -0.329091
  H     -0.945795    0.898958   -1.406356
  H     -1.177780    2.087483   -0.135809
  H      2.832694   -0.133237    0.920767
  H      0.809957   -1.200429    0.497421
  C     -1.852560    0.127794    0.364157
  H     -1.673230    0.119380    1.445156
  H     -2.864056    0.497878    0.204906
  O     -1.862091   -1.198567   -0.161353
  H     -1.067468   -1.645312    0.136681

 Total Charge           Charge          ....    0
 Multiplicity           Mult            ....    1
 Number of Electrons    NEL             ....   50
 Basis Dimension        Dim             ....  110

ORBITAL ENERGIES
----------------

  NO   OCC          E(Eh)            E(eV)
   0   2.0000     -19.491057      -530.3786
   1   2.0000     -19.485495      -530.2273
   2   2.0000     -10.490085      -285.4497
   3   2.0000     -10.483651      -285.2747
   4   2.0000     -10.442045      -284.1425
   5   2.0000     -10.439202      -284.0651
   6   2.0000      -1.128331       -30.7035
   7   2.0000      -1.121906       -30.5286
   8   2.0000      -0.887467       -24.1492
   9   2.0000      -0.802153       -21.8277
  10   2.0000      -0.720592       -19.6083
  11   2.0000      -0.663475       -18.0541
  12   2.0000      -0.589305       -16.0358
  13   2.0000      -0.566249       -15.4084
  14   2.0000      -0.526617       -14.3300
  15   2.0000      -0.507793       -13.8178
  16   2.0000      -0.497522       -13.5383
  17   2.0000      -0.468585       -12.7509
  18   2.0000      -0.439964       -11.9720
  19   2.0000      -0.428451       -11.6587
  20   2.0000      -0.408067       -11.1041
  21   2.0000      -0.382469       -10.4075
  22   2.0000      -0.370850       -10.0913
  23   2.0000      -0.333238        -9.0679
  24   2.0000      -0.322504        -8.7758
  25   0.0000       0.107604         2.9280
  26   0.0000       0.122142         3.3237
  27   0.0000       0.151554         4.1240
  28   0.0000       0.172973         4.7068
  29   0.0000       0.180654         4.9158

MULLIKEN ATOMIC CHARGES
-----------------------
   0 C :   -0.138091
   1 H :    0.223907
   2 O :   -0.618348
   3 C :   -0.473376
   4 H :    0.195926
   5 H :    0.239945
   6 C :   -0.455796
   7 H :    0.231261
   8 H :    0.218381
   9 H :    0.409731
  10 H :    0.145720
  11 C :   -0.164821
  12 H :    0.175885
  13 H :    0.220987
  14 O :   -0.627666
  15 H :    0.416354
Sum of atomic charges:   -0.0000000

LOEWDIN ATOMIC CHARGES
----------------------
   0 C :   -0.099367
   1 H :    0.124848
   2 O :   -0.406607
   3 C :   -0.270302
   4 H :    0.115467
   5 H :    0.136244
   6 C :   -0.265434
   7 H :    0.133605
   8 H :    0.131350
   9 H :    0.306906
  10 H :    0.083401
  11 C :   -0.095799
  12 H :    0.096996
  13 H :    0.123044
  14 O :   -0.413711
  15 H :    0.299356

  Mayer bond orders larger than 0.100000
B(  0-C ,  1-H ) :   0.9057 B(  0-C ,  2-O ) :   1.0198 B(  0-C ,  3-C ) :   0.9780
B(  0-C , 10-H ) :   0.9062 B(  2-O ,  9-H ) :   0.7946 B(  3-C ,  4-H ) :   0.9186
B(  3-C ,  5-H ) :   0.9091 B(  3-C ,  6-C ) :   0.9821 B(  6-C ,  7-H ) :   0.9076
B(  6-C ,  8-H ) :   0.9130 B(  6-C , 11-C ) :   0.9537 B( 11-C , 12-H ) :   0.9127
B( 11-C , 13-H ) :   0.9192 B( 11-C , 14-O ) :   1.0264 B( 14-O , 15-H ) :   0.7763

Dispersion correction           -0.006773986
FINAL SINGLE POINT ENERGY      -308.204002011482

DIPOLE MOMENT
-------------
                                X             Y             Z
Electronic contribution:      1.25670      -2.28284      -0.48988
Nuclear contribution   :     -1.16237       2.80562       1.27931
                        -----------------------------------------
Total Dipole Moment    :      0.09433       0.52278       0.78943
                        -----------------------------------------
Magnitude (a.u.)       :      0.95152
Magnitude (Debye)      :      2.41857

Rotational constants in cm-1:     0.215857     0.060271     0.050499
Rotational constants in MHz :  6471.238676  1806.887309  1513.924741

                             ****ORCA TERMINATED NORMALLY****
TOTAL RUN TIME: 0 days 0 hours 1 minutes 50 seconds 277 msec
