                         Program Version 5.0.3 -  RELEASE  -
|  1> ! PBEh-3c def2/J TightSCF DefGrid3
|  2>
|  3> %maxcore 60000
|  4>
|  5> %pal
|  6> nprocs 4
|  7> end
|  8>
|  9> *xyzfile 0 1 E38.xyz
| 10>
| 11>                          ****END OF INPUT****

CARTESIAN COORDINATES (ANGSTROEM)
---------------------------------
  C      0.000000   -1.432190   -0.335183
  S      0.000000    0.000000    0.783751
  C      0.000000    1.432190   -0.335183
  O     -1.284688    0.000000    1.516534
  O      1.284688    0.000000    1.516534
  H     -0.902085   -1.411029   -0.943485
  H      0.902085   -1.411029   -0.943485
  H      0.000000   -2.306552    0.313743
  H     -0.902085    1.411029   -0.943485
  H      0.000000    2.306552    0.313743
  H      0.902085    1.411029   -0.943485

 Total Charge           Charge          ....    0
 Multiplicity           Mult            ....    1
 Number of Electrons    NEL             ....   50
 Basis Dimension        Dim             ....   90

ORBITAL ENERGIES
----------------

  NO   OCC          E(Eh)            E(eV)
   0   2.0000     -89.807982     -2443.7994
   1   2.0000     -19.477623      -530.0131
   2   2.0000     -19.477582      -530.0119
   3   2.0000     -10.484245      -285.2908
   4   2.0000     -10.484209      -285.2898
   5   2.0000      -8.413965      -228.9556
   6   2.0000      -6.304886      -171.5647
   7   2.0000      -6.304544      -171.5554
   8   2.0000      -6.304386      -171.5511
   9   2.0000      -1.197302       -32.5802
  10   2.0000      -1.090416       -29.6717
  11   2.0000      -0.886201       -24.1148
  12   2.0000      -0.836253       -22.7556
  13   2.0000      -0.675997       -18.3948
  14   2.0000      -0.567134       -15.4325
  15   2.0000      -0.551664       -15.0115
  16   2.0000      -0.544192       -14.8082
  17   2.0000      -0.510460       -13.8903
  18   2.0000      -0.501971       -13.6593
  19   2.0000      -0.480739       -13.0816
  20   2.0000      -0.478361       -13.0169
  21   2.0000      -0.375808       -10.2263
  22   2.0000      -0.367336        -9.9957
  23   2.0000      -0.346679        -9.4336
  24   2.0000      -0.336865        -9.1666
  25   0.0000       0.081922         2.2292
  26   0.0000       0.106550         2.8994
  27   0.0000       0.116926         3.1817
  28   0.0000       0.117069         3.1856
  29   0.0000       0.124336         3.3833

MULLIKEN ATOMIC CHARGES
-----------------------
   0 C :   -0.772173
   1 S :    1.171189
   2 C :   -0.772173
   3 O :   -0.627225
   4 O :   -0.627225
   5 H :    0.259526
   6 H :    0.259526
   7 H :    0.294751
   8 H :    0.259526
   9 H :    0.294751
  10 H :    0.259526
Sum of atomic charges:   -0.0000000

LOEWDIN ATOMIC CHARGES
----------------------
   0 C :   -0.487679
   1 S :    1.206678
   2 C :   -0.487679
   3 O :   -0.582564
   4 O :   -0.582564
   5 H :    0.149865
   6 H :    0.149865
   7 H :    0.167173
   8 H :    0.149865
   9 H :    0.167173
  10 H :    0.149865

  Mayer bond orders larger than 0.100000
B(  0-C ,  1-S ) :   0.8658 B(  0-C ,  5-H ) :   0.8883 B(  0-C ,  6-H ) :   0.8883
B(  0-C ,  7-H ) :   0.8871 B(  1-S ,  2-C ) :   0.8658 B(  1-S ,  3-O ) :   1.6499
B(  1-S ,  4-O ) :   1.6499 B(  2-C ,  8-H ) :   0.8883 B(  2-C ,  9-H ) :   0.8871
B(  2-C , 10-H ) :   0.8883

Dispersion correction           -0.004825839
FINAL SINGLE POINT ENERGY      -627.468060552073

DIPOLE MOMENT
-------------
                                X             Y             Z
Electronic contribution:      0.00000       0.00000       4.81292
Nuclear contribution   :      0.00000       0.00000      -6.66361
                        -----------------------------------------
Total Dipole Moment    :      0.00000       0.00000      -1.85069
                        -----------------------------------------
Magnitude (a.u.)       :      1.85069
Magnitude (Debye)      :      4.70408

Rotational constants in cm-1:     0.147284     0.135820     0.133376
Rotational constants in MHz :  4415.476738  4071.777794  3998.526806

                             ****ORCA TERMINATED NORMALLY****
TOTAL RUN TIME: 0 days 0 hours 1 minutes 18 seconds 703 msec
