                         Program Version 5.0.3 -  RELEASE  -
|  1> ! PBEh-3c def2/J TightSCF DefGrid3
|  2>
|  3> %maxcore 60000
|  4>
|  5> %pal
|  6> nprocs 4
|  7> end
|  8>
|  9> *xyzfile 0 2 40.xyz
| 10>
| 11>                          ****END OF INPUT****

CARTESIAN COORDINATES (ANGSTROEM)
---------------------------------
  H      0.924982   -1.304634   -0.005866
  B      0.259421    1.589042   -2.244592
  C      0.913762    0.250318    1.505911
  Si    -0.933719    0.194092    2.045443
  N     -1.444442   -1.236227    1.190290
  H      2.424583   -0.393485    0.091355
  H      1.227760    1.297638    1.622934
  H     -2.522910   -2.843627    0.404702
  H     -1.070334    1.626551   -2.358424
  C      1.333935   -0.292347    0.116637
  Al    -2.404975    0.087193   -0.208248
  C     -2.242522   -1.787979    0.364103
  B     -0.832800    0.795720   -1.366413
  B      0.807207    0.618070   -1.076107
  Si     2.108350    1.698441   -2.378424
  H      1.451702   -0.298766    2.296699

 Total Charge           Charge          ....    0
 Multiplicity           Mult            ....    2
 Number of Electrons    NEL             ....   87
 Basis Dimension        Dim             ....  171

ORBITAL ENERGIES
----------------
                 SPIN UP ORBITALS
  NO   OCC          E(Eh)            E(eV)
   0   1.0000     -66.757572     -1816.5659
   1   1.0000     -66.740789     -1816.1092
   2   1.0000     -56.629134     -1540.9571
   3   1.0000     -14.697764      -399.9465
   4   1.0000     -10.518168      -286.2139
   5   1.0000     -10.439837      -284.0824
   6   1.0000     -10.436018      -283.9785
   7   1.0000      -6.988624      -190.1701
   8   1.0000      -6.973854      -189.7682
   9   1.0000      -6.959568      -189.3795
  10   1.0000      -5.528952      -150.4504
  11   1.0000      -5.515796      -150.0924
  12   1.0000      -4.365589      -118.7937
  13   1.0000      -3.821285      -103.9825
  14   1.0000      -3.819824      -103.9427
  15   1.0000      -3.815227      -103.8176
  16   1.0000      -3.808519      -103.6351
  17   1.0000      -3.803849      -103.5080
  18   1.0000      -3.802475      -103.4706
  19   1.0000      -2.855968       -77.7149
  20   1.0000      -2.854437       -77.6732
  21   1.0000      -2.850448       -77.5646
  22   1.0000      -1.048057       -28.5191
  23   1.0000      -0.844568       -22.9819
  24   1.0000      -0.750547       -20.4234
  25   1.0000      -0.720902       -19.6167
  26   1.0000      -0.686716       -18.6865
  27   1.0000      -0.591058       -16.0835
  28   1.0000      -0.579638       -15.7728
  29   1.0000      -0.545496       -14.8437
  30   1.0000      -0.508876       -13.8472
  31   1.0000      -0.496453       -13.5092
  32   1.0000      -0.454404       -12.3650
  33   1.0000      -0.439887       -11.9699
  34   1.0000      -0.438039       -11.9196
  35   1.0000      -0.403894       -10.9905
  36   1.0000      -0.391985       -10.6664
  37   1.0000      -0.379395       -10.3239
  38   1.0000      -0.312930        -8.5153
  39   1.0000      -0.302881        -8.2418
  40   1.0000      -0.289372        -7.8742
  41   1.0000      -0.268415        -7.3039
  42   1.0000      -0.265588        -7.2270
  43   1.0000      -0.229103        -6.2342
  44   0.0000      -0.086971        -2.3666
  45   0.0000      -0.056912        -1.5487
  46   0.0000      -0.034046        -0.9264
  47   0.0000      -0.007328        -0.1994
  48   0.0000       0.008813         0.2398

                 SPIN DOWN ORBITALS
  NO   OCC          E(Eh)            E(eV)
   0   1.0000     -66.757119     -1816.5536
   1   1.0000     -66.740690     -1816.1065
   2   1.0000     -56.626087     -1540.8742
   3   1.0000     -14.696043      -399.8997
   4   1.0000     -10.518891      -286.2336
   5   1.0000     -10.439849      -284.0827
   6   1.0000     -10.435857      -283.9741
   7   1.0000      -6.985712      -190.0909
   8   1.0000      -6.973468      -189.7577
   9   1.0000      -6.959629      -189.3811
  10   1.0000      -5.528345      -150.4339
  11   1.0000      -5.515686      -150.0895
  12   1.0000      -4.360701      -118.6607
  13   1.0000      -3.820437      -103.9594
  14   1.0000      -3.818935      -103.9185
  15   1.0000      -3.814842      -103.8071
  16   1.0000      -3.808296      -103.6290
  17   1.0000      -3.803676      -103.5033
  18   1.0000      -3.802321      -103.4664
  19   1.0000      -2.852532       -77.6213
  20   1.0000      -2.848276       -77.5055
  21   1.0000      -2.846753       -77.4641
  22   1.0000      -1.044919       -28.4337
  23   1.0000      -0.844215       -22.9723
  24   1.0000      -0.748488       -20.3674
  25   1.0000      -0.719792       -19.5865
  26   1.0000      -0.686431       -18.6787
  27   1.0000      -0.588276       -16.0078
  28   1.0000      -0.579358       -15.7651
  29   1.0000      -0.538368       -14.6497
  30   1.0000      -0.505358       -13.7515
  31   1.0000      -0.494966       -13.4687
  32   1.0000      -0.452198       -12.3049
  33   1.0000      -0.437366       -11.9013
  34   1.0000      -0.433397       -11.7933
  35   1.0000      -0.395250       -10.7553
  36   1.0000      -0.388116       -10.5612
  37   1.0000      -0.375513       -10.2182
  38   1.0000      -0.309632        -8.4255
  39   1.0000      -0.297917        -8.1067
  40   1.0000      -0.287227        -7.8159
  41   1.0000      -0.262878        -7.1533
  42   1.0000      -0.259937        -7.0733
  43   0.0000      -0.101606        -2.7648
  44   0.0000      -0.073925        -2.0116
  45   0.0000      -0.041343        -1.1250
  46   0.0000      -0.028688        -0.7806
  47   0.0000       0.001069         0.0291

MULLIKEN ATOMIC CHARGES AND SPIN POPULATIONS
--------------------------------------------
   0 H :    0.231798   -0.000187
   1 B :   -0.292656    0.013779
   2 C :   -0.742550   -0.004349
   3 Si:    0.396184    0.099249
   4 N :   -0.424587    0.059938
   5 H :    0.235020   -0.000520
   6 H :    0.240582    0.000172
   7 H :    0.235928   -0.006691
   8 H :    0.117564   -0.003039
   9 C :   -0.588204    0.007496
  10 Al:    0.435574    0.757225
  11 C :   -0.199930   -0.054476
  12 B :   -0.188522    0.115323
  13 B :    0.139292   -0.012466
  14 Si:    0.159115    0.027942
  15 H :    0.245391    0.000604
Sum of atomic charges         :    0.0000000

LOEWDIN ATOMIC CHARGES AND SPIN POPULATIONS
-------------------------------------------
   0 H :    0.149458    0.000085
   1 B :   -0.355607    0.018152
   2 C :   -0.413549   -0.000592
   3 Si:    0.244700    0.119470
   4 N :   -0.121894    0.064101
   5 H :    0.139732   -0.000445
   6 H :    0.144938   -0.000043
   7 H :    0.145401   -0.005314
   8 H :    0.198762   -0.001437
   9 C :   -0.301472    0.006314
  10 Al:    0.202724    0.702297
  11 C :   -0.115279   -0.033444
  12 B :   -0.215351    0.108647
  13 B :   -0.159102   -0.001916
  14 Si:    0.308945    0.023174
  15 H :    0.147597    0.000949

  Mayer bond orders larger than 0.100000
B(  0-H ,  9-C ) :   0.9020 B(  1-B ,  8-H ) :   0.4339 B(  1-B , 12-B ) :   0.7529
B(  1-B , 13-B ) :   0.9171 B(  1-B , 14-Si) :   1.3320 B(  2-C ,  3-Si) :   0.9149
B(  2-C ,  6-H ) :   0.8988 B(  2-C ,  9-C ) :   0.9682 B(  2-C , 15-H ) :   0.8939
B(  3-Si,  4-N ) :   1.0276 B(  3-Si, 10-Al) :   0.4007 B(  3-Si, 11-C ) :   0.1561
B(  4-N , 10-Al) :   0.3821 B(  4-N , 11-C ) :   1.6969 B(  5-H ,  9-C ) :   0.9151
B(  7-H , 11-C ) :   0.8760 B(  8-H , 12-B ) :   0.4992 B(  9-C , 13-B ) :   0.9370
B( 10-Al, 11-C ) :   0.7329 B( 10-Al, 12-B ) :   0.8092 B( 12-B , 13-B ) :   0.8469
B( 12-B , 14-Si) :   0.1601 B( 13-B , 14-Si) :   0.6812

Dispersion correction           -0.011053073
FINAL SINGLE POINT ENERGY     -1066.879826465022

DIPOLE MOMENT
-------------
                                X             Y             Z
Electronic contribution:     -5.42177       4.19275      -5.95400
Nuclear contribution   :      4.85297      -4.90073       5.99695
                        -----------------------------------------
Total Dipole Moment    :     -0.56880      -0.70798       0.04294
                        -----------------------------------------
Magnitude (a.u.)       :      0.90918
Magnitude (Debye)      :      2.31096

Rotational constants in cm-1:     0.055468     0.020596     0.017073
Rotational constants in MHz :  1662.891437   617.464033   511.839906

                             ****ORCA TERMINATED NORMALLY****
TOTAL RUN TIME: 0 days 0 hours 5 minutes 56 seconds 604 msec
