                         Program Version 5.0.3 -  RELEASE  -
|  1> ! PBEh-3c def2/J TightSCF DefGrid3
|  2>
|  3> %maxcore 60000
|  4>
|  5> %pal
|  6> nprocs 4
|  7> end
|  8>
|  9> *xyzfile 0 1 B57.xyz
| 10>
| 11>                          ****END OF INPUT****

CARTESIAN COORDINATES (ANGSTROEM)
---------------------------------
  C     -0.253018    1.544059   -0.414718
  H     -1.346677    1.491057   -0.454871
  O      0.184119    2.886591   -0.213281
  C      0.253018    0.721674    0.757634
  H      1.345096    0.740477    0.754502
  H     -0.068656    1.219414    1.673453
  C     -0.253018   -0.721674    0.757634
  H     -1.345096   -0.740477    0.754502
  H      0.068656   -1.219414    1.673453
  H     -0.108269    3.407157   -0.965537
  H      0.137616    1.153190   -1.358797
  C      0.253018   -1.544059   -0.414718
  H     -0.137616   -1.153190   -1.358797
  H      1.346677   -1.491057   -0.454871
  O     -0.184119   -2.886591   -0.213281
  H      0.108269   -3.407157   -0.965537

 Total Charge           Charge          ....    0
 Multiplicity           Mult            ....    1
 Number of Electrons    NEL             ....   50
 Basis Dimension        Dim             ....  110

ORBITAL ENERGIES
----------------

  NO   OCC          E(Eh)            E(eV)
   0   2.0000     -19.483482      -530.1725
   1   2.0000     -19.483452      -530.1717
   2   2.0000     -10.480692      -285.1941
   3   2.0000     -10.480677      -285.1937
   4   2.0000     -10.430447      -283.8269
   5   2.0000     -10.430220      -283.8207
   6   2.0000      -1.120252       -30.4836
   7   2.0000      -1.119613       -30.4662
   8   2.0000      -0.884772       -24.0759
   9   2.0000      -0.792226       -21.5576
  10   2.0000      -0.708590       -19.2817
  11   2.0000      -0.644470       -17.5369
  12   2.0000      -0.586129       -15.9494
  13   2.0000      -0.555906       -15.1270
  14   2.0000      -0.541573       -14.7369
  15   2.0000      -0.523210       -14.2373
  16   2.0000      -0.477010       -12.9801
  17   2.0000      -0.455929       -12.4065
  18   2.0000      -0.418431       -11.3861
  19   2.0000      -0.411187       -11.1890
  20   2.0000      -0.401637       -10.9291
  21   2.0000      -0.377286       -10.2665
  22   2.0000      -0.366247        -9.9661
  23   2.0000      -0.328057        -8.9269
  24   2.0000      -0.321281        -8.7425
  25   0.0000       0.124963         3.4004
  26   0.0000       0.131131         3.5682
  27   0.0000       0.138316         3.7638
  28   0.0000       0.188832         5.1384
  29   0.0000       0.193398         5.2626

MULLIKEN ATOMIC CHARGES
-----------------------
   0 C :   -0.133841
   1 H :    0.176722
   2 O :   -0.628974
   3 C :   -0.459480
   4 H :    0.219430
   5 H :    0.238815
   6 C :   -0.459480
   7 H :    0.219430
   8 H :    0.238815
   9 H :    0.414607
  10 H :    0.172721
  11 C :   -0.133841
  12 H :    0.172721
  13 H :    0.176722
  14 O :   -0.628974
  15 H :    0.414607
Sum of atomic charges:   -0.0000000

LOEWDIN ATOMIC CHARGES
----------------------
   0 C :   -0.092502
   1 H :    0.096584
   2 O :   -0.416613
   3 C :   -0.252923
   4 H :    0.127786
   5 H :    0.136103
   6 C :   -0.252923
   7 H :    0.127786
   8 H :    0.136103
   9 H :    0.307675
  10 H :    0.093891
  11 C :   -0.092502
  12 H :    0.093891
  13 H :    0.096584
  14 O :   -0.416613
  15 H :    0.307675

  Mayer bond orders larger than 0.100000
B(  0-C ,  1-H ) :   0.9045 B(  0-C ,  2-O ) :   1.0183 B(  0-C ,  3-C ) :   0.9845
B(  0-C , 10-H ) :   0.9060 B(  2-O ,  9-H ) :   0.7944 B(  3-C ,  4-H ) :   0.9127
B(  3-C ,  5-H ) :   0.9137 B(  3-C ,  6-C ) :   0.9621 B(  6-C ,  7-H ) :   0.9127
B(  6-C ,  8-H ) :   0.9137 B(  6-C , 11-C ) :   0.9845 B( 11-C , 12-H ) :   0.9060
B( 11-C , 13-H ) :   0.9045 B( 11-C , 14-O ) :   1.0183 B( 14-O , 15-H ) :   0.7944

Dispersion correction           -0.006478770
FINAL SINGLE POINT ENERGY      -308.204319927329

DIPOLE MOMENT
-------------
                                X             Y             Z
Electronic contribution:      0.00000       0.00000      -0.24987
Nuclear contribution   :      0.00000      -0.00000      -0.73898
                        -----------------------------------------
Total Dipole Moment    :      0.00000       0.00000      -0.98885
                        -----------------------------------------
Magnitude (a.u.)       :      0.98885
Magnitude (Debye)      :      2.51346

Rotational constants in cm-1:     0.387767     0.044060     0.041779
Rotational constants in MHz : 11624.970051  1320.882933  1252.492978

                             ****ORCA TERMINATED NORMALLY****
TOTAL RUN TIME: 0 days 0 hours 1 minutes 33 seconds 736 msec
