                         Program Version 5.0.3 -  RELEASE  -
|  1> ! PBEh-3c def2/J TightSCF DefGrid3
|  2>
|  3> %maxcore 60000
|  4>
|  5> %pal
|  6> nprocs 4
|  7> end
|  8>
|  9> *xyzfile 0 3 EA_11n.xyz
| 10>
| 11>                          ****END OF INPUT****

CARTESIAN COORDINATES (ANGSTROEM)
---------------------------------
  N      0.000000    0.000000    0.520159
  H      0.000000    0.000000   -0.520159

 Total Charge           Charge          ....    0
 Multiplicity           Mult            ....    3
 Number of Electrons    NEL             ....    8
 Basis Dimension        Dim             ....   17

ORBITAL ENERGIES
----------------
                 SPIN UP ORBITALS
  NO   OCC          E(Eh)            E(eV)
   0   1.0000     -14.701968      -400.0609
   1   1.0000      -0.938595       -25.5405
   2   1.0000      -0.456841       -12.4313
   3   1.0000      -0.395497       -10.7620
   4   1.0000      -0.395497       -10.7620
   5   0.0000       0.144367         3.9284
   6   0.0000       0.728597        19.8261
   7   0.0000       0.728597        19.8261
   8   0.0000       0.800971        21.7955
   9   0.0000       0.860889        23.4260

                 SPIN DOWN ORBITALS
  NO   OCC          E(Eh)            E(eV)
   0   1.0000     -14.658441      -398.8764
   1   1.0000      -0.792258       -21.5584
   2   1.0000      -0.400652       -10.9023
   3   0.0000      -0.030511        -0.8302
   4   0.0000      -0.030511        -0.8302
   5   0.0000       0.167133         4.5479
   6   0.0000       0.831114        22.6158
   7   0.0000       0.857263        23.3273

MULLIKEN ATOMIC CHARGES AND SPIN POPULATIONS
--------------------------------------------
   0 N :   -0.303010    2.080430
   1 H :    0.303010   -0.080430
Sum of atomic charges         :   -0.0000000

LOEWDIN ATOMIC CHARGES AND SPIN POPULATIONS
-------------------------------------------
   0 N :   -0.190059    2.052795
   1 H :    0.190059   -0.052795

  Mayer bond orders larger than 0.100000
B(  0-N ,  1-H ) :   0.8618

Dispersion correction           -0.000112755
FINAL SINGLE POINT ENERGY       -55.100021531666

DIPOLE MOMENT
-------------
                                X             Y             Z
Electronic contribution:      0.00000       0.00000       0.25195
Nuclear contribution   :      0.00000       0.00000      -0.91010
                        -----------------------------------------
Total Dipole Moment    :      0.00000       0.00000      -0.65815
                        -----------------------------------------
Magnitude (a.u.)       :      0.65815
Magnitude (Debye)      :      1.67287

Rotational constants in cm-1:     0.000000    16.564742    16.564742
Rotational constants in MHz :     0.000000 496598.482278 496598.482278

                             ****ORCA TERMINATED NORMALLY****
TOTAL RUN TIME: 0 days 0 hours 1 minutes 7 seconds 292 msec
