                         Program Version 5.0.3 -  RELEASE  -
|  1> ! PBEh-3c def2/J TightSCF DefGrid3
|  2>
|  3> %maxcore 60000
|  4>
|  5> %pal
|  6> nprocs 4
|  7> end
|  8>
|  9> *xyzfile 0 1 31.xyz
| 10>
| 11>                          ****END OF INPUT****

CARTESIAN COORDINATES (ANGSTROEM)
---------------------------------
  N      1.376159   -2.857628    0.065021
  C      0.084779   -2.527148    0.412764
  C     -0.029340   -1.159995    0.542814
  C      1.269859   -0.618995    0.258286
  C      1.778731    0.698829    0.239904
  C      3.118399    0.880088   -0.070386
  C      3.957937   -0.223506   -0.363336
  C      3.477200   -1.518314   -0.347356
  C      2.123959   -1.706432   -0.033045
  H      1.720770   -3.790909   -0.065214
  H     -0.660823   -3.293514    0.551080
  H      1.132523    1.532709    0.471076
  H      4.993049   -0.019353   -0.598988
  H      4.131254   -2.351405   -0.570058
  O      3.749309    2.094267   -0.124821
  C      2.952181    3.229830    0.163907
  H      2.549574    3.184690    1.178391
  H      2.129059    3.328161   -0.547709
  H      3.610202    4.088785    0.074735
  C     -1.270481   -0.386455    0.858702
  C     -1.848202    0.293760   -0.393270
  N     -3.024798    1.101030   -0.127725
  C     -4.326207    0.675973   -0.100227
  C     -4.597413   -0.711056   -0.649892
  H     -1.058943    0.381337    1.608321
  H     -2.027277   -1.045188    1.289866
  H     -2.092636   -0.462467   -1.136841
  H     -1.087048    0.933335   -0.842201
  H     -2.893013    2.003809    0.301324
  O     -5.222632    1.395740    0.315446
  H     -5.658296   -0.909259   -0.538879
  H     -4.029044   -1.472780   -0.116920
  H     -4.328795   -0.767938   -1.704772

 Total Charge           Charge          ....    0
 Multiplicity           Mult            ....    1
 Number of Electrons    NEL             ....  124
 Basis Dimension        Dim             ....  287

ORBITAL ENERGIES
----------------

  NO   OCC          E(Eh)            E(eV)
   0   2.0000     -19.523815      -531.2700
   1   2.0000     -19.447285      -529.1875
   2   2.0000     -14.689289      -399.7159
   3   2.0000     -14.653792      -398.7499
   4   2.0000     -10.542911      -286.8872
   5   2.0000     -10.504984      -285.8551
   6   2.0000     -10.490067      -285.4492
   7   2.0000     -10.483569      -285.2724
   8   2.0000     -10.482291      -285.2376
   9   2.0000     -10.480131      -285.1789
  10   2.0000     -10.456451      -284.5345
  11   2.0000     -10.451380      -284.3965
  12   2.0000     -10.449927      -284.3570
  13   2.0000     -10.446637      -284.2674
  14   2.0000     -10.446478      -284.2631
  15   2.0000     -10.444137      -284.1994
  16   2.0000     -10.438598      -284.0487
  17   2.0000      -1.172251       -31.8986
  18   2.0000      -1.133386       -30.8410
  19   2.0000      -1.091405       -29.6986
  20   2.0000      -1.018297       -27.7093
  21   2.0000      -0.941736       -25.6259
  22   2.0000      -0.903858       -24.5952
  23   2.0000      -0.845369       -23.0037
  24   2.0000      -0.836984       -22.7755
  25   2.0000      -0.825023       -22.4500
  26   2.0000      -0.808598       -22.0031
  27   2.0000      -0.780641       -21.2423
  28   2.0000      -0.732005       -19.9189
  29   2.0000      -0.695418       -18.9233
  30   2.0000      -0.674192       -18.3457
  31   2.0000      -0.647308       -17.6141
  32   2.0000      -0.638922       -17.3859
  33   2.0000      -0.615019       -16.7355
  34   2.0000      -0.581401       -15.8207
  35   2.0000      -0.562053       -15.2942
  36   2.0000      -0.560567       -15.2538
  37   2.0000      -0.546413       -14.8687
  38   2.0000      -0.532958       -14.5025
  39   2.0000      -0.529739       -14.4149
  40   2.0000      -0.516363       -14.0510
  41   2.0000      -0.506510       -13.7828
  42   2.0000      -0.499476       -13.5914
  43   2.0000      -0.489513       -13.3203
  44   2.0000      -0.476749       -12.9730
  45   2.0000      -0.466699       -12.6995
  46   2.0000      -0.459776       -12.5111
  47   2.0000      -0.456172       -12.4131
  48   2.0000      -0.454001       -12.3540
  49   2.0000      -0.452347       -12.3090
  50   2.0000      -0.439283       -11.9535
  51   2.0000      -0.419477       -11.4146
  52   2.0000      -0.414206       -11.2711
  53   2.0000      -0.410144       -11.1606
  54   2.0000      -0.405100       -11.0233
  55   2.0000      -0.381420       -10.3790
  56   2.0000      -0.354308        -9.6412
  57   2.0000      -0.327100        -8.9008
  58   2.0000      -0.301019        -8.1912
  59   2.0000      -0.294596        -8.0164
  60   2.0000      -0.247947        -6.7470
  61   2.0000      -0.242820        -6.6075
  62   0.0000       0.002523         0.0687
  63   0.0000       0.054802         1.4912
  64   0.0000       0.065645         1.7863
  65   0.0000       0.086884         2.3642
  66   0.0000       0.111721         3.0401

MULLIKEN ATOMIC CHARGES
-----------------------
   0 N :   -0.699922
   1 C :   -0.059735
   2 C :    0.024758
   3 C :    0.089255
   4 C :   -0.490772
   5 C :    0.394384
   6 C :   -0.317442
   7 C :   -0.251637
   8 C :    0.352297
   9 H :    0.359516
  10 H :    0.238189
  11 H :    0.215759
  12 H :    0.236067
  13 H :    0.215286
  14 O :   -0.465739
  15 C :   -0.404633
  16 H :    0.205336
  17 H :    0.202667
  18 H :    0.242545
  19 C :   -0.536196
  20 C :   -0.276756
  21 N :   -0.609615
  22 C :    0.495991
  23 C :   -0.780478
  24 H :    0.227195
  25 H :    0.229744
  26 H :    0.236689
  27 H :    0.246191
  28 H :    0.356499
  29 O :   -0.418727
  30 H :    0.272438
  31 H :    0.228654
  32 H :    0.242192
Sum of atomic charges:   -0.0000000

LOEWDIN ATOMIC CHARGES
----------------------
   0 N :   -0.155975
   1 C :   -0.084198
   2 C :   -0.108646
   3 C :   -0.050795
   4 C :   -0.199178
   5 C :    0.060639
   6 C :   -0.156228
   7 C :   -0.145357
   8 C :    0.003571
   9 H :    0.262261
  10 H :    0.135051
  11 H :    0.137560
  12 H :    0.146924
  13 H :    0.138148
  14 O :   -0.189926
  15 C :   -0.179879
  16 H :    0.113152
  17 H :    0.111957
  18 H :    0.131014
  19 C :   -0.236772
  20 C :   -0.147727
  21 N :   -0.246252
  22 C :    0.106504
  23 C :   -0.398241
  24 H :    0.132745
  25 H :    0.132648
  26 H :    0.132580
  27 H :    0.130436
  28 H :    0.256913
  29 O :   -0.274662
  30 H :    0.156389
  31 H :    0.138752
  32 H :    0.146593

  Mayer bond orders larger than 0.100000
B(  0-N ,  1-C ) :   1.1434 B(  0-N ,  8-C ) :   1.0053 B(  0-N ,  9-H ) :   0.8329
B(  1-C ,  2-C ) :   1.5458 B(  1-C , 10-H ) :   0.9114 B(  2-C ,  3-C ) :   1.2502
B(  2-C , 19-C ) :   0.9427 B(  3-C ,  4-C ) :   1.2481 B(  3-C ,  8-C ) :   1.2553
B(  4-C ,  5-C ) :   1.4235 B(  4-C , 11-H ) :   0.9171 B(  5-C ,  6-C ) :   1.2989
B(  5-C , 14-O ) :   1.0281 B(  6-C ,  7-C ) :   1.5294 B(  6-C , 12-H ) :   0.9079
B(  7-C ,  8-C ) :   1.2711 B(  7-C , 13-H ) :   0.9198 B( 14-O , 15-C ) :   0.9565
B( 15-C , 16-H ) :   0.9066 B( 15-C , 17-H ) :   0.9073 B( 15-C , 18-H ) :   0.9227
B( 19-C , 20-C ) :   0.9450 B( 19-C , 24-H ) :   0.9190 B( 19-C , 25-H ) :   0.9256
B( 20-C , 21-N ) :   0.9528 B( 20-C , 26-H ) :   0.9064 B( 20-C , 27-H ) :   0.9100
B( 21-N , 22-C ) :   1.1518 B( 21-N , 28-H ) :   0.8241 B( 22-C , 23-C ) :   0.9267
B( 22-C , 29-O ) :   2.0327 B( 23-C , 30-H ) :   0.9156 B( 23-C , 31-H ) :   0.9095
B( 23-C , 32-H ) :   0.9088

Dispersion correction           -0.021174664
FINAL SINGLE POINT ENERGY      -763.324598422840

DIPOLE MOMENT
-------------
                                X             Y             Z
Electronic contribution:      6.46615      -2.83973       0.84500
Nuclear contribution   :     -5.33058       1.57983      -1.10662
                        -----------------------------------------
Total Dipole Moment    :      1.13557      -1.25990      -0.26161
                        -----------------------------------------
Magnitude (a.u.)       :      1.71620
Magnitude (Debye)      :      4.36222

Rotational constants in cm-1:     0.025154     0.007603     0.006008
Rotational constants in MHz :   754.112460   227.945218   180.127624

                             ****ORCA TERMINATED NORMALLY****
TOTAL RUN TIME: 0 days 0 hours 4 minutes 2 seconds 361 msec
