                         Program Version 5.0.3 -  RELEASE  -
|  1> ! PBEh-3c def2/J TightSCF DefGrid3
|  2>
|  3> %maxcore 60000
|  4>
|  5> %pal
|  6> nprocs 4
|  7> end
|  8>
|  9> *xyzfile 0 1 35.xyz
| 10>
| 11>                          ****END OF INPUT****

CARTESIAN COORDINATES (ANGSTROEM)
---------------------------------
  C     -2.530170   -0.400866   -2.291208
  H     -2.559673   -0.966081   -3.222670
  H     -2.553823   -1.117156   -1.469856
  H     -3.436000    0.200853   -2.235743
  C     -1.275944    0.460344   -2.222489
  H     -1.277871    1.041927   -1.297429
  H     -1.280126    1.185264   -3.039672
  C      0.002418   -0.364007   -2.293522
  H      0.008042   -1.094704   -1.478683
  H      0.006462   -0.943814   -3.221335
  C      1.268547    0.479105   -2.223145
  H      1.262233    1.060959   -1.298268
  H      1.261848    1.203766   -3.040549
  C      2.535179   -0.363716   -2.291828
  H      2.572653   -0.929008   -3.222966
  H      3.432194    0.251124   -2.236937
  H      2.569421   -1.079101   -1.470058
  C     -0.000308    0.080680    2.268792
  C      0.000764   -0.059451    3.788525
  H     -0.886272    0.404625    4.221894
  H      0.010015   -1.110231    4.081535
  H      0.879424    0.420214    4.222168
  C     -1.239763   -0.600972    1.694893
  H     -1.263063   -0.512015    0.608064
  H     -1.251849   -1.662248    1.947906
  H     -2.150707   -0.148681    2.089978
  C      1.252297   -0.576861    1.695321
  H      1.273624   -0.488575    0.608351
  H      1.285427   -1.637421    1.949414
  H      2.154109   -0.106217    2.089743
  C     -0.014556    1.560472    1.894170
  H      0.863210    2.071060    2.293126
  H     -0.015080    1.686927    0.810519
  H     -0.902662    2.053806    2.291959

 Total Charge           Charge          ....    0
 Multiplicity           Mult            ....    1
 Number of Electrons    NEL             ....   84
 Basis Dimension        Dim             ....  198

ORBITAL ENERGIES
----------------

  NO   OCC          E(Eh)            E(eV)
   0   2.0000     -10.446690      -284.2689
   1   2.0000     -10.427816      -283.7553
   2   2.0000     -10.427798      -283.7548
   3   2.0000     -10.425825      -283.7011
   4   2.0000     -10.419254      -283.5223
   5   2.0000     -10.419243      -283.5220
   6   2.0000     -10.418259      -283.4952
   7   2.0000     -10.417919      -283.4860
   8   2.0000     -10.417871      -283.4847
   9   2.0000     -10.417754      -283.4815
  10   2.0000      -0.914865       -24.8948
  11   2.0000      -0.894217       -24.3329
  12   2.0000      -0.837792       -22.7975
  13   2.0000      -0.762982       -20.7618
  14   2.0000      -0.762863       -20.7586
  15   2.0000      -0.762778       -20.7562
  16   2.0000      -0.755201       -20.5501
  17   2.0000      -0.671288       -18.2667
  18   2.0000      -0.645297       -17.5594
  19   2.0000      -0.597780       -16.2664
  20   2.0000      -0.539510       -14.6808
  21   2.0000      -0.506608       -13.7855
  22   2.0000      -0.505879       -13.7657
  23   2.0000      -0.503971       -13.7138
  24   2.0000      -0.495705       -13.4888
  25   2.0000      -0.489905       -13.3310
  26   2.0000      -0.458590       -12.4789
  27   2.0000      -0.453135       -12.3304
  28   2.0000      -0.452244       -12.3062
  29   2.0000      -0.447596       -12.1797
  30   2.0000      -0.428632       -11.6637
  31   2.0000      -0.412257       -11.2181
  32   2.0000      -0.411825       -11.2063
  33   2.0000      -0.411730       -11.2037
  34   2.0000      -0.402403       -10.9499
  35   2.0000      -0.383066       -10.4238
  36   2.0000      -0.376734       -10.2515
  37   2.0000      -0.367865       -10.0101
  38   2.0000      -0.365410        -9.9433
  39   2.0000      -0.364556        -9.9201
  40   2.0000      -0.362262        -9.8577
  41   2.0000      -0.362161        -9.8549
  42   0.0000       0.090547         2.4639
  43   0.0000       0.138057         3.7567
  44   0.0000       0.141554         3.8519
  45   0.0000       0.154295         4.1986
  46   0.0000       0.175512         4.7759

MULLIKEN ATOMIC CHARGES
-----------------------
   0 C :   -0.640583
   1 H :    0.210026
   2 H :    0.211193
   3 H :    0.219133
   4 C :   -0.424177
   5 H :    0.208292
   6 H :    0.210712
   7 C :   -0.399184
   8 H :    0.201183
   9 H :    0.203431
  10 C :   -0.424151
  11 H :    0.208244
  12 H :    0.210728
  13 C :   -0.640582
  14 H :    0.210033
  15 H :    0.219134
  16 H :    0.211184
  17 C :   -0.108854
  18 C :   -0.606803
  19 H :    0.211424
  20 H :    0.211347
  21 H :    0.211403
  22 C :   -0.621612
  23 H :    0.228146
  24 H :    0.211227
  25 H :    0.211860
  26 C :   -0.621605
  27 H :    0.228132
  28 H :    0.211232
  29 H :    0.211871
  30 C :   -0.615556
  31 H :    0.212062
  32 H :    0.219056
  33 H :    0.212052
Sum of atomic charges:   -0.0000000

LOEWDIN ATOMIC CHARGES
----------------------
   0 C :   -0.361805
   1 H :    0.123650
   2 H :    0.123123
   3 H :    0.126350
   4 C :   -0.248226
   5 H :    0.117547
   6 H :    0.120575
   7 C :   -0.242725
   8 H :    0.116706
   9 H :    0.119167
  10 C :   -0.248223
  11 H :    0.117543
  12 H :    0.120572
  13 C :   -0.361804
  14 H :    0.123651
  15 H :    0.126349
  16 H :    0.123121
  17 C :   -0.115548
  18 C :   -0.343229
  19 H :    0.124371
  20 H :    0.124355
  21 H :    0.124366
  22 C :   -0.343747
  23 H :    0.125476
  24 H :    0.124394
  25 H :    0.124788
  26 C :   -0.343745
  27 H :    0.125479
  28 H :    0.124395
  29 H :    0.124791
  30 C :   -0.343483
  31 H :    0.124686
  32 H :    0.122394
  33 H :    0.124687

  Mayer bond orders larger than 0.100000
B(  0-C ,  1-H ) :   0.9288 B(  0-C ,  2-H ) :   0.9262 B(  0-C ,  3-H ) :   0.9322
B(  0-C ,  4-C ) :   0.9969 B(  4-C ,  5-H ) :   0.9120 B(  4-C ,  6-H ) :   0.9191
B(  4-C ,  7-C ) :   0.9892 B(  7-C ,  8-H ) :   0.9133 B(  7-C ,  9-H ) :   0.9172
B(  7-C , 10-C ) :   0.9892 B( 10-C , 11-H ) :   0.9120 B( 10-C , 12-H ) :   0.9191
B( 10-C , 13-C ) :   0.9969 B( 13-C , 14-H ) :   0.9288 B( 13-C , 15-H ) :   0.9322
B( 13-C , 16-H ) :   0.9262 B( 17-C , 18-C ) :   0.9840 B( 17-C , 22-C ) :   0.9809
B( 17-C , 26-C ) :   0.9809 B( 17-C , 30-C ) :   0.9823 B( 18-C , 19-H ) :   0.9302
B( 18-C , 20-H ) :   0.9303 B( 18-C , 21-H ) :   0.9303 B( 22-C , 23-H ) :   0.9137
B( 22-C , 24-H ) :   0.9302 B( 22-C , 25-H ) :   0.9301 B( 26-C , 27-H ) :   0.9138
B( 26-C , 28-H ) :   0.9302 B( 26-C , 29-H ) :   0.9301 B( 30-C , 31-H ) :   0.9298
B( 30-C , 32-H ) :   0.9185 B( 30-C , 33-H ) :   0.9298

Dispersion correction           -0.017778389
FINAL SINGLE POINT ENERGY      -394.679307384890

DIPOLE MOMENT
-------------
                                X             Y             Z
Electronic contribution:     -0.00422       0.58881       0.04939
Nuclear contribution   :      0.00408      -0.57011      -0.05180
                        -----------------------------------------
Total Dipole Moment    :     -0.00014       0.01870      -0.00241
                        -----------------------------------------
Magnitude (a.u.)       :      0.01886
Magnitude (Debye)      :      0.04793

Rotational constants in cm-1:     0.043895     0.019063     0.015155
Rotational constants in MHz :  1315.946048   571.508423   454.341327

                             ****ORCA TERMINATED NORMALLY****
TOTAL RUN TIME: 0 days 0 hours 2 minutes 13 seconds 756 msec
