                         Program Version 5.0.3 -  RELEASE  -
|  1> ! PBEh-3c def2/J TightSCF DefGrid3
|  2>
|  3> %maxcore 60000
|  4>
|  5> %pal
|  6> nprocs 4
|  7> end
|  8>
|  9> *xyzfile 1 2 si+.xyz
| 10>
| 11>                          ****END OF INPUT****

CARTESIAN COORDINATES (ANGSTROEM)
---------------------------------
  Si     0.000000    0.000000    0.000000

 Total Charge           Charge          ....    1
 Multiplicity           Mult            ....    2
 Number of Electrons    NEL             ....   13
 Basis Dimension        Dim             ....   18

ORBITAL ENERGIES
----------------
                 SPIN UP ORBITALS
  NO   OCC          E(Eh)            E(eV)
   0   1.0000     -67.147564     -1827.1781
   1   1.0000      -5.914242      -160.9347
   2   1.0000      -4.203450      -114.3817
   3   1.0000      -4.203450      -114.3817
   4   1.0000      -4.203165      -114.3739
   5   1.0000      -0.796727       -21.6800
   6   1.0000      -0.519707       -14.1419
   7   0.0000      -0.375720       -10.2239
   8   0.0000      -0.375720       -10.2239
   9   0.0000      -0.051500        -1.4014
  10   0.0000       0.159305         4.3349
  11   0.0000       0.166654         4.5349

                 SPIN DOWN ORBITALS
  NO   OCC          E(Eh)            E(eV)
   0   1.0000     -67.143096     -1827.0565
   1   1.0000      -5.909393      -160.8028
   2   1.0000      -4.201025      -114.3157
   3   1.0000      -4.201025      -114.3157
   4   1.0000      -4.184502      -113.8661
   5   1.0000      -0.746662       -20.3177
   6   0.0000      -0.363152        -9.8819
   7   0.0000      -0.363152        -9.8819
   8   0.0000      -0.322542        -8.7768
   9   0.0000      -0.036438        -0.9915
  10   0.0000       0.182567         4.9679

MULLIKEN ATOMIC CHARGES AND SPIN POPULATIONS
--------------------------------------------
   0 Si:    1.000000    1.000000
Sum of atomic charges         :    1.0000000

LOEWDIN ATOMIC CHARGES AND SPIN POPULATIONS
-------------------------------------------
   0 Si:    1.000000    1.000000

Dispersion correction            0.000000000
FINAL SINGLE POINT ENERGY      -288.694951568129

DIPOLE MOMENT
-------------
                                X             Y             Z
Electronic contribution:     -0.00002      -0.00000      -0.00000
Nuclear contribution   :      0.00000       0.00000       0.00000
                        -----------------------------------------
Total Dipole Moment    :     -0.00002      -0.00000      -0.00000
                        -----------------------------------------
Magnitude (a.u.)       :      0.00002
Magnitude (Debye)      :      0.00005

Rotational constants in cm-1:     0.000000     0.000000     0.000000
Rotational constants in MHz :     0.000000     0.000000     0.000000

                             ****ORCA TERMINATED NORMALLY****
TOTAL RUN TIME: 0 days 0 hours 0 minutes 5 seconds 108 msec
