                         Program Version 5.0.3 -  RELEASE  -
|  1> ! PBEh-3c def2/J TightSCF DefGrid3
|  2>
|  3> %maxcore 60000
|  4>
|  5> %pal
|  6> nprocs 4
|  7> end
|  8>
|  9> *xyzfile 0 2 hfch3ts.xyz
| 10>
| 11>                          ****END OF INPUT****

CARTESIAN COORDINATES (ANGSTROEM)
---------------------------------
  H      0.000375    2.262468    0.000000
  F     -0.000110    1.023982    0.000000
  C     -0.000110   -0.644667    0.000000
  H      1.053686   -0.880072    0.000000
  H     -0.526920   -0.880855    0.912354
  H     -0.526920   -0.880855   -0.912354

 Total Charge           Charge          ....    0
 Multiplicity           Mult            ....    2
 Number of Electrons    NEL             ....   19
 Basis Dimension        Dim             ....   38

ORBITAL ENERGIES
----------------
                 SPIN UP ORBITALS
  NO   OCC          E(Eh)            E(eV)
   0   1.0000     -25.076996      -682.3797
   1   1.0000     -10.482460      -285.2422
   2   1.0000      -1.263566       -34.3834
   3   1.0000      -0.792356       -21.5611
   4   1.0000      -0.560654       -15.2562
   5   1.0000      -0.514065       -13.9884
   6   1.0000      -0.514035       -13.9876
   7   1.0000      -0.431201       -11.7336
   8   1.0000      -0.431199       -11.7335
   9   1.0000      -0.202707        -5.5159
  10   0.0000       0.059993         1.6325
  11   0.0000       0.167441         4.5563
  12   0.0000       0.219147         5.9633
  13   0.0000       0.219148         5.9633
  14   0.0000       0.476143        12.9565

                 SPIN DOWN ORBITALS
  NO   OCC          E(Eh)            E(eV)
   0   1.0000     -25.075973      -682.3519
   1   1.0000     -10.472263      -284.9648
   2   1.0000      -1.259643       -34.2766
   3   1.0000      -0.766339       -20.8531
   4   1.0000      -0.545694       -14.8491
   5   1.0000      -0.507466       -13.8089
   6   1.0000      -0.507436       -13.8080
   7   1.0000      -0.427859       -11.6426
   8   1.0000      -0.427858       -11.6426
   9   0.0000       0.008248         0.2245
  10   0.0000       0.127894         3.4802
  11   0.0000       0.175825         4.7845
  12   0.0000       0.224401         6.1063
  13   0.0000       0.224404         6.1063

MULLIKEN ATOMIC CHARGES AND SPIN POPULATIONS
--------------------------------------------
   0 H :    0.137158    0.636659
   1 F :   -0.377089   -0.115647
   2 C :   -0.429002    0.559436
   3 H :    0.222975   -0.026823
   4 H :    0.222979   -0.026813
   5 H :    0.222979   -0.026813
Sum of atomic charges         :    0.0000000

LOEWDIN ATOMIC CHARGES AND SPIN POPULATIONS
-------------------------------------------
   0 H :    0.131466    0.551778
   1 F :   -0.326769    0.021504
   2 C :   -0.194451    0.470560
   3 H :    0.129934   -0.014622
   4 H :    0.129910   -0.014610
   5 H :    0.129910   -0.014610

  Mayer bond orders larger than 0.100000
B(  0-H ,  1-F ) :   0.3447 B(  0-H ,  2-C ) :   0.2287 B(  1-F ,  2-C ) :   0.5420
B(  2-C ,  3-H ) :   0.9223 B(  2-C ,  4-H ) :   0.9222 B(  2-C ,  5-H ) :   0.9222

Dispersion correction           -0.000964520
FINAL SINGLE POINT ENERGY      -139.900316080356

DIPOLE MOMENT
-------------
                                X             Y             Z
Electronic contribution:     -0.00047       1.72695       0.00000
Nuclear contribution   :      0.00057      -2.21827       0.00000
                        -----------------------------------------
Total Dipole Moment    :      0.00009      -0.49132       0.00000
                        -----------------------------------------
Magnitude (a.u.)       :      0.49132
Magnitude (Debye)      :      1.24883

Rotational constants in cm-1:     5.021688     0.553937     0.553923
Rotational constants in MHz : 150546.408179 16606.613081 16606.193277

                             ****ORCA TERMINATED NORMALLY****
TOTAL RUN TIME: 0 days 0 hours 0 minutes 37 seconds 81 msec
