                         Program Version 5.0.3 -  RELEASE  -
|  1> ! PBEh-3c def2/J TightSCF DefGrid3
|  2>
|  3> %maxcore 60000
|  4>
|  5> %pal
|  6> nprocs 4
|  7> end
|  8>
|  9> *xyzfile 0 1 H2O3.xyz
| 10>
| 11>                          ****END OF INPUT****

CARTESIAN COORDINATES (ANGSTROEM)
---------------------------------
  O      1.184703    1.115079   -0.034464
  H      0.493909    0.956377    0.634009
  H      2.024268    1.081125    0.430142
  O     -1.146944    0.069765    1.147020
  H     -1.279831   -0.523217    1.890283
  H     -1.064140   -0.495669    0.356925
  O     -0.163351   -1.028935   -1.240181
  H      0.491477   -0.324873   -1.078484
  H     -0.540091   -0.849651   -2.105250

 Total Charge           Charge          ....    0
 Multiplicity           Mult            ....    1
 Number of Electrons    NEL             ....   30
 Basis Dimension        Dim             ....   57

ORBITAL ENERGIES
----------------

  NO   OCC          E(Eh)            E(eV)
   0   2.0000     -19.478342      -530.0326
   1   2.0000     -19.476728      -529.9887
   2   2.0000     -19.475046      -529.9429
   3   2.0000      -1.112340       -30.2683
   4   2.0000      -1.095987       -29.8233
   5   2.0000      -1.094019       -29.7698
   6   2.0000      -0.604698       -16.4547
   7   2.0000      -0.576773       -15.6948
   8   2.0000      -0.574519       -15.6334
   9   2.0000      -0.452638       -12.3169
  10   2.0000      -0.447622       -12.1804
  11   2.0000      -0.419505       -11.4153
  12   2.0000      -0.368848       -10.0369
  13   2.0000      -0.359177        -9.7737
  14   2.0000      -0.355617        -9.6768
  15   0.0000       0.118019         3.2115
  16   0.0000       0.163213         4.4412
  17   0.0000       0.164401         4.4736
  18   0.0000       0.271112         7.3773
  19   0.0000       0.284125         7.7314

MULLIKEN ATOMIC CHARGES
-----------------------
   0 O :   -0.856895
   1 H :    0.443275
   2 H :    0.416334
   3 O :   -0.860414
   4 H :    0.415025
   5 H :    0.441406
   6 O :   -0.859983
   7 H :    0.443082
   8 H :    0.418171
Sum of atomic charges:    0.0000000

LOEWDIN ATOMIC CHARGES
----------------------
   0 O :   -0.603424
   1 H :    0.303391
   2 H :    0.303525
   3 O :   -0.608121
   4 H :    0.302690
   5 H :    0.301050
   6 O :   -0.605956
   7 H :    0.301843
   8 H :    0.305003

  Mayer bond orders larger than 0.100000
B(  0-O ,  1-H ) :   0.7124 B(  0-O ,  2-H ) :   0.8074 B(  0-O ,  7-H ) :   0.1123
B(  1-H ,  3-O ) :   0.1069 B(  3-O ,  4-H ) :   0.8087 B(  3-O ,  5-H ) :   0.7090
B(  5-H ,  6-O ) :   0.1140 B(  6-O ,  7-H ) :   0.7090 B(  6-O ,  8-H ) :   0.8065

Dispersion correction           -0.001924786
FINAL SINGLE POINT ENERGY      -228.803161080963

DIPOLE MOMENT
-------------
                                X             Y             Z
Electronic contribution:     -0.02543       0.05293      -0.04834
Nuclear contribution   :      0.31361      -0.38932       0.31869
                        -----------------------------------------
Total Dipole Moment    :      0.28819      -0.33639       0.27035
                        -----------------------------------------
Magnitude (a.u.)       :      0.51894
Magnitude (Debye)      :      1.31905

Rotational constants in cm-1:     0.228283     0.224643     0.115525
Rotational constants in MHz :  6843.749185  6734.638554  3463.357260

                             ****ORCA TERMINATED NORMALLY****
TOTAL RUN TIME: 0 days 0 hours 0 minutes 57 seconds 404 msec
