                         Program Version 5.0.3 -  RELEASE  -
|  1> ! PBEh-3c def2/J TightSCF DefGrid3
|  2>
|  3> %maxcore 60000
|  4>
|  5> %pal
|  6> nprocs 4
|  7> end
|  8>
|  9> *xyzfile 0 1 470.xyz
| 10>
| 11>                          ****END OF INPUT****

CARTESIAN COORDINATES (ANGSTROEM)
---------------------------------
  O     -2.781865    0.818378    1.834243
  C     -3.272865    0.928378    0.735243
  O     -4.096865    1.939378    0.387243
  H     -4.190865    2.487378    1.181243
  C     -3.051865   -0.003622   -0.420757
  H     -2.637865    0.570378   -1.254757
  H     -4.015865   -0.383622   -0.760757
  N     -2.181865   -1.072622   -0.022757
  H     -1.696865   -1.027622    0.867243
  C     -1.870865   -2.043622   -0.911757
  O     -2.357865   -2.109622   -2.035757
  C     -0.846865   -3.047622   -0.399757
  H     -0.796865   -3.860622   -1.116757
  H     -1.153865   -3.429622    0.574243
  N      0.466135   -2.451622   -0.262757
  H      1.183135   -2.559622   -0.965757
  C      0.817135   -1.753622    0.830243
  O      0.055135   -1.536622    1.776243
  C      2.263135   -1.259622    0.834243
  N      2.867135   -1.423622   -0.486757
  H      2.650135   -0.612622   -1.057757
  H      3.874135   -1.462622   -0.407757
  H      2.789135   -1.923622    1.524243
  C      2.321135    0.168378    1.409243
  H      1.829135    0.161378    2.381243
  H      3.371135    0.431378    1.557243
  C      1.667135    1.166378    0.498243
  C      0.306135    1.469378    0.624243
  H     -0.266865    1.017378    1.423243
  C     -0.301865    2.365378   -0.251757
  H     -1.347865    2.616378   -0.129757
  C      0.432135    2.961378   -1.277757
  H     -0.044865    3.655378   -1.955757
  C      1.788135    2.674378   -1.407757
  H      2.372135    3.146378   -2.186757
  C      2.399135    1.788378   -0.520757
  H      3.463135    1.596378   -0.603757

 Total Charge           Charge          ....    0
 Multiplicity           Mult            ....    1
 Number of Electrons    NEL             ....  148
 Basis Dimension        Dim             ....  334

ORBITAL ENERGIES
----------------

  NO   OCC          E(Eh)            E(eV)
   0   2.0000     -19.558592      -532.2163
   1   2.0000     -19.503973      -530.7301
   2   2.0000     -19.466274      -529.7043
   3   2.0000     -19.453338      -529.3522
   4   2.0000     -14.667366      -399.1193
   5   2.0000     -14.651519      -398.6881
   6   2.0000     -14.638242      -398.3268
   7   2.0000     -10.598395      -288.3970
   8   2.0000     -10.550513      -287.0941
   9   2.0000     -10.539911      -286.8055
  10   2.0000     -10.493021      -285.5296
  11   2.0000     -10.488866      -285.4166
  12   2.0000     -10.481568      -285.2180
  13   2.0000     -10.462749      -284.7059
  14   2.0000     -10.455603      -284.5114
  15   2.0000     -10.454862      -284.4913
  16   2.0000     -10.453228      -284.4468
  17   2.0000     -10.452471      -284.4262
  18   2.0000     -10.449853      -284.3550
  19   2.0000     -10.446778      -284.2713
  20   2.0000      -1.237605       -33.6769
  21   2.0000      -1.151821       -31.3426
  22   2.0000      -1.143136       -31.1063
  23   2.0000      -1.135333       -30.8940
  24   2.0000      -1.036765       -28.2118
  25   2.0000      -1.020499       -27.7692
  26   2.0000      -1.004935       -27.3457
  27   2.0000      -0.960567       -26.1384
  28   2.0000      -0.878585       -23.9075
  29   2.0000      -0.858599       -23.3637
  30   2.0000      -0.840564       -22.8729
  31   2.0000      -0.823304       -22.4032
  32   2.0000      -0.802262       -21.8306
  33   2.0000      -0.732955       -19.9447
  34   2.0000      -0.700660       -19.0659
  35   2.0000      -0.688708       -18.7407
  36   2.0000      -0.667659       -18.1679
  37   2.0000      -0.653442       -17.7811
  38   2.0000      -0.649966       -17.6865
  39   2.0000      -0.615923       -16.7601
  40   2.0000      -0.588598       -16.0166
  41   2.0000      -0.581532       -15.8243
  42   2.0000      -0.574170       -15.6240
  43   2.0000      -0.567173       -15.4336
  44   2.0000      -0.559593       -15.2273
  45   2.0000      -0.553125       -15.0513
  46   2.0000      -0.539134       -14.6706
  47   2.0000      -0.532587       -14.4924
  48   2.0000      -0.527375       -14.3506
  49   2.0000      -0.520719       -14.1695
  50   2.0000      -0.495655       -13.4874
  51   2.0000      -0.493552       -13.4302
  52   2.0000      -0.485900       -13.2220
  53   2.0000      -0.483697       -13.1621
  54   2.0000      -0.476766       -12.9735
  55   2.0000      -0.473881       -12.8950
  56   2.0000      -0.463356       -12.6086
  57   2.0000      -0.455834       -12.4039
  58   2.0000      -0.450441       -12.2571
  59   2.0000      -0.431854       -11.7513
  60   2.0000      -0.430973       -11.7274
  61   2.0000      -0.418924       -11.3995
  62   2.0000      -0.415413       -11.3040
  63   2.0000      -0.399217       -10.8633
  64   2.0000      -0.392569       -10.6823
  65   2.0000      -0.389102       -10.5880
  66   2.0000      -0.355208        -9.6657
  67   2.0000      -0.338706        -9.2166
  68   2.0000      -0.330982        -9.0065
  69   2.0000      -0.307983        -8.3806
  70   2.0000      -0.299973        -8.1627
  71   2.0000      -0.297619        -8.0986
  72   2.0000      -0.291161        -7.9229
  73   2.0000      -0.287055        -7.8112
  74   0.0000       0.008439         0.2296
  75   0.0000       0.011044         0.3005
  76   0.0000       0.031116         0.8467
  77   0.0000       0.044389         1.2079
  78   0.0000       0.064359         1.7513

MULLIKEN ATOMIC CHARGES
-----------------------
   0 O :   -0.385734
   1 C :    0.496523
   2 O :   -0.586027
   3 H :    0.447209
   4 C :   -0.340744
   5 H :    0.270808
   6 H :    0.279482
   7 N :   -0.659692
   8 H :    0.426303
   9 C :    0.537726
  10 O :   -0.433913
  11 C :   -0.414641
  12 H :    0.267369
  13 H :    0.261562
  14 N :   -0.622972
  15 H :    0.398784
  16 C :    0.575847
  17 O :   -0.474484
  18 C :   -0.216750
  19 N :   -0.778662
  20 H :    0.353779
  21 H :    0.336367
  22 H :    0.264618
  23 C :   -0.513851
  24 H :    0.272020
  25 H :    0.228910
  26 C :    0.130069
  27 C :   -0.296999
  28 H :    0.272727
  29 C :   -0.225859
  30 H :    0.223220
  31 C :   -0.228238
  32 H :    0.222350
  33 C :   -0.210045
  34 H :    0.220040
  35 C :   -0.310726
  36 H :    0.213622
Sum of atomic charges:   -0.0000000

LOEWDIN ATOMIC CHARGES
----------------------
   0 O :   -0.224828
   1 C :    0.129244
   2 O :   -0.293147
   3 H :    0.337203
   4 C :   -0.172019
   5 H :    0.155319
   6 H :    0.159814
   7 N :   -0.239815
   8 H :    0.276972
   9 C :    0.099472
  10 O :   -0.277200
  11 C :   -0.167055
  12 H :    0.148538
  13 H :    0.149235
  14 N :   -0.213803
  15 H :    0.273757
  16 C :    0.109981
  17 O :   -0.305832
  18 C :   -0.103000
  19 N :   -0.462178
  20 H :    0.237473
  21 H :    0.233200
  22 H :    0.146817
  23 C :   -0.230413
  24 H :    0.156605
  25 H :    0.131231
  26 C :   -0.055562
  27 C :   -0.130972
  28 H :    0.155306
  29 C :   -0.134771
  30 H :    0.133572
  31 C :   -0.136705
  32 H :    0.137075
  33 C :   -0.134678
  34 H :    0.136676
  35 C :   -0.155615
  36 H :    0.130103

  Mayer bond orders larger than 0.100000
B(  0-O ,  1-C ) :   2.0344 B(  1-C ,  2-O ) :   1.1373 B(  1-C ,  4-C ) :   0.9295
B(  2-O ,  3-H ) :   0.7568 B(  4-C ,  5-H ) :   0.8758 B(  4-C ,  6-H ) :   0.8765
B(  4-C ,  7-N ) :   0.9561 B(  7-N ,  8-H ) :   0.7118 B(  7-N ,  9-C ) :   1.1763
B(  9-C , 10-O ) :   1.9756 B(  9-C , 11-C ) :   0.8898 B( 11-C , 12-H ) :   0.9124
B( 11-C , 13-H ) :   0.8920 B( 11-C , 14-N ) :   0.9451 B( 14-N , 15-H ) :   0.7644
B( 14-N , 16-C ) :   1.2060 B( 16-C , 17-O ) :   1.8491 B( 16-C , 18-C ) :   0.9061
B( 18-C , 19-N ) :   1.0350 B( 18-C , 22-H ) :   0.8927 B( 18-C , 23-C ) :   0.9426
B( 19-N , 20-H ) :   0.8258 B( 19-N , 21-H ) :   0.8535 B( 23-C , 24-H ) :   0.8937
B( 23-C , 25-H ) :   0.9206 B( 23-C , 26-C ) :   0.9580 B( 26-C , 27-C ) :   1.3981
B( 26-C , 35-C ) :   1.3851 B( 27-C , 28-H ) :   0.8795 B( 27-C , 29-C ) :   1.4219
B( 29-C , 30-H ) :   0.9089 B( 29-C , 31-C ) :   1.4198 B( 31-C , 32-H ) :   0.9188
B( 31-C , 33-C ) :   1.4306 B( 33-C , 34-H ) :   0.9192 B( 33-C , 35-C ) :   1.4233
B( 35-C , 36-H ) :   0.9213

Dispersion correction           -0.027516656
FINAL SINGLE POINT ENERGY      -968.745990803482

DIPOLE MOMENT
-------------
                                X             Y             Z
Electronic contribution:     -8.99003      -0.79164       1.75000
Nuclear contribution   :     10.28377       1.39254      -1.79669
                        -----------------------------------------
Total Dipole Moment    :      1.29375       0.60091      -0.04669
                        -----------------------------------------
Magnitude (a.u.)       :      1.42725
Magnitude (Debye)      :      3.62779

Rotational constants in cm-1:     0.013182     0.010281     0.007413
Rotational constants in MHz :   395.189783   308.210711   222.227582

                             ****ORCA TERMINATED NORMALLY****
TOTAL RUN TIME: 0 days 0 hours 5 minutes 32 seconds 349 msec
