                         Program Version 5.0.3 -  RELEASE  -
|  1> ! PBEh-3c def2/J TightSCF DefGrid3
|  2>
|  3> %maxcore 60000
|  4>
|  5> %pal
|  6> nprocs 4
|  7> end
|  8>
|  9> *xyzfile 0 1 cl2.xyz
| 10>
| 11>                          ****END OF INPUT****

CARTESIAN COORDINATES (ANGSTROEM)
---------------------------------
  Cl     0.998288    0.000000    0.000000
  Cl    -0.998288    0.000000    0.000000

 Total Charge           Charge          ....    0
 Multiplicity           Mult            ....    1
 Number of Electrons    NEL             ....   34
 Basis Dimension        Dim             ....   36

ORBITAL ENERGIES
----------------

  NO   OCC          E(Eh)            E(eV)
   0   2.0000    -102.357156     -2785.2798
   1   2.0000    -102.357104     -2785.2784
   2   2.0000      -9.822819      -267.2925
   3   2.0000      -9.822810      -267.2922
   4   2.0000      -7.513423      -204.4506
   5   2.0000      -7.513307      -204.4475
   6   2.0000      -7.500294      -204.0934
   7   2.0000      -7.500294      -204.0934
   8   2.0000      -7.500293      -204.0933
   9   2.0000      -7.500293      -204.0933
  10   2.0000      -1.031063       -28.0567
  11   2.0000      -0.847898       -23.0725
  12   2.0000      -0.521356       -14.1868
  13   2.0000      -0.465742       -12.6735
  14   2.0000      -0.465742       -12.6735
  15   2.0000      -0.355813        -9.6822
  16   2.0000      -0.355813        -9.6822
  17   0.0000      -0.086334        -2.3493
  18   0.0000       0.439593        11.9619
  19   0.0000       0.558906        15.2086
  20   0.0000       0.599913        16.3245
  21   0.0000       0.630298        17.1513

MULLIKEN ATOMIC CHARGES
-----------------------
   0 Cl:   -0.000000
   1 Cl:    0.000000
Sum of atomic charges:   -0.0000000

LOEWDIN ATOMIC CHARGES
----------------------
   0 Cl:   -0.000000
   1 Cl:    0.000000

  Mayer bond orders larger than 0.100000
B(  0-Cl,  1-Cl) :   1.0332

Dispersion correction           -0.000448509
FINAL SINGLE POINT ENERGY      -919.359101857402

DIPOLE MOMENT
-------------
                                X             Y             Z
Electronic contribution:     -0.00000       0.00000      -0.00000
Nuclear contribution   :      0.00000       0.00000       0.00000
                        -----------------------------------------
Total Dipole Moment    :     -0.00000       0.00000      -0.00000
                        -----------------------------------------
Magnitude (a.u.)       :      0.00000
Magnitude (Debye)      :      0.00000

Rotational constants in cm-1:     0.000000     0.238563     0.238563
Rotational constants in MHz :     0.000000  7151.925853  7151.925853

                             ****ORCA TERMINATED NORMALLY****
TOTAL RUN TIME: 0 days 0 hours 0 minutes 32 seconds 836 msec
