                         Program Version 5.0.3 -  RELEASE  -
|  1> ! PBEh-3c def2/J TightSCF DefGrid3
|  2>
|  3> %maxcore 60000
|  4>
|  5> %pal
|  6> nprocs 4
|  7> end
|  8>
|  9> *xyzfile 1 1 2p3.xyz
| 10>
| 11>                          ****END OF INPUT****

CARTESIAN COORDINATES (ANGSTROEM)
---------------------------------
  C      0.000000   -0.687066   -0.155616
  C      0.000000    0.687066   -0.155616
  H     -0.935442    1.242592   -0.162974
  H      0.935442    1.242592   -0.162974
  H      0.935442   -1.242592   -0.162974
  H     -0.935442   -1.242592   -0.162974
  H      0.000000    0.000000    0.963128

 Total Charge           Charge          ....    1
 Multiplicity           Mult            ....    1
 Number of Electrons    NEL             ....   16
 Basis Dimension        Dim             ....   40

ORBITAL ENERGIES
----------------

  NO   OCC          E(Eh)            E(eV)
   0   2.0000     -10.777489      -293.2704
   1   2.0000     -10.776730      -293.2497
   2   2.0000      -1.217611       -33.1329
   3   2.0000      -0.952197       -25.9106
   4   2.0000      -0.834484       -22.7075
   5   2.0000      -0.807699       -21.9786
   6   2.0000      -0.730191       -19.8695
   7   2.0000      -0.706762       -19.2320
   8   0.0000      -0.286732        -7.8024
   9   0.0000      -0.156575        -4.2606
  10   0.0000      -0.082526        -2.2456
  11   0.0000      -0.064041        -1.7426
  12   0.0000      -0.042798        -1.1646

MULLIKEN ATOMIC CHARGES
-----------------------
   0 C :   -0.431903
   1 C :   -0.431903
   2 H :    0.379358
   3 H :    0.379358
   4 H :    0.379358
   5 H :    0.379358
   6 H :    0.346373
Sum of atomic charges:    1.0000000

LOEWDIN ATOMIC CHARGES
----------------------
   0 C :   -0.079628
   1 C :   -0.079628
   2 H :    0.210997
   3 H :    0.210997
   4 H :    0.210997
   5 H :    0.210997
   6 H :    0.315268

  Mayer bond orders larger than 0.100000
B(  0-C ,  1-C ) :   1.2936 B(  0-C ,  4-H ) :   0.8471 B(  0-C ,  5-H ) :   0.8471
B(  0-C ,  6-H ) :   0.4262 B(  1-C ,  2-H ) :   0.8471 B(  1-C ,  3-H ) :   0.8471
B(  1-C ,  6-H ) :   0.4262

Dispersion correction           -0.001507885
FINAL SINGLE POINT ENERGY       -78.673726484621

DIPOLE MOMENT
-------------
                                X             Y             Z
Electronic contribution:     -0.00000      -0.00000      -0.47595
Nuclear contribution   :      0.00000       0.00000       0.84474
                        -----------------------------------------
Total Dipole Moment    :     -0.00000      -0.00000       0.36879
                        -----------------------------------------
Magnitude (a.u.)       :      0.36879
Magnitude (Debye)      :      0.93738

Rotational constants in cm-1:     3.550067     0.897367     0.799185
Rotational constants in MHz : 106428.337772 26902.374372 23958.949140

                             ****ORCA TERMINATED NORMALLY****
TOTAL RUN TIME: 0 days 0 hours 1 minutes 27 seconds 280 msec
