                         Program Version 5.0.3 -  RELEASE  -
|  1> ! PBEh-3c def2/J TightSCF DefGrid3
|  2>
|  3> %maxcore 60000
|  4>
|  5> %pal
|  6> nprocs 4
|  7> end
|  8>
|  9> *xyzfile 0 1 01r.xyz
| 10>
| 11>                          ****END OF INPUT****

CARTESIAN COORDINATES (ANGSTROEM)
---------------------------------
  C     -1.844868    0.109585    0.000000
  C     -0.608658   -0.399422    0.000000
  C      0.608658    0.399422    0.000000
  C      1.844868   -0.109585    0.000000
  H     -2.722324   -0.525769    0.000000
  H     -2.015561    1.181645    0.000000
  H     -0.476285   -1.479604    0.000000
  H      0.476285    1.479604    0.000000
  H      2.722324    0.525769    0.000000
  H      2.015561   -1.181645    0.000000

 Total Charge           Charge          ....    0
 Multiplicity           Mult            ....    1
 Number of Electrons    NEL             ....   30
 Basis Dimension        Dim             ....   72

ORBITAL ENERGIES
----------------

  NO   OCC          E(Eh)            E(eV)
   0   2.0000     -10.452248      -284.4201
   1   2.0000     -10.451926      -284.4114
   2   2.0000     -10.442074      -284.1433
   3   2.0000     -10.442058      -284.1428
   4   2.0000      -0.900900       -24.5147
   5   2.0000      -0.822936       -22.3932
   6   2.0000      -0.681602       -18.5473
   7   2.0000      -0.623026       -16.9534
   8   2.0000      -0.531073       -14.4512
   9   2.0000      -0.525700       -14.3050
  10   2.0000      -0.452832       -12.3222
  11   2.0000      -0.443201       -12.0601
  12   2.0000      -0.398705       -10.8493
  13   2.0000      -0.375212       -10.2100
  14   2.0000      -0.274432        -7.4677
  15   0.0000      -0.003810        -0.1037
  16   0.0000       0.107649         2.9293
  17   0.0000       0.169557         4.6139
  18   0.0000       0.174313         4.7433
  19   0.0000       0.174525         4.7491

MULLIKEN ATOMIC CHARGES
-----------------------
   0 C :   -0.494438
   1 C :   -0.160245
   2 C :   -0.160245
   3 C :   -0.494438
   4 H :    0.221920
   5 H :    0.216857
   6 H :    0.215906
   7 H :    0.215906
   8 H :    0.221920
   9 H :    0.216857
Sum of atomic charges:    0.0000000

LOEWDIN ATOMIC CHARGES
----------------------
   0 C :   -0.259308
   1 C :   -0.140305
   2 C :   -0.140305
   3 C :   -0.259308
   4 H :    0.135265
   5 H :    0.131249
   6 H :    0.133098
   7 H :    0.133098
   8 H :    0.135265
   9 H :    0.131249

  Mayer bond orders larger than 0.100000
B(  0-C ,  1-C ) :   1.8423 B(  0-C ,  3-C ) :   0.1173 B(  0-C ,  4-H ) :   0.9282
B(  0-C ,  5-H ) :   0.9294 B(  1-C ,  2-C ) :   1.0965 B(  1-C ,  6-H ) :   0.9200
B(  2-C ,  3-C ) :   1.8423 B(  2-C ,  7-H ) :   0.9200 B(  3-C ,  8-H ) :   0.9282
B(  3-C ,  9-H ) :   0.9294

Dispersion correction           -0.003518342
FINAL SINGLE POINT ENERGY      -155.634142466658

DIPOLE MOMENT
-------------
                                X             Y             Z
Electronic contribution:      0.00000       0.00000       0.00000
Nuclear contribution   :     -0.00000       0.00000       0.00000
                        -----------------------------------------
Total Dipole Moment    :      0.00000       0.00000       0.00000
                        -----------------------------------------
Magnitude (a.u.)       :      0.00000
Magnitude (Debye)      :      0.00000

Rotational constants in cm-1:     1.416102     0.147551     0.133628
Rotational constants in MHz : 42453.677311  4423.474786  4006.061861

                             ****ORCA TERMINATED NORMALLY****
TOTAL RUN TIME: 0 days 0 hours 1 minutes 3 seconds 874 msec
