                         Program Version 5.0.3 -  RELEASE  -
|  1> ! PBEh-3c def2/J TightSCF DefGrid3
|  2>
|  3> %maxcore 60000
|  4>
|  5> %pal
|  6> nprocs 4
|  7> end
|  8>
|  9> *xyzfile 0 2 34.xyz
| 10>
| 11>                          ****END OF INPUT****

CARTESIAN COORDINATES (ANGSTROEM)
---------------------------------
  H      1.714429   -0.379520   -2.623731
  F     -1.369805   -0.685032    0.359893
  B     -0.033830   -0.104085    0.626035
  H      0.949487   -2.056924    1.279169
  N     -0.180547    1.110198    1.537629
  Al     0.821389    2.277907    0.141863
  C      1.051643   -1.264743    0.527622
  H      2.086704   -0.893364    0.571630
  P     -1.626324    2.165869    1.085330
  O     -0.842470   -0.408079   -2.513089
  H      0.013448    1.080152    2.534722
  O      0.827462   -1.893779   -0.770352
  H     -2.627649    1.147009    1.174992
  Mg    -1.591165    0.614201   -1.151270
  H      0.273005    0.554996   -0.484616
  Si     0.534223   -1.264805   -2.295826

 Total Charge           Charge          ....    0
 Multiplicity           Mult            ....    2
 Number of Electrons    NEL             ....  103
 Basis Dimension        Dim             ....  174

ORBITAL ENERGIES
----------------
                 SPIN UP ORBITALS
  NO   OCC          E(Eh)            E(eV)
   0   1.0000     -77.768125     -2116.1783
   1   1.0000     -66.750794     -1816.3814
   2   1.0000     -56.638201     -1541.2038
   3   1.0000     -47.398610     -1289.7817
   4   1.0000     -25.113566      -683.3749
   5   1.0000     -19.470157      -529.8099
   6   1.0000     -19.441602      -529.0329
   7   1.0000     -14.687853      -399.6768
   8   1.0000     -10.474632      -285.0292
   9   1.0000      -7.028041      -191.2427
  10   1.0000      -6.839501      -186.1123
  11   1.0000      -5.516524      -150.1122
  12   1.0000      -4.931077      -134.1814
  13   1.0000      -4.928850      -134.1208
  14   1.0000      -4.927801      -134.0923
  15   1.0000      -4.372133      -118.9718
  16   1.0000      -3.811093      -103.7051
  17   1.0000      -3.807878      -103.6176
  18   1.0000      -3.805275      -103.5468
  19   1.0000      -2.857261       -77.7500
  20   1.0000      -2.858808       -77.7921
  21   1.0000      -2.858530       -77.7845
  22   1.0000      -3.347664       -91.0946
  23   1.0000      -2.033601       -55.3371
  24   1.0000      -2.031441       -55.2783
  25   1.0000      -2.027921       -55.1825
  26   1.0000      -1.329119       -36.1672
  27   1.0000      -1.080945       -29.4140
  28   1.0000      -1.010516       -27.4975
  29   1.0000      -0.999481       -27.1973
  30   1.0000      -0.763720       -20.7819
  31   1.0000      -0.700978       -19.0746
  32   1.0000      -0.672385       -18.2965
  33   1.0000      -0.599358       -16.3094
  34   1.0000      -0.570171       -15.5151
  35   1.0000      -0.561700       -15.2846
  36   1.0000      -0.552596       -15.0369
  37   1.0000      -0.517046       -14.0695
  38   1.0000      -0.498393       -13.5620
  39   1.0000      -0.477007       -12.9800
  40   1.0000      -0.461226       -12.5506
  41   1.0000      -0.442614       -12.0441
  42   1.0000      -0.424751       -11.5580
  43   1.0000      -0.400308       -10.8929
  44   1.0000      -0.373706       -10.1690
  45   1.0000      -0.360535        -9.8107
  46   1.0000      -0.347423        -9.4539
  47   1.0000      -0.328903        -8.9499
  48   1.0000      -0.318625        -8.6702
  49   1.0000      -0.294666        -8.0183
  50   1.0000      -0.269120        -7.3231
  51   1.0000      -0.205289        -5.5862
  52   0.0000      -0.055635        -1.5139
  53   0.0000      -0.044402        -1.2082
  54   0.0000      -0.032712        -0.8902
  55   0.0000       0.001392         0.0379
  56   0.0000       0.034419         0.9366

                 SPIN DOWN ORBITALS
  NO   OCC          E(Eh)            E(eV)
   0   1.0000     -77.768081     -2116.1771
   1   1.0000     -66.746902     -1816.2755
   2   1.0000     -56.638197     -1541.2037
   3   1.0000     -47.398479     -1289.7782
   4   1.0000     -25.113550      -683.3744
   5   1.0000     -19.468911      -529.7760
   6   1.0000     -19.438654      -528.9527
   7   1.0000     -14.687847      -399.6766
   8   1.0000     -10.473764      -285.0056
   9   1.0000      -7.028085      -191.2439
  10   1.0000      -6.839451      -186.1109
  11   1.0000      -5.510901      -149.9592
  12   1.0000      -4.931046      -134.1806
  13   1.0000      -4.928819      -134.1200
  14   1.0000      -4.927652      -134.0882
  15   1.0000      -4.372128      -118.9717
  16   1.0000      -3.804877      -103.5360
  17   1.0000      -3.802580      -103.4735
  18   1.0000      -3.800006      -103.4034
  19   1.0000      -2.857252       -77.7498
  20   1.0000      -2.858804       -77.7920
  21   1.0000      -2.858527       -77.7845
  22   1.0000      -3.347421       -91.0880
  23   1.0000      -2.033484       -55.3339
  24   1.0000      -2.031239       -55.2728
  25   1.0000      -2.027665       -55.1756
  26   1.0000      -1.329079       -36.1661
  27   1.0000      -1.077961       -29.3328
  28   1.0000      -1.003142       -27.2969
  29   1.0000      -0.999431       -27.1959
  30   1.0000      -0.760474       -20.6935
  31   1.0000      -0.700695       -19.0669
  32   1.0000      -0.671671       -18.2771
  33   1.0000      -0.599275       -16.3071
  34   1.0000      -0.569795       -15.5049
  35   1.0000      -0.553462       -15.0605
  36   1.0000      -0.551035       -14.9944
  37   1.0000      -0.513105       -13.9623
  38   1.0000      -0.495768       -13.4905
  39   1.0000      -0.470111       -12.7924
  40   1.0000      -0.459496       -12.5035
  41   1.0000      -0.440879       -11.9969
  42   1.0000      -0.415357       -11.3024
  43   1.0000      -0.395330       -10.7575
  44   1.0000      -0.367649       -10.0042
  45   1.0000      -0.360172        -9.8008
  46   1.0000      -0.337109        -9.1732
  47   1.0000      -0.321552        -8.7499
  48   1.0000      -0.316170        -8.6034
  49   1.0000      -0.293769        -7.9938
  50   1.0000      -0.268441        -7.3046
  51   0.0000      -0.056691        -1.5426
  52   0.0000      -0.045310        -1.2329
  53   0.0000      -0.034519        -0.9393
  54   0.0000      -0.010409        -0.2832
  55   0.0000       0.002635         0.0717

MULLIKEN ATOMIC CHARGES AND SPIN POPULATIONS
--------------------------------------------
   0 H :   -0.084462    0.092015
   1 F :   -0.390120    0.000281
   2 B :    0.652170    0.000248
   3 H :    0.209276   -0.001324
   4 N :   -0.876832   -0.000194
   5 Al:    0.436116    0.005682
   6 C :   -0.336061    0.030059
   7 H :    0.201276   -0.001263
   8 P :   -0.123854    0.006757
   9 O :   -0.776465    0.059532
  10 H :    0.390281   -0.000086
  11 O :   -0.606857   -0.000294
  12 H :    0.110952   -0.000095
  13 Mg:    0.584662    0.010114
  14 H :   -0.162994   -0.000265
  15 Si:    0.772912    0.798833
Sum of atomic charges         :    0.0000000

LOEWDIN ATOMIC CHARGES AND SPIN POPULATIONS
-------------------------------------------
   0 H :   -0.051377    0.073092
   1 F :   -0.136238    0.000295
   2 B :    0.042531    0.001415
   3 H :    0.137213   -0.000776
   4 N :   -0.400931    0.000157
   5 Al:    0.255872    0.004306
   6 C :   -0.146662    0.026944
   7 H :    0.129391   -0.001020
   8 P :    0.182094    0.005864
   9 O :   -0.379336    0.068532
  10 H :    0.276241   -0.000069
  11 O :   -0.324682    0.020971
  12 H :    0.095071   -0.000023
  13 Mg:   -0.148985    0.016021
  14 H :    0.067203    0.000036
  15 Si:    0.402597    0.784254

  Mayer bond orders larger than 0.100000
B(  0-H , 15-Si) :   0.9018 B(  1-F ,  2-B ) :   0.6881 B(  1-F , 13-Mg) :   0.3177
B(  2-B ,  4-N ) :   0.7733 B(  2-B ,  6-C ) :   0.9182 B(  2-B , 14-H ) :   0.5975
B(  3-H ,  6-C ) :   0.9198 B(  4-N ,  5-Al) :   0.4511 B(  4-N ,  8-P ) :   0.8212
B(  4-N , 10-H ) :   0.8054 B(  5-Al,  8-P ) :   0.2477 B(  5-Al, 14-H ) :   0.1387
B(  6-C ,  7-H ) :   0.9046 B(  6-C , 11-O ) :   0.9082 B(  8-P , 12-H ) :   0.8778
B(  8-P , 13-Mg) :   0.6821 B(  9-O , 13-Mg) :   0.8222 B(  9-O , 15-Si) :   1.1059
B( 11-O , 15-Si) :   0.9490 B( 13-Mg, 14-H ) :   0.1979

Dispersion correction           -0.011269988
FINAL SINGLE POINT ENERGY     -1442.971743116478

DIPOLE MOMENT
-------------
                                X             Y             Z
Electronic contribution:     -6.21028       5.55621       0.04536
Nuclear contribution   :      5.25957      -4.43309       1.37311
                        -----------------------------------------
Total Dipole Moment    :     -0.95071       1.12311       1.41846
                        -----------------------------------------
Magnitude (a.u.)       :      2.04384
Magnitude (Debye)      :      5.19502

Rotational constants in cm-1:     0.043578     0.020716     0.019137
Rotational constants in MHz :  1306.434031   621.037897   573.713336

                             ****ORCA TERMINATED NORMALLY****
TOTAL RUN TIME: 0 days 0 hours 4 minutes 37 seconds 386 msec
