                         Program Version 5.0.3 -  RELEASE  -
|  1> ! PBEh-3c def2/J TightSCF DefGrid3
|  2>
|  3> %maxcore 60000
|  4>
|  5> %pal
|  6> nprocs 4
|  7> end
|  8>
|  9> *xyzfile 0 2 EA_14n.xyz
| 10>
| 11>                          ****END OF INPUT****

CARTESIAN COORDINATES (ANGSTROEM)
---------------------------------
  Si     0.000000    0.000000    0.767127
  H      0.000000    0.000000   -0.767127

 Total Charge           Charge          ....    0
 Multiplicity           Mult            ....    2
 Number of Electrons    NEL             ....   15
 Basis Dimension        Dim             ....   20

ORBITAL ENERGIES
----------------
                 SPIN UP ORBITALS
  NO   OCC          E(Eh)            E(eV)
   0   1.0000     -66.767385     -1816.8329
   1   1.0000      -5.543320      -150.8414
   2   1.0000      -3.835834      -104.3783
   3   1.0000      -3.835694      -104.3745
   4   1.0000      -3.827516      -104.1520
   5   1.0000      -0.545901       -14.8547
   6   1.0000      -0.318970        -8.6796
   7   1.0000      -0.228253        -6.2111
   8   0.0000      -0.098013        -2.6671
   9   0.0000       0.096489         2.6256
  10   0.0000       0.178814         4.8658
  11   0.0000       0.420330        11.4378
  12   0.0000       0.429309        11.6821

                 SPIN DOWN ORBITALS
  NO   OCC          E(Eh)            E(eV)
   0   1.0000     -66.763853     -1816.7368
   1   1.0000      -5.539329      -150.7328
   2   1.0000      -3.833850      -104.3244
   3   1.0000      -3.825433      -104.0953
   4   1.0000      -3.821001      -103.9747
   5   1.0000      -0.513017       -13.9599
   6   1.0000      -0.303654        -8.2629
   7   0.0000      -0.084756        -2.3063
   8   0.0000      -0.048628        -1.3232
   9   0.0000       0.111108         3.0234
  10   0.0000       0.195499         5.3198
  11   0.0000       0.426979        11.6187

MULLIKEN ATOMIC CHARGES AND SPIN POPULATIONS
--------------------------------------------
   0 Si:    0.058176    1.029599
   1 H :   -0.058176   -0.029599
Sum of atomic charges         :   -0.0000000

LOEWDIN ATOMIC CHARGES AND SPIN POPULATIONS
-------------------------------------------
   0 Si:    0.046401    1.015650
   1 H :   -0.046401   -0.015650

  Mayer bond orders larger than 0.100000
B(  0-Si,  1-H ) :   0.9642

Dispersion correction           -0.000211113
FINAL SINGLE POINT ENERGY      -289.614110924210

DIPOLE MOMENT
-------------
                                X             Y             Z
Electronic contribution:      0.00000       0.00000       1.22982
Nuclear contribution   :      0.00000       0.00000      -1.39256
                        -----------------------------------------
Total Dipole Moment    :      0.00000       0.00000      -0.16274
                        -----------------------------------------
Magnitude (a.u.)       :      0.16274
Magnitude (Debye)      :      0.41366

Rotational constants in cm-1:     0.000000     7.359624     7.359624
Rotational constants in MHz :     0.000000 220635.968217 220635.968217

                             ****ORCA TERMINATED NORMALLY****
TOTAL RUN TIME: 0 days 0 hours 0 minutes 46 seconds 477 msec
