                         Program Version 5.0.3 -  RELEASE  -
|  1> ! PBEh-3c def2/J TightSCF DefGrid3
|  2>
|  3> %maxcore 60000
|  4>
|  5> %pal
|  6> nprocs 4
|  7> end
|  8>
|  9> *xyzfile 0 1 B59.xyz
| 10>
| 11>                          ****END OF INPUT****

CARTESIAN COORDINATES (ANGSTROEM)
---------------------------------
  C     -1.382632   -0.460567    0.507638
  H     -2.034408   -0.581224    1.378715
  O     -2.156028   -0.422330   -0.692798
  C     -0.519937    0.787141    0.677476
  H     -1.182766    1.657775    0.694597
  H     -0.032682    0.750239    1.656417
  C      0.531502    0.963730   -0.425516
  H      0.750936    2.025080   -0.562967
  H      0.128970    0.594219   -1.369668
  H     -2.763030    0.319055   -0.617410
  H     -0.754765   -1.342041    0.423545
  C      1.851305    0.273256   -0.129843
  H      2.555268    0.463960   -0.945520
  H      2.280046    0.684906    0.790766
  O      1.619534   -1.128395    0.014159
  H      2.462948   -1.547526    0.202104

 Total Charge           Charge          ....    0
 Multiplicity           Mult            ....    1
 Number of Electrons    NEL             ....   50
 Basis Dimension        Dim             ....  110

ORBITAL ENERGIES
----------------

  NO   OCC          E(Eh)            E(eV)
   0   2.0000     -19.484586      -530.2025
   1   2.0000     -19.474083      -529.9167
   2   2.0000     -10.480013      -285.1757
   3   2.0000     -10.464528      -284.7543
   4   2.0000     -10.428759      -283.7810
   5   2.0000     -10.427127      -283.7365
   6   2.0000      -1.120432       -30.4885
   7   2.0000      -1.109238       -30.1839
   8   2.0000      -0.874604       -23.7992
   9   2.0000      -0.791627       -21.5413
  10   2.0000      -0.702827       -19.1249
  11   2.0000      -0.645555       -17.5664
  12   2.0000      -0.581614       -15.8265
  13   2.0000      -0.546573       -14.8730
  14   2.0000      -0.530021       -14.4226
  15   2.0000      -0.496949       -13.5227
  16   2.0000      -0.487507       -13.2657
  17   2.0000      -0.450338       -12.2543
  18   2.0000      -0.429622       -11.6906
  19   2.0000      -0.408631       -11.1194
  20   2.0000      -0.397583       -10.8188
  21   2.0000      -0.370809       -10.0902
  22   2.0000      -0.356009        -9.6875
  23   2.0000      -0.326145        -8.8749
  24   2.0000      -0.311905        -8.4874
  25   0.0000       0.123530         3.3614
  26   0.0000       0.141048         3.8381
  27   0.0000       0.173787         4.7290
  28   0.0000       0.186925         5.0865
  29   0.0000       0.191565         5.2127

MULLIKEN ATOMIC CHARGES
-----------------------
   0 C :   -0.169371
   1 H :    0.179312
   2 O :   -0.623753
   3 C :   -0.454380
   4 H :    0.200207
   5 H :    0.209718
   6 C :   -0.451301
   7 H :    0.211560
   8 H :    0.249574
   9 H :    0.403945
  10 H :    0.245996
  11 C :   -0.151540
  12 H :    0.189022
  13 H :    0.173651
  14 O :   -0.630575
  15 H :    0.417934
Sum of atomic charges:    0.0000000

LOEWDIN ATOMIC CHARGES
----------------------
   0 C :   -0.100079
   1 H :    0.095612
   2 O :   -0.415658
   3 C :   -0.262389
   4 H :    0.116122
   5 H :    0.126151
   6 C :   -0.256344
   7 H :    0.126117
   8 H :    0.140947
   9 H :    0.301717
  10 H :    0.134470
  11 C :   -0.090588
  12 H :    0.100110
  13 H :    0.093749
  14 O :   -0.418592
  15 H :    0.308656

  Mayer bond orders larger than 0.100000
B(  0-C ,  1-H ) :   0.9144 B(  0-C ,  2-O ) :   1.0065 B(  0-C ,  3-C ) :   0.9652
B(  0-C , 10-H ) :   0.8957 B(  2-O ,  9-H ) :   0.7986 B(  3-C ,  4-H ) :   0.9293
B(  3-C ,  5-H ) :   0.9152 B(  3-C ,  6-C ) :   0.9580 B(  6-C ,  7-H ) :   0.9258
B(  6-C ,  8-H ) :   0.8983 B(  6-C , 11-C ) :   0.9915 B( 11-C , 12-H ) :   0.9104
B( 11-C , 13-H ) :   0.9066 B( 11-C , 14-O ) :   1.0051 B( 14-O , 15-H ) :   0.7922

Dispersion correction           -0.006670812
FINAL SINGLE POINT ENERGY      -308.204814923678

DIPOLE MOMENT
-------------
                                X             Y             Z
Electronic contribution:     -0.87195      -2.46501      -1.19593
Nuclear contribution   :      1.46089       3.12588       1.70869
                        -----------------------------------------
Total Dipole Moment    :      0.58894       0.66087       0.51277
                        -----------------------------------------
Magnitude (a.u.)       :      1.02300
Magnitude (Debye)      :      2.60026

Rotational constants in cm-1:     0.194961     0.068097     0.060659
Rotational constants in MHz :  5844.785051  2041.482495  1818.499914

                             ****ORCA TERMINATED NORMALLY****
TOTAL RUN TIME: 0 days 0 hours 1 minutes 40 seconds 464 msec
