                         Program Version 5.0.3 -  RELEASE  -
|  1> ! PBEh-3c def2/J TightSCF DefGrid3
|  2>
|  3> %maxcore 60000
|  4>
|  5> %pal
|  6> nprocs 4
|  7> end
|  8>
|  9> *xyzfile 1 2 3int2.xyz
| 10>
| 11>                          ****END OF INPUT****

CARTESIAN COORDINATES (ANGSTROEM)
---------------------------------
  C     -0.846482    0.472147   -0.756835
  C      0.409655    0.226984   -1.406714
  C      1.535486   -0.159917   -0.699491
  C      1.535486   -0.159917    0.699491
  C      0.409655    0.226984    1.406714
  C     -0.846482    0.472147    0.756835
  C     -1.446360   -0.711019    0.000000
  H     -1.576438    1.089386   -1.266802
  H      0.466001    0.341349   -2.484430
  H      2.444962   -0.403391   -1.235528
  H      2.444962   -0.403391    1.235528
  H      0.466001    0.341349    2.484430
  H     -1.576438    1.089386    1.266802
  H     -2.525484   -0.780925    0.000000
  H     -0.894522   -1.641172    0.000000

 Total Charge           Charge          ....    1
 Multiplicity           Mult            ....    2
 Number of Electrons    NEL             ....   49
 Basis Dimension        Dim             ....  121

ORBITAL ENERGIES
----------------
                 SPIN UP ORBITALS
  NO   OCC          E(Eh)            E(eV)
   0   1.0000     -10.693637      -290.9887
   1   1.0000     -10.693592      -290.9874
   2   1.0000     -10.671694      -290.3915
   3   1.0000     -10.671172      -290.3773
   4   1.0000     -10.667763      -290.2846
   5   1.0000     -10.666790      -290.2581
   6   1.0000     -10.666547      -290.2515
   7   1.0000      -1.213174       -33.0122
   8   1.0000      -1.111481       -30.2449
   9   1.0000      -1.068738       -29.0818
  10   1.0000      -0.946197       -25.7473
  11   1.0000      -0.907025       -24.6814
  12   1.0000      -0.863236       -23.4899
  13   1.0000      -0.811293       -22.0764
  14   1.0000      -0.748619       -20.3710
  15   1.0000      -0.745686       -20.2912
  16   1.0000      -0.732035       -19.9197
  17   1.0000      -0.700402       -19.0589
  18   1.0000      -0.648516       -17.6470
  19   1.0000      -0.638025       -17.3615
  20   1.0000      -0.618953       -16.8426
  21   1.0000      -0.614864       -16.7313
  22   1.0000      -0.598619       -16.2893
  23   1.0000      -0.538148       -14.6437
  24   1.0000      -0.472238       -12.8502
  25   0.0000      -0.243612        -6.6290
  26   0.0000      -0.125420        -3.4128
  27   0.0000      -0.054154        -1.4736
  28   0.0000      -0.005837        -0.1588
  29   0.0000      -0.000381        -0.0104

                 SPIN DOWN ORBITALS
  NO   OCC          E(Eh)            E(eV)
   0   1.0000     -10.687874      -290.8318
   1   1.0000     -10.687839      -290.8309
   2   1.0000     -10.670624      -290.3624
   3   1.0000     -10.670060      -290.3471
   4   1.0000     -10.667266      -290.2711
   5   1.0000     -10.666974      -290.2631
   6   1.0000     -10.663071      -290.1569
   7   1.0000      -1.204709       -32.7818
   8   1.0000      -1.101683       -29.9783
   9   1.0000      -1.050027       -28.5727
  10   1.0000      -0.937058       -25.4986
  11   1.0000      -0.899512       -24.4770
  12   1.0000      -0.855685       -23.2844
  13   1.0000      -0.807575       -21.9752
  14   1.0000      -0.743983       -20.2448
  15   1.0000      -0.738207       -20.0876
  16   1.0000      -0.728110       -19.8129
  17   1.0000      -0.695086       -18.9142
  18   1.0000      -0.644600       -17.5405
  19   1.0000      -0.629796       -17.1376
  20   1.0000      -0.613859       -16.7040
  21   1.0000      -0.593100       -16.1391
  22   1.0000      -0.564089       -15.3497
  23   1.0000      -0.530397       -14.4328
  24   0.0000      -0.326735        -8.8909
  25   0.0000      -0.204746        -5.5714
  26   0.0000      -0.099227        -2.7001
  27   0.0000      -0.051697        -1.4067
  28   0.0000      -0.002734        -0.0744

MULLIKEN ATOMIC CHARGES AND SPIN POPULATIONS
--------------------------------------------
   0 C :   -0.318868   -0.048157
   1 C :   -0.069419    0.386863
   2 C :   -0.202620    0.063989
   3 C :   -0.202620    0.063989
   4 C :   -0.069419    0.386862
   5 C :   -0.318868   -0.048156
   6 C :   -0.420899    0.237536
   7 H :    0.336869    0.017277
   8 H :    0.324020   -0.020851
   9 H :    0.319096   -0.005501
  10 H :    0.319096   -0.005501
  11 H :    0.324020   -0.020851
  12 H :    0.336869    0.017277
  13 H :    0.333816   -0.013143
  14 H :    0.308927   -0.011632
Sum of atomic charges         :    1.0000000

LOEWDIN ATOMIC CHARGES AND SPIN POPULATIONS
-------------------------------------------
   0 C :   -0.131031   -0.009159
   1 C :    0.037283    0.325206
   2 C :   -0.069939    0.082854
   3 C :   -0.069939    0.082854
   4 C :    0.037283    0.325206
   5 C :   -0.131031   -0.009159
   6 C :   -0.135892    0.214039
   7 H :    0.187339    0.013799
   8 H :    0.185458   -0.010055
   9 H :    0.182120   -0.002759
  10 H :    0.182120   -0.002759
  11 H :    0.185458   -0.010055
  12 H :    0.187339    0.013799
  13 H :    0.182990   -0.006979
  14 H :    0.170444   -0.006831

  Mayer bond orders larger than 0.100000
B(  0-C ,  1-C ) :   1.1115 B(  0-C ,  5-C ) :   0.8680 B(  0-C ,  6-C ) :   0.8088
B(  0-C ,  7-H ) :   0.8685 B(  1-C ,  2-C ) :   1.4184 B(  1-C ,  8-H ) :   0.8759
B(  2-C ,  3-C ) :   1.3633 B(  2-C ,  9-H ) :   0.8791 B(  3-C ,  4-C ) :   1.4184
B(  3-C , 10-H ) :   0.8791 B(  4-C ,  5-C ) :   1.1115 B(  4-C , 11-H ) :   0.8759
B(  5-C ,  6-C ) :   0.8088 B(  5-C , 12-H ) :   0.8685 B(  6-C , 13-H ) :   0.8785
B(  6-C , 14-H ) :   0.8873

Dispersion correction           -0.007891414
FINAL SINGLE POINT ENERGY      -270.611126420471

DIPOLE MOMENT
-------------
                                X             Y             Z
Electronic contribution:      1.38086       0.63022      -0.00000
Nuclear contribution   :     -1.37758      -0.67399      -0.00000
                        -----------------------------------------
Total Dipole Moment    :      0.00328      -0.04376      -0.00000
                        -----------------------------------------
Magnitude (a.u.)       :      0.04388
Magnitude (Debye)      :      0.11155

Rotational constants in cm-1:     0.151717     0.115157     0.077015
Rotational constants in MHz :  4548.362650  3452.320493  2308.859534

                             ****ORCA TERMINATED NORMALLY****
TOTAL RUN TIME: 0 days 0 hours 3 minutes 33 seconds 659 msec
