                         Program Version 5.0.3 -  RELEASE  -
|  1> ! PBEh-3c def2/J TightSCF DefGrid3
|  2>
|  3> %maxcore 60000
|  4>
|  5> %pal
|  6> nprocs 4
|  7> end
|  8>
|  9> *xyzfile 0 1 43B.xyz
| 10>
| 11>                          ****END OF INPUT****

CARTESIAN COORDINATES (ANGSTROEM)
---------------------------------
  C     -0.000200   -0.000231   -0.001069
  C     -1.316946    0.741057    0.213804
  H     -2.024017    0.122851    0.768667
  H     -1.157446    1.661242    0.777989
  H     -1.774655    1.002554   -0.741349
  C      0.615237   -0.353669    1.350209
  H      1.558399   -0.886042    1.219427
  H      0.812258    0.546072    1.935011
  H     -0.056057   -0.991406    1.926945
  C      0.964925    0.893246   -0.776858
  H      1.913495    0.380652   -0.947212
  H      1.170215    1.811383   -0.223431
  H      0.542529    1.171733   -1.744322
  C     -0.261517   -1.280266   -0.791434
  H     -0.725255   -1.058432   -1.754058
  H      0.671059   -1.818664   -0.971070
  H     -0.932024   -1.942080   -0.241249

 Total Charge           Charge          ....    0
 Multiplicity           Mult            ....    1
 Number of Electrons    NEL             ....   42
 Basis Dimension        Dim             ....   99

ORBITAL ENERGIES
----------------

  NO   OCC          E(Eh)            E(eV)
   0   2.0000     -10.445875      -284.2467
   1   2.0000     -10.417457      -283.4734
   2   2.0000     -10.417418      -283.4724
   3   2.0000     -10.417297      -283.4691
   4   2.0000     -10.417219      -283.4670
   5   2.0000      -0.914052       -24.8726
   6   2.0000      -0.762333       -20.7441
   7   2.0000      -0.762132       -20.7387
   8   2.0000      -0.761662       -20.7259
   9   2.0000      -0.596364       -16.2279
  10   2.0000      -0.505552       -13.7568
  11   2.0000      -0.505017       -13.7422
  12   2.0000      -0.504827       -13.7371
  13   2.0000      -0.452959       -12.3256
  14   2.0000      -0.451915       -12.2972
  15   2.0000      -0.411614       -11.2006
  16   2.0000      -0.411372       -11.1940
  17   2.0000      -0.410730       -11.1765
  18   2.0000      -0.365249        -9.9389
  19   2.0000      -0.364699        -9.9240
  20   2.0000      -0.364283        -9.9126
  21   0.0000       0.117602         3.2001
  22   0.0000       0.186325         5.0701
  23   0.0000       0.186411         5.0725
  24   0.0000       0.186808         5.0833
  25   0.0000       0.218822         5.9544

MULLIKEN ATOMIC CHARGES
-----------------------
   0 C :   -0.111777
   1 C :   -0.605150
   2 H :    0.211067
   3 H :    0.210993
   4 H :    0.210869
   5 C :   -0.605196
   6 H :    0.211019
   7 H :    0.211101
   8 H :    0.210992
   9 C :   -0.604141
  10 H :    0.210627
  11 H :    0.210677
  12 H :    0.210848
  13 C :   -0.604589
  14 H :    0.211178
  15 H :    0.210618
  16 H :    0.210865
Sum of atomic charges:    0.0000000

LOEWDIN ATOMIC CHARGES
----------------------
   0 C :   -0.117296
   1 C :   -0.343283
   2 H :    0.124167
   3 H :    0.124172
   4 H :    0.124142
   5 C :   -0.343252
   6 H :    0.124246
   7 H :    0.124214
   8 H :    0.124078
   9 C :   -0.343029
  10 H :    0.124137
  11 H :    0.124073
  12 H :    0.124166
  13 C :   -0.343120
  14 H :    0.124275
  15 H :    0.124188
  16 H :    0.124122

  Mayer bond orders larger than 0.100000
B(  0-C ,  1-C ) :   0.9827 B(  0-C ,  5-C ) :   0.9826 B(  0-C ,  9-C ) :   0.9825
B(  0-C , 13-C ) :   0.9824 B(  1-C ,  2-H ) :   0.9305 B(  1-C ,  3-H ) :   0.9305
B(  1-C ,  4-H ) :   0.9303 B(  5-C ,  6-H ) :   0.9304 B(  5-C ,  7-H ) :   0.9304
B(  5-C ,  8-H ) :   0.9304 B(  9-C , 10-H ) :   0.9305 B(  9-C , 11-H ) :   0.9303
B(  9-C , 12-H ) :   0.9307 B( 13-C , 14-H ) :   0.9305 B( 13-C , 15-H ) :   0.9306
B( 13-C , 16-H ) :   0.9303

Dispersion correction           -0.007728774
FINAL SINGLE POINT ENERGY      -197.340730580618

DIPOLE MOMENT
-------------
                                X             Y             Z
Electronic contribution:      0.00212       0.00014      -0.01173
Nuclear contribution   :     -0.00398      -0.00036       0.01420
                        -----------------------------------------
Total Dipole Moment    :     -0.00186      -0.00023       0.00246
                        -----------------------------------------
Magnitude (a.u.)       :      0.00310
Magnitude (Debye)      :      0.00787

Rotational constants in cm-1:     0.149955     0.149814     0.149449
Rotational constants in MHz :  4495.551693  4491.304448  4480.358466

                             ****ORCA TERMINATED NORMALLY****
TOTAL RUN TIME: 0 days 0 hours 1 minutes 8 seconds 400 msec
