                         Program Version 5.0.3 -  RELEASE  -
|  1> ! PBEh-3c def2/J TightSCF DefGrid3
|  2>
|  3> %maxcore 60000
|  4>
|  5> %pal
|  6> nprocs 4
|  7> end
|  8>
|  9> *xyzfile 0 1 HIS_xau.xyz
| 10>
| 11>                          ****END OF INPUT****

CARTESIAN COORDINATES (ANGSTROEM)
---------------------------------
  N     -1.651433    0.105117   -0.306252
  H     -1.513334    0.362588   -1.276421
  C     -0.733952    0.759039    0.598317
  H     -1.292385    1.419971    1.266450
  C      0.034872   -0.267949    1.450753
  C      0.219048    1.573229   -0.275193
  H      0.544402    0.234276    2.274777
  H     -0.707364   -0.927626    1.901422
  C      1.050088   -1.007987    0.658584
  O      0.128038    1.570079   -1.499849
  N      0.737244   -1.794904   -0.421629
  C      2.428627   -1.059780    0.730193
  H     -0.193246   -1.927528   -0.782179
  C      1.900258   -2.270899   -0.945391
  N      2.951212   -1.846404   -0.263650
  H      3.059333   -0.577937    1.458992
  H      1.925123   -2.912177   -1.809314
  C     -2.877128   -0.301264    0.141191
  C     -3.842772   -0.741356   -0.931473
  O     -3.158910   -0.323017    1.332517
  H     -4.679324   -0.045743   -0.947685
  H     -4.234940   -1.720316   -0.668716
  H     -3.392012   -0.780223   -1.919910
  N      1.150750    2.285161    0.392060
  C      2.234203    2.929591   -0.326270
  H      1.254799    2.122830    1.377866
  H      2.718877    3.644776    0.331125
  H      2.965116    2.201155   -0.676808
  H      1.825296    3.450023   -1.186382

 Total Charge           Charge          ....    0
 Multiplicity           Mult            ....    1
 Number of Electrons    NEL             ....  112
 Basis Dimension        Dim             ....  253

ORBITAL ENERGIES
----------------

  NO   OCC          E(Eh)            E(eV)
   0   2.0000     -19.478931      -530.0486
   1   2.0000     -19.467116      -529.7271
   2   2.0000     -14.692751      -399.8101
   3   2.0000     -14.677577      -399.3972
   4   2.0000     -14.669158      -399.1681
   5   2.0000     -14.614691      -397.6860
   6   2.0000     -10.563079      -287.4360
   7   2.0000     -10.558657      -287.3157
   8   2.0000     -10.504175      -285.8331
   9   2.0000     -10.493587      -285.5450
  10   2.0000     -10.477943      -285.1193
  11   2.0000     -10.474746      -285.0323
  12   2.0000     -10.466951      -284.8202
  13   2.0000     -10.450747      -284.3793
  14   2.0000     -10.450123      -284.3623
  15   2.0000      -1.165864       -31.7248
  16   2.0000      -1.150958       -31.3192
  17   2.0000      -1.120586       -30.4927
  18   2.0000      -1.039188       -28.2777
  19   2.0000      -1.035435       -28.1756
  20   2.0000      -0.965518       -26.2731
  21   2.0000      -0.902383       -24.5551
  22   2.0000      -0.847114       -23.0512
  23   2.0000      -0.822468       -22.3805
  24   2.0000      -0.791039       -21.5253
  25   2.0000      -0.743135       -20.2217
  26   2.0000      -0.687373       -18.7044
  27   2.0000      -0.677494       -18.4355
  28   2.0000      -0.666526       -18.1371
  29   2.0000      -0.657919       -17.9029
  30   2.0000      -0.617293       -16.7974
  31   2.0000      -0.600424       -16.3384
  32   2.0000      -0.563261       -15.3271
  33   2.0000      -0.550977       -14.9928
  34   2.0000      -0.535908       -14.5828
  35   2.0000      -0.526127       -14.3166
  36   2.0000      -0.521781       -14.1984
  37   2.0000      -0.512607       -13.9488
  38   2.0000      -0.506854       -13.7922
  39   2.0000      -0.486049       -13.2261
  40   2.0000      -0.480835       -13.0842
  41   2.0000      -0.469873       -12.7859
  42   2.0000      -0.466733       -12.7004
  43   2.0000      -0.463141       -12.6027
  44   2.0000      -0.461380       -12.5548
  45   2.0000      -0.452648       -12.3172
  46   2.0000      -0.440002       -11.9731
  47   2.0000      -0.433391       -11.7932
  48   2.0000      -0.410058       -11.1582
  49   2.0000      -0.335429        -9.1275
  50   2.0000      -0.330568        -8.9952
  51   2.0000      -0.324734        -8.8365
  52   2.0000      -0.321674        -8.7532
  53   2.0000      -0.316108        -8.6017
  54   2.0000      -0.313080        -8.5194
  55   2.0000      -0.260350        -7.0845
  56   0.0000       0.039890         1.0855
  57   0.0000       0.047721         1.2986
  58   0.0000       0.058183         1.5832
  59   0.0000       0.096064         2.6140
  60   0.0000       0.098594         2.6829

MULLIKEN ATOMIC CHARGES
-----------------------
   0 N :   -0.660267
   1 H :    0.389194
   2 C :   -0.204663
   3 H :    0.281199
   4 C :   -0.520136
   5 C :    0.566919
   6 H :    0.223146
   7 H :    0.294170
   8 C :    0.294989
   9 O :   -0.440028
  10 N :   -0.608813
  11 C :   -0.207721
  12 H :    0.370319
  13 C :    0.111360
  14 N :   -0.374997
  15 H :    0.208760
  16 H :    0.234492
  17 C :    0.515271
  18 C :   -0.752070
  19 O :   -0.427211
  20 H :    0.261766
  21 H :    0.260783
  22 H :    0.220208
  23 N :   -0.623125
  24 C :   -0.496846
  25 H :    0.361801
  26 H :    0.219792
  27 H :    0.245833
  28 H :    0.255875
Sum of atomic charges:   -0.0000000

LOEWDIN ATOMIC CHARGES
----------------------
   0 N :   -0.246833
   1 H :    0.268904
   2 C :   -0.093025
   3 H :    0.149446
   4 C :   -0.231775
   5 C :    0.117980
   6 H :    0.136092
   7 H :    0.160845
   8 C :   -0.054359
   9 O :   -0.278295
  10 N :   -0.132674
  11 C :   -0.147081
  12 H :    0.264861
  13 C :   -0.049423
  14 N :   -0.184720
  15 H :    0.124661
  16 H :    0.130243
  17 C :    0.104791
  18 C :   -0.389763
  19 O :   -0.276029
  20 H :    0.159731
  21 H :    0.157712
  22 H :    0.131248
  23 N :   -0.231870
  24 C :   -0.252157
  25 H :    0.255327
  26 H :    0.127119
  27 H :    0.133193
  28 H :    0.145852

  Mayer bond orders larger than 0.100000
B(  0-N ,  1-H ) :   0.7617 B(  0-N ,  2-C ) :   0.9393 B(  0-N , 17-C ) :   1.1277
B(  2-C ,  3-H ) :   0.8758 B(  2-C ,  4-C ) :   0.9449 B(  2-C ,  5-C ) :   0.9141
B(  4-C ,  6-H ) :   0.9169 B(  4-C ,  7-H ) :   0.8818 B(  4-C ,  8-C ) :   0.9360
B(  5-C ,  9-O ) :   1.9414 B(  5-C , 23-N ) :   1.1540 B(  8-C , 10-N ) :   1.1004
B(  8-C , 11-C ) :   1.5277 B( 10-N , 12-H ) :   0.8047 B( 10-N , 13-C ) :   1.1906
B( 11-C , 14-N ) :   1.3745 B( 11-C , 15-H ) :   0.9317 B( 13-C , 14-N ) :   1.6179
B( 13-C , 16-H ) :   0.9114 B( 17-C , 18-C ) :   0.9300 B( 17-C , 19-O ) :   1.9748
B( 18-C , 20-H ) :   0.9072 B( 18-C , 21-H ) :   0.9098 B( 18-C , 22-H ) :   0.9200
B( 23-N , 24-C ) :   0.9476 B( 23-N , 25-H ) :   0.8216 B( 24-C , 26-H ) :   0.9259
B( 24-C , 27-H ) :   0.9085 B( 24-C , 28-H ) :   0.9088

Dispersion correction           -0.018776504
FINAL SINGLE POINT ENERGY      -719.329734183154

DIPOLE MOMENT
-------------
                                X             Y             Z
Electronic contribution:      1.11218      -3.47270       0.60818
Nuclear contribution   :     -1.60237       4.12691      -0.71507
                        -----------------------------------------
Total Dipole Moment    :     -0.49020       0.65421      -0.10689
                        -----------------------------------------
Magnitude (a.u.)       :      0.82444
Magnitude (Debye)      :      2.09557

Rotational constants in cm-1:     0.025569     0.015726     0.011982
Rotational constants in MHz :   766.551619   471.444379   359.203003

                             ****ORCA TERMINATED NORMALLY****
TOTAL RUN TIME: 0 days 0 hours 4 minutes 3 seconds 353 msec
