                         Program Version 5.0.3 -  RELEASE  -
|  1> ! PBEh-3c def2/J TightSCF DefGrid3
|  2>
|  3> %maxcore 60000
|  4>
|  5> %pal
|  6> nprocs 4
|  7> end
|  8>
|  9> *xyzfile 0 1 i19e.xyz
| 10>
| 11>                          ****END OF INPUT****

CARTESIAN COORDINATES (ANGSTROEM)
---------------------------------
  C      0.940518    0.633931   -0.659877
  C      0.299800   -0.658017   -0.037724
  C      1.247714   -0.975726    1.140744
  C      2.298295    0.205411    1.146787
  C      3.563582   -0.156305    0.259183
  C      1.989966    0.093596   -1.640102
  O      1.614657    1.247438    0.448927
  C      2.663432    0.695770    2.540530
  C     -0.003360    1.684185   -1.225859
  C      3.194224   -0.323858   -1.201445
  N      0.369327   -0.932575    2.346817
  N     -0.803190   -0.638522    2.026134
  N     -0.956599   -0.445398    0.675316
  C     -3.669550   -0.562728   -1.858110
  C     -4.794593   -0.293199   -1.075312
  C     -4.632071   -0.076572    0.298947
  C     -3.369794   -0.120008    0.888167
  C     -2.238783   -0.395238    0.095898
  C     -2.397170   -0.616379   -1.283389
  H      0.197925   -1.459586   -0.775105
  H      1.727094   -1.954228    1.108484
  Cl     4.348175   -1.679583    0.920925
  Cl     4.827507    1.193384    0.332518
  Cl     1.474386   -0.134769   -3.295911
  H      3.201860   -0.085983    3.084499
  H      1.744060    0.928485    3.082090
  H      3.285291    1.590726    2.472548
  H     -0.591601    1.293059   -2.056834
  H      0.579834    2.546310   -1.566487
  H     -0.681496    1.997054   -0.426796
  Cl     4.408785   -0.974285   -2.275935
  H     -3.774355   -0.735500   -2.927379
  H     -5.782907   -0.251130   -1.526939
  H     -5.498112    0.135434    0.922817
  H     -1.535992   -0.822743   -1.911109
  H     -3.246859    0.047551    1.952982

 Total Charge           Charge          ....    0
 Multiplicity           Mult            ....    1
 Number of Electrons    NEL             ....  200
 Basis Dimension        Dim             ....  383

ORBITAL ENERGIES
----------------

  NO   OCC          E(Eh)            E(eV)
   0   2.0000    -102.342231     -2784.8737
   1   2.0000    -102.330194     -2784.5461
   2   2.0000    -102.325289     -2784.4127
   3   2.0000    -102.314864     -2784.1290
   4   2.0000     -19.541829      -531.7602
   5   2.0000     -14.745750      -401.2523
   6   2.0000     -14.722267      -400.6132
   7   2.0000     -14.691018      -399.7629
   8   2.0000     -10.615615      -288.8656
   9   2.0000     -10.559991      -287.3520
  10   2.0000     -10.558297      -287.3059
  11   2.0000     -10.558026      -287.2985
  12   2.0000     -10.556003      -287.2434
  13   2.0000     -10.524883      -286.3966
  14   2.0000     -10.516777      -286.1761
  15   2.0000     -10.511824      -286.0413
  16   2.0000     -10.466428      -284.8060
  17   2.0000     -10.465786      -284.7885
  18   2.0000     -10.464003      -284.7400
  19   2.0000     -10.460349      -284.6406
  20   2.0000     -10.456976      -284.5488
  21   2.0000     -10.453433      -284.4524
  22   2.0000     -10.444191      -284.2009
  23   2.0000      -9.808586      -266.9052
  24   2.0000      -9.796777      -266.5839
  25   2.0000      -9.791410      -266.4378
  26   2.0000      -9.780930      -266.1526
  27   2.0000      -7.496504      -203.9903
  28   2.0000      -7.488098      -203.7615
  29   2.0000      -7.487466      -203.7443
  30   2.0000      -7.484869      -203.6736
  31   2.0000      -7.479436      -203.5258
  32   2.0000      -7.475987      -203.4319
  33   2.0000      -7.475689      -203.4238
  34   2.0000      -7.470564      -203.2844
  35   2.0000      -7.470405      -203.2801
  36   2.0000      -7.469002      -203.2419
  37   2.0000      -7.460026      -202.9976
  38   2.0000      -7.459924      -202.9948
  39   2.0000      -1.222164       -33.2568
  40   2.0000      -1.196719       -32.5644
  41   2.0000      -1.046286       -28.4709
  42   2.0000      -1.037865       -28.2417
  43   2.0000      -1.003276       -27.3005
  44   2.0000      -0.959249       -26.1025
  45   2.0000      -0.957408       -26.0524
  46   2.0000      -0.930517       -25.3207
  47   2.0000      -0.914406       -24.8823
  48   2.0000      -0.908187       -24.7130
  49   2.0000      -0.868284       -23.6272
  50   2.0000      -0.852207       -23.1897
  51   2.0000      -0.847724       -23.0678
  52   2.0000      -0.831074       -22.6147
  53   2.0000      -0.773273       -21.0418
  54   2.0000      -0.751292       -20.4437
  55   2.0000      -0.745046       -20.2737
  56   2.0000      -0.717421       -19.5220
  57   2.0000      -0.695156       -18.9162
  58   2.0000      -0.680206       -18.5093
  59   2.0000      -0.655977       -17.8500
  60   2.0000      -0.635545       -17.2941
  61   2.0000      -0.627993       -17.0886
  62   2.0000      -0.612388       -16.6639
  63   2.0000      -0.578723       -15.7479
  64   2.0000      -0.572216       -15.5708
  65   2.0000      -0.553481       -15.0610
  66   2.0000      -0.549939       -14.9646
  67   2.0000      -0.531388       -14.4598
  68   2.0000      -0.528273       -14.3750
  69   2.0000      -0.521594       -14.1933
  70   2.0000      -0.518902       -14.1201
  71   2.0000      -0.513698       -13.9784
  72   2.0000      -0.502041       -13.6612
  73   2.0000      -0.497800       -13.5458
  74   2.0000      -0.496052       -13.4983
  75   2.0000      -0.484951       -13.1962
  76   2.0000      -0.468566       -12.7503
  77   2.0000      -0.466675       -12.6989
  78   2.0000      -0.453798       -12.3485
  79   2.0000      -0.450496       -12.2586
  80   2.0000      -0.443195       -12.0599
  81   2.0000      -0.437568       -11.9068
  82   2.0000      -0.433537       -11.7971
  83   2.0000      -0.429543       -11.6885
  84   2.0000      -0.424918       -11.5626
  85   2.0000      -0.418501       -11.3880
  86   2.0000      -0.413037       -11.2393
  87   2.0000      -0.409915       -11.1544
  88   2.0000      -0.401849       -10.9349
  89   2.0000      -0.394279       -10.7289
  90   2.0000      -0.386528       -10.5180
  91   2.0000      -0.374087       -10.1794
  92   2.0000      -0.371079       -10.0976
  93   2.0000      -0.362133        -9.8542
  94   2.0000      -0.352477        -9.5914
  95   2.0000      -0.350336        -9.5331
  96   2.0000      -0.331970        -9.0334
  97   2.0000      -0.313971        -8.5436
  98   2.0000      -0.307090        -8.3564
  99   2.0000      -0.263092        -7.1591
 100   0.0000      -0.036592        -0.9957
 101   0.0000      -0.023667        -0.6440
 102   0.0000      -0.010003        -0.2722
 103   0.0000       0.003034         0.0826
 104   0.0000       0.021522         0.5856

MULLIKEN ATOMIC CHARGES
-----------------------
   0 C :    0.151010
   1 C :   -0.096668
   2 C :   -0.169883
   3 C :    0.220260
   4 C :   -0.203501
   5 C :    0.069501
   6 O :   -0.446596
   7 C :   -0.644514
   8 C :   -0.659787
   9 C :    0.107148
  10 N :   -0.181669
  11 N :    0.022905
  12 N :   -0.447949
  13 C :   -0.213806
  14 C :   -0.237578
  15 C :   -0.211680
  16 C :   -0.288047
  17 C :    0.400018
  18 C :   -0.307049
  19 H :    0.282726
  20 H :    0.286841
  21 Cl:   -0.025740
  22 Cl:   -0.021694
  23 Cl:   -0.040165
  24 H :    0.237881
  25 H :    0.259843
  26 H :    0.253372
  27 H :    0.234665
  28 H :    0.258804
  29 H :    0.262548
  30 Cl:   -0.018285
  31 H :    0.226570
  32 H :    0.224309
  33 H :    0.228121
  34 H :    0.228061
  35 H :    0.260028
Sum of atomic charges:    0.0000000

LOEWDIN ATOMIC CHARGES
----------------------
   0 C :    0.037882
   1 C :   -0.070257
   2 C :   -0.090726
   3 C :    0.033830
   4 C :   -0.136586
   5 C :   -0.127474
   6 O :   -0.200479
   7 C :   -0.354052
   8 C :   -0.349334
   9 C :   -0.175711
  10 N :   -0.115296
  11 N :    0.026071
  12 N :   -0.058133
  13 C :   -0.121219
  14 C :   -0.152888
  15 C :   -0.118158
  16 C :   -0.152489
  17 C :    0.029039
  18 C :   -0.173650
  19 H :    0.144653
  20 H :    0.151461
  21 Cl:    0.056199
  22 Cl:    0.052501
  23 Cl:    0.127303
  24 H :    0.147274
  25 H :    0.154005
  26 H :    0.146190
  27 H :    0.142044
  28 H :    0.151121
  29 H :    0.155008
  30 Cl:    0.131115
  31 H :    0.140146
  32 H :    0.138898
  33 H :    0.141077
  34 H :    0.136374
  35 H :    0.154261

  Mayer bond orders larger than 0.100000
B(  0-C ,  1-C ) :   0.8883 B(  0-C ,  5-C ) :   0.8881 B(  0-C ,  6-O ) :   0.9530
B(  0-C ,  8-C ) :   1.0183 B(  1-C ,  2-C ) :   0.9347 B(  1-C , 12-N ) :   0.9248
B(  1-C , 19-H ) :   0.8778 B(  2-C ,  3-C ) :   0.8840 B(  2-C , 10-N ) :   1.0100
B(  2-C , 20-H ) :   0.8742 B(  3-C ,  4-C ) :   0.8173 B(  3-C ,  6-O ) :   0.9575
B(  3-C ,  7-C ) :   1.0144 B(  4-C ,  9-C ) :   0.8420 B(  4-C , 21-Cl) :   1.0499
B(  4-C , 22-Cl) :   1.0613 B(  5-C ,  9-C ) :   1.6165 B(  5-C , 23-Cl) :   1.1222
B(  7-C , 24-H ) :   0.9071 B(  7-C , 25-H ) :   0.8975 B(  7-C , 26-H ) :   0.8986
B(  8-C , 27-H ) :   0.9029 B(  8-C , 28-H ) :   0.9095 B(  8-C , 29-H ) :   0.9010
B(  9-C , 30-Cl) :   1.1674 B( 10-N , 11-N ) :   1.8026 B( 10-N , 12-N ) :   0.1135
B( 11-N , 12-N ) :   1.1339 B( 12-N , 17-C ) :   0.8885 B( 13-C , 14-C ) :   1.4335
B( 13-C , 18-C ) :   1.4356 B( 13-C , 31-H ) :   0.9174 B( 14-C , 15-C ) :   1.4070
B( 14-C , 32-H ) :   0.9175 B( 15-C , 16-C ) :   1.4432 B( 15-C , 33-H ) :   0.9179
B( 16-C , 17-C ) :   1.3514 B( 16-C , 35-H ) :   0.8959 B( 17-C , 18-C ) :   1.3408
B( 18-C , 34-H ) :   0.9020

Dispersion correction           -0.034076997
FINAL SINGLE POINT ENERGY     -2655.869776860049

DIPOLE MOMENT
-------------
                                X             Y             Z
Electronic contribution:     37.25531      -6.43670      -9.71008
Nuclear contribution   :    -38.14472       6.43419       9.00912
                        -----------------------------------------
Total Dipole Moment    :     -0.88941      -0.00251      -0.70096
                        -----------------------------------------
Magnitude (a.u.)       :      1.13244
Magnitude (Debye)      :      2.87842

Rotational constants in cm-1:     0.012431     0.004603     0.003842
Rotational constants in MHz :   372.682719   137.993951   115.173130

                             ****ORCA TERMINATED NORMALLY****
TOTAL RUN TIME: 0 days 0 hours 7 minutes 45 seconds 412 msec
