                         Program Version 5.0.3 -  RELEASE  -
|  1> ! PBEh-3c def2/J TightSCF DefGrid3
|  2>
|  3> %maxcore 60000
|  4>
|  5> %pal
|  6> nprocs 4
|  7> end
|  8>
|  9> *xyzfile 0 1 B60.xyz
| 10>
| 11>                          ****END OF INPUT****

CARTESIAN COORDINATES (ANGSTROEM)
---------------------------------
  C      1.544053   -0.411735   -0.307570
  H      1.490069   -0.415972   -1.396274
  O      2.930458   -0.303101    0.004510
  C      0.729611    0.752127    0.245058
  H      0.762694    0.727247    1.339413
  H      1.219242    1.676709   -0.064008
  C     -0.726511    0.763703   -0.225630
  H     -0.767477    0.787575   -1.316758
  H     -1.217845    1.670819    0.129171
  H      3.010480   -0.316576    0.962083
  H      1.147727   -1.368377    0.045591
  C     -1.537390   -0.421899    0.268833
  H     -1.162736   -1.354348   -0.162547
  H     -1.451711   -0.496178    1.359002
  O     -2.891276   -0.201075   -0.119798
  H     -3.402479   -0.970666    0.142483

 Total Charge           Charge          ....    0
 Multiplicity           Mult            ....    1
 Number of Electrons    NEL             ....   50
 Basis Dimension        Dim             ....  110

ORBITAL ENERGIES
----------------

  NO   OCC          E(Eh)            E(eV)
   0   2.0000     -19.486043      -530.2422
   1   2.0000     -19.484304      -530.1949
   2   2.0000     -10.483885      -285.2810
   3   2.0000     -10.480718      -285.1948
   4   2.0000     -10.436740      -283.9981
   5   2.0000     -10.434426      -283.9352
   6   2.0000      -1.122730       -30.5510
   7   2.0000      -1.120875       -30.5006
   8   2.0000      -0.887555       -24.1516
   9   2.0000      -0.792604       -21.5679
  10   2.0000      -0.715785       -19.4775
  11   2.0000      -0.655108       -17.8264
  12   2.0000      -0.579675       -15.7738
  13   2.0000      -0.565145       -15.3784
  14   2.0000      -0.543626       -14.7928
  15   2.0000      -0.503090       -13.6898
  16   2.0000      -0.477960       -13.0059
  17   2.0000      -0.474982       -12.9249
  18   2.0000      -0.427596       -11.6355
  19   2.0000      -0.420367       -11.4388
  20   2.0000      -0.398970       -10.8565
  21   2.0000      -0.381298       -10.3756
  22   2.0000      -0.370295       -10.0762
  23   2.0000      -0.329283        -8.9603
  24   2.0000      -0.320750        -8.7281
  25   0.0000       0.121056         3.2941
  26   0.0000       0.133087         3.6215
  27   0.0000       0.135278         3.6811
  28   0.0000       0.177862         4.8399
  29   0.0000       0.186707         5.0806

MULLIKEN ATOMIC CHARGES
-----------------------
   0 C :   -0.135510
   1 H :    0.209855
   2 O :   -0.621991
   3 C :   -0.479694
   4 H :    0.193878
   5 H :    0.240421
   6 C :   -0.454548
   7 H :    0.223545
   8 H :    0.238327
   9 H :    0.407963
  10 H :    0.174300
  11 C :   -0.133920
  12 H :    0.177458
  13 H :    0.172869
  14 O :   -0.628339
  15 H :    0.415387
Sum of atomic charges:    0.0000000

LOEWDIN ATOMIC CHARGES
----------------------
   0 C :   -0.097563
   1 H :    0.119932
   2 O :   -0.410129
   3 C :   -0.268033
   4 H :    0.115108
   5 H :    0.135440
   6 C :   -0.251731
   7 H :    0.130066
   8 H :    0.136227
   9 H :    0.305477
  10 H :    0.094641
  11 C :   -0.092762
  12 H :    0.096095
  13 H :    0.094797
  14 O :   -0.415810
  15 H :    0.308245

  Mayer bond orders larger than 0.100000
B(  0-C ,  1-H ) :   0.9117 B(  0-C ,  2-O ) :   1.0186 B(  0-C ,  3-C ) :   0.9761
B(  0-C , 10-H ) :   0.9099 B(  2-O ,  9-H ) :   0.7958 B(  3-C ,  4-H ) :   0.9187
B(  3-C ,  5-H ) :   0.9121 B(  3-C ,  6-C ) :   0.9622 B(  6-C ,  7-H ) :   0.9117
B(  6-C ,  8-H ) :   0.9116 B(  6-C , 11-C ) :   0.9837 B( 11-C , 12-H ) :   0.9050
B( 11-C , 13-H ) :   0.9048 B( 11-C , 14-O ) :   1.0197 B( 14-O , 15-H ) :   0.7937

Dispersion correction           -0.006527996
FINAL SINGLE POINT ENERGY      -308.204893481909

DIPOLE MOMENT
-------------
                                X             Y             Z
Electronic contribution:      0.05797      -0.43584      -0.33697
Nuclear contribution   :     -0.38700      -0.07056       1.07983
                        -----------------------------------------
Total Dipole Moment    :     -0.32904      -0.50640       0.74285
                        -----------------------------------------
Magnitude (a.u.)       :      0.95736
Magnitude (Debye)      :      2.43340

Rotational constants in cm-1:     0.382862     0.043800     0.041620
Rotational constants in MHz : 11477.927203  1313.095236  1247.739589

                             ****ORCA TERMINATED NORMALLY****
TOTAL RUN TIME: 0 days 0 hours 1 minutes 32 seconds 891 msec
