                         Program Version 5.0.3 -  RELEASE  -
|  1> ! PBEh-3c def2/J TightSCF DefGrid3
|  2>
|  3> %maxcore 60000
|  4>
|  5> %pal
|  6> nprocs 4
|  7> end
|  8>
|  9> *xyzfile 0 2 19.xyz
| 10>
| 11>                          ****END OF INPUT****

CARTESIAN COORDINATES (ANGSTROEM)
---------------------------------
  P      0.000000    0.000000    0.662399
  H     -1.023712    0.000000   -0.331199
  H      1.023712    0.000000   -0.331199

 Total Charge           Charge          ....    0
 Multiplicity           Mult            ....    2
 Number of Electrons    NEL             ....   17
 Basis Dimension        Dim             ....   22

ORBITAL ENERGIES
----------------
                 SPIN UP ORBITALS
  NO   OCC          E(Eh)            E(eV)
   0   1.0000     -77.745794     -2115.5706
   1   1.0000      -6.824088      -185.6929
   2   1.0000      -4.920543      -133.8948
   3   1.0000      -4.912596      -133.6785
   4   1.0000      -4.911100      -133.6378
   5   1.0000      -0.710591       -19.3362
   6   1.0000      -0.438325       -11.9274
   7   1.0000      -0.353731        -9.6255
   8   1.0000      -0.294924        -8.0253
   9   0.0000       0.064868         1.7651
  10   0.0000       0.118260         3.2180
  11   0.0000       0.280183         7.6242
  12   0.0000       0.509357        13.8603
  13   0.0000       0.538095        14.6423

                 SPIN DOWN ORBITALS
  NO   OCC          E(Eh)            E(eV)
   0   1.0000     -77.740852     -2115.4361
   1   1.0000      -6.818757      -185.5478
   2   1.0000      -4.909282      -133.5884
   3   1.0000      -4.908216      -133.5594
   4   1.0000      -4.901697      -133.3820
   5   1.0000      -0.670079       -18.2338
   6   1.0000      -0.431738       -11.7482
   7   1.0000      -0.336045        -9.1443
   8   0.0000      -0.083476        -2.2715
   9   0.0000       0.072271         1.9666
  10   0.0000       0.142045         3.8652
  11   0.0000       0.309297         8.4164
  12   0.0000       0.516594        14.0572

MULLIKEN ATOMIC CHARGES AND SPIN POPULATIONS
--------------------------------------------
   0 P :   -0.126060    1.082450
   1 H :    0.063030   -0.041225
   2 H :    0.063030   -0.041225
Sum of atomic charges         :    0.0000000

LOEWDIN ATOMIC CHARGES AND SPIN POPULATIONS
-------------------------------------------
   0 P :   -0.052575    1.044879
   1 H :    0.026287   -0.022440
   2 H :    0.026287   -0.022440

  Mayer bond orders larger than 0.100000
B(  0-P ,  1-H ) :   0.9635 B(  0-P ,  2-H ) :   0.9635

Dispersion correction           -0.000450733
FINAL SINGLE POINT ENERGY      -342.095076467030

DIPOLE MOMENT
-------------
                                X             Y             Z
Electronic contribution:      0.00000       0.00000       1.43528
Nuclear contribution   :      0.00000       0.00000      -1.80466
                        -----------------------------------------
Total Dipole Moment    :      0.00000       0.00000      -0.36939
                        -----------------------------------------
Magnitude (a.u.)       :      0.36939
Magnitude (Debye)      :      0.93890

Rotational constants in cm-1:     9.021316     7.979041     4.234114
Rotational constants in MHz : 270452.246344 239205.633283 126935.545286

                             ****ORCA TERMINATED NORMALLY****
TOTAL RUN TIME: 0 days 0 hours 0 minutes 6 seconds 829 msec
