                         Program Version 5.0.3 -  RELEASE  -
|  1> ! PBEh-3c def2/J TightSCF DefGrid3
|  2>
|  3> %maxcore 60000
|  4>
|  5> %pal
|  6> nprocs 4
|  7> end
|  8>
|  9> *xyzfile 0 1 bz.xyz
| 10>
| 11>                          ****END OF INPUT****

CARTESIAN COORDINATES (ANGSTROEM)
---------------------------------
  N      0.000000    1.403900    0.000000
  B      1.251286    0.722430    0.000000
  N      1.215813   -0.701950    0.000000
  B      0.000000   -1.444861    0.000000
  N     -1.215813   -0.701950    0.000000
  B     -1.251286    0.722430    0.000000
  H      0.000000    2.409044    0.000000
  H      2.287449    1.320659    0.000000
  H      2.086293   -1.204522    0.000000
  H      0.000000   -2.641318    0.000000
  H     -2.086293   -1.204522    0.000000
  H     -2.287449    1.320659    0.000000

 Total Charge           Charge          ....    0
 Multiplicity           Mult            ....    1
 Number of Electrons    NEL             ....   42
 Basis Dimension        Dim             ....  102

ORBITAL ENERGIES
----------------

  NO   OCC          E(Eh)            E(eV)
   0   2.0000     -14.618905      -397.8006
   1   2.0000     -14.618903      -397.8006
   2   2.0000     -14.618865      -397.7995
   3   2.0000      -6.962054      -189.4471
   4   2.0000      -6.962053      -189.4471
   5   2.0000      -6.962045      -189.4469
   6   2.0000      -0.994228       -27.0543
   7   2.0000      -0.934166       -25.4199
   8   2.0000      -0.934165       -25.4199
   9   2.0000      -0.626254       -17.0412
  10   2.0000      -0.599854       -16.3229
  11   2.0000      -0.599853       -16.3228
  12   2.0000      -0.499424       -13.5900
  13   2.0000      -0.498395       -13.5620
  14   2.0000      -0.498393       -13.5620
  15   2.0000      -0.445671       -12.1273
  16   2.0000      -0.423053       -11.5119
  17   2.0000      -0.374008       -10.1773
  18   2.0000      -0.374008       -10.1773
  19   2.0000      -0.328966        -8.9516
  20   2.0000      -0.328964        -8.9516
  21   0.0000       0.045473         1.2374
  22   0.0000       0.045474         1.2374
  23   0.0000       0.133777         3.6403
  24   0.0000       0.140048         3.8109
  25   0.0000       0.146113         3.9759

MULLIKEN ATOMIC CHARGES
-----------------------
   0 N :   -0.604375
   1 B :    0.211758
   2 N :   -0.604473
   3 B :    0.211815
   4 N :   -0.604473
   5 B :    0.211758
   6 H :    0.363358
   7 H :    0.029313
   8 H :    0.363376
   9 H :    0.029254
  10 H :    0.363376
  11 H :    0.029313
Sum of atomic charges:   -0.0000000

LOEWDIN ATOMIC CHARGES
----------------------
   0 N :   -0.267231
   1 B :    0.001149
   2 N :   -0.267252
   3 B :    0.001167
   4 N :   -0.267252
   5 B :    0.001149
   6 H :    0.270612
   7 H :   -0.004522
   8 H :    0.270618
   9 H :   -0.004535
  10 H :    0.270618
  11 H :   -0.004521

  Mayer bond orders larger than 0.100000
B(  0-N ,  1-B ) :   1.1932 B(  0-N ,  5-B ) :   1.1932 B(  0-N ,  6-H ) :   0.8287
B(  1-B ,  2-N ) :   1.1931 B(  1-B ,  7-H ) :   0.9673 B(  2-N ,  3-B ) :   1.1932
B(  2-N ,  8-H ) :   0.8287 B(  3-B ,  4-N ) :   1.1932 B(  3-B ,  9-H ) :   0.9673
B(  4-N ,  5-B ) :   1.1931 B(  4-N , 10-H ) :   0.8287 B(  5-B , 11-H ) :   0.9673

Dispersion correction           -0.005129585
FINAL SINGLE POINT ENERGY      -242.120271388927

DIPOLE MOMENT
-------------
                                X             Y             Z
Electronic contribution:     -0.00000      -0.00009       0.00000
Nuclear contribution   :      0.00000       0.00000       0.00000
                        -----------------------------------------
Total Dipole Moment    :     -0.00000      -0.00009       0.00000
                        -----------------------------------------
Magnitude (a.u.)       :      0.00009
Magnitude (Debye)      :      0.00022

Rotational constants in cm-1:     0.178228     0.178228     0.089114
Rotational constants in MHz :  5343.150298  5343.149949  2671.575062

                             ****ORCA TERMINATED NORMALLY****
TOTAL RUN TIME: 0 days 0 hours 1 minutes 5 seconds 860 msec
