                         Program Version 5.0.3 -  RELEASE  -
|  1> ! PBEh-3c def2/J TightSCF DefGrid3
|  2>
|  3> %maxcore 60000
|  4>
|  5> %pal
|  6> nprocs 4
|  7> end
|  8>
|  9> *xyzfile 0 1 202.xyz
| 10>
| 11>                          ****END OF INPUT****

CARTESIAN COORDINATES (ANGSTROEM)
---------------------------------
  C      1.398690    0.004600   -0.359860
  N     -0.040920   -0.169680    0.016570
  C     -0.946910    0.945730   -0.459190
  C     -1.092810    1.056360   -1.976150
  C     -0.547280   -1.545680   -0.291920
  H     -0.060250   -0.104900    1.043000
  H     -0.456440   -1.761950   -1.360930
  H      0.042870   -2.253410    0.296790
  H      1.706320    1.019470   -0.092980
  H      1.982950   -0.705130    0.232720
  H     -0.534200    1.861700   -0.020180
  H     -1.910680    0.766040    0.032220
  H      1.544460   -0.174030   -1.429870
  H     -1.591230   -1.610450    0.027230
  H     -1.765880    1.891430   -2.207310
  H     -0.134900    1.259420   -2.469700
  H     -1.527800    0.151200   -2.416520
  Cl    -0.062960   -0.038030    2.860580

 Total Charge           Charge          ....    0
 Multiplicity           Mult            ....    1
 Number of Electrons    NEL             ....   60
 Basis Dimension        Dim             ....  117

ORBITAL ENERGIES
----------------

  NO   OCC          E(Eh)            E(eV)
   0   2.0000    -102.122166     -2778.8854
   1   2.0000     -14.745865      -401.2554
   2   2.0000     -10.519426      -286.2481
   3   2.0000     -10.510619      -286.0085
   4   2.0000     -10.510378      -286.0019
   5   2.0000     -10.474581      -285.0278
   6   2.0000      -9.587375      -260.8857
   7   2.0000      -7.271614      -197.8707
   8   2.0000      -7.269315      -197.8081
   9   2.0000      -7.269283      -197.8073
  10   2.0000      -1.112801       -30.2809
  11   2.0000      -0.890581       -24.2339
  12   2.0000      -0.846274       -23.0283
  13   2.0000      -0.801030       -21.7971
  14   2.0000      -0.734846       -19.9962
  15   2.0000      -0.706782       -19.2325
  16   2.0000      -0.634746       -17.2723
  17   2.0000      -0.590170       -16.0593
  18   2.0000      -0.582882       -15.8610
  19   2.0000      -0.531420       -14.4607
  20   2.0000      -0.500488       -13.6190
  21   2.0000      -0.497539       -13.5387
  22   2.0000      -0.494024       -13.4431
  23   2.0000      -0.475922       -12.9505
  24   2.0000      -0.457332       -12.4446
  25   2.0000      -0.451791       -12.2939
  26   2.0000      -0.440368       -11.9830
  27   2.0000      -0.240537        -6.5453
  28   2.0000      -0.226105        -6.1526
  29   2.0000      -0.225879        -6.1465
  30   0.0000       0.077457         2.1077
  31   0.0000       0.112181         3.0526
  32   0.0000       0.134023         3.6470
  33   0.0000       0.134102         3.6491
  34   0.0000       0.144703         3.9376

MULLIKEN ATOMIC CHARGES
-----------------------
   0 C :   -0.520088
   1 N :   -0.503710
   2 C :   -0.310782
   3 C :   -0.666974
   4 C :   -0.520610
   5 H :    0.392004
   6 H :    0.233488
   7 H :    0.282133
   8 H :    0.269033
   9 H :    0.282191
  10 H :    0.273991
  11 H :    0.274449
  12 H :    0.233681
  13 H :    0.269588
  14 H :    0.254636
  15 H :    0.229706
  16 H :    0.229830
  17 Cl:   -0.702568
Sum of atomic charges:   -0.0000000

LOEWDIN ATOMIC CHARGES
----------------------
   0 C :   -0.248109
   1 N :   -0.106675
   2 C :   -0.142179
   3 C :   -0.374003
   4 C :   -0.248267
   5 H :    0.240682
   6 H :    0.131453
   7 H :    0.157699
   8 H :    0.151557
   9 H :    0.157738
  10 H :    0.149078
  11 H :    0.149337
  12 H :    0.131629
  13 H :    0.151849
  14 H :    0.150157
  15 H :    0.133618
  16 H :    0.133687
  17 Cl:   -0.719252

  Mayer bond orders larger than 0.100000
B(  0-C ,  1-N ) :   0.9136 B(  0-C ,  8-H ) :   0.9079 B(  0-C ,  9-H ) :   0.9003
B(  0-C , 12-H ) :   0.9106 B(  1-N ,  2-C ) :   0.8888 B(  1-N ,  4-C ) :   0.9137
B(  1-N ,  5-H ) :   0.4734 B(  2-C ,  3-C ) :   0.9758 B(  2-C , 10-H ) :   0.8991
B(  2-C , 11-H ) :   0.8988 B(  3-C , 14-H ) :   0.9131 B(  3-C , 15-H ) :   0.9199
B(  3-C , 16-H ) :   0.9199 B(  4-C ,  6-H ) :   0.9104 B(  4-C ,  7-H ) :   0.9003
B(  4-C , 13-H ) :   0.9077 B(  5-H , 17-Cl) :   0.4711

Dispersion correction           -0.009145954
FINAL SINGLE POINT ENERGY      -673.628533297805

DIPOLE MOMENT
-------------
                                X             Y             Z
Electronic contribution:      0.62735      -0.27713      12.88170
Nuclear contribution   :     -0.66050       0.17350     -16.76943
                        -----------------------------------------
Total Dipole Moment    :     -0.03315      -0.10363      -3.88773
                        -----------------------------------------
Magnitude (a.u.)       :      3.88925
Magnitude (Debye)      :      9.88568

Rotational constants in cm-1:     0.124984     0.041963     0.039653
Rotational constants in MHz :  3746.934244  1258.032615  1188.753288

                             ****ORCA TERMINATED NORMALLY****
TOTAL RUN TIME: 0 days 0 hours 1 minutes 18 seconds 459 msec
