                         Program Version 5.0.3 -  RELEASE  -
|  1> ! PBEh-3c def2/J TightSCF DefGrid3
|  2>
|  3> %maxcore 60000
|  4>
|  5> %pal
|  6> nprocs 4
|  7> end
|  8>
|  9> *xyzfile 0 1 acetamide_TS2.xyz
| 10>
| 11>                          ****END OF INPUT****

CARTESIAN COORDINATES (ANGSTROEM)
---------------------------------
  C      0.045489   -0.002990    1.522667
  C     -0.076018    0.253751    0.058125
  N     -1.351751   -0.145279   -0.490399
  O      0.794727    0.747200   -0.599080
  H     -1.752236    0.672710   -0.935745
  H     -1.164292   -0.779052   -1.258882
  H     -0.715238    0.568214    2.048761
  H     -0.167151   -1.048973    1.731449
  H      1.031055    0.275784    1.876248

 Total Charge           Charge          ....    0
 Multiplicity           Mult            ....    1
 Number of Electrons    NEL             ....   32
 Basis Dimension        Dim             ....   70

ORBITAL ENERGIES
----------------

  NO   OCC          E(Eh)            E(eV)
   0   2.0000     -19.490911      -530.3747
   1   2.0000     -14.628134      -398.0518
   2   2.0000     -10.560751      -287.3726
   3   2.0000     -10.438123      -284.0358
   4   2.0000      -1.173159       -31.9233
   5   2.0000      -0.986133       -26.8340
   6   2.0000      -0.833171       -22.6717
   7   2.0000      -0.631562       -17.1857
   8   2.0000      -0.569897       -15.5077
   9   2.0000      -0.544022       -14.8036
  10   2.0000      -0.513091       -13.9619
  11   2.0000      -0.483921       -13.1682
  12   2.0000      -0.456493       -12.4218
  13   2.0000      -0.411406       -11.1949
  14   2.0000      -0.351437        -9.5631
  15   2.0000      -0.307997        -8.3810
  16   0.0000       0.021480         0.5845
  17   0.0000       0.131371         3.5748
  18   0.0000       0.182125         4.9559
  19   0.0000       0.197501         5.3743
  20   0.0000       0.213068         5.7979

MULLIKEN ATOMIC CHARGES
-----------------------
   0 C :   -0.711224
   1 C :    0.400497
   2 N :   -0.796082
   3 O :   -0.320899
   4 H :    0.344797
   5 H :    0.345179
   6 H :    0.245643
   7 H :    0.245955
   8 H :    0.246136
Sum of atomic charges:    0.0000000

LOEWDIN ATOMIC CHARGES
----------------------
   0 C :   -0.389452
   1 C :    0.107925
   2 N :   -0.481420
   3 O :   -0.183956
   4 H :    0.247094
   5 H :    0.246984
   6 H :    0.154881
   7 H :    0.153872
   8 H :    0.144070

  Mayer bond orders larger than 0.100000
B(  0-C ,  1-C ) :   0.9504 B(  0-C ,  6-H ) :   0.9052 B(  0-C ,  7-H ) :   0.9067
B(  0-C ,  8-H ) :   0.9170 B(  1-C ,  2-N ) :   1.0067 B(  1-C ,  3-O ) :   2.1747
B(  2-N ,  4-H ) :   0.8467 B(  2-N ,  5-H ) :   0.8464

Dispersion correction           -0.002880617
FINAL SINGLE POINT ENERGY      -208.741622444856

DIPOLE MOMENT
-------------
                                X             Y             Z
Electronic contribution:      1.33175       1.06612      -2.61896
Nuclear contribution   :     -1.84463      -1.28818       2.75588
                        -----------------------------------------
Total Dipole Moment    :     -0.51288      -0.22206       0.13692
                        -----------------------------------------
Magnitude (a.u.)       :      0.57542
Magnitude (Debye)      :      1.46259

Rotational constants in cm-1:     0.360622     0.301054     0.173567
Rotational constants in MHz : 10811.172920  9025.367402  5203.399076

                             ****ORCA TERMINATED NORMALLY****
TOTAL RUN TIME: 0 days 0 hours 1 minutes 13 seconds 76 msec
