                         Program Version 5.0.3 -  RELEASE  -
|  1> ! PBEh-3c def2/J TightSCF DefGrid3
|  2>
|  3> %maxcore 60000
|  4>
|  5> %pal
|  6> nprocs 4
|  7> end
|  8>
|  9> *xyzfile 0 1 357.xyz
| 10>
| 11>                          ****END OF INPUT****

CARTESIAN COORDINATES (ANGSTROEM)
---------------------------------
  O     -3.904919    1.619541    0.463216
  C     -3.646919    0.465540    0.214216
  O     -4.119919   -0.549459    0.943216
  H     -3.805919   -1.398459    0.550216
  C     -2.768919    0.053540   -0.964784
  H     -2.427919    0.952541   -1.464784
  H     -3.371919   -0.541459   -1.652784
  N     -1.608919   -0.732460   -0.581784
  H     -0.717919   -0.274459   -0.461784
  C     -1.719919   -2.026460   -0.239784
  O     -2.807919   -2.611460   -0.175784
  C     -0.432919   -2.760460    0.083216
  H     -0.491919   -3.734459   -0.401784
  H     -0.402919   -2.924460    1.160216
  N      0.760081   -2.047459   -0.279784
  H      1.073081   -1.969459   -1.237784
  C      1.648081   -1.609460    0.649216
  O      1.518081   -1.766460    1.856216
  C      2.824081   -0.828460    0.063216
  N      2.736081   -0.750459   -1.394784
  H      2.231081    0.087540   -1.662784
  H      3.661081   -0.674459   -1.797784
  H      3.720081   -1.392459    0.323216
  C      2.881081    0.539540    0.776216
  H      3.022081    0.360540    1.841216
  H      3.747081    1.085541    0.399216
  C      1.621081    1.326540    0.547216
  C      0.538081    1.203540    1.429216
  H      0.639081    0.570541    2.301216
  C     -0.655919    1.881540    1.191216
  H     -1.482919    1.784541    1.882216
  C     -0.793919    2.689541    0.062216
  H     -1.728919    3.202541   -0.115784
  C      0.279081    2.830541   -0.815784
  H      0.192081    3.473541   -1.681784
  C      1.478081    2.157541   -0.570784
  H      2.321081    2.307541   -1.235784

 Total Charge           Charge          ....    0
 Multiplicity           Mult            ....    1
 Number of Electrons    NEL             ....  148
 Basis Dimension        Dim             ....  334

ORBITAL ENERGIES
----------------

  NO   OCC          E(Eh)            E(eV)
   0   2.0000     -19.519803      -531.1608
   1   2.0000     -19.491533      -530.3916
   2   2.0000     -19.475757      -529.9623
   3   2.0000     -19.474451      -529.9268
   4   2.0000     -14.692351      -399.7992
   5   2.0000     -14.679788      -399.4573
   6   2.0000     -14.650788      -398.6682
   7   2.0000     -10.576338      -287.7968
   8   2.0000     -10.575797      -287.7821
   9   2.0000     -10.561220      -287.3854
  10   2.0000     -10.503417      -285.8125
  11   2.0000     -10.501162      -285.7512
  12   2.0000     -10.499793      -285.7139
  13   2.0000     -10.475935      -285.0647
  14   2.0000     -10.467789      -284.8430
  15   2.0000     -10.465950      -284.7930
  16   2.0000     -10.462769      -284.7064
  17   2.0000     -10.459637      -284.6212
  18   2.0000     -10.458830      -284.5992
  19   2.0000     -10.458609      -284.5932
  20   2.0000      -1.205388       -32.8003
  21   2.0000      -1.173934       -31.9444
  22   2.0000      -1.160465       -31.5779
  23   2.0000      -1.116167       -30.3724
  24   2.0000      -1.060633       -28.8613
  25   2.0000      -1.043270       -28.3888
  26   2.0000      -1.017387       -27.6845
  27   2.0000      -0.971870       -26.4459
  28   2.0000      -0.890160       -24.2225
  29   2.0000      -0.867597       -23.6085
  30   2.0000      -0.850803       -23.1515
  31   2.0000      -0.828740       -22.5512
  32   2.0000      -0.812110       -22.0986
  33   2.0000      -0.743215       -20.2239
  34   2.0000      -0.698339       -19.0028
  35   2.0000      -0.694798       -18.9064
  36   2.0000      -0.677782       -18.4434
  37   2.0000      -0.671419       -18.2702
  38   2.0000      -0.663607       -18.0577
  39   2.0000      -0.635804       -17.3011
  40   2.0000      -0.619473       -16.8567
  41   2.0000      -0.596638       -16.2354
  42   2.0000      -0.587308       -15.9815
  43   2.0000      -0.581274       -15.8173
  44   2.0000      -0.571069       -15.5396
  45   2.0000      -0.545914       -14.8551
  46   2.0000      -0.539474       -14.6798
  47   2.0000      -0.536107       -14.5882
  48   2.0000      -0.524527       -14.2731
  49   2.0000      -0.517390       -14.0789
  50   2.0000      -0.508747       -13.8437
  51   2.0000      -0.501843       -13.6558
  52   2.0000      -0.496812       -13.5189
  53   2.0000      -0.494299       -13.4506
  54   2.0000      -0.486714       -13.2442
  55   2.0000      -0.483975       -13.1696
  56   2.0000      -0.467419       -12.7191
  57   2.0000      -0.462566       -12.5870
  58   2.0000      -0.446196       -12.1416
  59   2.0000      -0.443038       -12.0557
  60   2.0000      -0.438813       -11.9407
  61   2.0000      -0.436812       -11.8863
  62   2.0000      -0.429931       -11.6990
  63   2.0000      -0.406186       -11.0529
  64   2.0000      -0.399510       -10.8712
  65   2.0000      -0.364007        -9.9051
  66   2.0000      -0.359787        -9.7903
  67   2.0000      -0.352870        -9.6021
  68   2.0000      -0.349880        -9.5207
  69   2.0000      -0.319019        -8.6809
  70   2.0000      -0.315626        -8.5886
  71   2.0000      -0.314049        -8.5457
  72   2.0000      -0.306223        -8.3328
  73   2.0000      -0.299066        -8.1380
  74   0.0000      -0.003972        -0.1081
  75   0.0000      -0.000556        -0.0151
  76   0.0000       0.026321         0.7162
  77   0.0000       0.040431         1.1002
  78   0.0000       0.047692         1.2978

MULLIKEN ATOMIC CHARGES
-----------------------
   0 O :   -0.394288
   1 C :    0.545496
   2 O :   -0.585399
   3 H :    0.476531
   4 C :   -0.455431
   5 H :    0.274811
   6 H :    0.278082
   7 N :   -0.616138
   8 H :    0.405661
   9 C :    0.540909
  10 O :   -0.486724
  11 C :   -0.375297
  12 H :    0.272665
  13 H :    0.301292
  14 N :   -0.660809
  15 H :    0.396438
  16 C :    0.546900
  17 O :   -0.428859
  18 C :   -0.217964
  19 N :   -0.782661
  20 H :    0.345217
  21 H :    0.341889
  22 H :    0.268572
  23 C :   -0.514190
  24 H :    0.272700
  25 H :    0.236952
  26 C :    0.106334
  27 C :   -0.285844
  28 H :    0.264919
  29 C :   -0.248468
  30 H :    0.263517
  31 C :   -0.256722
  32 H :    0.265332
  33 C :   -0.225061
  34 H :    0.226481
  35 C :   -0.313347
  36 H :    0.216503
Sum of atomic charges:    0.0000000

LOEWDIN ATOMIC CHARGES
----------------------
   0 O :   -0.222727
   1 C :    0.119838
   2 O :   -0.295784
   3 H :    0.328816
   4 C :   -0.190234
   5 H :    0.154259
   6 H :    0.155163
   7 N :   -0.209979
   8 H :    0.274340
   9 C :    0.112633
  10 O :   -0.303779
  11 C :   -0.169351
  12 H :    0.154506
  13 H :    0.178313
  14 N :   -0.244077
  15 H :    0.270571
  16 C :    0.106413
  17 O :   -0.278356
  18 C :   -0.104847
  19 N :   -0.465093
  20 H :    0.231986
  21 H :    0.236855
  22 H :    0.147420
  23 C :   -0.227428
  24 H :    0.156434
  25 H :    0.134145
  26 C :   -0.062518
  27 C :   -0.140343
  28 H :    0.154699
  29 C :   -0.133046
  30 H :    0.153459
  31 C :   -0.142755
  32 H :    0.152677
  33 C :   -0.140431
  34 H :    0.138896
  35 C :   -0.162066
  36 H :    0.131394

  Mayer bond orders larger than 0.100000
B(  0-O ,  1-C ) :   2.0273 B(  1-C ,  2-O ) :   1.2184 B(  1-C ,  4-C ) :   0.9054
B(  2-O ,  3-H ) :   0.6353 B(  3-H , 10-O ) :   0.1349 B(  4-C ,  5-H ) :   0.8951
B(  4-C ,  6-H ) :   0.8828 B(  4-C ,  7-N ) :   0.9338 B(  7-N ,  8-H ) :   0.7696
B(  7-N ,  9-C ) :   1.2145 B(  9-C , 10-O ) :   1.8013 B(  9-C , 11-C ) :   0.9233
B( 11-C , 12-H ) :   0.8970 B( 11-C , 13-H ) :   0.8663 B( 11-C , 14-N ) :   0.9331
B( 14-N , 15-H ) :   0.7601 B( 14-N , 16-C ) :   1.1406 B( 16-C , 17-O ) :   1.9677
B( 16-C , 18-C ) :   0.8998 B( 18-C , 19-N ) :   1.0197 B( 18-C , 22-H ) :   0.8943
B( 18-C , 23-C ) :   0.9432 B( 19-N , 20-H ) :   0.8278 B( 19-N , 21-H ) :   0.8520
B( 23-C , 24-H ) :   0.8948 B( 23-C , 25-H ) :   0.9188 B( 23-C , 26-C ) :   0.9541
B( 26-C , 27-C ) :   1.3946 B( 26-C , 35-C ) :   1.3853 B( 27-C , 28-H ) :   0.8943
B( 27-C , 29-C ) :   1.4153 B( 29-C , 30-H ) :   0.9011 B( 29-C , 31-C ) :   1.4186
B( 31-C , 32-H ) :   0.8965 B( 31-C , 33-C ) :   1.4169 B( 33-C , 34-H ) :   0.9187
B( 33-C , 35-C ) :   1.4183 B( 35-C , 36-H ) :   0.9206

Dispersion correction           -0.028856205
FINAL SINGLE POINT ENERGY      -968.749503992320

DIPOLE MOMENT
-------------
                                X             Y             Z
Electronic contribution:     -8.94777      -2.51531       3.41709
Nuclear contribution   :     11.48150       2.52918      -5.52384
                        -----------------------------------------
Total Dipole Moment    :      2.53373       0.01387      -2.10675
                        -----------------------------------------
Magnitude (a.u.)       :      3.29520
Magnitude (Debye)      :      8.37573

Rotational constants in cm-1:     0.015886     0.009929     0.007226
Rotational constants in MHz :   476.256210   297.670973   216.643548

                             ****ORCA TERMINATED NORMALLY****
TOTAL RUN TIME: 0 days 0 hours 6 minutes 20 seconds 387 msec
