                         Program Version 5.0.3 -  RELEASE  -
|  1> ! PBEh-3c def2/J TightSCF DefGrid3
|  2>
|  3> %maxcore 60000
|  4>
|  5> %pal
|  6> nprocs 4
|  7> end
|  8>
|  9> *xyzfile 0 1 15.xyz
| 10>
| 11>                          ****END OF INPUT****

CARTESIAN COORDINATES (ANGSTROEM)
---------------------------------
  N      0.175879    2.641926   -0.740080
  N     -1.701135    1.953074    0.294426
  N     -1.522132    0.067309    2.675817
  N      0.782340    0.165009    2.357622
  N      1.837555    1.459288    0.605892
  N      1.172038   -0.412814   -2.112239
  N     -1.099115   -0.403301   -1.806371
  H     -1.342298   -0.724395    3.270430
  H     -2.395297    0.056263    2.173034
  H      2.802611    0.313927    2.011490
  H      0.757585    3.064891   -1.444779
  H      2.322455   -1.631993   -0.881206
  H      0.072348   -2.340521    1.664300
  H     -0.263592   -3.641957    0.529622
  H      1.407822   -3.122192    0.817038
  H     -1.762864    3.258116   -1.390419
  H     -2.004829   -0.015086   -2.032905
  H      1.981907   -0.040932   -2.579787
  C      0.254175   -1.788865   -0.387386
  C      0.378706   -2.782864    0.717794
  C     -0.593148    1.406522    0.895863
  C      0.591796    1.813072    0.272070
  C      1.831813    0.642374    1.662475
  C     -1.071894   -1.294726   -0.728308
  C     -0.449560    0.526557    1.982907
  C      1.309631   -1.318600   -1.089395
  C     -0.034953    0.115909   -2.510705
  C     -1.188280    2.680833   -0.685489
  O     -0.143210    0.957786   -3.387437
  O     -2.106352   -1.604610   -0.154274

 Total Charge           Charge          ....    0
 Multiplicity           Mult            ....    1
 Number of Electrons    NEL             ....  136
 Basis Dimension        Dim             ....  307

ORBITAL ENERGIES
----------------

  NO   OCC          E(Eh)            E(eV)
   0   2.0000     -19.479877      -530.0744
   1   2.0000     -19.475852      -529.9649
   2   2.0000     -14.710573      -400.2950
   3   2.0000     -14.710513      -400.2934
   4   2.0000     -14.694399      -399.8549
   5   2.0000     -14.653246      -398.7351
   6   2.0000     -14.643085      -398.4586
   7   2.0000     -14.641625      -398.4189
   8   2.0000     -14.632524      -398.1712
   9   2.0000     -10.605776      -288.5978
  10   2.0000     -10.569310      -287.6055
  11   2.0000     -10.537766      -286.7472
  12   2.0000     -10.525810      -286.4219
  13   2.0000     -10.524818      -286.3949
  14   2.0000     -10.524004      -286.3727
  15   2.0000     -10.514237      -286.1069
  16   2.0000     -10.473965      -285.0111
  17   2.0000     -10.469444      -284.8881
  18   2.0000     -10.439593      -284.0758
  19   2.0000      -1.192831       -32.4586
  20   2.0000      -1.155374       -31.4393
  21   2.0000      -1.151964       -31.3465
  22   2.0000      -1.088720       -29.6256
  23   2.0000      -1.086784       -29.5729
  24   2.0000      -1.040842       -28.3227
  25   2.0000      -1.030391       -28.0384
  26   2.0000      -0.989459       -26.9246
  27   2.0000      -0.959381       -26.1061
  28   2.0000      -0.913360       -24.8538
  29   2.0000      -0.857973       -23.3466
  30   2.0000      -0.800929       -21.7944
  31   2.0000      -0.760957       -20.7067
  32   2.0000      -0.748769       -20.3750
  33   2.0000      -0.744477       -20.2582
  34   2.0000      -0.733275       -19.9534
  35   2.0000      -0.709327       -19.3018
  36   2.0000      -0.652600       -17.7581
  37   2.0000      -0.642342       -17.4790
  38   2.0000      -0.637204       -17.3392
  39   2.0000      -0.617357       -16.7992
  40   2.0000      -0.586483       -15.9590
  41   2.0000      -0.581683       -15.8284
  42   2.0000      -0.565434       -15.3862
  43   2.0000      -0.562475       -15.3057
  44   2.0000      -0.540582       -14.7100
  45   2.0000      -0.523170       -14.2362
  46   2.0000      -0.521056       -14.1786
  47   2.0000      -0.509714       -13.8700
  48   2.0000      -0.502706       -13.6793
  49   2.0000      -0.495241       -13.4762
  50   2.0000      -0.492283       -13.3957
  51   2.0000      -0.484873       -13.1941
  52   2.0000      -0.461451       -12.5567
  53   2.0000      -0.461291       -12.5524
  54   2.0000      -0.455033       -12.3821
  55   2.0000      -0.443604       -12.0711
  56   2.0000      -0.422580       -11.4990
  57   2.0000      -0.404309       -11.0018
  58   2.0000      -0.384513       -10.4631
  59   2.0000      -0.359757        -9.7895
  60   2.0000      -0.352566        -9.5938
  61   2.0000      -0.347313        -9.4509
  62   2.0000      -0.334206        -9.0942
  63   2.0000      -0.327081        -8.9003
  64   2.0000      -0.315362        -8.5814
  65   2.0000      -0.311673        -8.4811
  66   2.0000      -0.283817        -7.7231
  67   2.0000      -0.264906        -7.2085
  68   0.0000      -0.014552        -0.3960
  69   0.0000      -0.003142        -0.0855
  70   0.0000       0.025364         0.6902
  71   0.0000       0.041439         1.1276
  72   0.0000       0.067373         1.8333

MULLIKEN ATOMIC CHARGES
-----------------------
   0 N :   -0.644832
   1 N :   -0.394658
   2 N :   -0.793262
   3 N :   -0.436379
   4 N :   -0.412887
   5 N :   -0.670144
   6 N :   -0.713085
   7 H :    0.365480
   8 H :    0.388348
   9 H :    0.224150
  10 H :    0.382683
  11 H :    0.267001
  12 H :    0.250682
  13 H :    0.244055
  14 H :    0.215382
  15 H :    0.253486
  16 H :    0.397651
  17 H :    0.388674
  18 C :   -0.154946
  19 C :   -0.675805
  20 C :    0.028866
  21 C :    0.456145
  22 C :    0.045068
  23 C :    0.569239
  24 C :    0.447390
  25 C :    0.047341
  26 C :    0.668445
  27 C :    0.101649
  28 O :   -0.440630
  29 O :   -0.405108
Sum of atomic charges:   -0.0000000

LOEWDIN ATOMIC CHARGES
----------------------
   0 N :   -0.139176
   1 N :   -0.181390
   2 N :   -0.341104
   3 N :   -0.214346
   4 N :   -0.206562
   5 N :   -0.179081
   6 N :   -0.189556
   7 H :    0.258533
   8 H :    0.270574
   9 H :    0.123079
  10 H :    0.278753
  11 H :    0.148796
  12 H :    0.145759
  13 H :    0.144826
  14 H :    0.132182
  15 H :    0.139798
  16 H :    0.286335
  17 H :    0.280861
  18 C :   -0.147264
  19 C :   -0.333031
  20 C :   -0.098665
  21 C :    0.041600
  22 C :    0.001410
  23 C :    0.127312
  24 C :    0.092429
  25 C :   -0.021348
  26 C :    0.135010
  27 C :   -0.009997
  28 O :   -0.288074
  29 O :   -0.257661

  Mayer bond orders larger than 0.100000
B(  0-N , 10-H ) :   0.8113 B(  0-N , 21-C ) :   1.0550 B(  0-N , 27-C ) :   1.1686
B(  1-N , 20-C ) :   1.2946 B(  1-N , 27-C ) :   1.6683 B(  2-N ,  7-H ) :   0.8297
B(  2-N ,  8-H ) :   0.8152 B(  2-N , 24-C ) :   1.1600 B(  3-N , 22-C ) :   1.4599
B(  3-N , 24-C ) :   1.4544 B(  4-N , 21-C ) :   1.4163 B(  4-N , 22-C ) :   1.5234
B(  5-N , 17-H ) :   0.8110 B(  5-N , 25-C ) :   1.0488 B(  5-N , 26-C ) :   1.0519
B(  6-N , 16-H ) :   0.7977 B(  6-N , 23-C ) :   0.9834 B(  6-N , 26-C ) :   1.0675
B(  9-H , 22-C ) :   0.9136 B( 11-H , 25-C ) :   0.9013 B( 12-H , 19-C ) :   0.8983
B( 13-H , 19-C ) :   0.9091 B( 14-H , 19-C ) :   0.9299 B( 15-H , 27-C ) :   0.9047
B( 18-C , 19-C ) :   0.9860 B( 18-C , 23-C ) :   1.0306 B( 18-C , 25-C ) :   1.6560
B( 20-C , 21-C ) :   1.2565 B( 20-C , 24-C ) :   1.1839 B( 23-C , 29-O ) :   2.0296
B( 26-C , 28-O ) :   2.0136

Dispersion correction           -0.025007669
FINAL SINGLE POINT ENERGY      -919.501513795977

DIPOLE MOMENT
-------------
                                X             Y             Z
Electronic contribution:     -1.44968       6.77753      -3.93776
Nuclear contribution   :      2.51754      -6.94725       3.35469
                        -----------------------------------------
Total Dipole Moment    :      1.06786      -0.16972      -0.58307
                        -----------------------------------------
Magnitude (a.u.)       :      1.22845
Magnitude (Debye)      :      3.12248

Rotational constants in cm-1:     0.017132     0.015418     0.012676
Rotational constants in MHz :   513.592301   462.217820   380.018856

                             ****ORCA TERMINATED NORMALLY****
TOTAL RUN TIME: 0 days 0 hours 4 minutes 58 seconds 219 msec
