                         Program Version 5.0.3 -  RELEASE  -
|  1> ! PBEh-3c def2/J TightSCF DefGrid3
|  2>
|  3> %maxcore 60000
|  4>
|  5> %pal
|  6> nprocs 4
|  7> end
|  8>
|  9> *xyzfile 0 1 21_benI-acetoneAB.xyz
| 10>
| 11>                          ****END OF INPUT****

CARTESIAN COORDINATES (ANGSTROEM)
---------------------------------
  C     -0.436020   -0.000001    1.035407
  C      0.589762   -0.000013    1.978500
  C      1.922247   -0.000006    1.571696
  C      2.228266   -0.000022    0.212569
  C      1.211087   -0.000006   -0.740154
  H     -1.469242   -0.000002    1.352225
  H      0.343101   -0.000008    3.031630
  H      2.714694    0.000012    2.307033
  H      3.260261   -0.000027   -0.111551
  H      1.450708   -0.000010   -1.793985
  C     -0.120403    0.000022   -0.323576
  I     -1.658224    0.000221   -1.738020
  O     -3.949940   -0.000143   -3.815897
  C     -3.800618    0.003771   -5.025812
  C     -2.413747    0.013929   -5.628841
  C     -5.004092   -0.001516   -5.942215
  H     -1.881038    0.891330   -5.265472
  H     -1.870078   -0.858483   -5.269712
  H     -2.420678    0.016521   -6.714123
  H     -5.616270    0.870128   -5.717411
  H     -5.605371   -0.881768   -5.721583
  H     -4.740047    0.002639   -6.994883

 Total Charge           Charge          ....    0
 Multiplicity           Mult            ....    1
 Number of Electrons    NEL             ....   98
 Basis Dimension        Dim             ....  198

ORBITAL ENERGIES
----------------

  NO   OCC          E(Eh)            E(eV)
   0   2.0000     -19.493963      -530.4577
   1   2.0000     -10.549118      -287.0561
   2   2.0000     -10.490050      -285.4488
   3   2.0000     -10.455428      -284.5067
   4   2.0000     -10.454746      -284.4881
   5   2.0000     -10.453911      -284.4654
   6   2.0000     -10.453527      -284.4549
   7   2.0000     -10.451605      -284.4026
   8   2.0000     -10.446454      -284.2625
   9   2.0000     -10.444560      -284.2109
  10   2.0000      -7.079502      -192.6430
  11   2.0000      -5.063087      -137.7736
  12   2.0000      -5.046296      -137.3167
  13   2.0000      -5.046162      -137.3131
  14   2.0000      -2.017045       -54.8866
  15   2.0000      -2.011562       -54.7374
  16   2.0000      -2.011513       -54.7361
  17   2.0000      -1.997087       -54.3435
  18   2.0000      -1.997082       -54.3434
  19   2.0000      -1.157467       -31.4963
  20   2.0000      -0.961161       -26.1545
  21   2.0000      -0.863231       -23.4897
  22   2.0000      -0.852494       -23.1975
  23   2.0000      -0.842253       -22.9189
  24   2.0000      -0.805826       -21.9276
  25   2.0000      -0.752785       -20.4843
  26   2.0000      -0.687841       -18.7171
  27   2.0000      -0.662965       -18.0402
  28   2.0000      -0.611305       -16.6345
  29   2.0000      -0.582762       -15.8578
  30   2.0000      -0.531191       -14.4544
  31   2.0000      -0.526606       -14.3297
  32   2.0000      -0.523683       -14.2501
  33   2.0000      -0.520108       -14.1529
  34   2.0000      -0.517524       -14.0826
  35   2.0000      -0.487507       -13.2657
  36   2.0000      -0.469718       -12.7817
  37   2.0000      -0.468726       -12.7547
  38   2.0000      -0.454598       -12.3703
  39   2.0000      -0.439454       -11.9581
  40   2.0000      -0.432503       -11.7690
  41   2.0000      -0.406211       -11.0536
  42   2.0000      -0.401106       -10.9147
  43   2.0000      -0.377094       -10.2612
  44   2.0000      -0.331066        -9.0088
  45   2.0000      -0.313196        -8.5225
  46   2.0000      -0.297851        -8.1049
  47   2.0000      -0.293387        -7.9835
  48   2.0000      -0.264433        -7.1956
  49   0.0000       0.003338         0.0908
  50   0.0000       0.012400         0.3374
  51   0.0000       0.013819         0.3760
  52   0.0000       0.026404         0.7185
  53   0.0000       0.137453         3.7403

MULLIKEN ATOMIC CHARGES
-----------------------
   0 C :   -0.210797
   1 C :   -0.211046
   2 C :   -0.227197
   3 C :   -0.210953
   4 C :   -0.212184
   5 H :    0.243103
   6 H :    0.225244
   7 H :    0.223424
   8 H :    0.224047
   9 H :    0.236873
  10 C :   -0.198069
  11 I :    0.082039
  12 O :   -0.358752
  13 C :    0.367991
  14 C :   -0.747322
  15 C :   -0.737431
  16 H :    0.267692
  17 H :    0.267692
  18 H :    0.225013
  19 H :    0.263539
  20 H :    0.263550
  21 H :    0.223542
Sum of atomic charges:    0.0000000

LOEWDIN ATOMIC CHARGES
----------------------
   0 C :   -0.141338
   1 C :   -0.129393
   2 C :   -0.137077
   3 C :   -0.130202
   4 C :   -0.143123
   5 H :    0.145501
   6 H :    0.139115
   7 H :    0.137759
   8 H :    0.138522
   9 H :    0.142974
  10 C :   -0.184211
  11 I :    0.129665
  12 O :   -0.204967
  13 C :    0.114598
  14 C :   -0.400494
  15 C :   -0.395665
  16 H :    0.163731
  17 H :    0.163725
  18 H :    0.133282
  19 H :    0.162008
  20 H :    0.162011
  21 H :    0.133579

  Mayer bond orders larger than 0.100000
B(  0-C ,  1-C ) :   1.4328 B(  0-C ,  5-H ) :   0.9110 B(  0-C , 10-C ) :   1.3750
B(  1-C ,  2-C ) :   1.4216 B(  1-C ,  6-H ) :   0.9173 B(  2-C ,  3-C ) :   1.4222
B(  2-C ,  7-H ) :   0.9187 B(  3-C ,  4-C ) :   1.4325 B(  3-C ,  8-H ) :   0.9176
B(  4-C ,  9-H ) :   0.9136 B(  4-C , 10-C ) :   1.3751 B( 10-C , 11-I ) :   1.0158
B( 12-O , 13-C ) :   2.0572 B( 13-C , 14-C ) :   0.9402 B( 13-C , 15-C ) :   0.9359
B( 14-C , 16-H ) :   0.9040 B( 14-C , 17-H ) :   0.9040 B( 14-C , 18-H ) :   0.9183
B( 15-C , 19-H ) :   0.9076 B( 15-C , 20-H ) :   0.9075 B( 15-C , 21-H ) :   0.9200

Dispersion correction           -0.011686452
FINAL SINGLE POINT ENERGY      -721.609756164533

DIPOLE MOMENT
-------------
                                X             Y             Z
Electronic contribution:    -19.81692      -0.07996      12.84797
Nuclear contribution   :     20.04358       0.08363     -13.86666
                        -----------------------------------------
Total Dipole Moment    :      0.22666       0.00367      -1.01869
                        -----------------------------------------
Magnitude (a.u.)       :      1.04361
Magnitude (Debye)      :      2.65265

Rotational constants in cm-1:     0.106567     0.008543     0.007932
Rotational constants in MHz :  3194.792679   256.122108   237.803025

                             ****ORCA TERMINATED NORMALLY****
TOTAL RUN TIME: 0 days 0 hours 2 minutes 58 seconds 564 msec
