                         Program Version 5.0.3 -  RELEASE  -
|  1> ! PBEh-3c def2/J TightSCF DefGrid3
|  2>
|  3> %maxcore 60000
|  4>
|  5> %pal
|  6> nprocs 4
|  7> end
|  8>
|  9> *xyzfile 0 1 5c.xyz
| 10>
| 11>                          ****END OF INPUT****

CARTESIAN COORDINATES (ANGSTROEM)
---------------------------------
  N     -0.436933   -1.177921    0.000000
  C     -1.188048   -0.000852    0.000000
  C     -0.383498    1.208470    0.000000
  C      0.957704    1.117702    0.000000
  N      1.598368   -0.096841    0.000000
  C      0.928857   -1.308527    0.000000
  N     -2.463809   -0.118926    0.000000
  O      1.507370   -2.375894    0.000000
  H     -0.868783    2.169912    0.000000
  H      1.599454    1.985232    0.000000
  H     -2.893273    0.800639    0.000000
  H     -0.958226   -2.041854    0.000000
  H      2.600818   -0.161141    0.000000

 Total Charge           Charge          ....    0
 Multiplicity           Mult            ....    1
 Number of Electrons    NEL             ....   58
 Basis Dimension        Dim             ....  130

ORBITAL ENERGIES
----------------

  NO   OCC          E(Eh)            E(eV)
   0   2.0000     -19.471812      -529.8549
   1   2.0000     -14.705170      -400.1480
   2   2.0000     -14.685009      -399.5994
   3   2.0000     -14.606209      -397.4552
   4   2.0000     -10.598035      -288.3872
   5   2.0000     -10.537830      -286.7489
   6   2.0000     -10.528614      -286.4981
   7   2.0000     -10.465749      -284.7875
   8   2.0000      -1.185295       -32.2535
   9   2.0000      -1.092813       -29.7370
  10   2.0000      -1.056124       -28.7386
  11   2.0000      -0.972877       -26.4733
  12   2.0000      -0.886301       -24.1175
  13   2.0000      -0.768120       -20.9016
  14   2.0000      -0.738950       -20.1078
  15   2.0000      -0.671186       -18.2639
  16   2.0000      -0.626352       -17.0439
  17   2.0000      -0.585152       -15.9228
  18   2.0000      -0.552470       -15.0335
  19   2.0000      -0.540942       -14.7198
  20   2.0000      -0.517383       -14.0787
  21   2.0000      -0.506265       -13.7762
  22   2.0000      -0.475827       -12.9479
  23   2.0000      -0.437076       -11.8935
  24   2.0000      -0.421880       -11.4799
  25   2.0000      -0.346438        -9.4270
  26   2.0000      -0.329350        -8.9621
  27   2.0000      -0.314893        -8.5687
  28   2.0000      -0.276611        -7.5270
  29   0.0000      -0.011155        -0.3036
  30   0.0000       0.052733         1.4349
  31   0.0000       0.102496         2.7891
  32   0.0000       0.159271         4.3340
  33   0.0000       0.164739         4.4828

MULLIKEN ATOMIC CHARGES
-----------------------
   0 N :   -0.704472
   1 C :    0.446033
   2 C :   -0.419547
   3 C :    0.074813
   4 N :   -0.686881
   5 C :    0.672739
   6 N :   -0.561463
   7 O :   -0.421802
   8 H :    0.246748
   9 H :    0.265200
  10 H :    0.303321
  11 H :    0.396547
  12 H :    0.388766
Sum of atomic charges:    0.0000000

LOEWDIN ATOMIC CHARGES
----------------------
   0 N :   -0.191620
   1 C :    0.058689
   2 C :   -0.241104
   3 C :   -0.022274
   4 N :   -0.199216
   5 C :    0.143459
   6 N :   -0.369530
   7 O :   -0.268186
   8 H :    0.152259
   9 H :    0.146904
  10 H :    0.225057
  11 H :    0.286130
  12 H :    0.279430

  Mayer bond orders larger than 0.100000
B(  0-N ,  1-C ) :   0.9757 B(  0-N ,  5-C ) :   1.0923 B(  0-N , 11-H ) :   0.7984
B(  1-C ,  2-C ) :   1.0510 B(  1-C ,  6-N ) :   2.0088 B(  2-C ,  3-C ) :   1.6790
B(  2-C ,  8-H ) :   0.9117 B(  3-C ,  4-N ) :   1.0627 B(  3-C ,  9-H ) :   0.9002
B(  4-N ,  5-C ) :   1.0177 B(  4-N , 12-H ) :   0.8108 B(  5-C ,  7-O ) :   2.0397
B(  6-N , 10-H ) :   0.8571

Dispersion correction           -0.006923739
FINAL SINGLE POINT ENERGY      -394.080891548446

DIPOLE MOMENT
-------------
                                X             Y             Z
Electronic contribution:      1.62118      -2.61010       0.00000
Nuclear contribution   :     -0.86094       4.34809       0.00000
                        -----------------------------------------
Total Dipole Moment    :      0.76024       1.73799       0.00000
                        -----------------------------------------
Magnitude (a.u.)       :      1.89699
Magnitude (Debye)      :      4.82176

Rotational constants in cm-1:     0.129181     0.067783     0.044456
Rotational constants in MHz :  3872.734919  2032.080400  1332.761196

                             ****ORCA TERMINATED NORMALLY****
TOTAL RUN TIME: 0 days 0 hours 1 minutes 47 seconds 546 msec
