                         Program Version 5.0.3 -  RELEASE  -
|  1> ! PBEh-3c def2/J TightSCF DefGrid3
|  2>
|  3> %maxcore 60000
|  4>
|  5> %pal
|  6> nprocs 4
|  7> end
|  8>
|  9> *xyzfile 0 1 foof.xyz
| 10>
| 11>                          ****END OF INPUT****

CARTESIAN COORDINATES (ANGSTROEM)
---------------------------------
  F     -1.488113   -0.479884    0.104832
  O     -0.483980    0.569836   -0.382751
  O      0.483980    0.569836    0.382751
  F      1.488113   -0.479884   -0.104832

 Total Charge           Charge          ....    0
 Multiplicity           Mult            ....    1
 Number of Electrons    NEL             ....   34
 Basis Dimension        Dim             ....   60

ORBITAL ENERGIES
----------------

  NO   OCC          E(Eh)            E(eV)
   0   2.0000     -25.144570      -684.2185
   1   2.0000     -25.144559      -684.2182
   2   2.0000     -19.754007      -537.5338
   3   2.0000     -19.753879      -537.5304
   4   2.0000      -1.499086       -40.7922
   5   2.0000      -1.330219       -36.1971
   6   2.0000      -1.275652       -34.7122
   7   2.0000      -0.968410       -26.3518
   8   2.0000      -0.711996       -19.3744
   9   2.0000      -0.684458       -18.6251
  10   2.0000      -0.675417       -18.3790
  11   2.0000      -0.528215       -14.3735
  12   2.0000      -0.526196       -14.3185
  13   2.0000      -0.505434       -13.7536
  14   2.0000      -0.493062       -13.4169
  15   2.0000      -0.444138       -12.0856
  16   2.0000      -0.438249       -11.9254
  17   0.0000      -0.098378        -2.6770
  18   0.0000      -0.095719        -2.6046
  19   0.0000       0.181017         4.9257
  20   0.0000       0.747634        20.3442
  21   0.0000       0.804150        21.8820

MULLIKEN ATOMIC CHARGES
-----------------------
   0 F :   -0.206730
   1 O :    0.206730
   2 O :    0.206730
   3 F :   -0.206730
Sum of atomic charges:   -0.0000000

LOEWDIN ATOMIC CHARGES
----------------------
   0 F :   -0.205525
   1 O :    0.205525
   2 O :    0.205525
   3 F :   -0.205525

  Mayer bond orders larger than 0.100000
B(  0-F ,  1-O ) :   0.8323 B(  0-F ,  2-O ) :   0.1501 B(  1-O ,  2-O ) :   1.3707
B(  1-O ,  3-F ) :   0.1501 B(  2-O ,  3-F ) :   0.8323

Dispersion correction           -0.000589798
FINAL SINGLE POINT ENERGY      -349.103112375251

DIPOLE MOMENT
-------------
                                X             Y             Z
Electronic contribution:      0.00000      -0.46559       0.00000
Nuclear contribution   :      0.00000       0.90611       0.00000
                        -----------------------------------------
Total Dipole Moment    :      0.00000       0.44052       0.00000
                        -----------------------------------------
Magnitude (a.u.)       :      0.44052
Magnitude (Debye)      :      1.11972

Rotational constants in cm-1:     0.695292     0.174254     0.152177
Rotational constants in MHz : 20844.325189  5224.007201  4562.144781

                             ****ORCA TERMINATED NORMALLY****
TOTAL RUN TIME: 0 days 0 hours 0 minutes 20 seconds 243 msec
