                         Program Version 5.0.3 -  RELEASE  -
|  1> ! PBEh-3c def2/J TightSCF DefGrid3
|  2>
|  3> %maxcore 60000
|  4>
|  5> %pal
|  6> nprocs 4
|  7> end
|  8>
|  9> *xyzfile 0 1 P23.xyz
| 10>
| 11>                          ****END OF INPUT****

CARTESIAN COORDINATES (ANGSTROEM)
---------------------------------
  N     -1.316408    0.335117    0.093305
  C     -1.374251   -1.093684   -0.223885
  C     -0.160972   -1.894792    0.267935
  C      1.141491   -1.251025   -0.220840
  C      1.189078    0.238682    0.142030
  C     -0.069934    0.979209   -0.345104
  C     -0.077284    2.444920    0.075455
  H     -1.430437    0.470341    1.094325
  H     -2.301426   -1.498973    0.189209
  H     -1.450787   -1.187454   -1.313833
  H     -0.231069   -2.932407   -0.074721
  H     -0.167969   -1.921858    1.364477
  H      2.008519   -1.772453    0.194562
  H      1.207868   -1.357936   -1.310577
  H      2.084146    0.704963   -0.283120
  H      1.262157    0.349780    1.231802
  H     -0.076867    0.936801   -1.442703
  H     -0.084606    2.536089    1.166774
  H      0.811258    2.962920   -0.292749
  H     -0.962508    2.951760   -0.312343

 Total Charge           Charge          ....    0
 Multiplicity           Mult            ....    1
 Number of Electrons    NEL             ....   56
 Basis Dimension        Dim             ....  131

ORBITAL ENERGIES
----------------

  NO   OCC          E(Eh)            E(eV)
   0   2.0000     -14.608210      -397.5096
   1   2.0000     -10.460471      -284.6439
   2   2.0000     -10.451929      -284.4115
   3   2.0000     -10.430664      -283.8328
   4   2.0000     -10.427735      -283.7531
   5   2.0000     -10.426810      -283.7279
   6   2.0000     -10.420594      -283.5588
   7   2.0000      -1.001181       -27.2435
   8   2.0000      -0.867662       -23.6103
   9   2.0000      -0.854005       -23.2387
  10   2.0000      -0.767056       -20.8727
  11   2.0000      -0.701911       -19.1000
  12   2.0000      -0.665955       -18.1216
  13   2.0000      -0.634887       -17.2762
  14   2.0000      -0.534057       -14.5324
  15   2.0000      -0.515400       -14.0247
  16   2.0000      -0.509041       -13.8517
  17   2.0000      -0.491516       -13.3748
  18   2.0000      -0.476589       -12.9687
  19   2.0000      -0.446882       -12.1603
  20   2.0000      -0.423029       -11.5112
  21   2.0000      -0.417034       -11.3481
  22   2.0000      -0.410248       -11.1634
  23   2.0000      -0.386027       -10.5043
  24   2.0000      -0.379201       -10.3186
  25   2.0000      -0.364916        -9.9299
  26   2.0000      -0.357782        -9.7357
  27   2.0000      -0.258190        -7.0257
  28   0.0000       0.131763         3.5854
  29   0.0000       0.159525         4.3409
  30   0.0000       0.161322         4.3898
  31   0.0000       0.178729         4.8635
  32   0.0000       0.191570         5.2129

MULLIKEN ATOMIC CHARGES
-----------------------
   0 N :   -0.537908
   1 C :   -0.293470
   2 C :   -0.427389
   3 C :   -0.425844
   4 C :   -0.405764
   5 C :   -0.088187
   6 C :   -0.638832
   7 H :    0.302312
   8 H :    0.219560
   9 H :    0.205158
  10 H :    0.214097
  11 H :    0.198117
  12 H :    0.221076
  13 H :    0.203704
  14 H :    0.211619
  15 H :    0.192012
  16 H :    0.202755
  17 H :    0.197723
  18 H :    0.213064
  19 H :    0.236198
Sum of atomic charges:   -0.0000000

LOEWDIN ATOMIC CHARGES
----------------------
   0 N :   -0.325316
   1 C :   -0.160254
   2 C :   -0.260261
   3 C :   -0.241930
   4 C :   -0.251416
   5 C :   -0.084106
   6 C :   -0.357600
   7 H :    0.221033
   8 H :    0.120421
   9 H :    0.115596
  10 H :    0.124813
  11 H :    0.116363
  12 H :    0.124277
  13 H :    0.119316
  14 H :    0.124315
  15 H :    0.116140
  16 H :    0.114375
  17 H :    0.120508
  18 H :    0.128046
  19 H :    0.135682

  Mayer bond orders larger than 0.100000
B(  0-N ,  1-C ) :   1.0376 B(  0-N ,  5-C ) :   1.0161 B(  0-N ,  7-H ) :   0.8478
B(  1-C ,  2-C ) :   0.9560 B(  1-C ,  8-H ) :   0.9283 B(  1-C ,  9-H ) :   0.9138
B(  2-C ,  3-C ) :   0.9833 B(  2-C , 10-H ) :   0.9200 B(  2-C , 11-H ) :   0.9203
B(  3-C ,  4-C ) :   0.9864 B(  3-C , 12-H ) :   0.9278 B(  3-C , 13-H ) :   0.9185
B(  4-C ,  5-C ) :   0.9491 B(  4-C , 14-H ) :   0.9197 B(  4-C , 15-H ) :   0.9175
B(  5-C ,  6-C ) :   1.0000 B(  5-C , 16-H ) :   0.8994 B(  6-C , 17-H ) :   0.9270
B(  6-C , 18-H ) :   0.9283 B(  6-C , 19-H ) :   0.9234

Dispersion correction           -0.010324873
FINAL SINGLE POINT ENERGY      -290.587004069589

DIPOLE MOMENT
-------------
                                X             Y             Z
Electronic contribution:     -1.54551      -0.65214      -0.23095
Nuclear contribution   :      1.84764       0.47321       0.46143
                        -----------------------------------------
Total Dipole Moment    :      0.30212      -0.17893       0.23048
                        -----------------------------------------
Magnitude (a.u.)       :      0.42002
Magnitude (Debye)      :      1.06760

Rotational constants in cm-1:     0.143431     0.075078     0.054286
Rotational constants in MHz :  4299.958512  2250.776693  1627.463820

                             ****ORCA TERMINATED NORMALLY****
TOTAL RUN TIME: 0 days 0 hours 1 minutes 29 seconds 41 msec
