                         Program Version 5.0.3 -  RELEASE  -
|  1> ! PBEh-3c def2/J TightSCF DefGrid3
|  2>
|  3> %maxcore 60000
|  4>
|  5> %pal
|  6> nprocs 4
|  7> end
|  8>
|  9> *xyzfile 1 2 IP_72.xyz
| 10>
| 11>                          ****END OF INPUT****

CARTESIAN COORDINATES (ANGSTROEM)
---------------------------------
  C      0.000000    0.000000    0.694190
  C      0.000000    0.000000   -0.694190
  H     -0.903393    0.230204   -1.256636
  H      0.903393   -0.230204   -1.256636
  H      0.903393    0.230204    1.256636
  H     -0.903393   -0.230204    1.256636

 Total Charge           Charge          ....    1
 Multiplicity           Mult            ....    2
 Number of Electrons    NEL             ....   15
 Basis Dimension        Dim             ....   38

ORBITAL ENERGIES
----------------
                 SPIN UP ORBITALS
  NO   OCC          E(Eh)            E(eV)
   0   1.0000     -10.798318      -293.8372
   1   1.0000     -10.797664      -293.8194
   2   1.0000      -1.187370       -32.3100
   3   1.0000      -0.971151       -26.4264
   4   1.0000      -0.838984       -22.8299
   5   1.0000      -0.795287       -21.6409
   6   1.0000      -0.737385       -20.0653
   7   1.0000      -0.642083       -17.4720
   8   0.0000      -0.320315        -8.7162
   9   0.0000      -0.080706        -2.1961
  10   0.0000      -0.059537        -1.6201
  11   0.0000      -0.058340        -1.5875
  12   0.0000       0.038093         1.0366

                 SPIN DOWN ORBITALS
  NO   OCC          E(Eh)            E(eV)
   0   1.0000     -10.790377      -293.6211
   1   1.0000     -10.789835      -293.6063
   2   1.0000      -1.145790       -31.1785
   3   1.0000      -0.948885       -25.8205
   4   1.0000      -0.823601       -22.4113
   5   1.0000      -0.783608       -21.3231
   6   1.0000      -0.728159       -19.8142
   7   0.0000      -0.424878       -11.5615
   8   0.0000      -0.245870        -6.6905
   9   0.0000      -0.072816        -1.9814
  10   0.0000      -0.051181        -1.3927
  11   0.0000      -0.043710        -1.1894

MULLIKEN ATOMIC CHARGES AND SPIN POPULATIONS
--------------------------------------------
   0 C :   -0.244818    0.529217
   1 C :   -0.244818    0.529217
   2 H :    0.372409   -0.014609
   3 H :    0.372409   -0.014609
   4 H :    0.372409   -0.014609
   5 H :    0.372409   -0.014609
Sum of atomic charges         :    1.0000000

LOEWDIN ATOMIC CHARGES AND SPIN POPULATIONS
-------------------------------------------
   0 C :    0.065463    0.504509
   1 C :    0.065463    0.504509
   2 H :    0.217269   -0.002254
   3 H :    0.217269   -0.002254
   4 H :    0.217269   -0.002254
   5 H :    0.217269   -0.002254

  Mayer bond orders larger than 0.100000
B(  0-C ,  1-C ) :   1.4298 B(  0-C ,  4-H ) :   0.8484 B(  0-C ,  5-H ) :   0.8484
B(  1-C ,  2-H ) :   0.8484 B(  1-C ,  3-H ) :   0.8484

Dispersion correction           -0.001294462
FINAL SINGLE POINT ENERGY       -78.026138056086

DIPOLE MOMENT
-------------
                                X             Y             Z
Electronic contribution:     -0.00000       0.00000       0.00000
Nuclear contribution   :      0.00000       0.00000       0.00000
                        -----------------------------------------
Total Dipole Moment    :     -0.00000       0.00000       0.00000
                        -----------------------------------------
Magnitude (a.u.)       :      0.00000
Magnitude (Debye)      :      0.00000

Rotational constants in cm-1:     4.810612     0.928441     0.793904
Rotational constants in MHz : 144218.525967 27833.970155 23800.649779

                             ****ORCA TERMINATED NORMALLY****
TOTAL RUN TIME: 0 days 0 hours 0 minutes 14 seconds 16 msec
