                         Program Version 5.0.3 -  RELEASE  -
|  1> ! PBEh-3c def2/J TightSCF DefGrid3
|  2>
|  3> %maxcore 60000
|  4>
|  5> %pal
|  6> nprocs 4
|  7> end
|  8>
|  9> *xyzfile 0 1 CO.xyz
| 10>
| 11>                          ****END OF INPUT****

CARTESIAN COORDINATES (ANGSTROEM)
---------------------------------
  C      0.000000    0.000000   -0.568217
  O      0.000000    0.000000    0.568217

 Total Charge           Charge          ....    0
 Multiplicity           Mult            ....    1
 Number of Electrons    NEL             ....   14
 Basis Dimension        Dim             ....   30

ORBITAL ENERGIES
----------------

  NO   OCC          E(Eh)            E(eV)
   0   2.0000     -19.605588      -533.4952
   1   2.0000     -10.570432      -287.6361
   2   2.0000      -1.273609       -34.6567
   3   2.0000      -0.648039       -17.6340
   4   2.0000      -0.530793       -14.4436
   5   2.0000      -0.530793       -14.4436
   6   2.0000      -0.433515       -11.7965
   7   0.0000       0.012578         0.3423
   8   0.0000       0.012578         0.3423
   9   0.0000       0.286152         7.7866
  10   0.0000       0.507358        13.8059
  11   0.0000       0.507358        13.8059

MULLIKEN ATOMIC CHARGES
-----------------------
   0 C :    0.146107
   1 O :   -0.146107
Sum of atomic charges:    0.0000000

LOEWDIN ATOMIC CHARGES
----------------------
   0 C :   -0.015602
   1 O :    0.015602

  Mayer bond orders larger than 0.100000
B(  0-C ,  1-O ) :   2.4931

Dispersion correction           -0.000210078
FINAL SINGLE POINT ENERGY      -113.065758280775

DIPOLE MOMENT
-------------
                                X             Y             Z
Electronic contribution:      0.00000       0.00000      -0.00814
Nuclear contribution   :      0.00000       0.00000       0.00721
                        -----------------------------------------
Total Dipole Moment    :      0.00000       0.00000      -0.00093
                        -----------------------------------------
Magnitude (a.u.)       :      0.00093
Magnitude (Debye)      :      0.00237

Rotational constants in cm-1:     0.000000     1.902610     1.902610
Rotational constants in MHz :     0.000000 57038.825735 57038.825735

                             ****ORCA TERMINATED NORMALLY****
TOTAL RUN TIME: 0 days 0 hours 0 minutes 51 seconds 999 msec
