                         Program Version 5.0.3 -  RELEASE  -
|  1> ! PBEh-3c def2/J TightSCF DefGrid3
|  2>
|  3> %maxcore 60000
|  4>
|  5> %pal
|  6> nprocs 4
|  7> end
|  8>
|  9> *xyzfile -1 1 clch3clcomp.xyz
| 10>
| 11>                          ****END OF INPUT****

CARTESIAN COORDINATES (ANGSTROEM)
---------------------------------
  Cl     0.000000    0.000000   -2.218072
  C      0.000000    0.000000   -0.399666
  H     -0.512532    0.887731   -0.057714
  H     -0.512532   -0.887731   -0.057714
  H      1.025064    0.000000   -0.057714
  Cl     0.000000    0.000000    2.790881

 Total Charge           Charge          ....   -1
 Multiplicity           Mult            ....    1
 Number of Electrons    NEL             ....   44
 Basis Dimension        Dim             ....   57

ORBITAL ENERGIES
----------------

  NO   OCC          E(Eh)            E(eV)
   0   2.0000    -102.143600     -2779.4687
   1   2.0000    -101.925160     -2773.5246
   2   2.0000     -10.334375      -281.2126
   3   2.0000      -9.610920      -261.5264
   4   2.0000      -9.388738      -255.4805
   5   2.0000      -7.298132      -198.5923
   6   2.0000      -7.290704      -198.3901
   7   2.0000      -7.290704      -198.3901
   8   2.0000      -7.072164      -192.4434
   9   2.0000      -7.071541      -192.4264
  10   2.0000      -7.071541      -192.4264
  11   2.0000      -0.789022       -21.4704
  12   2.0000      -0.600713       -16.3462
  13   2.0000      -0.520264       -14.1571
  14   2.0000      -0.350266        -9.5312
  15   2.0000      -0.350265        -9.5312
  16   2.0000      -0.310601        -8.4519
  17   2.0000      -0.206965        -5.6318
  18   2.0000      -0.206964        -5.6318
  19   2.0000      -0.038369        -1.0441
  20   2.0000      -0.035998        -0.9795
  21   2.0000      -0.035995        -0.9795
  22   0.0000       0.230318         6.2673
  23   0.0000       0.317634         8.6433
  24   0.0000       0.355966         9.6863
  25   0.0000       0.355968         9.6864
  26   0.0000       0.634184        17.2570

MULLIKEN ATOMIC CHARGES
-----------------------
   0 Cl:   -0.267245
   1 C :   -0.618381
   2 H :    0.266253
   3 H :    0.266253
   4 H :    0.266250
   5 Cl:   -0.913131
Sum of atomic charges:   -1.0000000

LOEWDIN ATOMIC CHARGES
----------------------
   0 Cl:   -0.127097
   1 C :   -0.392383
   2 H :    0.144486
   3 H :    0.144486
   4 H :    0.144485
   5 Cl:   -0.913976

  Mayer bond orders larger than 0.100000
B(  0-Cl,  1-C ) :   0.8920 B(  1-C ,  2-H ) :   0.8957 B(  1-C ,  3-H ) :   0.8957
B(  1-C ,  4-H ) :   0.8957

Dispersion correction           -0.001822877
FINAL SINGLE POINT ENERGY      -959.280533252237

DIPOLE MOMENT
-------------
                                X             Y             Z
Electronic contribution:      0.00000      -0.00000      -2.23988
Nuclear contribution   :      0.00000       0.00000      -0.95448
                        -----------------------------------------
Total Dipole Moment    :      0.00000      -0.00000      -3.19436
                        -----------------------------------------
Magnitude (a.u.)       :      3.19436
Magnitude (Debye)      :      8.11941

Rotational constants in cm-1:     5.305340     0.037349     0.037349
Rotational constants in MHz : 159050.098436  1119.708651  1119.708650

                             ****ORCA TERMINATED NORMALLY****
TOTAL RUN TIME: 0 days 0 hours 1 minutes 9 seconds 80 msec
