                         Program Version 5.0.3 -  RELEASE  -
|  1> ! PBEh-3c def2/J TightSCF DefGrid3
|  2>
|  3> %maxcore 60000
|  4>
|  5> %pal
|  6> nprocs 4
|  7> end
|  8>
|  9> *xyzfile 0 1 reac1.xyz
| 10>
| 11>                          ****END OF INPUT****

CARTESIAN COORDINATES (ANGSTROEM)
---------------------------------
  C      0.000000    0.421035    0.000000
  H     -0.383063    1.448042    0.000000
  H     -0.659556   -1.343644    0.000000
  O      1.158518    0.117088    0.000000
  O     -1.028191   -0.445914    0.000000

 Total Charge           Charge          ....    0
 Multiplicity           Mult            ....    1
 Number of Electrons    NEL             ....   24
 Basis Dimension        Dim             ....   49

ORBITAL ENERGIES
----------------

  NO   OCC          E(Eh)            E(eV)
   0   2.0000     -19.555219      -532.1246
   1   2.0000     -19.500351      -530.6315
   2   2.0000     -10.588394      -288.1249
   3   2.0000      -1.231214       -33.5030
   4   2.0000      -1.140605       -31.0374
   5   2.0000      -0.746208       -20.3054
   6   2.0000      -0.592043       -16.1103
   7   2.0000      -0.563720       -15.3396
   8   2.0000      -0.516296       -14.0491
   9   2.0000      -0.472963       -12.8700
  10   2.0000      -0.389736       -10.6053
  11   2.0000      -0.352347        -9.5878
  12   0.0000       0.036341         0.9889
  13   0.0000       0.124053         3.3757
  14   0.0000       0.192853         5.2478
  15   0.0000       0.300514         8.1774
  16   0.0000       0.322446         8.7742

MULLIKEN ATOMIC CHARGES
-----------------------
   0 C :    0.298130
   1 H :    0.192733
   2 H :    0.441846
   3 O :   -0.366282
   4 O :   -0.566426
Sum of atomic charges:    0.0000000

LOEWDIN ATOMIC CHARGES
----------------------
   0 C :    0.091481
   1 H :    0.097116
   2 H :    0.331482
   3 O :   -0.216606
   4 O :   -0.303472

  Mayer bond orders larger than 0.100000
B(  0-C ,  1-H ) :   0.8676 B(  0-C ,  3-O ) :   2.0721 B(  0-C ,  4-O ) :   1.1599
B(  2-H ,  4-O ) :   0.7588

Dispersion correction           -0.000999522
FINAL SINGLE POINT ENERGY      -189.358505483865

DIPOLE MOMENT
-------------
                                X             Y             Z
Electronic contribution:      0.44798      -0.26376      -0.00000
Nuclear contribution   :     -1.01906       0.09716       0.00000
                        -----------------------------------------
Total Dipole Moment    :     -0.57108      -0.16659      -0.00000
                        -----------------------------------------
Magnitude (a.u.)       :      0.59488
Magnitude (Debye)      :      1.51206

Rotational constants in cm-1:     2.601551     0.402010     0.348204
Rotational constants in MHz : 77992.545636 12051.968914 10438.878373

                             ****ORCA TERMINATED NORMALLY****
TOTAL RUN TIME: 0 days 0 hours 0 minutes 59 seconds 965 msec
