                         Program Version 5.0.3 -  RELEASE  -
|  1> ! PBEh-3c def2/J TightSCF DefGrid3
|  2>
|  3> %maxcore 60000
|  4>
|  5> %pal
|  6> nprocs 4
|  7> end
|  8>
|  9> *xyzfile 0 1 23.xyz
| 10>
| 11>                          ****END OF INPUT****

CARTESIAN COORDINATES (ANGSTROEM)
---------------------------------
  N      2.561814   -0.612108    0.000000
  H      3.107420   -0.372137    0.817638
  H      3.107420   -0.372137   -0.817638
  H      2.444121   -1.617674    0.000000
  P      0.125688    0.681169    0.000000
  C      0.000857   -0.471366    1.362961
  C     -1.622355    1.145604    0.000000
  C      0.000857   -0.471366   -1.362961
  N     -2.680734    1.591908    0.000000
  N      0.000857   -1.137959    2.297598
  N      0.000857   -1.137959   -2.297598

 Total Charge           Charge          ....    0
 Multiplicity           Mult            ....    1
 Number of Electrons    NEL             ....   64
 Basis Dimension        Dim             ....  129

ORBITAL ENERGIES
----------------

  NO   OCC          E(Eh)            E(eV)
   0   2.0000     -77.875933     -2119.1119
   1   2.0000     -14.686415      -399.6377
   2   2.0000     -14.686407      -399.6375
   3   2.0000     -14.679513      -399.4499
   4   2.0000     -14.663800      -399.0223
   5   2.0000     -10.522930      -286.3435
   6   2.0000     -10.522924      -286.3433
   7   2.0000     -10.511272      -286.0263
   8   2.0000      -6.941928      -188.8995
   9   2.0000      -5.032624      -136.9447
  10   2.0000      -5.032438      -136.9396
  11   2.0000      -5.030550      -136.8882
  12   2.0000      -1.051389       -28.6098
  13   2.0000      -1.045207       -28.4415
  14   2.0000      -1.038232       -28.2517
  15   2.0000      -0.995764       -27.0961
  16   2.0000      -0.869857       -23.6700
  17   2.0000      -0.643693       -17.5158
  18   2.0000      -0.631667       -17.1885
  19   2.0000      -0.572645       -15.5825
  20   2.0000      -0.571024       -15.5384
  21   2.0000      -0.498666       -13.5694
  22   2.0000      -0.467384       -12.7182
  23   2.0000      -0.464426       -12.6377
  24   2.0000      -0.462094       -12.5742
  25   2.0000      -0.444965       -12.1081
  26   2.0000      -0.443663       -12.0727
  27   2.0000      -0.424517       -11.5517
  28   2.0000      -0.418452       -11.3867
  29   2.0000      -0.417376       -11.3574
  30   2.0000      -0.386195       -10.5089
  31   2.0000      -0.354361        -9.6427
  32   0.0000      -0.044289        -1.2052
  33   0.0000      -0.028330        -0.7709
  34   0.0000       0.001500         0.0408
  35   0.0000       0.006461         0.1758
  36   0.0000       0.009560         0.2601

MULLIKEN ATOMIC CHARGES
-----------------------
   0 N :   -0.970165
   1 H :    0.356915
   2 H :    0.356915
   3 H :    0.361991
   4 P :    0.673727
   5 C :   -0.110450
   6 C :   -0.148670
   7 C :   -0.110451
   8 N :   -0.132339
   9 N :   -0.138736
  10 N :   -0.138736
Sum of atomic charges:    0.0000000

LOEWDIN ATOMIC CHARGES
----------------------
   0 N :   -0.600186
   1 H :    0.238588
   2 H :    0.238588
   3 H :    0.242749
   4 P :    0.490557
   5 C :   -0.161654
   6 C :   -0.187668
   7 C :   -0.161654
   8 N :   -0.028125
   9 N :   -0.035598
  10 N :   -0.035598

  Mayer bond orders larger than 0.100000
B(  0-N ,  1-H ) :   0.8527 B(  0-N ,  2-H ) :   0.8527 B(  0-N ,  3-H ) :   0.8481
B(  0-N ,  4-P ) :   0.1508 B(  4-P ,  5-C ) :   0.9437 B(  4-P ,  6-C ) :   0.8901
B(  4-P ,  7-C ) :   0.9437 B(  5-C ,  9-N ) :   3.0757 B(  6-C ,  8-N ) :   3.0652
B(  7-C , 10-N ) :   3.0757

Dispersion correction           -0.006375904
FINAL SINGLE POINT ENERGY      -675.253915637760

DIPOLE MOMENT
-------------
                                X             Y             Z
Electronic contribution:     -5.85466       3.10307       0.00000
Nuclear contribution   :      8.14149      -2.87792       0.00000
                        -----------------------------------------
Total Dipole Moment    :      2.28683       0.22515       0.00000
                        -----------------------------------------
Magnitude (a.u.)       :      2.29788
Magnitude (Debye)      :      5.84076

Rotational constants in cm-1:     0.067556     0.046192     0.033506
Rotational constants in MHz :  2025.276887  1384.813942  1004.486126

                             ****ORCA TERMINATED NORMALLY****
TOTAL RUN TIME: 0 days 0 hours 1 minutes 48 seconds 41 msec
