                         Program Version 5.0.3 -  RELEASE  -
|  1> ! PBEh-3c def2/J TightSCF DefGrid3
|  2>
|  3> %maxcore 60000
|  4>
|  5> %pal
|  6> nprocs 4
|  7> end
|  8>
|  9> *xyzfile 0 1 bithiophene_TS.xyz
| 10>
| 11>                          ****END OF INPUT****

CARTESIAN COORDINATES (ANGSTROEM)
---------------------------------
  C     -1.445277   -0.894579   -0.653036
  C     -2.828686   -0.890877   -0.368431
  C     -3.137507   -0.106330    0.698143
  S     -1.752714    0.627510    1.360031
  C     -0.719366   -0.116248    0.202518
  C      0.719366    0.116248    0.202518
  S      1.752714   -0.627510    1.360031
  C      3.137507    0.106330    0.698143
  C      2.828686    0.890877   -0.368431
  C      1.445277    0.894579   -0.653036
  H     -0.987312   -1.459305   -1.447104
  H     -3.559525   -1.452164   -0.924995
  H     -4.103254    0.074601    1.132874
  H      4.103254   -0.074601    1.132874
  H      3.559525    1.452164   -0.924995
  H      0.987312    1.459305   -1.447104

 Total Charge           Charge          ....    0
 Multiplicity           Mult            ....    1
 Number of Electrons    NEL             ....   86
 Basis Dimension        Dim             ....  168

ORBITAL ENERGIES
----------------

  NO   OCC          E(Eh)            E(eV)
   0   2.0000     -89.618306     -2438.6381
   1   2.0000     -89.618284     -2438.6375
   2   2.0000     -10.486493      -285.3520
   3   2.0000     -10.486138      -285.3423
   4   2.0000     -10.473396      -284.9956
   5   2.0000     -10.473391      -284.9955
   6   2.0000     -10.451963      -284.4124
   7   2.0000     -10.451933      -284.4116
   8   2.0000     -10.450859      -284.3823
   9   2.0000     -10.450859      -284.3823
  10   2.0000      -8.258260      -224.7187
  11   2.0000      -8.258244      -224.7182
  12   2.0000      -6.148327      -167.3045
  13   2.0000      -6.148319      -167.3043
  14   2.0000      -6.144867      -167.2103
  15   2.0000      -6.144866      -167.2103
  16   2.0000      -6.142925      -167.1575
  17   2.0000      -6.142917      -167.1573
  18   2.0000      -1.003663       -27.3110
  19   2.0000      -0.981408       -26.7055
  20   2.0000      -0.859074       -23.3766
  21   2.0000      -0.828543       -22.5458
  22   2.0000      -0.825170       -22.4540
  23   2.0000      -0.788794       -21.4642
  24   2.0000      -0.670882       -18.2556
  25   2.0000      -0.638812       -17.3830
  26   2.0000      -0.631864       -17.1939
  27   2.0000      -0.600508       -16.3407
  28   2.0000      -0.590250       -16.0615
  29   2.0000      -0.540132       -14.6977
  30   2.0000      -0.473440       -12.8830
  31   2.0000      -0.470068       -12.7912
  32   2.0000      -0.469388       -12.7727
  33   2.0000      -0.460588       -12.5332
  34   2.0000      -0.446761       -12.1570
  35   2.0000      -0.431243       -11.7347
  36   2.0000      -0.430143       -11.7048
  37   2.0000      -0.398779       -10.8513
  38   2.0000      -0.397216       -10.8088
  39   2.0000      -0.301438        -8.2026
  40   2.0000      -0.293880        -7.9969
  41   2.0000      -0.291090        -7.9210
  42   2.0000      -0.270652        -7.3648
  43   0.0000      -0.004458        -0.1213
  44   0.0000       0.010520         0.2863
  45   0.0000       0.075147         2.0448
  46   0.0000       0.082247         2.2381
  47   0.0000       0.083256         2.2655

MULLIKEN ATOMIC CHARGES
-----------------------
   0 C :   -0.167058
   1 C :   -0.144487
   2 C :   -0.444388
   3 S :    0.255580
   4 C :   -0.214994
   5 C :   -0.214995
   6 S :    0.255580
   7 C :   -0.444388
   8 C :   -0.144488
   9 C :   -0.167058
  10 H :    0.230604
  11 H :    0.229552
  12 H :    0.255192
  13 H :    0.255192
  14 H :    0.229552
  15 H :    0.230604
Sum of atomic charges:   -0.0000000

LOEWDIN ATOMIC CHARGES
----------------------
   0 C :   -0.157281
   1 C :   -0.176500
   2 C :   -0.301160
   3 S :    0.411694
   4 C :   -0.212866
   5 C :   -0.212866
   6 S :    0.411694
   7 C :   -0.301160
   8 C :   -0.176500
   9 C :   -0.157281
  10 H :    0.146407
  11 H :    0.142339
  12 H :    0.147366
  13 H :    0.147366
  14 H :    0.142339
  15 H :    0.146407

  Mayer bond orders larger than 0.100000
B(  0-C ,  1-C ) :   1.2894 B(  0-C ,  4-C ) :   1.5234 B(  0-C , 10-H ) :   0.9217
B(  1-C ,  2-C ) :   1.5332 B(  1-C , 11-H ) :   0.9169 B(  2-C ,  3-S ) :   1.2178
B(  2-C , 12-H ) :   0.9101 B(  3-S ,  4-C ) :   1.1999 B(  4-C ,  5-C ) :   0.9739
B(  5-C ,  6-S ) :   1.1999 B(  5-C ,  9-C ) :   1.5234 B(  6-S ,  7-C ) :   1.2178
B(  7-C ,  8-C ) :   1.5332 B(  7-C , 13-H ) :   0.9101 B(  8-C ,  9-C ) :   1.2894
B(  8-C , 14-H ) :   0.9169 B(  9-C , 15-H ) :   0.9217

Dispersion correction           -0.010913404
FINAL SINGLE POINT ENERGY     -1103.238896190629

DIPOLE MOMENT
-------------
                                X             Y             Z
Electronic contribution:      0.00000       0.00000       4.81748
Nuclear contribution   :     -0.00000      -0.00000      -5.14521
                        -----------------------------------------
Total Dipole Moment    :      0.00000       0.00000      -0.32774
                        -----------------------------------------
Magnitude (a.u.)       :      0.32774
Magnitude (Debye)      :      0.83304

Rotational constants in cm-1:     0.092143     0.020498     0.019475
Rotational constants in MHz :  2762.380944   614.510731   583.831968

                             ****ORCA TERMINATED NORMALLY****
TOTAL RUN TIME: 0 days 0 hours 2 minutes 12 seconds 578 msec
