                         Program Version 5.0.3 -  RELEASE  -
|  1> ! PBEh-3c def2/J TightSCF DefGrid3
|  2>
|  3> %maxcore 60000
|  4>
|  5> %pal
|  6> nprocs 4
|  7> end
|  8>
|  9> *xyzfile 0 1 H2O6b.xyz
| 10>
| 11>                          ****END OF INPUT****

CARTESIAN COORDINATES (ANGSTROEM)
---------------------------------
  O      0.114484    1.511233    0.843513
  H      0.958806    1.471558    0.329500
  H      0.261291    2.124109    1.568501
  O     -0.028170   -1.437082    0.985118
  H     -0.038313   -0.486232    1.171894
  H     -0.864250   -1.598394    0.505588
  O     -2.353798    1.328018   -0.461821
  H     -1.487142    1.501940   -0.045311
  H     -2.347253    1.794165   -1.301257
  O     -2.467671   -1.457603   -0.418546
  H     -2.539754   -0.485037   -0.496417
  H     -3.260290   -1.745642    0.040806
  O      2.426450    1.148160   -0.495864
  H      2.483835    0.161846   -0.509149
  H      2.526192    1.433849   -1.407186
  O      2.276291   -1.549005   -0.426267
  H      1.422564   -1.634954    0.064977
  H      2.916730   -2.080929    0.051920

 Total Charge           Charge          ....    0
 Multiplicity           Mult            ....    1
 Number of Electrons    NEL             ....   60
 Basis Dimension        Dim             ....  114

ORBITAL ENERGIES
----------------

  NO   OCC          E(Eh)            E(eV)
   0   2.0000     -19.497046      -530.5416
   1   2.0000     -19.481815      -530.1271
   2   2.0000     -19.481243      -530.1116
   3   2.0000     -19.468931      -529.7765
   4   2.0000     -19.467635      -529.7413
   5   2.0000     -19.455887      -529.4216
   6   2.0000      -1.123494       -30.5718
   7   2.0000      -1.107907       -30.1477
   8   2.0000      -1.103116       -30.0173
   9   2.0000      -1.093182       -29.7470
  10   2.0000      -1.088684       -29.6246
  11   2.0000      -1.072735       -29.1906
  12   2.0000      -0.607139       -16.5211
  13   2.0000      -0.594174       -16.1683
  14   2.0000      -0.590163       -16.0592
  15   2.0000      -0.578099       -15.7309
  16   2.0000      -0.575000       -15.6465
  17   2.0000      -0.559268       -15.2185
  18   2.0000      -0.487705       -13.2711
  19   2.0000      -0.460332       -12.5263
  20   2.0000      -0.448675       -12.2091
  21   2.0000      -0.436736       -11.8842
  22   2.0000      -0.423484       -11.5236
  23   2.0000      -0.402622       -10.9559
  24   2.0000      -0.380165       -10.3448
  25   2.0000      -0.367534       -10.0011
  26   2.0000      -0.365596        -9.9484
  27   2.0000      -0.355435        -9.6719
  28   2.0000      -0.350431        -9.5357
  29   2.0000      -0.341767        -9.2999
  30   0.0000       0.104465         2.8426
  31   0.0000       0.138194         3.7605
  32   0.0000       0.151872         4.1327
  33   0.0000       0.165916         4.5148
  34   0.0000       0.170825         4.6484

MULLIKEN ATOMIC CHARGES
-----------------------
   0 O :   -0.880555
   1 H :    0.464774
   2 H :    0.429686
   3 O :   -0.898120
   4 H :    0.429212
   5 H :    0.449766
   6 O :   -0.865637
   7 H :    0.453542
   8 H :    0.417659
   9 O :   -0.864664
  10 H :    0.447548
  11 H :    0.414784
  12 O :   -0.877224
  13 H :    0.459597
  14 H :    0.419995
  15 O :   -0.877489
  16 H :    0.459071
  17 H :    0.418054
Sum of atomic charges:   -0.0000000

LOEWDIN ATOMIC CHARGES
----------------------
   0 O :   -0.601957
   1 H :    0.306459
   2 H :    0.311697
   3 O :   -0.615533
   4 H :    0.295822
   5 H :    0.301907
   6 O :   -0.602158
   7 H :    0.300552
   8 H :    0.305055
   9 O :   -0.605720
  10 H :    0.298496
  11 H :    0.303367
  12 O :   -0.609220
  13 H :    0.305526
  14 H :    0.306391
  15 O :   -0.611081
  16 H :    0.305282
  17 H :    0.305116

  Mayer bond orders larger than 0.100000
B(  0-O ,  1-H ) :   0.6386 B(  0-O ,  2-H ) :   0.7950 B(  0-O ,  7-H ) :   0.1185
B(  1-H , 12-O ) :   0.1688 B(  3-O ,  4-H ) :   0.7396 B(  3-O ,  5-H ) :   0.6944
B(  3-O , 16-H ) :   0.1645 B(  5-H ,  9-O ) :   0.1278 B(  6-O ,  7-H ) :   0.6922
B(  6-O ,  8-H ) :   0.8061 B(  6-O , 10-H ) :   0.1294 B(  9-O , 10-H ) :   0.6898
B(  9-O , 11-H ) :   0.8085 B( 12-O , 13-H ) :   0.6499 B( 12-O , 14-H ) :   0.8040
B( 13-H , 15-O ) :   0.1644 B( 15-O , 16-H ) :   0.6505 B( 15-O , 17-H ) :   0.8052

Dispersion correction           -0.005268522
FINAL SINGLE POINT ENERGY      -457.637318088437

DIPOLE MOMENT
-------------
                                X             Y             Z
Electronic contribution:      0.00735      -0.04855      -0.00683
Nuclear contribution   :      0.08094       1.13936      -0.06526
                        -----------------------------------------
Total Dipole Moment    :      0.08829       1.09081      -0.07209
                        -----------------------------------------
Magnitude (a.u.)       :      1.09675
Magnitude (Debye)      :      2.78773

Rotational constants in cm-1:     0.063191     0.036506     0.026681
Rotational constants in MHz :  1894.421453  1094.428403   799.888830

                             ****ORCA TERMINATED NORMALLY****
TOTAL RUN TIME: 0 days 0 hours 1 minutes 29 seconds 744 msec
