                         Program Version 5.0.3 -  RELEASE  -
|  1> ! PBEh-3c def2/J TightSCF DefGrid3
|  2>
|  3> %maxcore 60000
|  4>
|  5> %pal
|  6> nprocs 4
|  7> end
|  8>
|  9> *xyzfile 0 1 5b.xyz
| 10>
| 11>                          ****END OF INPUT****

CARTESIAN COORDINATES (ANGSTROEM)
---------------------------------
  C     -0.926855   -0.138441   -0.013016
  C     -0.228272    1.112777    0.019602
  C      1.121751    1.037615    0.064613
  N      1.726822   -0.170382    0.079640
  C      1.028657   -1.395492    0.049310
  N     -0.340976   -1.310966   -0.003765
  O      1.662664   -2.432680    0.066524
  N     -2.285703   -0.125529   -0.020005
  H     -0.738834    2.060941    0.016726
  H      1.763279    1.905389    0.092182
  H     -2.773005    0.712889   -0.270864
  H     -2.739110   -1.004776   -0.195091
  H      2.729582   -0.251343    0.114144

 Total Charge           Charge          ....    0
 Multiplicity           Mult            ....    1
 Number of Electrons    NEL             ....   58
 Basis Dimension        Dim             ....  130

ORBITAL ENERGIES
----------------

  NO   OCC          E(Eh)            E(eV)
   0   2.0000     -19.439217      -528.9680
   1   2.0000     -14.695039      -399.8723
   2   2.0000     -14.662323      -398.9821
   3   2.0000     -14.614017      -397.6676
   4   2.0000     -10.561596      -287.3956
   5   2.0000     -10.544920      -286.9419
   6   2.0000     -10.526061      -286.4287
   7   2.0000     -10.458932      -284.6020
   8   2.0000      -1.151914       -31.3452
   9   2.0000      -1.078808       -29.3559
  10   2.0000      -1.052266       -28.6336
  11   2.0000      -0.970283       -26.4028
  12   2.0000      -0.880857       -23.9693
  13   2.0000      -0.749861       -20.4047
  14   2.0000      -0.731120       -19.8948
  15   2.0000      -0.641504       -17.4562
  16   2.0000      -0.636323       -17.3152
  17   2.0000      -0.595072       -16.1927
  18   2.0000      -0.563122       -15.3233
  19   2.0000      -0.517679       -14.0868
  20   2.0000      -0.512111       -13.9352
  21   2.0000      -0.496820       -13.5192
  22   2.0000      -0.466340       -12.6897
  23   2.0000      -0.438762       -11.9393
  24   2.0000      -0.401500       -10.9254
  25   2.0000      -0.325163        -8.8481
  26   2.0000      -0.307884        -8.3780
  27   2.0000      -0.302607        -8.2344
  28   2.0000      -0.274809        -7.4779
  29   0.0000      -0.009597        -0.2612
  30   0.0000       0.051003         1.3879
  31   0.0000       0.112245         3.0543
  32   0.0000       0.129702         3.5294
  33   0.0000       0.167439         4.5562

MULLIKEN ATOMIC CHARGES
-----------------------
   0 C :    0.506843
   1 C :   -0.436998
   2 C :    0.105942
   3 N :   -0.663691
   4 C :    0.578922
   5 N :   -0.479912
   6 O :   -0.422246
   7 N :   -0.803136
   8 H :    0.234388
   9 H :    0.261905
  10 H :    0.359516
  11 H :    0.377326
  12 H :    0.381143
Sum of atomic charges:    0.0000000

LOEWDIN ATOMIC CHARGES
----------------------
   0 C :    0.104554
   1 C :   -0.265501
   2 C :   -0.001582
   3 N :   -0.182190
   4 C :    0.118143
   5 N :   -0.236242
   6 O :   -0.268178
   7 N :   -0.351297
   8 H :    0.146121
   9 H :    0.144457
  10 H :    0.251587
  11 H :    0.264716
  12 H :    0.275410

  Mayer bond orders larger than 0.100000
B(  0-C ,  1-C ) :   1.1239 B(  0-C ,  5-N ) :   1.6251 B(  0-C ,  7-N ) :   1.1293
B(  1-C ,  2-C ) :   1.6074 B(  1-C ,  8-H ) :   0.9064 B(  2-C ,  3-N ) :   1.1663
B(  2-C ,  9-H ) :   0.9016 B(  3-N ,  4-C ) :   0.9626 B(  3-N , 12-H ) :   0.8090
B(  4-C ,  5-N ) :   1.2119 B(  4-C ,  6-O ) :   2.0223 B(  7-N , 10-H ) :   0.8402
B(  7-N , 11-H ) :   0.8218

Dispersion correction           -0.006819112
FINAL SINGLE POINT ENERGY      -394.085145118365

DIPOLE MOMENT
-------------
                                X             Y             Z
Electronic contribution:      2.07405      -2.80817       0.09577
Nuclear contribution   :     -2.65742       5.31613      -0.35621
                        -----------------------------------------
Total Dipole Moment    :     -0.58337       2.50796      -0.26044
                        -----------------------------------------
Magnitude (a.u.)       :      2.58806
Magnitude (Debye)      :      6.57831

Rotational constants in cm-1:     0.130022     0.067739     0.044554
Rotational constants in MHz :  3897.972871  2030.761900  1335.694189

                             ****ORCA TERMINATED NORMALLY****
TOTAL RUN TIME: 0 days 0 hours 1 minutes 45 seconds 726 msec
