                         Program Version 5.0.3 -  RELEASE  -
|  1> ! PBEh-3c def2/J TightSCF DefGrid3
|  2>
|  3> %maxcore 60000
|  4>
|  5> %pal
|  6> nprocs 4
|  7> end
|  8>
|  9> *xyzfile 0 1 11B.xyz
| 10>
| 11>                          ****END OF INPUT****

CARTESIAN COORDINATES (ANGSTROEM)
---------------------------------
  N     -1.106413   -0.099091    1.638709
  H     -0.623383   -0.987805    1.573642
  H     -0.630527    0.410977    2.374166
  H     -0.867824    0.402160    0.775862

 Total Charge           Charge          ....    0
 Multiplicity           Mult            ....    1
 Number of Electrons    NEL             ....   10
 Basis Dimension        Dim             ....   21

ORBITAL ENERGIES
----------------

  NO   OCC          E(Eh)            E(eV)
   0   2.0000     -14.599456      -397.2714
   1   2.0000      -0.936160       -25.4742
   2   2.0000      -0.509086       -13.8529
   3   2.0000      -0.505606       -13.7583
   4   2.0000      -0.310771        -8.4565
   5   0.0000       0.139441         3.7944
   6   0.0000       0.221215         6.0196
   7   0.0000       0.224566         6.1107
   8   0.0000       0.759226        20.6596
   9   0.0000       0.761251        20.7147

MULLIKEN ATOMIC CHARGES
-----------------------
   0 N :   -0.933974
   1 H :    0.312614
   2 H :    0.312196
   3 H :    0.309164
Sum of atomic charges:   -0.0000000

LOEWDIN ATOMIC CHARGES
----------------------
   0 N :   -0.645699
   1 H :    0.215178
   2 H :    0.214982
   3 H :    0.215540

  Mayer bond orders larger than 0.100000
B(  0-N ,  1-H ) :   0.8808 B(  0-N ,  2-H ) :   0.8811 B(  0-N ,  3-H ) :   0.8837

Dispersion correction           -0.000444628
FINAL SINGLE POINT ENERGY       -56.427796058045

DIPOLE MOMENT
-------------
                                X             Y             Z
Electronic contribution:     -0.15055      -0.02118       0.03099
Nuclear contribution   :      0.92360       0.09456      -0.14844
                        -----------------------------------------
Total Dipole Moment    :      0.77305       0.07338      -0.11745
                        -----------------------------------------
Magnitude (a.u.)       :      0.78536
Magnitude (Debye)      :      1.99622

Rotational constants in cm-1:     9.811774     9.709573     6.401785
Rotational constants in MHz : 294149.573943 291085.685684 191920.695064

                             ****ORCA TERMINATED NORMALLY****
TOTAL RUN TIME: 0 days 0 hours 0 minutes 48 seconds 417 msec
