                         Program Version 5.0.3 -  RELEASE  -
|  1> ! PBEh-3c def2/J TightSCF DefGrid3
|  2>
|  3> %maxcore 60000
|  4>
|  5> %pal
|  6> nprocs 4
|  7> end
|  8>
|  9> *xyzfile 0 1 GLN_xal.xyz
| 10>
| 11>                          ****END OF INPUT****

CARTESIAN COORDINATES (ANGSTROEM)
---------------------------------
  N      1.310822   -0.976798    0.687929
  C     -0.000601   -0.420905    0.381513
  C      0.076291    1.108735    0.304603
  O     -0.437153    1.850733    1.142721
  C     -0.994950   -0.918131    1.420514
  C     -2.418189   -0.382016    1.234703
  C     -2.817816   -0.462078   -0.221934
  O     -3.032941   -1.524284   -0.788200
  H      1.512543   -1.213483    1.644663
  H     -0.273518   -0.797575   -0.606452
  H     -1.007810   -2.006252    1.356123
  H     -0.644067   -0.635490    2.414906
  H     -3.108814   -1.005352    1.799187
  H     -2.474914    0.637022    1.604100
  C      2.256177   -1.193688   -0.257777
  O      2.097373   -0.866665   -1.434572
  N      0.752137    1.556838   -0.770860
  H      1.226868    0.863849   -1.339771
  C      1.008055    2.969948   -0.946693
  H      1.361903    3.139829   -1.958885
  H      0.091162    3.531010   -0.785447
  H      1.752470    3.337320   -0.240345
  C      3.516522   -1.871356    0.214040
  H      3.616455   -2.814480   -0.318298
  H      3.528698   -2.061602    1.284143
  H      4.366895   -1.249373   -0.053552
  N     -2.877946    0.741748   -0.856286
  H     -3.026025    0.748758   -1.850350
  H     -2.566940    1.577600   -0.395341

 Total Charge           Charge          ....    0
 Multiplicity           Mult            ....    1
 Number of Electrons    NEL             ....  108
 Basis Dimension        Dim             ....  240

ORBITAL ENERGIES
----------------

  NO   OCC          E(Eh)            E(eV)
   0   2.0000     -19.476315      -529.9775
   1   2.0000     -19.463422      -529.6266
   2   2.0000     -19.448552      -529.2220
   3   2.0000     -14.684255      -399.5789
   4   2.0000     -14.655910      -398.8076
   5   2.0000     -14.649713      -398.6390
   6   2.0000     -10.568432      -287.5817
   7   2.0000     -10.546656      -286.9891
   8   2.0000     -10.542310      -286.8708
   9   2.0000     -10.496771      -285.6317
  10   2.0000     -10.467550      -284.8365
  11   2.0000     -10.456409      -284.5334
  12   2.0000     -10.454833      -284.4905
  13   2.0000     -10.440990      -284.1138
  14   2.0000      -1.162869       -31.6433
  15   2.0000      -1.143974       -31.1291
  16   2.0000      -1.133127       -30.8340
  17   2.0000      -1.046028       -28.4639
  18   2.0000      -1.019178       -27.7333
  19   2.0000      -0.997709       -27.1490
  20   2.0000      -0.903152       -24.5760
  21   2.0000      -0.851638       -23.1743
  22   2.0000      -0.814975       -22.1766
  23   2.0000      -0.780684       -21.2435
  24   2.0000      -0.714835       -19.4517
  25   2.0000      -0.679699       -18.4956
  26   2.0000      -0.651726       -17.7344
  27   2.0000      -0.642565       -17.4851
  28   2.0000      -0.610325       -16.6078
  29   2.0000      -0.601353       -16.3636
  30   2.0000      -0.572780       -15.5861
  31   2.0000      -0.564998       -15.3744
  32   2.0000      -0.542038       -14.7496
  33   2.0000      -0.530775       -14.4431
  34   2.0000      -0.519975       -14.1492
  35   2.0000      -0.508804       -13.8452
  36   2.0000      -0.497900       -13.5485
  37   2.0000      -0.490362       -13.3434
  38   2.0000      -0.478926       -13.0322
  39   2.0000      -0.468218       -12.7409
  40   2.0000      -0.466138       -12.6843
  41   2.0000      -0.460320       -12.5259
  42   2.0000      -0.449857       -12.2412
  43   2.0000      -0.431890       -11.7523
  44   2.0000      -0.425092       -11.5673
  45   2.0000      -0.416896       -11.3443
  46   2.0000      -0.409224       -11.1355
  47   2.0000      -0.404251       -11.0002
  48   2.0000      -0.343935        -9.3589
  49   2.0000      -0.328767        -8.9462
  50   2.0000      -0.314665        -8.5625
  51   2.0000      -0.304661        -8.2902
  52   2.0000      -0.300654        -8.1812
  53   2.0000      -0.296901        -8.0791
  54   0.0000       0.034326         0.9341
  55   0.0000       0.055875         1.5204
  56   0.0000       0.066904         1.8205
  57   0.0000       0.108666         2.9569
  58   0.0000       0.125714         3.4209

MULLIKEN ATOMIC CHARGES
-----------------------
   0 N :   -0.624382
   1 C :   -0.232436
   2 C :    0.564993
   3 O :   -0.456319
   4 C :   -0.427555
   5 C :   -0.560883
   6 C :    0.485871
   7 O :   -0.416947
   8 H :    0.364614
   9 H :    0.296733
  10 H :    0.251793
  11 H :    0.228872
  12 H :    0.261720
  13 H :    0.260697
  14 C :    0.544368
  15 O :   -0.462916
  16 N :   -0.645671
  17 H :    0.411815
  18 C :   -0.487426
  19 H :    0.223349
  20 H :    0.234270
  21 H :    0.226981
  22 C :   -0.743416
  23 H :    0.267488
  24 H :    0.216798
  25 H :    0.261880
  26 N :   -0.795920
  27 H :    0.368916
  28 H :    0.382710
Sum of atomic charges:   -0.0000000

LOEWDIN ATOMIC CHARGES
----------------------
   0 N :   -0.210618
   1 C :   -0.098674
   2 C :    0.096307
   3 O :   -0.297546
   4 C :   -0.224527
   5 C :   -0.270048
   6 C :    0.098600
   7 O :   -0.280675
   8 H :    0.260424
   9 H :    0.160038
  10 H :    0.142801
  11 H :    0.134312
  12 H :    0.151443
  13 H :    0.144653
  14 C :    0.116492
  15 O :   -0.299944
  16 N :   -0.243354
  17 H :    0.270484
  18 C :   -0.252573
  19 H :    0.128557
  20 H :    0.133791
  21 H :    0.124454
  22 C :   -0.383135
  23 H :    0.162749
  24 H :    0.129679
  25 H :    0.158917
  26 N :   -0.369427
  27 H :    0.256564
  28 H :    0.260257

  Mayer bond orders larger than 0.100000
B(  0-N ,  1-C ) :   0.9081 B(  0-N ,  8-H ) :   0.8198 B(  0-N , 14-C ) :   1.1744
B(  1-C ,  2-C ) :   0.8714 B(  1-C ,  4-C ) :   0.9877 B(  1-C ,  9-H ) :   0.8602
B(  2-C ,  3-O ) :   1.9194 B(  2-C , 16-N ) :   1.2012 B(  4-C ,  5-C ) :   0.9764
B(  4-C , 10-H ) :   0.9035 B(  4-C , 11-H ) :   0.9089 B(  5-C ,  6-C ) :   0.9117
B(  5-C , 12-H ) :   0.9060 B(  5-C , 13-H ) :   0.8897 B(  6-C ,  7-O ) :   2.0302
B(  6-C , 26-N ) :   1.1436 B( 14-C , 15-O ) :   1.8751 B( 14-C , 22-C ) :   0.9334
B( 16-N , 17-H ) :   0.7274 B( 16-N , 18-C ) :   0.9617 B( 18-C , 19-H ) :   0.9256
B( 18-C , 20-H ) :   0.9156 B( 18-C , 21-H ) :   0.9160 B( 22-C , 23-H ) :   0.9044
B( 22-C , 24-H ) :   0.9212 B( 22-C , 25-H ) :   0.9073 B( 26-N , 27-H ) :   0.8272
B( 26-N , 28-H ) :   0.8046

Dispersion correction           -0.018053614
FINAL SINGLE POINT ENERGY      -702.370288485162

DIPOLE MOMENT
-------------
                                X             Y             Z
Electronic contribution:     -4.26873      -1.63987      -1.86033
Nuclear contribution   :      5.56924       2.07222       2.53638
                        -----------------------------------------
Total Dipole Moment    :      1.30051       0.43236       0.67605
                        -----------------------------------------
Magnitude (a.u.)       :      1.52817
Magnitude (Debye)      :      3.88429

Rotational constants in cm-1:     0.028936     0.016405     0.013210
Rotational constants in MHz :   867.474681   491.810960   396.016693

                             ****ORCA TERMINATED NORMALLY****
TOTAL RUN TIME: 0 days 0 hours 3 minutes 46 seconds 881 msec
