                         Program Version 5.0.3 -  RELEASE  -
|  1> ! PBEh-3c def2/J TightSCF DefGrid3
|  2>
|  3> %maxcore 60000
|  4>
|  5> %pal
|  6> nprocs 4
|  7> end
|  8>
|  9> *xyzfile 0 1 B23.xyz
| 10>
| 11>                          ****END OF INPUT****

CARTESIAN COORDINATES (ANGSTROEM)
---------------------------------
  C     -1.806374    0.363340   -0.271799
  H     -1.791956    0.437497   -1.358852
  O     -2.871671   -0.532394    0.032953
  C     -0.456467   -0.124567    0.233823
  H     -0.496091   -0.222708    1.324347
  H     -0.257634   -1.115555   -0.172201
  C      0.674264    0.829801   -0.145338
  H      0.487026    1.820307    0.278451
  H      0.713337    0.945522   -1.231086
  H     -2.903726   -0.622355    0.989101
  H     -2.016047    1.364046    0.123031
  C      2.034184    0.354025    0.333031
  H      2.794024    1.105270    0.098030
  H      2.017267    0.216056    1.419677
  O      2.322622   -0.876716   -0.327811
  H      3.172548   -1.190799   -0.009932

 Total Charge           Charge          ....    0
 Multiplicity           Mult            ....    1
 Number of Electrons    NEL             ....   50
 Basis Dimension        Dim             ....  110

ORBITAL ENERGIES
----------------

  NO   OCC          E(Eh)            E(eV)
   0   2.0000     -19.486022      -530.2416
   1   2.0000     -19.478561      -530.0386
   2   2.0000     -10.484016      -285.2846
   3   2.0000     -10.474342      -285.0213
   4   2.0000     -10.435383      -283.9612
   5   2.0000     -10.427466      -283.7458
   6   2.0000      -1.122674       -30.5495
   7   2.0000      -1.115142       -30.3446
   8   2.0000      -0.882968       -24.0268
   9   2.0000      -0.795859       -21.6564
  10   2.0000      -0.701523       -19.0894
  11   2.0000      -0.655295       -17.8315
  12   2.0000      -0.587419       -15.9845
  13   2.0000      -0.558821       -15.2063
  14   2.0000      -0.531298       -14.4574
  15   2.0000      -0.508575       -13.8390
  16   2.0000      -0.465401       -12.6642
  17   2.0000      -0.460772       -12.5382
  18   2.0000      -0.450162       -12.2495
  19   2.0000      -0.400308       -10.8929
  20   2.0000      -0.393561       -10.7093
  21   2.0000      -0.389933       -10.6106
  22   2.0000      -0.364287        -9.9127
  23   2.0000      -0.326348        -8.8804
  24   2.0000      -0.317238        -8.6325
  25   0.0000       0.126008         3.4288
  26   0.0000       0.133062         3.6208
  27   0.0000       0.155041         4.2189
  28   0.0000       0.180131         4.9016
  29   0.0000       0.188429         5.1274

MULLIKEN ATOMIC CHARGES
-----------------------
   0 C :   -0.130884
   1 H :    0.208202
   2 O :   -0.622496
   3 C :   -0.459319
   4 H :    0.184461
   5 H :    0.253572
   6 C :   -0.445652
   7 H :    0.205165
   8 H :    0.226767
   9 H :    0.406441
  10 H :    0.169416
  11 C :   -0.148008
  12 H :    0.189820
  13 H :    0.175112
  14 O :   -0.630333
  15 H :    0.417736
Sum of atomic charges:   -0.0000000

LOEWDIN ATOMIC CHARGES
----------------------
   0 C :   -0.095140
   1 H :    0.119217
   2 O :   -0.410609
   3 C :   -0.265818
   4 H :    0.112399
   5 H :    0.141940
   6 C :   -0.252541
   7 H :    0.123573
   8 H :    0.131783
   9 H :    0.304485
  10 H :    0.093332
  11 C :   -0.088883
  12 H :    0.100241
  13 H :    0.095841
  14 O :   -0.418716
  15 H :    0.308896

  Mayer bond orders larger than 0.100000
B(  0-C ,  1-H ) :   0.9122 B(  0-C ,  2-O ) :   1.0238 B(  0-C ,  3-C ) :   0.9863
B(  0-C , 10-H ) :   0.9100 B(  2-O ,  9-H ) :   0.7963 B(  3-C ,  4-H ) :   0.9222
B(  3-C ,  5-H ) :   0.8979 B(  3-C ,  6-C ) :   0.9670 B(  6-C ,  7-H ) :   0.9188
B(  6-C ,  8-H ) :   0.9093 B(  6-C , 11-C ) :   0.9887 B( 11-C , 12-H ) :   0.9100
B( 11-C , 13-H ) :   0.9065 B( 11-C , 14-O ) :   1.0106 B( 14-O , 15-H ) :   0.7927

Dispersion correction           -0.006413124
FINAL SINGLE POINT ENERGY      -308.206358565462

DIPOLE MOMENT
-------------
                                X             Y             Z
Electronic contribution:     -0.88994      -2.35207      -0.65251
Nuclear contribution   :      1.78185       2.82900       1.51701
                        -----------------------------------------
Total Dipole Moment    :      0.89191       0.47693       0.86450
                        -----------------------------------------
Magnitude (a.u.)       :      1.33053
Magnitude (Debye)      :      3.38195

Rotational constants in cm-1:     0.323197     0.045913     0.042877
Rotational constants in MHz :  9689.211549  1376.429834  1285.413252

                             ****ORCA TERMINATED NORMALLY****
TOTAL RUN TIME: 0 days 0 hours 1 minutes 24 seconds 986 msec
