                         Program Version 5.0.3 -  RELEASE  -
|  1> ! PBEh-3c def2/J TightSCF DefGrid3
|  2>
|  3> %maxcore 60000
|  4>
|  5> %pal
|  6> nprocs 4
|  7> end
|  8>
|  9> *xyzfile 0 2 nao.xyz
| 10>
| 11>                          ****END OF INPUT****

CARTESIAN COORDINATES (ANGSTROEM)
---------------------------------
  Na     0.000000    0.000000   -0.975579
  O      0.000000    0.000000    0.975579

 Total Charge           Charge          ....    0
 Multiplicity           Mult            ....    2
 Number of Electrons    NEL             ....   19
 Basis Dimension        Dim             ....   30

ORBITAL ENERGIES
----------------
                 SPIN UP ORBITALS
  NO   OCC          E(Eh)            E(eV)
   0   1.0000     -38.970622     -1060.4445
   1   1.0000     -19.381337      -527.3930
   2   1.0000      -2.412786       -65.6552
   3   1.0000      -1.288452       -35.0606
   4   1.0000      -1.286587       -35.0098
   5   1.0000      -1.286587       -35.0098
   6   1.0000      -0.885956       -24.1081
   7   1.0000      -0.326340        -8.8802
   8   1.0000      -0.242675        -6.6035
   9   1.0000      -0.242674        -6.6035
  10   0.0000      -0.042488        -1.1562
  11   0.0000       0.048548         1.3210
  12   0.0000       0.048548         1.3211
  13   0.0000       0.081955         2.2301
  14   0.0000       0.122568         3.3352

                 SPIN DOWN ORBITALS
  NO   OCC          E(Eh)            E(eV)
   0   1.0000     -38.969829     -1060.4230
   1   1.0000     -19.354629      -526.6662
   2   1.0000      -2.411196       -65.6120
   3   1.0000      -1.285937       -34.9921
   4   1.0000      -1.285937       -34.9921
   5   1.0000      -1.284349       -34.9489
   6   1.0000      -0.786653       -21.4059
   7   1.0000      -0.209189        -5.6923
   8   1.0000      -0.209189        -5.6923
   9   0.0000      -0.046624        -1.2687
  10   0.0000       0.032943         0.8964
  11   0.0000       0.050501         1.3742
  12   0.0000       0.050501         1.3742
  13   0.0000       0.088348         2.4041

MULLIKEN ATOMIC CHARGES AND SPIN POPULATIONS
--------------------------------------------
   0 Na:    0.577076   -0.032676
   1 O :   -0.577076    1.032676
Sum of atomic charges         :    0.0000000

LOEWDIN ATOMIC CHARGES AND SPIN POPULATIONS
-------------------------------------------
   0 Na:    0.347305   -0.026582
   1 O :   -0.347305    1.026582

  Mayer bond orders larger than 0.100000
B(  0-Na,  1-O ) :   0.7958

Dispersion correction           -0.000149386
FINAL SINGLE POINT ENERGY      -237.004241791560

DIPOLE MOMENT
-------------
                                X             Y             Z
Electronic contribution:     -0.00000      -0.00000      -3.70632
Nuclear contribution   :      0.00000       0.00000       0.75003
                        -----------------------------------------
Total Dipole Moment    :     -0.00000      -0.00000      -2.95629
                        -----------------------------------------
Magnitude (a.u.)       :      2.95629
Magnitude (Debye)      :      7.51429

Rotational constants in cm-1:     0.000000     0.469377     0.469377
Rotational constants in MHz :     0.000000 14071.579051 14071.579051

                             ****ORCA TERMINATED NORMALLY****
TOTAL RUN TIME: 0 days 0 hours 1 minutes 8 seconds 485 msec
