                         Program Version 5.0.3 -  RELEASE  -
|  1> ! PBEh-3c def2/J TightSCF DefGrid3
|  2>
|  3> %maxcore 60000
|  4>
|  5> %pal
|  6> nprocs 4
|  7> end
|  8>
|  9> *xyzfile 0 1 13.xyz
| 10>
| 11>                          ****END OF INPUT****

CARTESIAN COORDINATES (ANGSTROEM)
---------------------------------
  N     -0.064899    2.461665   -0.511137
  C      0.934740    1.674444   -1.044909
  C      0.555605    0.351420   -1.024636
  C     -0.757548    0.321244   -0.441580
  C     -1.668660   -0.715054   -0.158582
  C     -2.883101   -0.389988    0.420452
  C     -3.221561    0.946966    0.725923
  C     -2.346058    1.985626    0.449977
  C     -1.116992    1.658979   -0.135815
  H     -0.042932    3.462768   -0.446859
  H      1.848888    2.115189   -1.409074
  H     -1.445450   -1.751418   -0.376117
  H     -4.174677    1.144635    1.197690
  H     -2.606423    3.008658    0.689466
  O     -3.770188   -1.401828    0.744623
  C     -4.837149   -1.510739   -0.194207
  H     -5.416148   -0.585957   -0.244886
  H     -4.453941   -1.745083   -1.190249
  H     -5.476225   -2.319322    0.150814
  C      1.383385   -0.817850   -1.453958
  C      1.859960   -1.660196   -0.258540
  N      2.578060   -0.875057    0.730438
  C      3.848269   -0.439934    0.493967
  C      4.411139    0.517017    1.525969
  H      0.813887   -1.465764   -2.126145
  H      2.260973   -0.471532   -2.000240
  H      1.010910   -2.122211    0.244161
  H      2.524704   -2.447940   -0.608940
  H      2.041211   -0.399828    1.433998
  O      4.499329   -0.804184   -0.476483
  H      4.549110    1.490971    1.058348
  H      3.772680    0.628111    2.400425
  H      5.389104    0.156197    1.836095

 Total Charge           Charge          ....    0
 Multiplicity           Mult            ....    1
 Number of Electrons    NEL             ....  124
 Basis Dimension        Dim             ....  287

ORBITAL ENERGIES
----------------

  NO   OCC          E(Eh)            E(eV)
   0   2.0000     -19.505733      -530.7780
   1   2.0000     -19.446714      -529.1720
   2   2.0000     -14.688172      -399.6855
   3   2.0000     -14.652902      -398.7257
   4   2.0000     -10.540188      -286.8131
   5   2.0000     -10.495123      -285.5868
   6   2.0000     -10.483111      -285.2599
   7   2.0000     -10.481132      -285.2061
   8   2.0000     -10.480407      -285.1864
   9   2.0000     -10.469199      -284.8814
  10   2.0000     -10.456073      -284.5242
  11   2.0000     -10.448828      -284.3271
  12   2.0000     -10.446574      -284.2657
  13   2.0000     -10.445268      -284.2302
  14   2.0000     -10.442708      -284.1605
  15   2.0000     -10.438739      -284.0525
  16   2.0000     -10.437991      -284.0322
  17   2.0000      -1.154040       -31.4030
  18   2.0000      -1.132647       -30.8209
  19   2.0000      -1.090398       -29.6712
  20   2.0000      -1.014860       -27.6158
  21   2.0000      -0.939870       -25.5752
  22   2.0000      -0.898896       -24.4602
  23   2.0000      -0.849151       -23.1066
  24   2.0000      -0.831871       -22.6364
  25   2.0000      -0.819580       -22.3019
  26   2.0000      -0.797343       -21.6968
  27   2.0000      -0.767024       -20.8718
  28   2.0000      -0.721781       -19.6407
  29   2.0000      -0.700434       -19.0598
  30   2.0000      -0.669713       -18.2238
  31   2.0000      -0.650095       -17.6900
  32   2.0000      -0.627175       -17.0663
  33   2.0000      -0.610363       -16.6088
  34   2.0000      -0.573787       -15.6135
  35   2.0000      -0.560931       -15.2637
  36   2.0000      -0.557686       -15.1754
  37   2.0000      -0.529590       -14.4109
  38   2.0000      -0.524220       -14.2647
  39   2.0000      -0.517795       -14.0899
  40   2.0000      -0.510251       -13.8846
  41   2.0000      -0.507981       -13.8229
  42   2.0000      -0.495845       -13.4926
  43   2.0000      -0.491160       -13.3652
  44   2.0000      -0.478319       -13.0157
  45   2.0000      -0.470836       -12.8121
  46   2.0000      -0.463701       -12.6179
  47   2.0000      -0.457103       -12.4384
  48   2.0000      -0.451968       -12.2987
  49   2.0000      -0.445805       -12.1310
  50   2.0000      -0.424781       -11.5589
  51   2.0000      -0.417066       -11.3489
  52   2.0000      -0.405190       -11.0258
  53   2.0000      -0.400337       -10.8937
  54   2.0000      -0.385875       -10.5002
  55   2.0000      -0.377331       -10.2677
  56   2.0000      -0.327467        -8.9108
  57   2.0000      -0.323943        -8.8149
  58   2.0000      -0.303104        -8.2479
  59   2.0000      -0.292864        -7.9692
  60   2.0000      -0.257465        -7.0060
  61   2.0000      -0.244183        -6.6446
  62   0.0000       0.002063         0.0561
  63   0.0000       0.046603         1.2681
  64   0.0000       0.067752         1.8436
  65   0.0000       0.088991         2.4216
  66   0.0000       0.122652         3.3375

MULLIKEN ATOMIC CHARGES
-----------------------
   0 N :   -0.700943
   1 C :   -0.062433
   2 C :    0.023252
   3 C :    0.063573
   4 C :   -0.433103
   5 C :    0.360188
   6 C :   -0.313030
   7 C :   -0.263833
   8 C :    0.362897
   9 H :    0.358868
  10 H :    0.246195
  11 H :    0.216220
  12 H :    0.228205
  13 H :    0.214827
  14 O :   -0.486172
  15 C :   -0.376897
  16 H :    0.198256
  17 H :    0.203492
  18 H :    0.220144
  19 C :   -0.544075
  20 C :   -0.287129
  21 N :   -0.616754
  22 C :    0.518489
  23 C :   -0.747929
  24 H :    0.227891
  25 H :    0.259216
  26 H :    0.226632
  27 H :    0.257737
  28 H :    0.361335
  29 O :   -0.434485
  30 H :    0.245928
  31 H :    0.213239
  32 H :    0.260201
Sum of atomic charges:   -0.0000000

LOEWDIN ATOMIC CHARGES
----------------------
   0 N :   -0.159820
   1 C :   -0.084212
   2 C :   -0.106333
   3 C :   -0.059446
   4 C :   -0.154179
   5 C :    0.041679
   6 C :   -0.159664
   7 C :   -0.153910
   8 C :    0.011802
   9 H :    0.261737
  10 H :    0.138336
  11 H :    0.143330
  12 H :    0.142342
  13 H :    0.137000
  14 O :   -0.221341
  15 C :   -0.172399
  16 H :    0.107898
  17 H :    0.110927
  18 H :    0.124066
  19 C :   -0.236886
  20 C :   -0.143662
  21 N :   -0.238349
  22 C :    0.104511
  23 C :   -0.390411
  24 H :    0.135118
  25 H :    0.148143
  26 H :    0.125211
  27 H :    0.142367
  28 H :    0.256441
  29 O :   -0.285379
  30 H :    0.151117
  31 H :    0.127297
  32 H :    0.156668

  Mayer bond orders larger than 0.100000
B(  0-N ,  1-C ) :   1.1290 B(  0-N ,  8-C ) :   1.0170 B(  0-N ,  9-H ) :   0.8331
B(  1-C ,  2-C ) :   1.5682 B(  1-C , 10-H ) :   0.9070 B(  2-C ,  3-C ) :   1.2318
B(  2-C , 19-C ) :   0.9556 B(  3-C ,  4-C ) :   1.2422 B(  3-C ,  8-C ) :   1.2424
B(  4-C ,  5-C ) :   1.4820 B(  4-C , 11-H ) :   0.9287 B(  5-C ,  6-C ) :   1.3209
B(  5-C , 14-O ) :   0.9544 B(  6-C ,  7-C ) :   1.4825 B(  6-C , 12-H ) :   0.9124
B(  7-C ,  8-C ) :   1.2910 B(  7-C , 13-H ) :   0.9206 B( 14-O , 15-C ) :   0.9512
B( 15-C , 16-H ) :   0.9120 B( 15-C , 17-H ) :   0.9122 B( 15-C , 18-H ) :   0.9284
B( 19-C , 20-C ) :   0.9560 B( 19-C , 24-H ) :   0.9143 B( 19-C , 25-H ) :   0.9100
B( 20-C , 21-N ) :   0.9546 B( 20-C , 26-H ) :   0.9160 B( 20-C , 27-H ) :   0.9034
B( 21-N , 22-C ) :   1.1436 B( 21-N , 28-H ) :   0.8230 B( 22-C , 23-C ) :   0.9271
B( 22-C , 29-O ) :   1.9795 B( 23-C , 30-H ) :   0.9133 B( 23-C , 31-H ) :   0.9218
B( 23-C , 32-H ) :   0.9115

Dispersion correction           -0.021543309
FINAL SINGLE POINT ENERGY      -763.326853872203

DIPOLE MOMENT
-------------
                                X             Y             Z
Electronic contribution:     -1.43764       3.19219      -0.59508
Nuclear contribution   :      0.49470      -1.80970       0.91223
                        -----------------------------------------
Total Dipole Moment    :     -0.94294       1.38249       0.31715
                        -----------------------------------------
Magnitude (a.u.)       :      1.70323
Magnitude (Debye)      :      4.32928

Rotational constants in cm-1:     0.030710     0.008024     0.007157
Rotational constants in MHz :   920.674009   240.539608   214.562201

                             ****ORCA TERMINATED NORMALLY****
TOTAL RUN TIME: 0 days 0 hours 4 minutes 33 seconds 202 msec
