                         Program Version 5.0.3 -  RELEASE  -
|  1> ! PBEh-3c def2/J TightSCF DefGrid3
|  2>
|  3> %maxcore 60000
|  4>
|  5> %pal
|  6> nprocs 4
|  7> end
|  8>
|  9> *xyzfile 0 1 AD6.xyz
| 10>
| 11>                          ****END OF INPUT****

CARTESIAN COORDINATES (ANGSTROEM)
---------------------------------
  C      0.645551   -0.407563    1.946036
  C     -0.645551    0.407563    1.946036
  C      1.905245    0.455548    1.946035
  C     -1.905245   -0.455548    1.946035
  C      3.188872   -0.370459    1.946035
  C     -3.188872    0.370459    1.946035
  H      0.658791   -1.066678    2.824831
  H      0.658791   -1.066677    1.067239
  H     -0.658791    1.066678    2.824831
  H     -0.658791    1.066677    1.067239
  H      1.890410    1.113462    1.068026
  H      1.890408    1.113463    2.824044
  H     -1.890410   -1.113462    1.068026
  H     -1.890408   -1.113463    2.824044
  H      4.076897    0.268530    1.946035
  H      3.237787   -1.013830    1.061986
  H      3.237787   -1.013830    2.830082
  H     -4.076897   -0.268530    1.946035
  H     -3.237787    1.013830    1.061986
  H     -3.237787    1.013830    2.830082
  C      0.645551    0.407563   -1.946036
  C     -0.645551   -0.407563   -1.946036
  C      1.905245   -0.455548   -1.946035
  C     -1.905245    0.455548   -1.946035
  C      3.188872    0.370459   -1.946035
  C     -3.188872   -0.370459   -1.946035
  H      0.658791    1.066678   -2.824831
  H      0.658791    1.066677   -1.067239
  H     -0.658791   -1.066678   -2.824831
  H     -0.658791   -1.066677   -1.067239
  H      1.890410   -1.113462   -1.068026
  H      1.890408   -1.113463   -2.824044
  H     -1.890410    1.113462   -1.068026
  H     -1.890408    1.113463   -2.824044
  H      4.076897   -0.268530   -1.946035
  H      3.237787    1.013830   -1.061986
  H      3.237787    1.013830   -2.830082
  H     -4.076897    0.268530   -1.946035
  H     -3.237787   -1.013830   -1.061986
  H     -3.237787   -1.013830   -2.830082

 Total Charge           Charge          ....    0
 Multiplicity           Mult            ....    1
 Number of Electrons    NEL             ....  100
 Basis Dimension        Dim             ....  236

ORBITAL ENERGIES
----------------

  NO   OCC          E(Eh)            E(eV)
   0   2.0000     -10.429521      -283.8017
   1   2.0000     -10.429512      -283.8015
   2   2.0000     -10.429493      -283.8009
   3   2.0000     -10.429490      -283.8008
   4   2.0000     -10.427759      -283.7538
   5   2.0000     -10.427748      -283.7535
   6   2.0000     -10.427529      -283.7475
   7   2.0000     -10.427526      -283.7474
   8   2.0000     -10.421143      -283.5737
   9   2.0000     -10.421141      -283.5737
  10   2.0000     -10.421134      -283.5735
  11   2.0000     -10.421132      -283.5734
  12   2.0000      -0.898777       -24.4570
  13   2.0000      -0.894921       -24.3520
  14   2.0000      -0.856786       -23.3143
  15   2.0000      -0.853192       -23.2165
  16   2.0000      -0.791868       -21.5478
  17   2.0000      -0.788709       -21.4619
  18   2.0000      -0.714610       -19.4455
  19   2.0000      -0.712480       -19.3876
  20   2.0000      -0.652449       -17.7540
  21   2.0000      -0.650608       -17.7040
  22   2.0000      -0.646816       -17.6008
  23   2.0000      -0.640977       -17.4419
  24   2.0000      -0.551000       -14.9935
  25   2.0000      -0.528509       -14.3815
  26   2.0000      -0.513090       -13.9619
  27   2.0000      -0.493316       -13.4238
  28   2.0000      -0.493165       -13.4197
  29   2.0000      -0.491332       -13.3698
  30   2.0000      -0.478142       -13.0109
  31   2.0000      -0.474448       -12.9104
  32   2.0000      -0.459643       -12.5075
  33   2.0000      -0.445306       -12.1174
  34   2.0000      -0.433687       -11.8012
  35   2.0000      -0.432749       -11.7757
  36   2.0000      -0.430172       -11.7056
  37   2.0000      -0.428550       -11.6614
  38   2.0000      -0.406451       -11.0601
  39   2.0000      -0.401491       -10.9251
  40   2.0000      -0.390885       -10.6365
  41   2.0000      -0.387173       -10.5355
  42   2.0000      -0.378664       -10.3040
  43   2.0000      -0.376052       -10.2329
  44   2.0000      -0.376023       -10.2321
  45   2.0000      -0.368937       -10.0393
  46   2.0000      -0.366936        -9.9848
  47   2.0000      -0.355882        -9.6841
  48   2.0000      -0.355274        -9.6675
  49   2.0000      -0.354762        -9.6536
  50   0.0000       0.085405         2.3240
  51   0.0000       0.106586         2.9003
  52   0.0000       0.143690         3.9100
  53   0.0000       0.144747         3.9388
  54   0.0000       0.158791         4.3209

MULLIKEN ATOMIC CHARGES
-----------------------
   0 C :   -0.402656
   1 C :   -0.402655
   2 C :   -0.416748
   3 C :   -0.416748
   4 C :   -0.642088
   5 C :   -0.642088
   6 H :    0.202089
   7 H :    0.204497
   8 H :    0.202089
   9 H :    0.204497
  10 H :    0.207460
  11 H :    0.206764
  12 H :    0.207460
  13 H :    0.206764
  14 H :    0.217561
  15 H :    0.213208
  16 H :    0.209912
  17 H :    0.217561
  18 H :    0.213208
  19 H :    0.209912
  20 C :   -0.402656
  21 C :   -0.402655
  22 C :   -0.416748
  23 C :   -0.416748
  24 C :   -0.642088
  25 C :   -0.642088
  26 H :    0.202089
  27 H :    0.204497
  28 H :    0.202089
  29 H :    0.204497
  30 H :    0.207460
  31 H :    0.206764
  32 H :    0.207460
  33 H :    0.206764
  34 H :    0.217562
  35 H :    0.213208
  36 H :    0.209912
  37 H :    0.217562
  38 H :    0.213208
  39 H :    0.209912
Sum of atomic charges:   -0.0000000

LOEWDIN ATOMIC CHARGES
----------------------
   0 C :   -0.239056
   1 C :   -0.239056
   2 C :   -0.244860
   3 C :   -0.244860
   4 C :   -0.361486
   5 C :   -0.361486
   6 H :    0.118915
   7 H :    0.116977
   8 H :    0.118915
   9 H :    0.116977
  10 H :    0.116965
  11 H :    0.119667
  12 H :    0.116965
  13 H :    0.119667
  14 H :    0.126167
  15 H :    0.123319
  16 H :    0.123391
  17 H :    0.126167
  18 H :    0.123319
  19 H :    0.123391
  20 C :   -0.239056
  21 C :   -0.239056
  22 C :   -0.244860
  23 C :   -0.244860
  24 C :   -0.361486
  25 C :   -0.361486
  26 H :    0.118915
  27 H :    0.116977
  28 H :    0.118915
  29 H :    0.116977
  30 H :    0.116965
  31 H :    0.119667
  32 H :    0.116965
  33 H :    0.119667
  34 H :    0.126167
  35 H :    0.123319
  36 H :    0.123391
  37 H :    0.126167
  38 H :    0.123319
  39 H :    0.123391

  Mayer bond orders larger than 0.100000
B(  0-C ,  1-C ) :   0.9931 B(  0-C ,  2-C ) :   0.9875 B(  0-C ,  6-H ) :   0.9177
B(  0-C ,  7-H ) :   0.9090 B(  1-C ,  3-C ) :   0.9875 B(  1-C ,  8-H ) :   0.9177
B(  1-C ,  9-H ) :   0.9090 B(  2-C ,  4-C ) :   0.9959 B(  2-C , 10-H ) :   0.9115
B(  2-C , 11-H ) :   0.9198 B(  3-C ,  5-C ) :   0.9959 B(  3-C , 12-H ) :   0.9115
B(  3-C , 13-H ) :   0.9198 B(  4-C , 14-H ) :   0.9322 B(  4-C , 15-H ) :   0.9236
B(  4-C , 16-H ) :   0.9285 B(  5-C , 17-H ) :   0.9322 B(  5-C , 18-H ) :   0.9236
B(  5-C , 19-H ) :   0.9285 B( 20-C , 21-C ) :   0.9931 B( 20-C , 22-C ) :   0.9875
B( 20-C , 26-H ) :   0.9177 B( 20-C , 27-H ) :   0.9090 B( 21-C , 23-C ) :   0.9875
B( 21-C , 28-H ) :   0.9177 B( 21-C , 29-H ) :   0.9090 B( 22-C , 24-C ) :   0.9959
B( 22-C , 30-H ) :   0.9115 B( 22-C , 31-H ) :   0.9198 B( 23-C , 25-C ) :   0.9959
B( 23-C , 32-H ) :   0.9115 B( 23-C , 33-H ) :   0.9198 B( 24-C , 34-H ) :   0.9322
B( 24-C , 35-H ) :   0.9236 B( 24-C , 36-H ) :   0.9285 B( 25-C , 37-H ) :   0.9322
B( 25-C , 38-H ) :   0.9236 B( 25-C , 39-H ) :   0.9285

Dispersion correction           -0.022221382
FINAL SINGLE POINT ENERGY      -473.130386269429

DIPOLE MOMENT
-------------
                                X             Y             Z
Electronic contribution:     -0.00000      -0.00000       0.00000
Nuclear contribution   :      0.00000      -0.00000       0.00000
                        -----------------------------------------
Total Dipole Moment    :     -0.00000      -0.00000       0.00000
                        -----------------------------------------
Magnitude (a.u.)       :      0.00000
Magnitude (Debye)      :      0.00000

Rotational constants in cm-1:     0.023292     0.018341     0.010959
Rotational constants in MHz :   698.265286   549.838451   328.528427

                             ****ORCA TERMINATED NORMALLY****
TOTAL RUN TIME: 0 days 0 hours 2 minutes 45 seconds 486 msec
