                         Program Version 5.0.3 -  RELEASE  -
|  1> ! PBEh-3c def2/J TightSCF DefGrid3
|  2>
|  3> %maxcore 60000
|  4>
|  5> %pal
|  6> nprocs 4
|  7> end
|  8>
|  9> *xyzfile 0 1 52.xyz
| 10>
| 11>                          ****END OF INPUT****

CARTESIAN COORDINATES (ANGSTROEM)
---------------------------------
  C      0.913102    0.899774   -1.738765
  H      1.608851    1.724611   -1.670736
  C      1.380079   -0.388453   -1.997787
  H      2.438546   -0.562528   -2.133791
  C      0.483149   -1.452958   -2.074361
  H      0.845983   -2.452707   -2.268790
  C     -0.881305   -1.228923   -1.895922
  H     -1.576738   -2.054943   -1.952662
  C     -1.348565    0.059093   -1.636536
  H     -2.405374    0.232697   -1.488217
  C     -0.451423    1.124460   -1.555177
  H     -0.811434    2.118450   -1.332021
  C     -0.170833    0.559070    2.243302
  O     -0.639023    1.608517    1.864042
  O      0.232379   -0.418493    1.404017
  H      0.063674   -0.092579    0.502612
  C      0.039121    0.162083    3.674708
  H     -0.270845    0.971420    4.324697
  H     -0.536960   -0.734541    3.891659
  H      1.087618   -0.074049    3.839727

 Total Charge           Charge          ....    0
 Multiplicity           Mult            ....    1
 Number of Electrons    NEL             ....   74
 Basis Dimension        Dim             ....  170

ORBITAL ENERGIES
----------------

  NO   OCC          E(Eh)            E(eV)
   0   2.0000     -19.525164      -531.3067
   1   2.0000     -19.474049      -529.9158
   2   2.0000     -10.573385      -287.7164
   3   2.0000     -10.459192      -284.6091
   4   2.0000     -10.458991      -284.6036
   5   2.0000     -10.458591      -284.5927
   6   2.0000     -10.458226      -284.5828
   7   2.0000     -10.458195      -284.5820
   8   2.0000     -10.457547      -284.5643
   9   2.0000     -10.440383      -284.0973
  10   2.0000      -1.205071       -32.7916
  11   2.0000      -1.110530       -30.2191
  12   2.0000      -0.964009       -26.2320
  13   2.0000      -0.845912       -23.0184
  14   2.0000      -0.845873       -23.0174
  15   2.0000      -0.839486       -22.8436
  16   2.0000      -0.688265       -18.7286
  17   2.0000      -0.687943       -18.7199
  18   2.0000      -0.670645       -18.2492
  19   2.0000      -0.601113       -16.3571
  20   2.0000      -0.549806       -14.9610
  21   2.0000      -0.535638       -14.5754
  22   2.0000      -0.533453       -14.5160
  23   2.0000      -0.523167       -14.2361
  24   2.0000      -0.518100       -14.0982
  25   2.0000      -0.491092       -13.3633
  26   2.0000      -0.490434       -13.3454
  27   2.0000      -0.462692       -12.5905
  28   2.0000      -0.449862       -12.2414
  29   2.0000      -0.441173       -12.0049
  30   2.0000      -0.426536       -11.6066
  31   2.0000      -0.407082       -11.0773
  32   2.0000      -0.406711       -11.0672
  33   2.0000      -0.363658        -9.8956
  34   2.0000      -0.325521        -8.8579
  35   2.0000      -0.304295        -8.2803
  36   2.0000      -0.302804        -8.2397
  37   0.0000       0.007927         0.2157
  38   0.0000       0.008567         0.2331
  39   0.0000       0.056373         1.5340
  40   0.0000       0.134543         3.6611
  41   0.0000       0.156012         4.2453

MULLIKEN ATOMIC CHARGES
-----------------------
   0 C :   -0.241462
   1 H :    0.232041
   2 C :   -0.220658
   3 H :    0.227821
   4 C :   -0.222041
   5 H :    0.227227
   6 C :   -0.221428
   7 H :    0.227953
   8 C :   -0.243390
   9 H :    0.233204
  10 C :   -0.241071
  11 H :    0.244220
  12 C :    0.499027
  13 O :   -0.400549
  14 O :   -0.593773
  15 H :    0.477876
  16 C :   -0.739531
  17 H :    0.252906
  18 H :    0.250993
  19 H :    0.250636
Sum of atomic charges:   -0.0000000

LOEWDIN ATOMIC CHARGES
----------------------
   0 C :   -0.144504
   1 H :    0.141337
   2 C :   -0.137267
   3 H :    0.139526
   4 C :   -0.136326
   5 H :    0.139345
   6 C :   -0.137826
   7 H :    0.139569
   8 C :   -0.144590
   9 H :    0.141909
  10 C :   -0.141556
  11 H :    0.147749
  12 C :    0.129464
  13 O :   -0.239926
  14 O :   -0.303610
  15 H :    0.339104
  16 C :   -0.391905
  17 H :    0.149661
  18 H :    0.155204
  19 H :    0.154641

  Mayer bond orders larger than 0.100000
B(  0-C ,  1-H ) :   0.9176 B(  0-C ,  2-C ) :   1.4189 B(  0-C , 10-C ) :   1.4172
B(  2-C ,  3-H ) :   0.9186 B(  2-C ,  4-C ) :   1.4233 B(  4-C ,  5-H ) :   0.9185
B(  4-C ,  6-C ) :   1.4224 B(  6-C ,  7-H ) :   0.9186 B(  6-C ,  8-C ) :   1.4190
B(  8-C ,  9-H ) :   0.9172 B(  8-C , 10-C ) :   1.4172 B( 10-C , 11-H ) :   0.9126
B( 12-C , 13-O ) :   2.0596 B( 12-C , 14-O ) :   1.1672 B( 12-C , 16-C ) :   0.9381
B( 14-O , 15-H ) :   0.7139 B( 16-C , 17-H ) :   0.9195 B( 16-C , 18-H ) :   0.9070
B( 16-C , 19-H ) :   0.9073

Dispersion correction           -0.010475084
FINAL SINGLE POINT ENERGY      -460.335865198695

DIPOLE MOMENT
-------------
                                X             Y             Z
Electronic contribution:     -0.59928       1.26733      -2.13014
Nuclear contribution   :      0.85262      -1.86535       2.05065
                        -----------------------------------------
Total Dipole Moment    :      0.25334      -0.59802      -0.07949
                        -----------------------------------------
Magnitude (a.u.)       :      0.65431
Magnitude (Debye)      :      1.66313

Rotational constants in cm-1:     0.079577     0.023057     0.022102
Rotational constants in MHz :  2385.646004   691.243631   662.598694

                             ****ORCA TERMINATED NORMALLY****
TOTAL RUN TIME: 0 days 0 hours 2 minutes 13 seconds 243 msec
