                         Program Version 5.0.3 -  RELEASE  -
|  1> ! PBEh-3c def2/J TightSCF DefGrid3
|  2>
|  3> %maxcore 60000
|  4>
|  5> %pal
|  6> nprocs 4
|  7> end
|  8>
|  9> *xyzfile 0 1 tmethane_120.xyz
| 10>
| 11>                          ****END OF INPUT****

CARTESIAN COORDINATES (ANGSTROEM)
---------------------------------
  C     -0.018770    0.776214    0.189565
  C      0.018770   -0.776214    0.189565
  C      1.157704   -1.257556    1.075331
  H     -0.913965   -1.121095    0.642344
  C      0.107856   -1.416173   -1.185319
  C     -0.107856    1.416173   -1.185319
  H      0.913965    1.121095    0.642344
  C     -1.157704    1.257556    1.075331
  H      0.019103    2.491866   -1.113050
  H      0.655003    1.041404   -1.861889
  H     -1.078097    1.224834   -1.648008
  H     -0.019103   -2.491866   -1.113050
  H     -0.655003   -1.041404   -1.861889
  H      1.078097   -1.224834   -1.648008
  H      1.187267   -2.342432    1.152480
  H      2.112319   -0.925499    0.667267
  H      1.067429   -0.848013    2.080361
  H     -1.187267    2.342432    1.152480
  H     -2.112319    0.925499    0.667267
  H     -1.067429    0.848013    2.080361

 Total Charge           Charge          ....    0
 Multiplicity           Mult            ....    1
 Number of Electrons    NEL             ....   50
 Basis Dimension        Dim             ....  118

ORBITAL ENERGIES
----------------

  NO   OCC          E(Eh)            E(eV)
   0   2.0000     -10.433599      -283.9127
   1   2.0000     -10.433423      -283.9079
   2   2.0000     -10.417063      -283.4627
   3   2.0000     -10.417047      -283.4623
   4   2.0000     -10.416189      -283.4389
   5   2.0000     -10.416124      -283.4372
   6   2.0000      -0.912808       -24.8388
   7   2.0000      -0.835319       -22.7302
   8   2.0000      -0.771892       -21.0042
   9   2.0000      -0.752025       -20.4636
  10   2.0000      -0.677046       -18.4234
  11   2.0000      -0.612004       -16.6535
  12   2.0000      -0.516689       -14.0598
  13   2.0000      -0.516571       -14.0566
  14   2.0000      -0.500188       -13.6108
  15   2.0000      -0.459442       -12.5021
  16   2.0000      -0.450361       -12.2549
  17   2.0000      -0.438087       -11.9210
  18   2.0000      -0.434882       -11.8338
  19   2.0000      -0.421299       -11.4641
  20   2.0000      -0.396013       -10.7761
  21   2.0000      -0.390643       -10.6299
  22   2.0000      -0.360244        -9.8028
  23   2.0000      -0.351726        -9.5709
  24   2.0000      -0.350868        -9.5476
  25   0.0000       0.126519         3.4428
  26   0.0000       0.168767         4.5924
  27   0.0000       0.177472         4.8292
  28   0.0000       0.183316         4.9883
  29   0.0000       0.192313         5.2331

MULLIKEN ATOMIC CHARGES
-----------------------
   0 C :   -0.215791
   1 C :   -0.215790
   2 C :   -0.639208
   3 H :    0.213254
   4 C :   -0.643175
   5 C :   -0.643175
   6 H :    0.213254
   7 C :   -0.639208
   8 H :    0.221755
   9 H :    0.220497
  10 H :    0.204429
  11 H :    0.221755
  12 H :    0.220497
  13 H :    0.204429
  14 H :    0.215491
  15 H :    0.207097
  16 H :    0.215650
  17 H :    0.215491
  18 H :    0.207097
  19 H :    0.215650
Sum of atomic charges:    0.0000000

LOEWDIN ATOMIC CHARGES
----------------------
   0 C :   -0.156320
   1 C :   -0.156320
   2 C :   -0.352623
   3 H :    0.120026
   4 C :   -0.354811
   5 C :   -0.354811
   6 H :    0.120026
   7 C :   -0.352623
   8 H :    0.126810
   9 H :    0.125907
  10 H :    0.121471
  11 H :    0.126810
  12 H :    0.125907
  13 H :    0.121471
  14 H :    0.123432
  15 H :    0.122095
  16 H :    0.124013
  17 H :    0.123432
  18 H :    0.122095
  19 H :    0.124013

  Mayer bond orders larger than 0.100000
B(  0-C ,  1-C ) :   0.9142 B(  0-C ,  5-C ) :   0.9966 B(  0-C ,  6-H ) :   0.9159
B(  0-C ,  7-C ) :   0.9913 B(  1-C ,  2-C ) :   0.9913 B(  1-C ,  3-H ) :   0.9159
B(  1-C ,  4-C ) :   0.9966 B(  2-C , 14-H ) :   0.9299 B(  2-C , 15-H ) :   0.9266
B(  2-C , 16-H ) :   0.9304 B(  4-C , 11-H ) :   0.9272 B(  4-C , 12-H ) :   0.9257
B(  4-C , 13-H ) :   0.9281 B(  5-C ,  8-H ) :   0.9272 B(  5-C ,  9-H ) :   0.9257
B(  5-C , 10-H ) :   0.9281 B(  7-C , 17-H ) :   0.9299 B(  7-C , 18-H ) :   0.9266
B(  7-C , 19-H ) :   0.9304

Dispersion correction           -0.009666931
FINAL SINGLE POINT ENERGY      -236.557285992768

DIPOLE MOMENT
-------------
                                X             Y             Z
Electronic contribution:      0.00000      -0.00000       0.42404
Nuclear contribution   :      0.00000      -0.00000      -0.41765
                        -----------------------------------------
Total Dipole Moment    :      0.00000      -0.00000       0.00639
                        -----------------------------------------
Magnitude (a.u.)       :      0.00639
Magnitude (Debye)      :      0.01625

Rotational constants in cm-1:     0.141679     0.090316     0.067820
Rotational constants in MHz :  4247.416475  2707.600263  2033.180170

                             ****ORCA TERMINATED NORMALLY****
TOTAL RUN TIME: 0 days 0 hours 1 minutes 43 seconds 202 msec
