                         Program Version 5.0.3 -  RELEASE  -
|  1> ! PBEh-3c def2/J TightSCF DefGrid3
|  2>
|  3> %maxcore 60000
|  4>
|  5> %pal
|  6> nprocs 4
|  7> end
|  8>
|  9> *xyzfile 1 1 aminocoohbz1.xyz
| 10>
| 11>                          ****END OF INPUT****

CARTESIAN COORDINATES (ANGSTROEM)
---------------------------------
  C     -1.450856    0.017027   -0.060702
  C     -0.788625    0.012763   -1.273174
  C      0.594878    0.001988   -1.261850
  C      1.287163   -0.005555   -0.055974
  C      0.593316   -0.001430    1.148829
  C     -0.792674    0.010441    1.152512
  N     -2.928368    0.003196   -0.063703
  H     -3.309831    0.484389   -0.883507
  H     -3.314217    0.473086    0.760485
  H     -1.320964    0.018493   -2.218339
  H      1.144398    0.003582   -2.194866
  C      2.782719   -0.012050   -0.117085
  H      1.122594   -0.002461    2.092226
  H     -1.328746    0.014557    2.095563
  O      3.331907   -0.029700    1.087507
  O      3.386042   -0.003478   -1.147782
  H      4.295384   -0.033755    1.011379
  H     -3.304119   -0.951095   -0.071517

 Total Charge           Charge          ....    1
 Multiplicity           Mult            ....    1
 Number of Electrons    NEL             ....   72
 Basis Dimension        Dim             ....  166

ORBITAL ENERGIES
----------------

  NO   OCC          E(Eh)            E(eV)
   0   2.0000     -19.663238      -535.0639
   1   2.0000     -19.605697      -533.4982
   2   2.0000     -14.973979      -407.4627
   3   2.0000     -10.706836      -291.3478
   4   2.0000     -10.691651      -290.9346
   5   2.0000     -10.632796      -289.3331
   6   2.0000     -10.631946      -289.3100
   7   2.0000     -10.619976      -288.9842
   8   2.0000     -10.618340      -288.9397
   9   2.0000     -10.615786      -288.8702
  10   2.0000      -1.350346       -36.7448
  11   2.0000      -1.320652       -35.9368
  12   2.0000      -1.254338       -34.1323
  13   2.0000      -1.138110       -30.9695
  14   2.0000      -1.029831       -28.0231
  15   2.0000      -1.021330       -27.7918
  16   2.0000      -0.908417       -24.7193
  17   2.0000      -0.892721       -24.2922
  18   2.0000      -0.857024       -23.3208
  19   2.0000      -0.834911       -22.7191
  20   2.0000      -0.821086       -22.3429
  21   2.0000      -0.793547       -21.5935
  22   2.0000      -0.737360       -20.0646
  23   2.0000      -0.694826       -18.9072
  24   2.0000      -0.682033       -18.5591
  25   2.0000      -0.665911       -18.1204
  26   2.0000      -0.654768       -17.8171
  27   2.0000      -0.646527       -17.5929
  28   2.0000      -0.621452       -16.9106
  29   2.0000      -0.598276       -16.2799
  30   2.0000      -0.581151       -15.8139
  31   2.0000      -0.568326       -15.4649
  32   2.0000      -0.501784       -13.6542
  33   2.0000      -0.470632       -12.8065
  34   2.0000      -0.466916       -12.7054
  35   2.0000      -0.461992       -12.5714
  36   0.0000      -0.182088        -4.9549
  37   0.0000      -0.154062        -4.1922
  38   0.0000      -0.113629        -3.0920
  39   0.0000      -0.068907        -1.8750
  40   0.0000      -0.057076        -1.5531

MULLIKEN ATOMIC CHARGES
-----------------------
   0 C :    0.222370
   1 C :   -0.217348
   2 C :   -0.229317
   3 C :   -0.057428
   4 C :   -0.233953
   5 C :   -0.214427
   6 N :   -0.890843
   7 H :    0.459850
   8 H :    0.459528
   9 H :    0.269975
  10 H :    0.305990
  11 C :    0.550251
  12 H :    0.295506
  13 H :    0.268731
  14 O :   -0.579369
  15 O :   -0.345273
  16 H :    0.473818
  17 H :    0.461939
Sum of atomic charges:    1.0000000

LOEWDIN ATOMIC CHARGES
----------------------
   0 C :   -0.021865
   1 C :   -0.132511
   2 C :   -0.058050
   3 C :   -0.062099
   4 C :   -0.069595
   5 C :   -0.133001
   6 N :   -0.183773
   7 H :    0.314982
   8 H :    0.314690
   9 H :    0.159287
  10 H :    0.182512
  11 C :    0.130906
  12 H :    0.176842
  13 H :    0.158534
  14 O :   -0.264758
  15 O :   -0.183745
  16 H :    0.354020
  17 H :    0.317624

  Mayer bond orders larger than 0.100000
B(  0-C ,  1-C ) :   1.3524 B(  0-C ,  5-C ) :   1.3610 B(  0-C ,  6-N ) :   0.7022
B(  1-C ,  2-C ) :   1.4375 B(  1-C ,  9-H ) :   0.8980 B(  2-C ,  3-C ) :   1.3802
B(  2-C , 10-H ) :   0.8755 B(  3-C ,  4-C ) :   1.3608 B(  3-C , 11-C ) :   0.9337
B(  4-C ,  5-C ) :   1.4326 B(  4-C , 12-H ) :   0.8868 B(  5-C , 13-H ) :   0.8981
B(  6-N ,  7-H ) :   0.7757 B(  6-N ,  8-H ) :   0.7761 B(  6-N , 17-H ) :   0.7680
B( 11-C , 14-O ) :   1.1911 B( 11-C , 15-O ) :   2.0771 B( 14-O , 16-H ) :   0.7334

Dispersion correction           -0.010321359
FINAL SINGLE POINT ENERGY      -475.498879596823

DIPOLE MOMENT
-------------
                                X             Y             Z
Electronic contribution:      5.02916      -0.02768      -0.33367
Nuclear contribution   :    -10.31649       0.01686       0.92888
                        -----------------------------------------
Total Dipole Moment    :     -5.28733      -0.01082       0.59520
                        -----------------------------------------
Magnitude (a.u.)       :      5.32074
Magnitude (Debye)      :     13.52425

Rotational constants in cm-1:     0.126968     0.026048     0.021691
Rotational constants in MHz :  3806.405993   780.911556   650.279510

                             ****ORCA TERMINATED NORMALLY****
TOTAL RUN TIME: 0 days 0 hours 2 minutes 4 seconds 60 msec
