                         Program Version 5.0.3 -  RELEASE  -
|  1> ! PBEh-3c def2/J TightSCF DefGrid3
|  2>
|  3> %maxcore 60000
|  4>
|  5> %pal
|  6> nprocs 4
|  7> end
|  8>
|  9> *xyzfile 0 1 66A.xyz
| 10>
| 11>                          ****END OF INPUT****

CARTESIAN COORDINATES (ANGSTROEM)
---------------------------------
  N     -0.272709   -0.543421   -0.690682
  H      0.323904   -1.359115   -0.611980
  H     -1.201319   -0.847706   -0.428543
  C      0.189551    0.469393    0.256772
  H     -0.451802    1.346416    0.190293
  H      0.217592    0.150826    1.303828
  H      1.194781    0.783606   -0.019688

 Total Charge           Charge          ....    0
 Multiplicity           Mult            ....    1
 Number of Electrons    NEL             ....   18
 Basis Dimension        Dim             ....   40

ORBITAL ENERGIES
----------------

  NO   OCC          E(Eh)            E(eV)
   0   2.0000     -14.604418      -397.4064
   1   2.0000     -10.445715      -284.2424
   2   2.0000      -0.965758       -26.2796
   3   2.0000      -0.734025       -19.9738
   4   2.0000      -0.546679       -14.8759
   5   2.0000      -0.493242       -13.4218
   6   2.0000      -0.452113       -12.3026
   7   2.0000      -0.416292       -11.3279
   8   2.0000      -0.283844        -7.7238
   9   0.0000       0.137655         3.7458
  10   0.0000       0.201417         5.4808
  11   0.0000       0.212701         5.7879
  12   0.0000       0.228115         6.2073
  13   0.0000       0.233283         6.3480

MULLIKEN ATOMIC CHARGES
-----------------------
   0 N :   -0.734601
   1 H :    0.312885
   2 H :    0.313458
   3 C :   -0.503604
   4 H :    0.216070
   5 H :    0.179882
   6 H :    0.215909
Sum of atomic charges:   -0.0000000

LOEWDIN ATOMIC CHARGES
----------------------
   0 N :   -0.485641
   1 H :    0.218144
   2 H :    0.217978
   3 C :   -0.280418
   4 H :    0.119847
   5 H :    0.090287
   6 H :    0.119803

  Mayer bond orders larger than 0.100000
B(  0-N ,  1-H ) :   0.8681 B(  0-N ,  2-H ) :   0.8675 B(  0-N ,  3-C ) :   1.0355
B(  3-C ,  4-H ) :   0.9266 B(  3-C ,  5-H ) :   0.9174 B(  3-C ,  6-H ) :   0.9265

Dispersion correction           -0.001526224
FINAL SINGLE POINT ENERGY       -95.642733569164

DIPOLE MOMENT
-------------
                                X             Y             Z
Electronic contribution:     -0.32164      -0.62536      -0.79906
Nuclear contribution   :      0.29718       0.35364       1.33368
                        -----------------------------------------
Total Dipole Moment    :     -0.02446      -0.27172       0.53463
                        -----------------------------------------
Magnitude (a.u.)       :      0.60021
Magnitude (Debye)      :      1.52561

Rotational constants in cm-1:     3.459031     0.763547     0.734738
Rotational constants in MHz : 103699.145474 22890.560809 22026.891615

                             ****ORCA TERMINATED NORMALLY****
TOTAL RUN TIME: 0 days 0 hours 1 minutes 8 seconds 216 msec
