                         Program Version 5.0.3 -  RELEASE  -
|  1> ! PBEh-3c def2/J TightSCF DefGrid3
|  2>
|  3> %maxcore 60000
|  4>
|  5> %pal
|  6> nprocs 4
|  7> end
|  8>
|  9> *xyzfile 1 1 27A.xyz
| 10>
| 11>                          ****END OF INPUT****

CARTESIAN COORDINATES (ANGSTROEM)
---------------------------------
  K      0.154714    0.312155    2.173467

 Total Charge           Charge          ....    1
 Multiplicity           Mult            ....    1
 Number of Electrons    NEL             ....   18
 Basis Dimension        Dim             ....   24

ORBITAL ENERGIES
----------------

  NO   OCC          E(Eh)            E(eV)
   0   2.0000    -130.928608     -3562.7486
   1   2.0000     -13.808207      -375.7404
   2   2.0000     -11.066957      -301.1472
   3   2.0000     -11.066957      -301.1472
   4   2.0000     -11.066957      -301.1472
   5   2.0000      -1.732947       -47.1559
   6   2.0000      -1.053247       -28.6603
   7   2.0000      -1.053247       -28.6603
   8   2.0000      -1.053247       -28.6603
   9   0.0000      -0.185185        -5.0391
  10   0.0000      -0.110430        -3.0050
  11   0.0000      -0.110430        -3.0050
  12   0.0000      -0.110430        -3.0050
  13   0.0000      -0.066518        -1.8101

MULLIKEN ATOMIC CHARGES
-----------------------
   0 K :    1.000000
Sum of atomic charges:    1.0000000

LOEWDIN ATOMIC CHARGES
----------------------
   0 K :    1.000000

Dispersion correction            0.000000000
FINAL SINGLE POINT ENERGY      -599.265030983801

DIPOLE MOMENT
-------------
                                X             Y             Z
Electronic contribution:      0.00001       0.00001       0.00000
Nuclear contribution   :      0.00000       0.00000       0.00000
                        -----------------------------------------
Total Dipole Moment    :      0.00001       0.00001       0.00000
                        -----------------------------------------
Magnitude (a.u.)       :      0.00001
Magnitude (Debye)      :      0.00002

Rotational constants in cm-1:     0.000000     0.000000     0.000000
Rotational constants in MHz :     0.000000     0.000000     0.000000

                             ****ORCA TERMINATED NORMALLY****
TOTAL RUN TIME: 0 days 0 hours 0 minutes 19 seconds 252 msec
