                         Program Version 5.0.3 -  RELEASE  -
|  1> ! PBEh-3c def2/J TightSCF DefGrid3
|  2>
|  3> %maxcore 60000
|  4>
|  5> %pal
|  6> nprocs 4
|  7> end
|  8>
|  9> *xyzfile -1 1 2a.xyz
| 10>
| 11>                          ****END OF INPUT****

CARTESIAN COORDINATES (ANGSTROEM)
---------------------------------
  H      1.536855    2.186827   -3.280605
  O      0.878389    2.190042   -2.568012
  C      1.358872    3.053092   -1.523365
  H      1.570808    4.056199   -1.913813
  H      2.270740    2.647307   -1.063898
  C      0.287490    3.146025   -0.456496
  H      0.682547    3.713477    0.391755
  O     -0.869487    3.865930   -0.990742
  C     -2.046344    3.084922   -0.842480
  H     -2.638543    3.389064    0.024337
  N     -2.892233    3.321155   -2.023111
  C     -2.328673    3.243606   -3.275636
  H     -1.257707    3.058878   -3.272653
  C     -3.047487    3.399170   -4.413756
  H     -2.570410    3.341614   -5.383325
  C     -4.467389    3.646857   -4.338894
  O     -5.240575    3.801857   -5.291761
  N     -4.957151    3.705903   -3.025817
  H     -5.952918    3.879853   -2.915912
  C     -4.259325    3.543700   -1.845908
  O     -4.799737    3.602170   -0.743612
  C     -0.234647    1.789113    0.035995
  H      0.468302    0.978378   -0.163418
  C     -1.563051    1.622884   -0.712740
  H     -1.366571    1.214969   -1.707749
  O     -2.491464    0.769576   -0.070648
  H     -2.400997    0.957652    0.884374
  O     -0.557384    1.842018    1.444652
  P      0.608292    1.256136    2.467837
  O      0.102660    1.572517    3.842458
  O      1.952830    1.687391    1.970491
  O      0.553599   -0.356837    2.198022
  C     -0.561090   -1.118399    2.699507
  H     -1.455900   -0.902825    2.105422
  H     -0.752185   -0.855815    3.745366
  C     -0.227453   -2.589771    2.614534
  H     -1.052344   -3.154630    3.067384
  O     -0.097009   -2.994451    1.224127
  C      0.908183   -3.977804    1.080091
  H      0.516422   -4.857505    0.566724
  N      2.007346   -3.422702    0.226457
  C      2.105461   -2.083584   -0.046114
  H      1.308609   -1.481602    0.373216
  C      3.129222   -1.559649   -0.766779
  H      3.178940   -0.497925   -0.969765
  C      4.174609   -2.416268   -1.263804
  O      5.157623   -2.075104   -1.934052
  N      4.007784   -3.765964   -0.912004
  H      4.725898   -4.414636   -1.224286
  C      2.986466   -4.325830   -0.175248
  O      2.929056   -5.525138    0.097621
  C      1.088129   -3.018560    3.260648
  H      1.859341   -2.260089    3.097876
  C      1.421146   -4.308185    2.488392
  H      2.488003   -4.550969    2.493204
  O      0.647355   -5.392300    3.002153
  H      0.548450   -5.209664    3.959031
  O      0.882742   -3.248677    4.654941
  H      1.745907   -3.203399    5.099786

 Total Charge           Charge          ....   -1
 Multiplicity           Mult            ....    1
 Number of Electrons    NEL             ....  286
 Basis Dimension        Dim             ....  602

ORBITAL ENERGIES
----------------

  NO   OCC          E(Eh)            E(eV)
   0   2.0000     -77.723951     -2114.9762
   1   2.0000     -19.454061      -529.3719
   2   2.0000     -19.448536      -529.2216
   3   2.0000     -19.434841      -528.8489
   4   2.0000     -19.429820      -528.7123
   5   2.0000     -19.427611      -528.6522
   6   2.0000     -19.407144      -528.0952
   7   2.0000     -19.406932      -528.0895
   8   2.0000     -19.400440      -527.9128
   9   2.0000     -19.400123      -527.9042
  10   2.0000     -19.398610      -527.8630
  11   2.0000     -19.396389      -527.8026
  12   2.0000     -19.391962      -527.6821
  13   2.0000     -19.283815      -524.7393
  14   2.0000     -19.278554      -524.5961
  15   2.0000     -14.638473      -398.3331
  16   2.0000     -14.634547      -398.2263
  17   2.0000     -14.622737      -397.9049
  18   2.0000     -14.620834      -397.8531
  19   2.0000     -10.530701      -286.5549
  20   2.0000     -10.527276      -286.4618
  21   2.0000     -10.495103      -285.5863
  22   2.0000     -10.490651      -285.4651
  23   2.0000     -10.477782      -285.1149
  24   2.0000     -10.455749      -284.5154
  25   2.0000     -10.445595      -284.2391
  26   2.0000     -10.436318      -283.9867
  27   2.0000     -10.435714      -283.9702
  28   2.0000     -10.433295      -283.9044
  29   2.0000     -10.428913      -283.7852
  30   2.0000     -10.416677      -283.4522
  31   2.0000     -10.413925      -283.3773
  32   2.0000     -10.413694      -283.3710
  33   2.0000     -10.410485      -283.2837
  34   2.0000     -10.402782      -283.0741
  35   2.0000     -10.382959      -282.5347
  36   2.0000     -10.373553      -282.2787
  37   2.0000      -6.768464      -184.1793
  38   2.0000      -4.863567      -132.3444
  39   2.0000      -4.862237      -132.3082
  40   2.0000      -4.859974      -132.2466
  41   2.0000      -1.121278       -30.5115
  42   2.0000      -1.112083       -30.2613
  43   2.0000      -1.104630       -30.0585
  44   2.0000      -1.086665       -29.5697
  45   2.0000      -1.083340       -29.4792
  46   2.0000      -1.069122       -29.0923
  47   2.0000      -1.066672       -29.0256
  48   2.0000      -1.060978       -28.8707
  49   2.0000      -1.056038       -28.7362
  50   2.0000      -1.052525       -28.6407
  51   2.0000      -1.040025       -28.3005
  52   2.0000      -1.010879       -27.5074
  53   2.0000      -1.003970       -27.3194
  54   2.0000      -1.000370       -27.2214
  55   2.0000      -0.955260       -25.9939
  56   2.0000      -0.953215       -25.9383
  57   2.0000      -0.913056       -24.8455
  58   2.0000      -0.871580       -23.7169
  59   2.0000      -0.818344       -22.2683
  60   2.0000      -0.816894       -22.2288
  61   2.0000      -0.800788       -21.7906
  62   2.0000      -0.784479       -21.3468
  63   2.0000      -0.774934       -21.0870
  64   2.0000      -0.762788       -20.7565
  65   2.0000      -0.696664       -18.9572
  66   2.0000      -0.694995       -18.9118
  67   2.0000      -0.693172       -18.8622
  68   2.0000      -0.691985       -18.8299
  69   2.0000      -0.651087       -17.7170
  70   2.0000      -0.644418       -17.5355
  71   2.0000      -0.619396       -16.8546
  72   2.0000      -0.607950       -16.5432
  73   2.0000      -0.593773       -16.1574
  74   2.0000      -0.583988       -15.8911
  75   2.0000      -0.568261       -15.4632
  76   2.0000      -0.556743       -15.1497
  77   2.0000      -0.551620       -15.0103
  78   2.0000      -0.550914       -14.9911
  79   2.0000      -0.537399       -14.6234
  80   2.0000      -0.528797       -14.3893
  81   2.0000      -0.518741       -14.1157
  82   2.0000      -0.513891       -13.9837
  83   2.0000      -0.507763       -13.8169
  84   2.0000      -0.505310       -13.7502
  85   2.0000      -0.494755       -13.4630
  86   2.0000      -0.485156       -13.2018
  87   2.0000      -0.480234       -13.0678
  88   2.0000      -0.473108       -12.8739
  89   2.0000      -0.469387       -12.7727
  90   2.0000      -0.463649       -12.6165
  91   2.0000      -0.453970       -12.3531
  92   2.0000      -0.451057       -12.2739
  93   2.0000      -0.443408       -12.0657
  94   2.0000      -0.439356       -11.9555
  95   2.0000      -0.437085       -11.8937
  96   2.0000      -0.431796       -11.7498
  97   2.0000      -0.430723       -11.7206
  98   2.0000      -0.419880       -11.4255
  99   2.0000      -0.411481       -11.1970
 100   2.0000      -0.409063       -11.1312
 101   2.0000      -0.408328       -11.1112
 102   2.0000      -0.404143       -10.9973
 103   2.0000      -0.401231       -10.9181
 104   2.0000      -0.396779       -10.7969
 105   2.0000      -0.394856       -10.7446
 106   2.0000      -0.392397       -10.6777
 107   2.0000      -0.391182       -10.6446
 108   2.0000      -0.377584       -10.2746
 109   2.0000      -0.375316       -10.2129
 110   2.0000      -0.373830       -10.1724
 111   2.0000      -0.366611        -9.9760
 112   2.0000      -0.349541        -9.5115
 113   2.0000      -0.348092        -9.4721
 114   2.0000      -0.346053        -9.4166
 115   2.0000      -0.336306        -9.1513
 116   2.0000      -0.333979        -9.0880
 117   2.0000      -0.332670        -9.0524
 118   2.0000      -0.328756        -8.9459
 119   2.0000      -0.318510        -8.6671
 120   2.0000      -0.303744        -8.2653
 121   2.0000      -0.298930        -8.1343
 122   2.0000      -0.283982        -7.7276
 123   2.0000      -0.281173        -7.6511
 124   2.0000      -0.280460        -7.6317
 125   2.0000      -0.272455        -7.4139
 126   2.0000      -0.270429        -7.3588
 127   2.0000      -0.268766        -7.3135
 128   2.0000      -0.265784        -7.2323
 129   2.0000      -0.260273        -7.0824
 130   2.0000      -0.258854        -7.0438
 131   2.0000      -0.256938        -6.9916
 132   2.0000      -0.254056        -6.9132
 133   2.0000      -0.247719        -6.7408
 134   2.0000      -0.244512        -6.6535
 135   2.0000      -0.241686        -6.5766
 136   2.0000      -0.236321        -6.4306
 137   2.0000      -0.210647        -5.7320
 138   2.0000      -0.204800        -5.5729
 139   2.0000      -0.204649        -5.5688
 140   2.0000      -0.194021        -5.2796
 141   2.0000      -0.175738        -4.7821
 142   2.0000      -0.162246        -4.4149
 143   0.0000       0.058945         1.6040
 144   0.0000       0.066084         1.7982
 145   0.0000       0.112838         3.0705
 146   0.0000       0.116895         3.1809
 147   0.0000       0.155925         4.2429

MULLIKEN ATOMIC CHARGES
-----------------------
   0 H :    0.423157
   1 O :   -0.645084
   2 C :   -0.199128
   3 H :    0.197988
   4 H :    0.232811
   5 C :    0.021496
   6 H :    0.274854
   7 O :   -0.501838
   8 C :    0.190188
   9 H :    0.275020
  10 N :   -0.567495
  11 C :    0.095761
  12 H :    0.311026
  13 C :   -0.487328
  14 H :    0.242803
  15 C :    0.563416
  16 O :   -0.433052
  17 N :   -0.735672
  18 H :    0.388015
  19 C :    0.726165
  20 O :   -0.439534
  21 C :   -0.059559
  22 H :    0.257485
  23 C :   -0.004960
  24 H :    0.247924
  25 O :   -0.635344
  26 H :    0.434986
  27 O :   -0.643074
  28 P :    1.388007
  29 O :   -0.726616
  30 O :   -0.739992
  31 O :   -0.625989
  32 C :   -0.172886
  33 H :    0.213515
  34 H :    0.243805
  35 C :    0.030988
  36 H :    0.226183
  37 O :   -0.490915
  38 C :    0.211384
  39 H :    0.274184
  40 N :   -0.576562
  41 C :    0.071823
  42 H :    0.343966
  43 C :   -0.475743
  44 H :    0.264513
  45 C :    0.556615
  46 O :   -0.434232
  47 N :   -0.731443
  48 H :    0.385547
  49 C :    0.710593
  50 O :   -0.452924
  51 C :   -0.067799
  52 H :    0.268801
  53 C :   -0.032367
  54 H :    0.234520
  55 O :   -0.640000
  56 H :    0.421440
  57 O :   -0.637223
  58 H :    0.427781
Sum of atomic charges:   -1.0000000

LOEWDIN ATOMIC CHARGES
----------------------
   0 H :    0.312504
   1 O :   -0.422586
   2 C :   -0.100931
   3 H :    0.108751
   4 H :    0.126917
   5 C :   -0.012379
   6 H :    0.150079
   7 O :   -0.252868
   8 C :    0.066649
   9 H :    0.146014
  10 N :   -0.083629
  11 C :    0.005008
  12 H :    0.165595
  13 C :   -0.258693
  14 H :    0.154768
  15 C :    0.126922
  16 O :   -0.284717
  17 N :   -0.202160
  18 H :    0.282139
  19 C :    0.166543
  20 O :   -0.280345
  21 C :   -0.028206
  22 H :    0.133376
  23 C :   -0.040962
  24 H :    0.134550
  25 O :   -0.386647
  26 H :    0.316721
  27 O :   -0.357791
  28 P :    0.808319
  29 O :   -0.600469
  30 O :   -0.609798
  31 O :   -0.359288
  32 C :   -0.089603
  33 H :    0.120022
  34 H :    0.140305
  35 C :   -0.013610
  36 H :    0.127290
  37 O :   -0.227832
  38 C :    0.089111
  39 H :    0.143308
  40 N :   -0.096316
  41 C :    0.000200
  42 H :    0.176794
  43 C :   -0.250840
  44 H :    0.164604
  45 C :    0.124617
  46 O :   -0.286625
  47 N :   -0.201191
  48 H :    0.280653
  49 C :    0.154067
  50 O :   -0.291263
  51 C :   -0.044424
  52 H :    0.139890
  53 C :   -0.044743
  54 H :    0.119072
  55 O :   -0.398889
  56 H :    0.311032
  57 O :   -0.390519
  58 H :    0.321506

  Mayer bond orders larger than 0.100000
B(  0-H ,  1-O ) :   0.7890 B(  1-O ,  2-C ) :   0.9722 B(  2-C ,  3-H ) :   0.9061
B(  2-C ,  4-H ) :   0.8868 B(  2-C ,  5-C ) :   0.9500 B(  5-C ,  6-H ) :   0.8841
B(  5-C ,  7-O ) :   0.9110 B(  5-C , 21-C ) :   0.9256 B(  7-O ,  8-C ) :   0.9856
B(  8-C ,  9-H ) :   0.8655 B(  8-C , 10-N ) :   0.8832 B(  8-C , 23-C ) :   0.8897
B( 10-N , 11-C ) :   1.0840 B( 10-N , 19-C ) :   1.0224 B( 11-C , 12-H ) :   0.8425
B( 11-C , 13-C ) :   1.5893 B( 13-C , 14-H ) :   0.9209 B( 13-C , 15-C ) :   1.0788
B( 15-C , 16-O ) :   1.9963 B( 15-C , 17-N ) :   0.9918 B( 17-N , 18-H ) :   0.8047
B( 17-N , 19-C ) :   1.0536 B( 19-C , 20-O ) :   1.9771 B( 21-C , 22-H ) :   0.8813
B( 21-C , 23-C ) :   0.9370 B( 21-C , 27-O ) :   0.9015 B( 23-C , 24-H ) :   0.8920
B( 23-C , 25-O ) :   1.0590 B( 25-O , 26-H ) :   0.7417 B( 27-O , 28-P ) :   0.8297
B( 28-P , 29-O ) :   1.7520 B( 28-P , 30-O ) :   1.7111 B( 28-P , 31-O ) :   0.8408
B( 31-O , 32-C ) :   0.9293 B( 32-C , 33-H ) :   0.8919 B( 32-C , 34-H ) :   0.8763
B( 32-C , 35-C ) :   0.9743 B( 35-C , 36-H ) :   0.8891 B( 35-C , 37-O ) :   0.9040
B( 35-C , 51-C ) :   0.9240 B( 37-O , 38-C ) :   1.0232 B( 38-C , 39-H ) :   0.8820
B( 38-C , 40-N ) :   0.8337 B( 38-C , 53-C ) :   0.9260 B( 40-N , 41-C ) :   1.0801
B( 40-N , 49-C ) :   1.0383 B( 41-C , 42-H ) :   0.8200 B( 41-C , 43-C ) :   1.5899
B( 43-C , 44-H ) :   0.9100 B( 43-C , 45-C ) :   1.0835 B( 45-C , 46-O ) :   1.9955
B( 45-C , 47-N ) :   0.9755 B( 47-N , 48-H ) :   0.8058 B( 47-N , 49-C ) :   1.0721
B( 49-C , 50-O ) :   1.9495 B( 51-C , 52-H ) :   0.8612 B( 51-C , 53-C ) :   0.9301
B( 51-C , 57-O ) :   0.9902 B( 53-C , 54-H ) :   0.8993 B( 53-C , 55-O ) :   1.0040
B( 55-O , 56-H ) :   0.7532 B( 57-O , 58-H ) :   0.7836

Dispersion correction           -0.046948372
FINAL SINGLE POINT ENERGY     -2308.312375858246

DIPOLE MOMENT
-------------
                                X             Y             Z
Electronic contribution:     -3.14006       2.85320      -1.88944
Nuclear contribution   :      3.90532      -4.57312       0.82454
                        -----------------------------------------
Total Dipole Moment    :      0.76526      -1.71992      -1.06490
                        -----------------------------------------
Magnitude (a.u.)       :      2.16281
Magnitude (Debye)      :      5.49743

Rotational constants in cm-1:     0.005019     0.001682     0.001551
Rotational constants in MHz :   150.470720    50.430530    46.507356

                             ****ORCA TERMINATED NORMALLY****
TOTAL RUN TIME: 0 days 0 hours 14 minutes 35 seconds 167 msec
