                         Program Version 5.0.3 -  RELEASE  -
|  1> ! PBEh-3c def2/J TightSCF DefGrid3
|  2>
|  3> %maxcore 60000
|  4>
|  5> %pal
|  6> nprocs 4
|  7> end
|  8>
|  9> *xyzfile 0 2 EA_13n.xyz
| 10>
| 11>                          ****END OF INPUT****

CARTESIAN COORDINATES (ANGSTROEM)
---------------------------------
  O      0.000000    0.000000    0.487327
  H      0.000000    0.000000   -0.487327

 Total Charge           Charge          ....    0
 Multiplicity           Mult            ....    2
 Number of Electrons    NEL             ....    9
 Basis Dimension        Dim             ....   17

ORBITAL ENERGIES
----------------
                 SPIN UP ORBITALS
  NO   OCC          E(Eh)            E(eV)
   0   1.0000     -19.550827      -532.0050
   1   1.0000      -1.117800       -30.4169
   2   1.0000      -0.531899       -14.4737
   3   1.0000      -0.477654       -12.9976
   4   1.0000      -0.397175       -10.8077
   5   0.0000       0.131236         3.5711
   6   0.0000       0.884030        24.0557
   7   0.0000       0.910803        24.7842
   8   0.0000       0.963035        26.2055
   9   0.0000       1.027503        27.9598

                 SPIN DOWN ORBITALS
  NO   OCC          E(Eh)            E(eV)
   0   1.0000     -19.522846      -531.2437
   1   1.0000      -1.026679       -27.9373
   2   1.0000      -0.500756       -13.6263
   3   1.0000      -0.365238        -9.9386
   4   0.0000      -0.082334        -2.2404
   5   0.0000       0.142788         3.8855
   6   0.0000       0.894958        24.3531
   7   0.0000       0.982396        26.7323
   8   0.0000       1.037078        28.2203

MULLIKEN ATOMIC CHARGES AND SPIN POPULATIONS
--------------------------------------------
   0 O :   -0.419615    1.035966
   1 H :    0.419615   -0.035966
Sum of atomic charges         :    0.0000000

LOEWDIN ATOMIC CHARGES AND SPIN POPULATIONS
-------------------------------------------
   0 O :   -0.291381    1.026500
   1 H :    0.291381   -0.026500

  Mayer bond orders larger than 0.100000
B(  0-O ,  1-H ) :   0.8036

Dispersion correction           -0.000087285
FINAL SINGLE POINT ENERGY       -75.573090221402

DIPOLE MOMENT
-------------
                                X             Y             Z
Electronic contribution:     -0.00000       0.00000       0.13718
Nuclear contribution   :      0.00000       0.00000      -0.85935
                        -----------------------------------------
Total Dipole Moment    :     -0.00000       0.00000      -0.72217
                        -----------------------------------------
Magnitude (a.u.)       :      0.72217
Magnitude (Debye)      :      1.83561

Rotational constants in cm-1:     0.000000    18.714158    18.714158
Rotational constants in MHz :     0.000000 561036.357391 561036.357391

                             ****ORCA TERMINATED NORMALLY****
TOTAL RUN TIME: 0 days 0 hours 0 minutes 59 seconds 157 msec
