                         Program Version 5.0.3 -  RELEASE  -
|  1> ! PBEh-3c def2/J TightSCF DefGrid3
|  2>
|  3> %maxcore 60000
|  4>
|  5> %pal
|  6> nprocs 4
|  7> end
|  8>
|  9> *xyzfile 0 1 me2s.xyz
| 10>
| 11>                          ****END OF INPUT****

CARTESIAN COORDINATES (ANGSTROEM)
---------------------------------
  S      0.000000    0.000000    0.667246
  C      0.000000    1.361482   -0.517677
  C      0.000000   -1.361482   -0.517677
  H     -0.891627    1.326167   -1.141531
  H      0.891627    1.326167   -1.141531
  H      0.000000    2.288562    0.051150
  H     -0.891627   -1.326167   -1.141531
  H      0.000000   -2.288562    0.051150
  H      0.891627   -1.326167   -1.141531

 Total Charge           Charge          ....    0
 Multiplicity           Mult            ....    1
 Number of Electrons    NEL             ....   34
 Basis Dimension        Dim             ....   60

ORBITAL ENERGIES
----------------

  NO   OCC          E(Eh)            E(eV)
   0   2.0000     -89.570009     -2437.3238
   1   2.0000     -10.457656      -284.5673
   2   2.0000     -10.457606      -284.5659
   3   2.0000      -8.209243      -223.3849
   4   2.0000      -6.100656      -166.0073
   5   2.0000      -6.097334      -165.9169
   6   2.0000      -6.091213      -165.7503
   7   2.0000      -0.887074       -24.1385
   8   2.0000      -0.787529       -21.4297
   9   2.0000      -0.666621       -18.1397
  10   2.0000      -0.502338       -13.6693
  11   2.0000      -0.500338       -13.6149
  12   2.0000      -0.480190       -13.0666
  13   2.0000      -0.464452       -12.6384
  14   2.0000      -0.412213       -11.2169
  15   2.0000      -0.358312        -9.7502
  16   2.0000      -0.260092        -7.0775
  17   0.0000       0.089017         2.4223
  18   0.0000       0.134506         3.6601
  19   0.0000       0.142107         3.8669
  20   0.0000       0.172402         4.6913
  21   0.0000       0.202717         5.5162

MULLIKEN ATOMIC CHARGES
-----------------------
   0 S :    0.018831
   1 C :   -0.747005
   2 C :   -0.747005
   3 H :    0.240856
   4 H :    0.240856
   5 H :    0.255877
   6 H :    0.240856
   7 H :    0.255877
   8 H :    0.240856
Sum of atomic charges:    0.0000000

LOEWDIN ATOMIC CHARGES
----------------------
   0 S :    0.141030
   1 C :   -0.467820
   2 C :   -0.467820
   3 H :    0.127993
   4 H :    0.127993
   5 H :    0.141319
   6 H :    0.127993
   7 H :    0.141319
   8 H :    0.127993

  Mayer bond orders larger than 0.100000
B(  0-S ,  1-C ) :   1.0205 B(  0-S ,  2-C ) :   1.0205 B(  1-C ,  3-H ) :   0.8984
B(  1-C ,  4-H ) :   0.8984 B(  1-C ,  5-H ) :   0.9106 B(  2-C ,  6-H ) :   0.8984
B(  2-C ,  7-H ) :   0.9106 B(  2-C ,  8-H ) :   0.8984

Dispersion correction           -0.003085998
FINAL SINGLE POINT ENERGY      -477.387230912566

DIPOLE MOMENT
-------------
                                X             Y             Z
Electronic contribution:     -0.00000       0.00000       3.95585
Nuclear contribution   :      0.00000       0.00000      -4.60888
                        -----------------------------------------
Total Dipole Moment    :     -0.00000       0.00000      -0.65303
                        -----------------------------------------
Magnitude (a.u.)       :      0.65303
Magnitude (Debye)      :      1.65988

Rotational constants in cm-1:     0.584191     0.257828     0.191937
Rotational constants in MHz : 17513.604968  7729.478175  5754.135540

                             ****ORCA TERMINATED NORMALLY****
TOTAL RUN TIME: 0 days 0 hours 1 minutes 5 seconds 179 msec
