                         Program Version 5.0.3 -  RELEASE  -
|  1> ! PBEh-3c def2/J TightSCF DefGrid3
|  2>
|  3> %maxcore 60000
|  4>
|  5> %pal
|  6> nprocs 4
|  7> end
|  8>
|  9> *xyzfile 0 1 NIS.xyz
| 10>
| 11>                          ****END OF INPUT****

CARTESIAN COORDINATES (ANGSTROEM)
---------------------------------
  I      0.000000    0.000000    1.441995
  C      0.000000    1.150645   -1.362018
  N      0.000000    0.000000   -0.570333
  O      0.000000    2.281951   -0.968868
  O      0.000000   -2.281951   -0.968868
  C      0.000000   -1.150645   -1.362018
  C      0.000000   -0.661775   -2.780319
  C      0.000000    0.661775   -2.780319
  H      0.000000    1.349337   -3.611742
  H      0.000000   -1.349337   -3.611742

 Total Charge           Charge          ....    0
 Multiplicity           Mult            ....    1
 Number of Electrons    NEL             ....   74
 Basis Dimension        Dim             ....  135

ORBITAL ENERGIES
----------------

  NO   OCC          E(Eh)            E(eV)
   0   2.0000     -19.515909      -531.0549
   1   2.0000     -19.515894      -531.0545
   2   2.0000     -14.723216      -400.6391
   3   2.0000     -10.594073      -288.2794
   4   2.0000     -10.594033      -288.2783
   5   2.0000     -10.502851      -285.7971
   6   2.0000     -10.501840      -285.7696
   7   2.0000      -7.136784      -194.2018
   8   2.0000      -5.125933      -139.4837
   9   2.0000      -5.100558      -138.7932
  10   2.0000      -5.100461      -138.7906
  11   2.0000      -2.079025       -56.5732
  12   2.0000      -2.070932       -56.3529
  13   2.0000      -2.070811       -56.3496
  14   2.0000      -2.049257       -55.7631
  15   2.0000      -2.049239       -55.7626
  16   2.0000      -1.208926       -32.8966
  17   2.0000      -1.191331       -32.4178
  18   2.0000      -1.081515       -29.4295
  19   2.0000      -0.934365       -25.4254
  20   2.0000      -0.801545       -21.8111
  21   2.0000      -0.778633       -21.1877
  22   2.0000      -0.698374       -19.0037
  23   2.0000      -0.648394       -17.6437
  24   2.0000      -0.585128       -15.9221
  25   2.0000      -0.556855       -15.1528
  26   2.0000      -0.544060       -14.8046
  27   2.0000      -0.529566       -14.4102
  28   2.0000      -0.505822       -13.7641
  29   2.0000      -0.501238       -13.6394
  30   2.0000      -0.475473       -12.9383
  31   2.0000      -0.390110       -10.6154
  32   2.0000      -0.376829       -10.2540
  33   2.0000      -0.369761       -10.0617
  34   2.0000      -0.343381        -9.3439
  35   2.0000      -0.332476        -9.0471
  36   2.0000      -0.307011        -8.3542
  37   0.0000      -0.082383        -2.2418
  38   0.0000      -0.064482        -1.7546
  39   0.0000       0.084419         2.2972
  40   0.0000       0.092448         2.5156
  41   0.0000       0.157561         4.2875

MULLIKEN ATOMIC CHARGES
-----------------------
   0 I :    0.311198
   1 C :    0.575001
   2 N :   -0.765969
   3 O :   -0.328762
   4 O :   -0.328762
   5 C :    0.575001
   6 C :   -0.288894
   7 C :   -0.288894
   8 H :    0.270040
   9 H :    0.270040
Sum of atomic charges:   -0.0000000

LOEWDIN ATOMIC CHARGES
----------------------
   0 I :    0.296717
   1 C :    0.120264
   2 N :   -0.280574
   3 O :   -0.165800
   4 O :   -0.165800
   5 C :    0.120264
   6 C :   -0.124484
   7 C :   -0.124484
   8 H :    0.161949
   9 H :    0.161949

  Mayer bond orders larger than 0.100000
B(  0-I ,  2-N ) :   0.8738 B(  1-C ,  2-N ) :   0.9677 B(  1-C ,  3-O ) :   2.0921
B(  1-C ,  7-C ) :   0.9675 B(  2-N ,  5-C ) :   0.9677 B(  4-O ,  5-C ) :   2.0921
B(  5-C ,  6-C ) :   0.9675 B(  6-C ,  7-C ) :   1.7734 B(  6-C ,  9-H ) :   0.9094
B(  7-C ,  8-H ) :   0.9094

Dispersion correction           -0.005888023
FINAL SINGLE POINT ENERGY      -655.779851365663

DIPOLE MOMENT
-------------
                                X             Y             Z
Electronic contribution:      0.00000       0.00000      98.97450
Nuclear contribution   :      0.00000       0.00000     -99.63691
                        -----------------------------------------
Total Dipole Moment    :      0.00000       0.00000      -0.66241
                        -----------------------------------------
Magnitude (a.u.)       :      0.66241
Magnitude (Debye)      :      1.68370

Rotational constants in cm-1:     0.079286     0.030717     0.022140
Rotational constants in MHz :  2376.927556   920.868080   663.727216

                             ****ORCA TERMINATED NORMALLY****
TOTAL RUN TIME: 0 days 0 hours 2 minutes 4 seconds 832 msec
