                         Program Version 5.0.3 -  RELEASE  -
|  1> ! PBEh-3c def2/J TightSCF DefGrid3
|  2>
|  3> %maxcore 60000
|  4>
|  5> %pal
|  6> nprocs 4
|  7> end
|  8>
|  9> *xyzfile 0 1 20a.xyz
| 10>
| 11>                          ****END OF INPUT****

CARTESIAN COORDINATES (ANGSTROEM)
---------------------------------
  C     -1.207295   -0.697032    0.000000
  C     -1.207295    0.697032    0.000000
  C      0.000000    1.394064    0.000000
  C      1.207295    0.697032    0.000000
  C      1.207295   -0.697032    0.000000
  C      0.000000   -1.394064    0.000000
  H     -2.143759   -1.237700    0.000000
  H     -2.143759    1.237700    0.000000
  H      0.000000    2.475400    0.000000
  H      2.143759    1.237700    0.000000
  H      2.143759   -1.237700    0.000000
  H      0.000000   -2.475400    0.000000

 Total Charge           Charge          ....    0
 Multiplicity           Mult            ....    1
 Number of Electrons    NEL             ....   42
 Basis Dimension        Dim             ....  102

ORBITAL ENERGIES
----------------

  NO   OCC          E(Eh)            E(eV)
   0   2.0000     -10.448776      -284.3257
   1   2.0000     -10.448558      -284.3197
   2   2.0000     -10.448556      -284.3197
   3   2.0000     -10.447945      -284.3030
   4   2.0000     -10.447943      -284.3030
   5   2.0000     -10.447716      -284.2968
   6   2.0000      -0.951993       -25.9050
   7   2.0000      -0.835437       -22.7334
   8   2.0000      -0.835436       -22.7334
   9   2.0000      -0.678996       -18.4764
  10   2.0000      -0.678996       -18.4764
  11   2.0000      -0.591994       -16.1090
  12   2.0000      -0.526049       -14.3145
  13   2.0000      -0.508388       -13.8339
  14   2.0000      -0.481795       -13.1103
  15   2.0000      -0.481793       -13.1103
  16   2.0000      -0.420790       -11.4503
  17   2.0000      -0.398348       -10.8396
  18   2.0000      -0.398347       -10.8396
  19   2.0000      -0.292439        -7.9577
  20   2.0000      -0.292436        -7.9576
  21   0.0000       0.019136         0.5207
  22   0.0000       0.019137         0.5207
  23   0.0000       0.140870         3.8333
  24   0.0000       0.196134         5.3371
  25   0.0000       0.201868         5.4931

MULLIKEN ATOMIC CHARGES
-----------------------
   0 C :   -0.219877
   1 C :   -0.219877
   2 C :   -0.219890
   3 C :   -0.219877
   4 C :   -0.219877
   5 C :   -0.219890
   6 H :    0.219877
   7 H :    0.219877
   8 H :    0.219890
   9 H :    0.219877
  10 H :    0.219877
  11 H :    0.219890
Sum of atomic charges:    0.0000000

LOEWDIN ATOMIC CHARGES
----------------------
   0 C :   -0.135680
   1 C :   -0.135680
   2 C :   -0.135686
   3 C :   -0.135680
   4 C :   -0.135680
   5 C :   -0.135686
   6 H :    0.135682
   7 H :    0.135682
   8 H :    0.135681
   9 H :    0.135682
  10 H :    0.135682
  11 H :    0.135681

  Mayer bond orders larger than 0.100000
B(  0-C ,  1-C ) :   1.4265 B(  0-C ,  5-C ) :   1.4265 B(  0-C ,  6-H ) :   0.9200
B(  1-C ,  2-C ) :   1.4265 B(  1-C ,  7-H ) :   0.9200 B(  2-C ,  3-C ) :   1.4265
B(  2-C ,  8-H ) :   0.9200 B(  3-C ,  4-C ) :   1.4265 B(  3-C ,  9-H ) :   0.9200
B(  4-C ,  5-C ) :   1.4265 B(  4-C , 10-H ) :   0.9200 B(  5-C , 11-H ) :   0.9200

Dispersion correction           -0.005880469
FINAL SINGLE POINT ENERGY      -231.725782887472

DIPOLE MOMENT
-------------
                                X             Y             Z
Electronic contribution:      0.00000       0.00000       0.00000
Nuclear contribution   :      0.00000       0.00000       0.00000
                        -----------------------------------------
Total Dipole Moment    :      0.00000       0.00000       0.00000
                        -----------------------------------------
Magnitude (a.u.)       :      0.00000
Magnitude (Debye)      :      0.00000

Rotational constants in cm-1:     0.190359     0.190359     0.095180
Rotational constants in MHz :  5706.833153  5706.832665  2853.416454

                             ****ORCA TERMINATED NORMALLY****
TOTAL RUN TIME: 0 days 0 hours 1 minutes 2 seconds 689 msec
