                         Program Version 5.0.3 -  RELEASE  -
|  1> ! PBEh-3c def2/J TightSCF DefGrid3
|  2>
|  3> %maxcore 60000
|  4>
|  5> %pal
|  6> nprocs 4
|  7> end
|  8>
|  9> *xyzfile 0 1 TS5.xyz
| 10>
| 11>                          ****END OF INPUT****

CARTESIAN COORDINATES (ANGSTROEM)
---------------------------------
  C     -0.098124   -0.861714    0.745102
  C     -0.098124   -0.861714   -0.745102
  C     -0.076496    0.488549    1.149270
  C     -0.076496    0.488549   -1.149270
  C     -0.066394    1.291387    0.000000
  H      0.960240   -1.092865    0.000000
  H     -0.249475   -1.745129    1.353558
  H     -0.249475   -1.745129   -1.353558
  H     -0.025389    0.831984    2.174928
  H     -0.025389    0.831984   -2.174928
  H      0.005120    2.374098    0.000000

 Total Charge           Charge          ....    0
 Multiplicity           Mult            ....    1
 Number of Electrons    NEL             ....   36
 Basis Dimension        Dim             ....   87

ORBITAL ENERGIES
----------------

  NO   OCC          E(Eh)            E(eV)
   0   2.0000     -10.467487      -284.8348
   1   2.0000     -10.467135      -284.8252
   2   2.0000     -10.434243      -283.9302
   3   2.0000     -10.432076      -283.8712
   4   2.0000     -10.431998      -283.8691
   5   2.0000      -0.978039       -26.6138
   6   2.0000      -0.808625       -22.0038
   7   2.0000      -0.784885       -21.3578
   8   2.0000      -0.615475       -16.7479
   9   2.0000      -0.613812       -16.7027
  10   2.0000      -0.586599       -15.9622
  11   2.0000      -0.506728       -13.7888
  12   2.0000      -0.453405       -12.3378
  13   2.0000      -0.432521       -11.7695
  14   2.0000      -0.428989       -11.6734
  15   2.0000      -0.419986       -11.4284
  16   2.0000      -0.296441        -8.0666
  17   2.0000      -0.257933        -7.0187
  18   0.0000       0.056785         1.5452
  19   0.0000       0.064789         1.7630
  20   0.0000       0.156251         4.2518
  21   0.0000       0.164669         4.4809
  22   0.0000       0.203610         5.5405

MULLIKEN ATOMIC CHARGES
-----------------------
   0 C :   -0.407774
   1 C :   -0.407774
   2 C :   -0.201942
   3 C :   -0.201942
   4 C :   -0.234824
   5 H :    0.301622
   6 H :    0.254735
   7 H :    0.254735
   8 H :    0.215580
   9 H :    0.215580
  10 H :    0.212004
Sum of atomic charges:   -0.0000000

LOEWDIN ATOMIC CHARGES
----------------------
   0 C :   -0.209870
   1 C :   -0.209870
   2 C :   -0.200002
   3 C :   -0.200002
   4 C :   -0.150248
   5 H :    0.270942
   6 H :    0.148844
   7 H :    0.148844
   8 H :    0.134914
   9 H :    0.134914
  10 H :    0.131536

  Mayer bond orders larger than 0.100000
B(  0-C ,  1-C ) :   0.9847 B(  0-C ,  2-C ) :   1.3465 B(  0-C ,  5-H ) :   0.4247
B(  0-C ,  6-H ) :   0.9066 B(  1-C ,  3-C ) :   1.3465 B(  1-C ,  5-H ) :   0.4247
B(  1-C ,  7-H ) :   0.9066 B(  2-C ,  4-C ) :   1.4531 B(  2-C ,  8-H ) :   0.9242
B(  3-C ,  4-C ) :   1.4531 B(  3-C ,  9-H ) :   0.9242 B(  4-C , 10-H ) :   0.9224

Dispersion correction           -0.004547476
FINAL SINGLE POINT ENERGY      -193.620247999028

DIPOLE MOMENT
-------------
                                X             Y             Z
Electronic contribution:     -0.51603       0.55793       0.00000
Nuclear contribution   :      0.77937      -1.02206       0.00000
                        -----------------------------------------
Total Dipole Moment    :      0.26334      -0.46413       0.00000
                        -----------------------------------------
Magnitude (a.u.)       :      0.53364
Magnitude (Debye)      :      1.35640

Rotational constants in cm-1:     0.287464     0.283521     0.145607
Rotational constants in MHz :  8617.942985  8499.760707  4365.191862

                             ****ORCA TERMINATED NORMALLY****
TOTAL RUN TIME: 0 days 0 hours 1 minutes 13 seconds 81 msec
