                         Program Version 5.0.3 -  RELEASE  -
|  1> ! PBEh-3c def2/J TightSCF DefGrid3
|  2>
|  3> %maxcore 60000
|  4>
|  5> %pal
|  6> nprocs 4
|  7> end
|  8>
|  9> *xyzfile 0 1 C8.xyz
| 10>
| 11>                          ****END OF INPUT****

CARTESIAN COORDINATES (ANGSTROEM)
---------------------------------
  C      2.328672   -0.080377    0.853775
  C      1.254684   -1.033363    0.331279
  C      0.184934   -0.348036   -0.531323
  C     -0.861950    0.481601    0.251285
  C     -2.106731   -0.431508    0.267246
  O     -2.057303   -1.371896    1.341353
  C     -1.955105   -1.197498   -1.038775
  O      3.036494    0.564910   -0.198596
  O     -1.226284    1.679263   -0.419229
  O      1.950267   -2.006163   -0.451777
  O     -0.546435   -1.394491   -1.209526
  C     -0.268441    2.726560   -0.308314
  H      1.884380    0.712147    1.463546
  H      3.015858   -0.653403    1.492322
  H      0.761291   -1.522490    1.185118
  H      0.671698    0.276751   -1.288015
  H     -0.530300    0.711390    1.275913
  H     -3.023291    0.168350    0.299406
  H     -2.251144   -0.916011    2.170726
  H     -2.439312   -2.176190   -1.006480
  H     -2.357763   -0.607265   -1.872825
  H      3.347524   -0.134655   -0.792648
  H      1.281191   -2.487137   -0.963190
  H     -0.131078    3.020642    0.743178
  H      0.705908    2.443942   -0.727057
  H     -0.667759    3.574933   -0.867389

 Total Charge           Charge          ....    0
 Multiplicity           Mult            ....    1
 Number of Electrons    NEL             ....   96
 Basis Dimension        Dim             ....  208

ORBITAL ENERGIES
----------------

  NO   OCC          E(Eh)            E(eV)
   0   2.0000     -19.507117      -530.8156
   1   2.0000     -19.504627      -530.7479
   2   2.0000     -19.502314      -530.6849
   3   2.0000     -19.486397      -530.2518
   4   2.0000     -19.484610      -530.2032
   5   2.0000     -10.505505      -285.8693
   6   2.0000     -10.504132      -285.8320
   7   2.0000     -10.492277      -285.5094
   8   2.0000     -10.489510      -285.4341
   9   2.0000     -10.488541      -285.4077
  10   2.0000     -10.484600      -285.3005
  11   2.0000     -10.483849      -285.2800
  12   2.0000      -1.165992       -31.7283
  13   2.0000      -1.142594       -31.0916
  14   2.0000      -1.135879       -30.9088
  15   2.0000      -1.124625       -30.6026
  16   2.0000      -1.105256       -30.0755
  17   2.0000      -0.874153       -23.7869
  18   2.0000      -0.855931       -23.2911
  19   2.0000      -0.802569       -21.8390
  20   2.0000      -0.761381       -20.7182
  21   2.0000      -0.698542       -19.0083
  22   2.0000      -0.675584       -18.3836
  23   2.0000      -0.656764       -17.8714
  24   2.0000      -0.611346       -16.6356
  25   2.0000      -0.594962       -16.1897
  26   2.0000      -0.580901       -15.8071
  27   2.0000      -0.549875       -14.9629
  28   2.0000      -0.548111       -14.9149
  29   2.0000      -0.531272       -14.4566
  30   2.0000      -0.516434       -14.0529
  31   2.0000      -0.502943       -13.6858
  32   2.0000      -0.499298       -13.5866
  33   2.0000      -0.478879       -13.0310
  34   2.0000      -0.471716       -12.8360
  35   2.0000      -0.461905       -12.5691
  36   2.0000      -0.446667       -12.1544
  37   2.0000      -0.438031       -11.9194
  38   2.0000      -0.416559       -11.3352
  39   2.0000      -0.412099       -11.2138
  40   2.0000      -0.392203       -10.6724
  41   2.0000      -0.381158       -10.3718
  42   2.0000      -0.375699       -10.2233
  43   2.0000      -0.350263        -9.5311
  44   2.0000      -0.343717        -9.3530
  45   2.0000      -0.324597        -8.8327
  46   2.0000      -0.313450        -8.5294
  47   2.0000      -0.302749        -8.2382
  48   0.0000       0.103958         2.8288
  49   0.0000       0.115295         3.1373
  50   0.0000       0.133247         3.6258
  51   0.0000       0.139209         3.7881
  52   0.0000       0.156336         4.2541

MULLIKEN ATOMIC CHARGES
-----------------------
   0 C :   -0.165270
   1 C :   -0.009258
   2 C :    0.031560
   3 C :   -0.019969
   4 C :   -0.017527
   5 O :   -0.631747
   6 C :   -0.147147
   7 O :   -0.633413
   8 O :   -0.481799
   9 O :   -0.661485
  10 O :   -0.513840
  11 C :   -0.388085
  12 H :    0.196346
  13 H :    0.211516
  14 H :    0.204356
  15 H :    0.236322
  16 H :    0.200036
  17 H :    0.229578
  18 H :    0.418055
  19 H :    0.234280
  20 H :    0.209727
  21 H :    0.426297
  22 H :    0.438191
  23 H :    0.187098
  24 H :    0.218985
  25 H :    0.227193
Sum of atomic charges:    0.0000000

LOEWDIN ATOMIC CHARGES
----------------------
   0 C :   -0.097338
   1 C :   -0.051201
   2 C :   -0.025440
   3 C :   -0.029656
   4 C :   -0.034399
   5 O :   -0.396112
   6 C :   -0.074899
   7 O :   -0.414386
   8 O :   -0.257568
   9 O :   -0.410667
  10 O :   -0.269948
  11 C :   -0.187323
  12 H :    0.114828
  13 H :    0.113998
  14 H :    0.114638
  15 H :    0.131011
  16 H :    0.108402
  17 H :    0.121409
  18 H :    0.312708
  19 H :    0.133771
  20 H :    0.117572
  21 H :    0.315311
  22 H :    0.319231
  23 H :    0.102759
  24 H :    0.115719
  25 H :    0.127579

  Mayer bond orders larger than 0.100000
B(  0-C ,  1-C ) :   0.9361 B(  0-C ,  7-O ) :   1.0219 B(  0-C , 12-H ) :   0.9153
B(  0-C , 13-H ) :   0.9016 B(  1-C ,  2-C ) :   0.9374 B(  1-C ,  9-O ) :   0.9897
B(  1-C , 14-H ) :   0.8830 B(  2-C ,  3-C ) :   0.9128 B(  2-C , 10-O ) :   0.9298
B(  2-C , 15-H ) :   0.8862 B(  3-C ,  4-C ) :   0.9266 B(  3-C ,  8-O ) :   0.9321
B(  3-C , 16-H ) :   0.9020 B(  4-C ,  5-O ) :   0.9961 B(  4-C ,  6-C ) :   0.9500
B(  4-C , 17-H ) :   0.8968 B(  5-O , 18-H ) :   0.7884 B(  6-C , 10-O ) :   0.9610
B(  6-C , 19-H ) :   0.9103 B(  6-C , 20-H ) :   0.9004 B(  7-O , 21-H ) :   0.7705
B(  8-O , 11-C ) :   0.9593 B(  9-O , 22-H ) :   0.7552 B( 11-C , 23-H ) :   0.9152
B( 11-C , 24-H ) :   0.8968 B( 11-C , 25-H ) :   0.9281

Dispersion correction           -0.014628463
FINAL SINGLE POINT ENERGY      -649.849051966997

DIPOLE MOMENT
-------------
                                X             Y             Z
Electronic contribution:     -0.93780      -4.46676      -1.58059
Nuclear contribution   :      0.14377       4.93848       2.21465
                        -----------------------------------------
Total Dipole Moment    :     -0.79403       0.47172       0.63406
                        -----------------------------------------
Magnitude (a.u.)       :      1.12028
Magnitude (Debye)      :      2.84753

Rotational constants in cm-1:     0.037711     0.025508     0.018925
Rotational constants in MHz :  1130.556660   764.713337   567.365669

                             ****ORCA TERMINATED NORMALLY****
TOTAL RUN TIME: 0 days 0 hours 2 minutes 22 seconds 809 msec
