                         Program Version 5.0.3 -  RELEASE  -
|  1> ! PBEh-3c def2/J TightSCF DefGrid3
|  2>
|  3> %maxcore 60000
|  4>
|  5> %pal
|  6> nprocs 4
|  7> end
|  8>
|  9> *xyzfile 0 1 17.xyz
| 10>
| 11>                          ****END OF INPUT****

CARTESIAN COORDINATES (ANGSTROEM)
---------------------------------
  C      0.765020   -0.573336   -1.207543
  C      0.462812    0.787592   -1.207904
  C      0.312068    1.468409    0.000000
  C      0.462812    0.787592    1.207904
  C      0.765020   -0.573336    1.207543
  C      0.916560   -1.253410    0.000000
  H      0.881077   -1.101054   -2.144149
  H      0.341798    1.314761   -2.144055
  H      0.076268    2.523693    0.000000
  H      0.341798    1.314761    2.144055
  H      0.881077   -1.101054    2.144149
  H      1.153415   -2.308616    0.000000
  H     -2.638504   -1.182532    0.000000
  H     -1.917102    0.134463    0.000000
  O     -2.804119   -0.237934    0.000000

 Total Charge           Charge          ....    0
 Multiplicity           Mult            ....    1
 Number of Electrons    NEL             ....   52
 Basis Dimension        Dim             ....  121

ORBITAL ENERGIES
----------------

  NO   OCC          E(Eh)            E(eV)
   0   2.0000     -19.454231      -529.3765
   1   2.0000     -10.462118      -284.6887
   2   2.0000     -10.461873      -284.6820
   3   2.0000     -10.461725      -284.6780
   4   2.0000     -10.461238      -284.6648
   5   2.0000     -10.461112      -284.6613
   6   2.0000     -10.460929      -284.6563
   7   2.0000      -1.082998       -29.4699
   8   2.0000      -0.966339       -26.2954
   9   2.0000      -0.848963       -23.1014
  10   2.0000      -0.848666       -23.0934
  11   2.0000      -0.691553       -18.8181
  12   2.0000      -0.691463       -18.8157
  13   2.0000      -0.604445       -16.4478
  14   2.0000      -0.559280       -15.2188
  15   2.0000      -0.537373       -14.6227
  16   2.0000      -0.521368       -14.1872
  17   2.0000      -0.494195       -13.4477
  18   2.0000      -0.494064       -13.4442
  19   2.0000      -0.440703       -11.9921
  20   2.0000      -0.412972       -11.2375
  21   2.0000      -0.410470       -11.1694
  22   2.0000      -0.410378       -11.1669
  23   2.0000      -0.338543        -9.2122
  24   2.0000      -0.307439        -8.3658
  25   2.0000      -0.305611        -8.3161
  26   0.0000       0.004781         0.1301
  27   0.0000       0.005510         0.1499
  28   0.0000       0.130814         3.5596
  29   0.0000       0.149202         4.0600
  30   0.0000       0.182896         4.9768

MULLIKEN ATOMIC CHARGES
-----------------------
   0 C :   -0.223960
   1 C :   -0.226267
   2 C :   -0.245601
   3 C :   -0.226268
   4 C :   -0.223960
   5 C :   -0.231934
   6 H :    0.228454
   7 H :    0.231154
   8 H :    0.232974
   9 H :    0.231154
  10 H :    0.228454
  11 H :    0.227364
  12 H :    0.402197
  13 H :    0.428678
  14 O :   -0.832440
Sum of atomic charges:    0.0000000

LOEWDIN ATOMIC CHARGES
----------------------
   0 C :   -0.137981
   1 C :   -0.137736
   2 C :   -0.144239
   3 C :   -0.137736
   4 C :   -0.137981
   5 C :   -0.140631
   6 H :    0.139498
   7 H :    0.141052
   8 H :    0.141515
   9 H :    0.141052
  10 H :    0.139498
  11 H :    0.138542
  12 H :    0.296094
  13 H :    0.301240
  14 O :   -0.602188

  Mayer bond orders larger than 0.100000
B(  0-C ,  1-C ) :   1.4232 B(  0-C ,  5-C ) :   1.4231 B(  0-C ,  6-H ) :   0.9178
B(  1-C ,  2-C ) :   1.4205 B(  1-C ,  7-H ) :   0.9173 B(  2-C ,  3-C ) :   1.4205
B(  2-C ,  8-H ) :   0.9167 B(  3-C ,  4-C ) :   1.4232 B(  3-C ,  9-H ) :   0.9173
B(  4-C ,  5-C ) :   1.4231 B(  4-C , 10-H ) :   0.9178 B(  5-C , 11-H ) :   0.9181
B( 12-H , 14-O ) :   0.8205 B( 13-H , 14-O ) :   0.7906

Dispersion correction           -0.007488404
FINAL SINGLE POINT ENERGY      -307.989995574090

DIPOLE MOMENT
-------------
                                X             Y             Z
Electronic contribution:      1.63114       0.29556      -0.00000
Nuclear contribution   :     -0.75002      -0.65890      -0.00000
                        -----------------------------------------
Total Dipole Moment    :      0.88113      -0.36334      -0.00000
                        -----------------------------------------
Magnitude (a.u.)       :      0.95310
Magnitude (Debye)      :      2.42259

Rotational constants in cm-1:     0.095725     0.065440     0.065157
Rotational constants in MHz :  2869.772876  1961.848536  1953.349181

                             ****ORCA TERMINATED NORMALLY****
TOTAL RUN TIME: 0 days 0 hours 1 minutes 15 seconds 752 msec
