                         Program Version 5.0.3 -  RELEASE  -
|  1> ! PBEh-3c def2/J TightSCF DefGrid3
|  2>
|  3> %maxcore 60000
|  4>
|  5> %pal
|  6> nprocs 4
|  7> end
|  8>
|  9> *xyzfile 0 1 C2H5CClCHCH3.xyz
| 10>
| 11>                          ****END OF INPUT****

CARTESIAN COORDINATES (ANGSTROEM)
---------------------------------
  C     -1.754249   -0.634379   -1.431310
  H     -1.438821   -1.663513   -1.647996
  H     -1.259543    0.032489   -2.151318
  H     -2.839366   -0.570287   -1.593076
  C     -1.402946   -0.240997    0.011601
  H     -1.736231    0.789606    0.210843
  H     -1.949992   -0.894215    0.711509
  C      0.063719   -0.307719    0.329256
  C      0.849642    0.736474    0.622546
  H      0.344706    1.708369    0.625883
  C      2.309198    0.736759    0.942018
  H      2.869101    1.343911    0.212552
  H      2.492765    1.186575    1.930889
  H      2.726604   -0.276982    0.939415
  Cl     0.725413   -1.946090    0.287188

 Total Charge           Charge          ....    0
 Multiplicity           Mult            ....    1
 Number of Electrons    NEL             ....   56
 Basis Dimension        Dim             ....  111

ORBITAL ENERGIES
----------------

  NO   OCC          E(Eh)            E(eV)
   0   2.0000    -102.293404     -2783.5450
   1   2.0000     -10.504836      -285.8511
   2   2.0000     -10.456585      -284.5381
   3   2.0000     -10.454890      -284.4920
   4   2.0000     -10.438585      -284.0483
   5   2.0000     -10.432993      -283.8962
   6   2.0000      -9.760334      -265.5922
   7   2.0000      -7.447801      -202.6650
   8   2.0000      -7.439966      -202.4518
   9   2.0000      -7.439690      -202.4443
  10   2.0000      -0.965323       -26.2678
  11   2.0000      -0.865859       -23.5612
  12   2.0000      -0.851711       -23.1762
  13   2.0000      -0.765588       -20.8327
  14   2.0000      -0.694745       -18.9050
  15   2.0000      -0.597753       -16.2657
  16   2.0000      -0.536782       -14.6066
  17   2.0000      -0.522978       -14.2310
  18   2.0000      -0.482100       -13.1186
  19   2.0000      -0.471082       -12.8188
  20   2.0000      -0.463810       -12.6209
  21   2.0000      -0.437862       -11.9148
  22   2.0000      -0.418797       -11.3961
  23   2.0000      -0.402691       -10.9578
  24   2.0000      -0.401725       -10.9315
  25   2.0000      -0.381993       -10.3945
  26   2.0000      -0.352735        -9.5984
  27   2.0000      -0.282166        -7.6781
  28   0.0000       0.038970         1.0604
  29   0.0000       0.090944         2.4747
  30   0.0000       0.149609         4.0711
  31   0.0000       0.169974         4.6252
  32   0.0000       0.179236         4.8773

MULLIKEN ATOMIC CHARGES
-----------------------
   0 C :   -0.634930
   1 H :    0.229127
   2 H :    0.221393
   3 H :    0.220523
   4 C :   -0.450996
   5 H :    0.222621
   6 H :    0.237077
   7 C :    0.038558
   8 C :   -0.192298
   9 H :    0.217248
  10 C :   -0.679528
  11 H :    0.228812
  12 H :    0.228408
  13 H :    0.241774
  14 Cl:   -0.127786
Sum of atomic charges:    0.0000000

LOEWDIN ATOMIC CHARGES
----------------------
   0 C :   -0.361316
   1 H :    0.133145
   2 H :    0.129515
   3 H :    0.129219
   4 C :   -0.245408
   5 H :    0.133941
   6 H :    0.137747
   7 C :   -0.124365
   8 C :   -0.175405
   9 H :    0.138957
  10 C :   -0.361737
  11 H :    0.139041
  12 H :    0.138632
  13 H :    0.140882
  14 Cl:    0.047153

  Mayer bond orders larger than 0.100000
B(  0-C ,  1-H ) :   0.9190 B(  0-C ,  2-H ) :   0.9267 B(  0-C ,  3-H ) :   0.9273
B(  0-C ,  4-C ) :   0.9752 B(  4-C ,  5-H ) :   0.9118 B(  4-C ,  6-H ) :   0.9041
B(  4-C ,  7-C ) :   0.9636 B(  7-C ,  8-C ) :   1.8123 B(  7-C , 14-Cl) :   1.0301
B(  8-C ,  9-H ) :   0.9128 B(  8-C , 10-C ) :   0.9994 B( 10-C , 11-H ) :   0.9150
B( 10-C , 12-H ) :   0.9158 B( 10-C , 13-H ) :   0.9139

Dispersion correction           -0.007046830
FINAL SINGLE POINT ENERGY      -655.209942749885

DIPOLE MOMENT
-------------
                                X             Y             Z
Electronic contribution:      3.24578      -7.88252       2.11998
Nuclear contribution   :     -3.46108       8.50066      -2.12565
                        -----------------------------------------
Total Dipole Moment    :     -0.21530       0.61814      -0.00567
                        -----------------------------------------
Magnitude (a.u.)       :      0.65458
Magnitude (Debye)      :      1.66382

Rotational constants in cm-1:     0.124158     0.067191     0.047724
Rotational constants in MHz :  3722.161018  2014.340528  1430.733248

                             ****ORCA TERMINATED NORMALLY****
TOTAL RUN TIME: 0 days 0 hours 1 minutes 23 seconds 99 msec
