                         Program Version 5.0.3 -  RELEASE  -
|  1> ! PBEh-3c def2/J TightSCF DefGrid3
|  2>
|  3> %maxcore 60000
|  4>
|  5> %pal
|  6> nprocs 4
|  7> end
|  8>
|  9> *xyzfile 1 2 IP_73.xyz
| 10>
| 11>                          ****END OF INPUT****

CARTESIAN COORDINATES (ANGSTROEM)
---------------------------------
  C      0.000000    0.000000    0.554686
  O      0.000000    0.000000   -0.554686

 Total Charge           Charge          ....    1
 Multiplicity           Mult            ....    2
 Number of Electrons    NEL             ....   13
 Basis Dimension        Dim             ....   30

ORBITAL ENERGIES
----------------
                 SPIN UP ORBITALS
  NO   OCC          E(Eh)            E(eV)
   0   1.0000     -20.024186      -544.8858
   1   1.0000     -11.079304      -301.4832
   2   1.0000      -1.690114       -45.9903
   3   1.0000      -1.043650       -28.3991
   4   1.0000      -0.935964       -25.4689
   5   1.0000      -0.924193       -25.1486
   6   1.0000      -0.924193       -25.1486
   7   0.0000      -0.389542       -10.6000
   8   0.0000      -0.389542       -10.6000
   9   0.0000      -0.026081        -0.7097
  10   0.0000       0.148691         4.0461
  11   0.0000       0.148691         4.0461

                 SPIN DOWN ORBITALS
  NO   OCC          E(Eh)            E(eV)
   0   1.0000     -20.027979      -544.9890
   1   1.0000     -11.047665      -300.6223
   2   1.0000      -1.685115       -45.8543
   3   1.0000      -1.002973       -27.2923
   4   1.0000      -0.924693       -25.1622
   5   1.0000      -0.924693       -25.1622
   6   0.0000      -0.595779       -16.2120
   7   0.0000      -0.336968        -9.1694
   8   0.0000      -0.336968        -9.1694
   9   0.0000       0.001618         0.0440
  10   0.0000       0.177150         4.8205

MULLIKEN ATOMIC CHARGES AND SPIN POPULATIONS
--------------------------------------------
   0 C :    0.850666    1.174211
   1 O :    0.149334   -0.174211
Sum of atomic charges         :    1.0000000

LOEWDIN ATOMIC CHARGES AND SPIN POPULATIONS
-------------------------------------------
   0 C :    0.689926    1.121385
   1 O :    0.310074   -0.121385

  Mayer bond orders larger than 0.100000
B(  0-C ,  1-O ) :   2.7205

Dispersion correction           -0.000210104
FINAL SINGLE POINT ENERGY      -112.545788125691

DIPOLE MOMENT
-------------
                                X             Y             Z
Electronic contribution:      0.00000       0.00000       1.16030
Nuclear contribution   :      0.00000       0.00000      -0.00704
                        -----------------------------------------
Total Dipole Moment    :      0.00000       0.00000       1.15327
                        -----------------------------------------
Magnitude (a.u.)       :      1.15327
Magnitude (Debye)      :      2.93137

Rotational constants in cm-1:     0.000000     1.996567     1.996567
Rotational constants in MHz :     0.000000 59855.576762 59855.576762

                             ****ORCA TERMINATED NORMALLY****
TOTAL RUN TIME: 0 days 0 hours 0 minutes 13 seconds 541 msec
