                         Program Version 5.0.3 -  RELEASE  -
|  1> ! PBEh-3c def2/J TightSCF DefGrid3
|  2>
|  3> %maxcore 60000
|  4>
|  5> %pal
|  6> nprocs 4
|  7> end
|  8>
|  9> *xyzfile 0 1 ch3f.xyz
| 10>
| 11>                          ****END OF INPUT****

CARTESIAN COORDINATES (ANGSTROEM)
---------------------------------
  C      0.000000    0.000000    0.065566
  F      0.000000    0.000000   -1.315629
  H      0.514916   -0.891861    0.416687
  H      0.514916    0.891861    0.416687
  H     -1.029833    0.000000    0.416687

 Total Charge           Charge          ....    0
 Multiplicity           Mult            ....    1
 Number of Electrons    NEL             ....   18
 Basis Dimension        Dim             ....   36

ORBITAL ENERGIES
----------------

  NO   OCC          E(Eh)            E(eV)
   0   2.0000     -25.064902      -682.0507
   1   2.0000     -10.505892      -285.8799
   2   2.0000      -1.300218       -35.3807
   3   2.0000      -0.780673       -21.2432
   4   2.0000      -0.545565       -14.8456
   5   2.0000      -0.545565       -14.8456
   6   2.0000      -0.542848       -14.7716
   7   2.0000      -0.399997       -10.8845
   8   2.0000      -0.399996       -10.8845
   9   0.0000       0.144321         3.9272
  10   0.0000       0.186786         5.0827
  11   0.0000       0.219488         5.9726
  12   0.0000       0.219490         5.9726
  13   0.0000       0.492234        13.3944

MULLIKEN ATOMIC CHARGES
-----------------------
   0 C :   -0.212067
   1 F :   -0.363926
   2 H :    0.191999
   3 H :    0.191999
   4 H :    0.191994
Sum of atomic charges:    0.0000000

LOEWDIN ATOMIC CHARGES
----------------------
   0 C :   -0.074328
   1 F :   -0.256724
   2 H :    0.110351
   3 H :    0.110351
   4 H :    0.110350

  Mayer bond orders larger than 0.100000
B(  0-C ,  1-F ) :   0.9359 B(  0-C ,  2-H ) :   0.9212 B(  0-C ,  3-H ) :   0.9212
B(  0-C ,  4-H ) :   0.9212

Dispersion correction           -0.000733180
FINAL SINGLE POINT ENERGY      -139.455499031115

DIPOLE MOMENT
-------------
                                X             Y             Z
Electronic contribution:      0.00000       0.00000      -2.92661
Nuclear contribution   :      0.00000       0.00000       3.66473
                        -----------------------------------------
Total Dipole Moment    :      0.00000       0.00000       0.73812
                        -----------------------------------------
Magnitude (a.u.)       :      0.73812
Magnitude (Debye)      :      1.87616

Rotational constants in cm-1:     5.256321     0.860450     0.860450
Rotational constants in MHz : 157580.524865 25795.650345 25795.650313

                             ****ORCA TERMINATED NORMALLY****
TOTAL RUN TIME: 0 days 0 hours 1 minutes 17 seconds 507 msec
