                         Program Version 5.0.3 -  RELEASE  -
|  1> ! PBEh-3c def2/J TightSCF DefGrid3
|  2>
|  3> %maxcore 60000
|  4>
|  5> %pal
|  6> nprocs 4
|  7> end
|  8>
|  9> *xyzfile -1 1 11.xyz
| 10>
| 11>                          ****END OF INPUT****

CARTESIAN COORDINATES (ANGSTROEM)
---------------------------------
  N      0.363618    1.928727   -1.785050
  N      0.822176    2.406650   -2.789666
  N     -0.094568    1.451695   -0.776823
  N     -1.106413   -0.099091    1.638709
  H     -0.623383   -0.987805    1.573642
  H     -0.630527    0.410977    2.374166
  H     -0.867824    0.402160    0.775862

 Total Charge           Charge          ....   -1
 Multiplicity           Mult            ....    1
 Number of Electrons    NEL             ....   32
 Basis Dimension        Dim             ....   66

ORBITAL ENERGIES
----------------

  NO   OCC          E(Eh)            E(eV)
   0   2.0000     -14.544138      -395.7661
   1   2.0000     -14.440874      -392.9562
   2   2.0000     -14.393753      -391.6739
   3   2.0000     -14.393312      -391.6619
   4   2.0000      -0.939517       -25.5656
   5   2.0000      -0.779400       -21.2085
   6   2.0000      -0.755153       -20.5488
   7   2.0000      -0.359032        -9.7698
   8   2.0000      -0.352537        -9.5930
   9   2.0000      -0.281466        -7.6591
  10   2.0000      -0.281450        -7.6587
  11   2.0000      -0.275008        -7.4833
  12   2.0000      -0.212961        -5.7950
  13   2.0000      -0.158116        -4.3026
  14   2.0000      -0.023374        -0.6360
  15   2.0000      -0.023146        -0.6298
  16   0.0000       0.291235         7.9249
  17   0.0000       0.320624         8.7246
  18   0.0000       0.321465         8.7475
  19   0.0000       0.360333         9.8052
  20   0.0000       0.444564        12.0972

MULLIKEN ATOMIC CHARGES
-----------------------
   0 N :    0.176472
   1 N :   -0.533153
   2 N :   -0.594323
   3 N :   -1.005349
   4 H :    0.275818
   5 H :    0.277950
   6 H :    0.402584
Sum of atomic charges:   -1.0000000

LOEWDIN ATOMIC CHARGES
----------------------
   0 N :    0.098042
   1 N :   -0.508374
   2 N :   -0.538026
   3 N :   -0.686545
   4 H :    0.196060
   5 H :    0.197805
   6 H :    0.241038

  Mayer bond orders larger than 0.100000
B(  0-N ,  1-N ) :   2.2465 B(  0-N ,  2-N ) :   1.9922 B(  1-N ,  2-N ) :   0.6212
B(  2-N ,  6-H ) :   0.1053 B(  3-N ,  4-H ) :   0.9013 B(  3-N ,  5-H ) :   0.9009
B(  3-N ,  6-H ) :   0.7621

Dispersion correction           -0.001634555
FINAL SINGLE POINT ENERGY      -220.286161954105

DIPOLE MOMENT
-------------
                                X             Y             Z
Electronic contribution:      2.02131       3.19386      -5.40500
Nuclear contribution   :     -1.87769      -3.95110       6.68056
                        -----------------------------------------
Total Dipole Moment    :      0.14362      -0.75725       1.27556
                        -----------------------------------------
Magnitude (a.u.)       :      1.49034
Magnitude (Debye)      :      3.78813

Rotational constants in cm-1:     7.396649     0.065761     0.065533
Rotational constants in MHz : 221745.965375  1971.461657  1964.637525

                             ****ORCA TERMINATED NORMALLY****
TOTAL RUN TIME: 0 days 0 hours 1 minutes 6 seconds 95 msec
