                         Program Version 5.0.3 -  RELEASE  -
|  1> ! PBEh-3c def2/J TightSCF DefGrid3
|  2>
|  3> %maxcore 60000
|  4>
|  5> %pal
|  6> nprocs 4
|  7> end
|  8>
|  9> *xyzfile 0 1 AM3.xyz
| 10>
| 11>                          ****END OF INPUT****

CARTESIAN COORDINATES (ANGSTROEM)
---------------------------------
  C      0.000000    0.000000    0.619074
  C      0.000000    1.268231   -0.229767
  C      0.000000   -1.268231   -0.229767
  H      0.877100    0.000000    1.276339
  H     -0.877100    0.000000    1.276339
  H      0.000000    2.167884    0.392479
  H     -0.883889    1.304852   -0.874294
  H      0.883889    1.304852   -0.874294
  H      0.000000   -2.167884    0.392479
  H     -0.883889   -1.304852   -0.874294
  H      0.883889   -1.304852   -0.874294

 Total Charge           Charge          ....    0
 Multiplicity           Mult            ....    1
 Number of Electrons    NEL             ....   26
 Basis Dimension        Dim             ....   61

ORBITAL ENERGIES
----------------

  NO   OCC          E(Eh)            E(eV)
   0   2.0000     -10.430498      -283.8283
   1   2.0000     -10.420808      -283.5646
   2   2.0000     -10.420747      -283.5630
   3   2.0000      -0.868258       -23.6265
   4   2.0000      -0.758646       -20.6438
   5   2.0000      -0.653703       -17.7882
   6   2.0000      -0.514913       -14.0115
   7   2.0000      -0.492696       -13.4069
   8   2.0000      -0.450400       -12.2560
   9   2.0000      -0.431610       -11.7447
  10   2.0000      -0.385289       -10.4843
  11   2.0000      -0.383948       -10.4478
  12   2.0000      -0.373927       -10.1751
  13   0.0000       0.143218         3.8972
  14   0.0000       0.195254         5.3131
  15   0.0000       0.195565         5.3216
  16   0.0000       0.205177         5.5831
  17   0.0000       0.215077         5.8525

MULLIKEN ATOMIC CHARGES
-----------------------
   0 C :   -0.416267
   1 C :   -0.631862
   2 C :   -0.631862
   3 H :    0.207862
   4 H :    0.207862
   5 H :    0.216801
   6 H :    0.207667
   7 H :    0.207667
   8 H :    0.216801
   9 H :    0.207667
  10 H :    0.207667
Sum of atomic charges:    0.0000000

LOEWDIN ATOMIC CHARGES
----------------------
   0 C :   -0.253010
   1 C :   -0.364109
   2 C :   -0.364109
   3 H :    0.119510
   4 H :    0.119510
   5 H :    0.125505
   6 H :    0.122799
   7 H :    0.122799
   8 H :    0.125505
   9 H :    0.122799
  10 H :    0.122799

  Mayer bond orders larger than 0.100000
B(  0-C ,  1-C ) :   0.9935 B(  0-C ,  2-C ) :   0.9935 B(  0-C ,  3-H ) :   0.9225
B(  0-C ,  4-H ) :   0.9225 B(  1-C ,  5-H ) :   0.9325 B(  1-C ,  6-H ) :   0.9296
B(  1-C ,  7-H ) :   0.9296 B(  2-C ,  8-H ) :   0.9325 B(  2-C ,  9-H ) :   0.9296
B(  2-C , 10-H ) :   0.9296

Dispersion correction           -0.003448254
FINAL SINGLE POINT ENERGY      -118.878529716508

DIPOLE MOMENT
-------------
                                X             Y             Z
Electronic contribution:      0.00000       0.00000       0.47024
Nuclear contribution   :      0.00000       0.00000      -0.44845
                        -----------------------------------------
Total Dipole Moment    :      0.00000       0.00000       0.02178
                        -----------------------------------------
Magnitude (a.u.)       :      0.02178
Magnitude (Debye)      :      0.05537

Rotational constants in cm-1:     0.981280     0.282477     0.249909
Rotational constants in MHz : 29418.040612  8468.455345  7492.075648

                             ****ORCA TERMINATED NORMALLY****
TOTAL RUN TIME: 0 days 0 hours 0 minutes 52 seconds 623 msec
