                         Program Version 5.0.3 -  RELEASE  -
|  1> ! PBEh-3c def2/J TightSCF DefGrid3
|  2>
|  3> %maxcore 60000
|  4>
|  5> %pal
|  6> nprocs 4
|  7> end
|  8>
|  9> *xyzfile 0 1 B26.xyz
| 10>
| 11>                          ****END OF INPUT****

CARTESIAN COORDINATES (ANGSTROEM)
---------------------------------
  C     -2.048929    0.364612    0.305700
  H     -2.809136    1.089190    0.018518
  O     -2.453808   -0.867221   -0.287437
  C     -0.679124    0.831647   -0.171931
  H     -0.710542    0.952205   -1.257152
  H     -0.484628    1.818509    0.259005
  C      0.449427   -0.123609    0.211946
  H      0.285179   -1.096955   -0.260419
  H      0.460845   -0.283223    1.293301
  H     -1.932571   -1.567428    0.112250
  H     -2.057982    0.289150    1.398144
  C      1.814472    0.398157   -0.216288
  H      1.821638    0.579705   -1.296237
  H      2.020721    1.347662    0.276812
  O      2.881890   -0.465608    0.161884
  H      2.766753   -1.291027   -0.316364

 Total Charge           Charge          ....    0
 Multiplicity           Mult            ....    1
 Number of Electrons    NEL             ....   50
 Basis Dimension        Dim             ....  110

ORBITAL ENERGIES
----------------

  NO   OCC          E(Eh)            E(eV)
   0   2.0000     -19.486962      -530.2672
   1   2.0000     -19.486846      -530.2640
   2   2.0000     -10.483628      -285.2740
   3   2.0000     -10.483489      -285.2702
   4   2.0000     -10.440777      -284.1080
   5   2.0000     -10.438897      -284.0568
   6   2.0000      -1.123952       -30.5843
   7   2.0000      -1.123087       -30.5608
   8   2.0000      -0.888617       -24.1805
   9   2.0000      -0.800600       -21.7854
  10   2.0000      -0.713508       -19.4155
  11   2.0000      -0.663515       -18.0552
  12   2.0000      -0.584441       -15.9035
  13   2.0000      -0.562885       -15.3169
  14   2.0000      -0.537336       -14.6217
  15   2.0000      -0.511925       -13.9302
  16   2.0000      -0.472248       -12.8505
  17   2.0000      -0.467090       -12.7102
  18   2.0000      -0.462984       -12.5984
  19   2.0000      -0.411751       -11.2043
  20   2.0000      -0.400210       -10.8903
  21   2.0000      -0.385997       -10.5035
  22   2.0000      -0.373754       -10.1704
  23   2.0000      -0.333007        -9.0616
  24   2.0000      -0.320926        -8.7329
  25   0.0000       0.117087         3.1861
  26   0.0000       0.122557         3.3350
  27   0.0000       0.153896         4.1877
  28   0.0000       0.171109         4.6561
  29   0.0000       0.187043         5.0897

MULLIKEN ATOMIC CHARGES
-----------------------
   0 C :   -0.157430
   1 H :    0.220256
   2 O :   -0.626131
   3 C :   -0.442837
   4 H :    0.223371
   5 H :    0.206646
   6 C :   -0.473580
   7 H :    0.190233
   8 H :    0.221961
   9 H :    0.414042
  10 H :    0.179788
  11 C :   -0.131633
  12 H :    0.179699
  13 H :    0.209290
  14 O :   -0.621801
  15 H :    0.408127
Sum of atomic charges:    0.0000000

LOEWDIN ATOMIC CHARGES
----------------------
   0 C :   -0.092095
   1 H :    0.121829
   2 O :   -0.413630
   3 C :   -0.264644
   4 H :    0.129560
   5 H :    0.126435
   6 C :   -0.272502
   7 H :    0.112769
   8 H :    0.127244
   9 H :    0.305885
  10 H :    0.098492
  11 C :   -0.093711
  12 H :    0.098753
  13 H :    0.119668
  14 O :   -0.409783
  15 H :    0.305729

  Mayer bond orders larger than 0.100000
B(  0-C ,  1-H ) :   0.9204 B(  0-C ,  2-O ) :   1.0182 B(  0-C ,  3-C ) :   0.9655
B(  0-C , 10-H ) :   0.9141 B(  2-O ,  9-H ) :   0.7911 B(  3-C ,  4-H ) :   0.9104
B(  3-C ,  5-H ) :   0.9104 B(  3-C ,  6-C ) :   0.9661 B(  6-C ,  7-H ) :   0.9157
B(  6-C ,  8-H ) :   0.9097 B(  6-C , 11-C ) :   0.9881 B( 11-C , 12-H ) :   0.9097
B( 11-C , 13-H ) :   0.9131 B( 11-C , 14-O ) :   1.0252 B( 14-O , 15-H ) :   0.7954

Dispersion correction           -0.006509459
FINAL SINGLE POINT ENERGY      -308.207059188456

DIPOLE MOMENT
-------------
                                X             Y             Z
Electronic contribution:      0.64629      -2.00887      -0.20894
Nuclear contribution   :     -0.65954       1.89301       0.23536
                        -----------------------------------------
Total Dipole Moment    :     -0.01324      -0.11586       0.02642
                        -----------------------------------------
Magnitude (a.u.)       :      0.11957
Magnitude (Debye)      :      0.30392

Rotational constants in cm-1:     0.323456     0.045445     0.042143
Rotational constants in MHz :  9696.968997  1362.411937  1263.403046

                             ****ORCA TERMINATED NORMALLY****
TOTAL RUN TIME: 0 days 0 hours 1 minutes 38 seconds 451 msec
