                         Program Version 5.0.3 -  RELEASE  -
|  1> ! PBEh-3c def2/J TightSCF DefGrid3
|  2>
|  3> %maxcore 60000
|  4>
|  5> %pal
|  6> nprocs 4
|  7> end
|  8>
|  9> *xyzfile 0 1 TYR_xar.xyz
| 10>
| 11>                          ****END OF INPUT****

CARTESIAN COORDINATES (ANGSTROEM)
---------------------------------
  N     -2.724634   -0.815647   -0.765547
  C     -1.459104   -0.354431   -0.263256
  C     -1.439150    1.159380   -0.402871
  O     -2.100815    1.726735   -1.269656
  C     -0.283573   -0.974491   -1.052264
  C      1.039602   -0.557822   -0.486538
  C      1.471778   -1.066173    0.744621
  C      1.826755    0.411089   -1.111696
  C      2.645619   -0.615772    1.339925
  C      3.007623    0.865830   -0.529129
  C      3.417273    0.356042    0.702617
  O      4.560397    0.761177    1.330772
  H     -3.229527   -0.174580   -1.357980
  H     -1.363838   -0.651973    0.782147
  H     -0.410367   -2.055791   -0.997709
  H     -0.375135   -0.665349   -2.094683
  H      0.881659   -1.828790    1.239560
  H      1.510073    0.820571   -2.063231
  H      2.982095   -1.012712    2.287496
  H      3.609851    1.613912   -1.031396
  H      5.001145    1.406975    0.768791
  N     -0.636601    1.804924    0.472902
  H     -0.012887    1.238612    1.025683
  C     -0.331892    3.211311    0.309144
  H     -1.210367    3.704929   -0.093522
  H     -0.082838    3.642829    1.274306
  H      0.501033    3.363336   -0.378764
  C     -3.194873   -2.048382   -0.450914
  O     -2.569433   -2.820031    0.270618
  C     -4.535590   -2.405133   -1.044518
  H     -4.416355   -3.295465   -1.657335
  H     -4.963288   -1.607449   -1.646439
  H     -5.217200   -2.651131   -0.233943

 Total Charge           Charge          ....    0
 Multiplicity           Mult            ....    1
 Number of Electrons    NEL             ....  126
 Basis Dimension        Dim             ....  287

ORBITAL ENERGIES
----------------

  NO   OCC          E(Eh)            E(eV)
   0   2.0000     -19.535610      -531.5910
   1   2.0000     -19.467514      -529.7380
   2   2.0000     -19.449571      -529.2497
   3   2.0000     -14.667267      -399.1166
   4   2.0000     -14.656784      -398.8314
   5   2.0000     -10.552152      -287.1387
   6   2.0000     -10.544049      -286.9182
   7   2.0000     -10.522800      -286.3399
   8   2.0000     -10.491274      -285.4821
   9   2.0000     -10.469688      -284.8947
  10   2.0000     -10.462261      -284.6926
  11   2.0000     -10.460898      -284.6555
  12   2.0000     -10.460745      -284.6513
  13   2.0000     -10.459995      -284.6309
  14   2.0000     -10.454841      -284.4907
  15   2.0000     -10.448553      -284.3196
  16   2.0000     -10.437663      -284.0233
  17   2.0000      -1.182715       -32.1833
  18   2.0000      -1.153133       -31.3783
  19   2.0000      -1.135027       -30.8857
  20   2.0000      -1.029162       -28.0049
  21   2.0000      -1.023258       -27.8443
  22   2.0000      -0.967729       -26.3332
  23   2.0000      -0.892504       -24.2863
  24   2.0000      -0.852046       -23.1853
  25   2.0000      -0.843924       -22.9644
  26   2.0000      -0.813509       -22.1367
  27   2.0000      -0.788031       -21.4434
  28   2.0000      -0.735549       -20.0153
  29   2.0000      -0.712238       -19.3810
  30   2.0000      -0.674839       -18.3633
  31   2.0000      -0.663789       -18.0626
  32   2.0000      -0.650894       -17.7117
  33   2.0000      -0.624989       -17.0068
  34   2.0000      -0.607783       -16.5386
  35   2.0000      -0.563138       -15.3238
  36   2.0000      -0.558909       -15.2087
  37   2.0000      -0.539427       -14.6786
  38   2.0000      -0.531495       -14.4627
  39   2.0000      -0.526793       -14.3348
  40   2.0000      -0.518063       -14.0972
  41   2.0000      -0.510052       -13.8792
  42   2.0000      -0.504622       -13.7315
  43   2.0000      -0.494723       -13.4621
  44   2.0000      -0.486780       -13.2460
  45   2.0000      -0.483576       -13.1588
  46   2.0000      -0.474176       -12.9030
  47   2.0000      -0.462863       -12.5951
  48   2.0000      -0.456656       -12.4263
  49   2.0000      -0.451941       -12.2979
  50   2.0000      -0.449956       -12.2439
  51   2.0000      -0.432546       -11.7702
  52   2.0000      -0.424850       -11.5607
  53   2.0000      -0.419639       -11.4190
  54   2.0000      -0.403189       -10.9713
  55   2.0000      -0.396392       -10.7864
  56   2.0000      -0.390593       -10.6286
  57   2.0000      -0.325440        -8.8557
  58   2.0000      -0.312311        -8.4984
  59   2.0000      -0.307751        -8.3743
  60   2.0000      -0.302952        -8.2437
  61   2.0000      -0.299267        -8.1435
  62   2.0000      -0.267041        -7.2665
  63   0.0000       0.001092         0.0297
  64   0.0000       0.018552         0.5048
  65   0.0000       0.050234         1.3669
  66   0.0000       0.069998         1.9047
  67   0.0000       0.111752         3.0409

MULLIKEN ATOMIC CHARGES
-----------------------
   0 N :   -0.645073
   1 C :   -0.167808
   2 C :    0.543248
   3 O :   -0.445850
   4 C :   -0.505033
   5 C :    0.074794
   6 C :   -0.284449
   7 C :   -0.253299
   8 C :   -0.288446
   9 C :   -0.348338
  10 C :    0.353389
  11 O :   -0.604360
  12 H :    0.380574
  13 H :    0.263821
  14 H :    0.281863
  15 H :    0.238981
  16 H :    0.245532
  17 H :    0.228431
  18 H :    0.244896
  19 H :    0.220838
  20 H :    0.430828
  21 N :   -0.618931
  22 H :    0.381504
  23 C :   -0.494531
  24 H :    0.259378
  25 H :    0.223805
  26 H :    0.220906
  27 C :    0.528366
  28 O :   -0.447317
  29 C :   -0.747879
  30 H :    0.255269
  31 H :    0.217709
  32 H :    0.257187
Sum of atomic charges:   -0.0000000

LOEWDIN ATOMIC CHARGES
----------------------
   0 N :   -0.221510
   1 C :   -0.088030
   2 C :    0.112738
   3 O :   -0.290807
   4 C :   -0.217850
   5 C :   -0.084737
   6 C :   -0.130224
   7 C :   -0.121402
   8 C :   -0.161074
   9 C :   -0.194769
  10 C :    0.059454
  11 O :   -0.311882
  12 H :    0.268000
  13 H :    0.143283
  14 H :    0.156129
  15 H :    0.138253
  16 H :    0.147473
  17 H :    0.141208
  18 H :    0.150013
  19 H :    0.134807
  20 H :    0.326036
  21 N :   -0.229546
  22 H :    0.264502
  23 C :   -0.253910
  24 H :    0.148869
  25 H :    0.127428
  26 H :    0.120975
  27 C :    0.106665
  28 O :   -0.294923
  29 C :   -0.387061
  30 H :    0.155631
  31 H :    0.129711
  32 H :    0.156551

  Mayer bond orders larger than 0.100000
B(  0-N ,  1-C ) :   0.9406 B(  0-N , 12-H ) :   0.7826 B(  0-N , 27-C ) :   1.1530
B(  1-C ,  2-C ) :   0.9058 B(  1-C ,  4-C ) :   0.9366 B(  1-C , 13-H ) :   0.8800
B(  2-C ,  3-O ) :   1.9573 B(  2-C , 21-N ) :   1.1567 B(  4-C ,  5-C ) :   0.9502
B(  4-C , 14-H ) :   0.8918 B(  4-C , 15-H ) :   0.9138 B(  5-C ,  6-C ) :   1.3713
B(  5-C ,  7-C ) :   1.4155 B(  6-C ,  8-C ) :   1.4447 B(  6-C , 16-H ) :   0.9122
B(  7-C ,  9-C ) :   1.4213 B(  7-C , 17-H ) :   0.9157 B(  8-C , 10-C ) :   1.3607
B(  8-C , 18-H ) :   0.9072 B(  9-C , 10-C ) :   1.3418 B(  9-C , 19-H ) :   0.9161
B( 10-C , 11-O ) :   1.0767 B( 11-O , 20-H ) :   0.7793 B( 21-N , 22-H ) :   0.8041
B( 21-N , 23-C ) :   0.9564 B( 23-C , 24-H ) :   0.9052 B( 23-C , 25-H ) :   0.9245
B( 23-C , 26-H ) :   0.9158 B( 27-C , 28-O ) :   1.9517 B( 27-C , 29-C ) :   0.9289
B( 29-C , 30-H ) :   0.9111 B( 29-C , 31-H ) :   0.9209 B( 29-C , 32-H ) :   0.9105

Dispersion correction           -0.022430697
FINAL SINGLE POINT ENERGY      -800.404313896162

DIPOLE MOMENT
-------------
                                X             Y             Z
Electronic contribution:      5.26274      -1.46750       1.75991
Nuclear contribution   :     -4.50262       2.61668      -2.00470
                        -----------------------------------------
Total Dipole Moment    :      0.76012       1.14918      -0.24479
                        -----------------------------------------
Magnitude (a.u.)       :      1.39940
Magnitude (Debye)      :      3.55698

Rotational constants in cm-1:     0.027102     0.008965     0.007419
Rotational constants in MHz :   812.494484   268.761440   222.408485

                             ****ORCA TERMINATED NORMALLY****
TOTAL RUN TIME: 0 days 0 hours 4 minutes 44 seconds 619 msec
