                         Program Version 5.0.3 -  RELEASE  -
|  1> ! PBEh-3c def2/J TightSCF DefGrid3
|  2>
|  3> %maxcore 60000
|  4>
|  5> %pal
|  6> nprocs 4
|  7> end
|  8>
|  9> *xyzfile 0 1 2CL_B.xyz
| 10>
| 11>                          ****END OF INPUT****

CARTESIAN COORDINATES (ANGSTROEM)
---------------------------------
  C     -0.737550    0.193145   -0.756895
  Cl     0.150129    0.008472   -2.174942
  C      0.049075    0.002724    0.463685
  H      1.132095   -0.096152    0.376169
  H     -0.223446    0.795073    1.167697
  H     -0.370303   -0.903262    0.924286

 Total Charge           Charge          ....    0
 Multiplicity           Mult            ....    1
 Number of Electrons    NEL             ....   32
 Basis Dimension        Dim             ....   54

ORBITAL ENERGIES
----------------

  NO   OCC          E(Eh)            E(eV)
   0   2.0000    -102.325932     -2784.4302
   1   2.0000     -10.526126      -286.4304
   2   2.0000     -10.455750      -284.5154
   3   2.0000      -9.794615      -266.5250
   4   2.0000      -7.480704      -203.5603
   5   2.0000      -7.476265      -203.4395
   6   2.0000      -7.472697      -203.3424
   7   2.0000      -0.990717       -26.9588
   8   2.0000      -0.847037       -23.0490
   9   2.0000      -0.635665       -17.2973
  10   2.0000      -0.519386       -14.1332
  11   2.0000      -0.499559       -13.5937
  12   2.0000      -0.482388       -13.1264
  13   2.0000      -0.412377       -11.2213
  14   2.0000      -0.393594       -10.7102
  15   2.0000      -0.263028        -7.1574
  16   0.0000      -0.057600        -1.5674
  17   0.0000       0.109614         2.9827
  18   0.0000       0.158218         4.3053
  19   0.0000       0.188448         5.1279
  20   0.0000       0.210239         5.7209

MULLIKEN ATOMIC CHARGES
-----------------------
   0 C :   -0.002511
   1 Cl:   -0.039917
   2 C :   -0.735394
   3 H :    0.232921
   4 H :    0.271714
   5 H :    0.273187
Sum of atomic charges:    0.0000000

LOEWDIN ATOMIC CHARGES
----------------------
   0 C :   -0.199174
   1 Cl:    0.159164
   2 C :   -0.429946
   3 H :    0.120890
   4 H :    0.168688
   5 H :    0.180379

  Mayer bond orders larger than 0.100000
B(  0-C ,  1-Cl) :   1.2734 B(  0-C ,  2-C ) :   1.0473 B(  2-C ,  3-H ) :   0.8957
B(  2-C ,  4-H ) :   0.8824 B(  2-C ,  5-H ) :   0.8695

Dispersion correction           -0.001832858
FINAL SINGLE POINT ENERGY      -537.416342116713

DIPOLE MOMENT
-------------
                                X             Y             Z
Electronic contribution:      0.26178       0.08050      -6.48195
Nuclear contribution   :      0.36019      -0.26072       7.07562
                        -----------------------------------------
Total Dipole Moment    :      0.62197      -0.18022       0.59367
                        -----------------------------------------
Magnitude (a.u.)       :      0.87850
Magnitude (Debye)      :      2.23298

Rotational constants in cm-1:     1.729945     0.200283     0.185397
Rotational constants in MHz : 51862.449216  6004.333904  5558.058786

                             ****ORCA TERMINATED NORMALLY****
TOTAL RUN TIME: 0 days 0 hours 0 minutes 27 seconds 375 msec
