                         Program Version 5.0.3 -  RELEASE  -
|  1> ! PBEh-3c def2/J TightSCF DefGrid3
|  2>
|  3> %maxcore 60000
|  4>
|  5> %pal
|  6> nprocs 4
|  7> end
|  8>
|  9> *xyzfile 0 1 02r.xyz
| 10>
| 11>                          ****END OF INPUT****

CARTESIAN COORDINATES (ANGSTROEM)
---------------------------------
  C      0.000000    0.000000   -1.124170
  C      0.000000    1.179427   -0.189595
  C      0.000000   -1.179427   -0.189595
  C      0.000000    0.734346    1.080662
  C      0.000000   -0.734346    1.080662
  H      0.877159    0.000000   -1.785684
  H     -0.877159    0.000000   -1.785684
  H      0.000000    2.210280   -0.516355
  H      0.000000   -2.210280   -0.516355
  H      0.000000    1.347286    1.973057
  H      0.000000   -1.347286    1.973057

 Total Charge           Charge          ....    0
 Multiplicity           Mult            ....    1
 Number of Electrons    NEL             ....   36
 Basis Dimension        Dim             ....   87

ORBITAL ENERGIES
----------------

  NO   OCC          E(Eh)            E(eV)
   0   2.0000     -10.444519      -284.2098
   1   2.0000     -10.440072      -284.0888
   2   2.0000     -10.439944      -284.0853
   3   2.0000     -10.439207      -284.0653
   4   2.0000     -10.439062      -284.0613
   5   2.0000      -0.952170       -25.9099
   6   2.0000      -0.789499       -21.4834
   7   2.0000      -0.785972       -21.3874
   8   2.0000      -0.620185       -16.8761
   9   2.0000      -0.596709       -16.2373
  10   2.0000      -0.578134       -15.7318
  11   2.0000      -0.492084       -13.3903
  12   2.0000      -0.454556       -12.3691
  13   2.0000      -0.429238       -11.6802
  14   2.0000      -0.411313       -11.1924
  15   2.0000      -0.410476       -11.1696
  16   2.0000      -0.345174        -9.3927
  17   2.0000      -0.258174        -7.0253
  18   0.0000       0.009014         0.2453
  19   0.0000       0.112726         3.0674
  20   0.0000       0.168436         4.5834
  21   0.0000       0.193596         5.2680
  22   0.0000       0.217649         5.9225

MULLIKEN ATOMIC CHARGES
-----------------------
   0 C :   -0.494014
   1 C :   -0.232013
   2 C :   -0.232013
   3 C :   -0.204139
   4 C :   -0.204139
   5 H :    0.247251
   6 H :    0.247251
   7 H :    0.220247
   8 H :    0.220247
   9 H :    0.215661
  10 H :    0.215661
Sum of atomic charges:   -0.0000000

LOEWDIN ATOMIC CHARGES
----------------------
   0 C :   -0.237441
   1 C :   -0.152302
   2 C :   -0.152302
   3 C :   -0.149110
   4 C :   -0.149110
   5 H :    0.154687
   6 H :    0.154687
   7 H :    0.133154
   8 H :    0.133154
   9 H :    0.132291
  10 H :    0.132291

  Mayer bond orders larger than 0.100000
B(  0-C ,  1-C ) :   1.0214 B(  0-C ,  2-C ) :   1.0214 B(  0-C ,  5-H ) :   0.8861
B(  0-C ,  6-H ) :   0.8861 B(  1-C ,  3-C ) :   1.7966 B(  1-C ,  7-H ) :   0.9234
B(  2-C ,  4-C ) :   1.7966 B(  2-C ,  8-H ) :   0.9234 B(  3-C ,  4-C ) :   1.1197
B(  3-C ,  9-H ) :   0.9215 B(  4-C , 10-H ) :   0.9215

Dispersion correction           -0.004690078
FINAL SINGLE POINT ENERGY      -193.665781672748

DIPOLE MOMENT
-------------
                                X             Y             Z
Electronic contribution:     -0.00000      -0.00000       1.04411
Nuclear contribution   :      0.00000       0.00000      -1.23378
                        -----------------------------------------
Total Dipole Moment    :     -0.00000      -0.00000      -0.18967
                        -----------------------------------------
Magnitude (a.u.)       :      0.18967
Magnitude (Debye)      :      0.48210

Rotational constants in cm-1:     0.282522     0.274423     0.142867
Rotational constants in MHz :  8469.795030  8227.007173  4283.039738

                             ****ORCA TERMINATED NORMALLY****
TOTAL RUN TIME: 0 days 0 hours 1 minutes 12 seconds 269 msec
