                         Program Version 5.0.3 -  RELEASE  -
|  1> ! PBEh-3c def2/J TightSCF DefGrid3
|  2>
|  3> %maxcore 60000
|  4>
|  5> %pal
|  6> nprocs 4
|  7> end
|  8>
|  9> *xyzfile 1 1 c2f6p.xyz
| 10>
| 11>                          ****END OF INPUT****

CARTESIAN COORDINATES (ANGSTROEM)
---------------------------------
  C     -0.012866    0.410760   -0.512428
  C     -0.076672    0.207913    1.070995
  F      1.027451    0.950367   -0.999032
  F      0.176349   -1.165480   -1.012432
  F     -1.083537    0.733299   -1.111515
  F      1.024382   -0.379271    1.462578
  F     -0.178500    1.410457    1.580579
  F     -1.126614   -0.517580    1.355537
  H      0.250007   -1.650464   -1.834281

 Total Charge           Charge          ....    1
 Multiplicity           Mult            ....    1
 Number of Electrons    NEL             ....   66
 Basis Dimension        Dim             ....  122

ORBITAL ENERGIES
----------------

  NO   OCC          E(Eh)            E(eV)
   0   2.0000     -25.447732      -692.4680
   1   2.0000     -25.441506      -692.2986
   2   2.0000     -25.441275      -692.2923
   3   2.0000     -25.362690      -690.1539
   4   2.0000     -25.360532      -690.0952
   5   2.0000     -25.360411      -690.0919
   6   2.0000     -11.001597      -299.3687
   7   2.0000     -10.957206      -298.1607
   8   2.0000      -1.753577       -47.7173
   9   2.0000      -1.685563       -45.8665
  10   2.0000      -1.673151       -45.5288
  11   2.0000      -1.670456       -45.4554
  12   2.0000      -1.589744       -43.2591
  13   2.0000      -1.588885       -43.2358
  14   2.0000      -1.130410       -30.7600
  15   2.0000      -1.027522       -27.9603
  16   2.0000      -1.004483       -27.3334
  17   2.0000      -0.960846       -26.1459
  18   2.0000      -0.954854       -25.9829
  19   2.0000      -0.898617       -24.4526
  20   2.0000      -0.897713       -24.4280
  21   2.0000      -0.891706       -24.2646
  22   2.0000      -0.848585       -23.0912
  23   2.0000      -0.835787       -22.7429
  24   2.0000      -0.808988       -22.0137
  25   2.0000      -0.802691       -21.8423
  26   2.0000      -0.788202       -21.4481
  27   2.0000      -0.765233       -20.8230
  28   2.0000      -0.764602       -20.8059
  29   2.0000      -0.730624       -19.8813
  30   2.0000      -0.728880       -19.8338
  31   2.0000      -0.704449       -19.1690
  32   2.0000      -0.684361       -18.6224
  33   0.0000      -0.278240        -7.5713
  34   0.0000      -0.134933        -3.6717
  35   0.0000      -0.074164        -2.0181
  36   0.0000      -0.051833        -1.4104
  37   0.0000       0.010999         0.2993

MULLIKEN ATOMIC CHARGES
-----------------------
   0 C :    0.833582
   1 C :    0.963970
   2 F :   -0.146808
   3 F :   -0.406614
   4 F :   -0.146747
   5 F :   -0.243012
   6 F :   -0.238078
   7 F :   -0.242314
   8 H :    0.626021
Sum of atomic charges:    1.0000000

LOEWDIN ATOMIC CHARGES
----------------------
   0 C :    0.405337
   1 C :    0.316013
   2 F :    0.041730
   3 F :   -0.153182
   4 F :    0.041698
   5 F :   -0.049122
   6 F :   -0.041986
   7 F :   -0.048497
   8 H :    0.488008

  Mayer bond orders larger than 0.100000
B(  0-C ,  1-C ) :   0.8499 B(  0-C ,  2-F ) :   1.1920 B(  0-C ,  3-F ) :   0.3534
B(  0-C ,  4-F ) :   1.1923 B(  1-C ,  5-F ) :   1.0611 B(  1-C ,  6-F ) :   1.0502
B(  1-C ,  7-F ) :   1.0623 B(  3-F ,  8-H ) :   0.5812

Dispersion correction           -0.002853902
FINAL SINGLE POINT ENERGY      -674.166687959386

DIPOLE MOMENT
-------------
                                X             Y             Z
Electronic contribution:     -0.05459       0.61125      -0.14492
Nuclear contribution   :      0.25452      -1.66113      -1.93571
                        -----------------------------------------
Total Dipole Moment    :      0.19993      -1.04988      -2.08063
                        -----------------------------------------
Magnitude (a.u.)       :      2.33907
Magnitude (Debye)      :      5.94544

Rotational constants in cm-1:     0.090423     0.058748     0.056361
Rotational constants in MHz :  2710.801950  1761.225265  1689.668246

                             ****ORCA TERMINATED NORMALLY****
TOTAL RUN TIME: 0 days 0 hours 1 minutes 26 seconds 781 msec
