                         Program Version 5.0.3 -  RELEASE  -
|  1> ! PBEh-3c def2/J TightSCF DefGrid3
|  2>
|  3> %maxcore 60000
|  4>
|  5> %pal
|  6> nprocs 4
|  7> end
|  8>
|  9> *xyzfile 1 1 6p3.xyz
| 10>
| 11>                          ****END OF INPUT****

CARTESIAN COORDINATES (ANGSTROEM)
---------------------------------
  O     -3.094337    0.858149    0.000000
  C     -1.980851    0.884597    0.000000
  C     -0.563868    0.844715    0.000000
  C     -0.047796   -0.625947    0.000000
  C      1.469191   -0.614089    0.000000
  H     -0.236340    1.401369    0.890138
  H     -0.236340    1.401369   -0.890138
  H     -0.438067   -1.134279   -0.883502
  H     -0.438067   -1.134279    0.883502
  H      1.868420   -0.119122   -0.887439
  H      1.829638   -1.643361    0.000000
  H      1.868420   -0.119122    0.887439

 Total Charge           Charge          ....    1
 Multiplicity           Mult            ....    1
 Number of Electrons    NEL             ....   38
 Basis Dimension        Dim             ....   89

ORBITAL ENERGIES
----------------

  NO   OCC          E(Eh)            E(eV)
   0   2.0000     -19.885864      -541.1219
   1   2.0000     -10.889436      -296.3166
   2   2.0000     -10.732585      -292.0485
   3   2.0000     -10.662608      -290.1443
   4   2.0000     -10.600298      -288.4488
   5   2.0000      -1.562383       -42.5146
   6   2.0000      -1.169993       -31.8371
   7   2.0000      -1.031800       -28.0767
   8   2.0000      -0.896225       -24.3875
   9   2.0000      -0.884496       -24.0684
  10   2.0000      -0.831836       -22.6354
  11   2.0000      -0.826507       -22.4904
  12   2.0000      -0.802800       -21.8453
  13   2.0000      -0.750405       -20.4196
  14   2.0000      -0.690115       -18.7790
  15   2.0000      -0.667002       -18.1500
  16   2.0000      -0.618014       -16.8170
  17   2.0000      -0.593154       -16.1405
  18   2.0000      -0.582718       -15.8566
  19   0.0000      -0.257631        -7.0105
  20   0.0000      -0.255427        -6.9505
  21   0.0000      -0.095445        -2.5972
  22   0.0000      -0.038506        -1.0478
  23   0.0000      -0.025699        -0.6993

MULLIKEN ATOMIC CHARGES
-----------------------
   0 O :    0.010780
   1 C :    0.604188
   2 C :   -0.647837
   3 C :   -0.456784
   4 C :   -0.649618
   5 H :    0.383247
   6 H :    0.383247
   7 H :    0.288313
   8 H :    0.288313
   9 H :    0.250645
  10 H :    0.294858
  11 H :    0.250645
Sum of atomic charges:    1.0000000

LOEWDIN ATOMIC CHARGES
----------------------
   0 O :    0.193453
   1 C :    0.407187
   2 C :   -0.276569
   3 C :   -0.215183
   4 C :   -0.353167
   5 H :    0.230341
   6 H :    0.230341
   7 H :    0.159304
   8 H :    0.159304
   9 H :    0.147555
  10 H :    0.169880
  11 H :    0.147555

  Mayer bond orders larger than 0.100000
B(  0-O ,  1-C ) :   2.6149 B(  1-C ,  2-C ) :   1.0348 B(  2-C ,  3-C ) :   0.8510
B(  2-C ,  5-H ) :   0.8061 B(  2-C ,  6-H ) :   0.8061 B(  3-C ,  4-C ) :   0.9787
B(  3-C ,  7-H ) :   0.8862 B(  3-C ,  8-H ) :   0.8862 B(  4-C ,  9-H ) :   0.9099
B(  4-C , 10-H ) :   0.8958 B(  4-C , 11-H ) :   0.9099

Dispersion correction           -0.004546893
FINAL SINGLE POINT ENERGY      -231.055138166937

DIPOLE MOMENT
-------------
                                X             Y             Z
Electronic contribution:     -9.42622       3.56978      -0.00000
Nuclear contribution   :      9.34969      -2.94075       0.00000
                        -----------------------------------------
Total Dipole Moment    :     -0.07652       0.62903      -0.00000
                        -----------------------------------------
Magnitude (a.u.)       :      0.63366
Magnitude (Debye)      :      1.61065

Rotational constants in cm-1:     0.762222     0.075436     0.071410
Rotational constants in MHz : 22850.842527  2261.527476  2140.828575

                             ****ORCA TERMINATED NORMALLY****
TOTAL RUN TIME: 0 days 0 hours 1 minutes 57 seconds 294 msec
