                         Program Version 5.0.3 -  RELEASE  -
|  1> ! PBEh-3c def2/J TightSCF DefGrid3
|  2>
|  3> %maxcore 60000
|  4>
|  5> %pal
|  6> nprocs 4
|  7> end
|  8>
|  9> *xyzfile 0 1 h2o_6_ts.xyz
| 10>
| 11>                          ****END OF INPUT****

CARTESIAN COORDINATES (ANGSTROEM)
---------------------------------
  O      2.079161   -1.200404    0.095322
  H      1.035446    1.793446    0.000000
  H      2.070893    0.000000    0.000000
  O      2.079161    1.200404   -0.095322
  H      1.035446   -1.793446    0.000000
  O      0.000000   -2.400809   -0.095322
  H     -1.035446   -1.793446    0.000000
  O      0.000000    2.400809    0.095322
  H      0.000000    2.940562    0.889692
  H      2.546601    1.470281   -0.889692
  H      2.546601   -1.470281    0.889692
  H      0.000000   -2.940562   -0.889692
  O     -2.079161   -1.200404    0.095322
  H     -1.035446    1.793446    0.000000
  H     -2.546601   -1.470281    0.889692
  O     -2.079161    1.200404   -0.095322
  H     -2.070893    0.000000    0.000000
  H     -2.546601    1.470281   -0.889692

 Total Charge           Charge          ....    0
 Multiplicity           Mult            ....    1
 Number of Electrons    NEL             ....   60
 Basis Dimension        Dim             ....  114

ORBITAL ENERGIES
----------------

  NO   OCC          E(Eh)            E(eV)
   0   2.0000     -19.463842      -529.6381
   1   2.0000     -19.463841      -529.6380
   2   2.0000     -19.463835      -529.6379
   3   2.0000     -19.463771      -529.6361
   4   2.0000     -19.463770      -529.6361
   5   2.0000     -19.463676      -529.6336
   6   2.0000      -1.113458       -30.2987
   7   2.0000      -1.097481       -29.8640
   8   2.0000      -1.097479       -29.8639
   9   2.0000      -1.061625       -28.8883
  10   2.0000      -1.061624       -28.8883
  11   2.0000      -1.040822       -28.3222
  12   2.0000      -0.599635       -16.3169
  13   2.0000      -0.587634       -15.9903
  14   2.0000      -0.587634       -15.9903
  15   2.0000      -0.583132       -15.8678
  16   2.0000      -0.581141       -15.8137
  17   2.0000      -0.581141       -15.8136
  18   2.0000      -0.501145       -13.6368
  19   2.0000      -0.468904       -12.7595
  20   2.0000      -0.468903       -12.7595
  21   2.0000      -0.391714       -10.6591
  22   2.0000      -0.391712       -10.6590
  23   2.0000      -0.370953       -10.0941
  24   2.0000      -0.351241        -9.5577
  25   2.0000      -0.351240        -9.5577
  26   2.0000      -0.349263        -9.5039
  27   2.0000      -0.349262        -9.5039
  28   2.0000      -0.346693        -9.4340
  29   2.0000      -0.318631        -8.6704
  30   0.0000       0.128379         3.4934
  31   0.0000       0.153200         4.1688
  32   0.0000       0.153201         4.1688
  33   0.0000       0.182189         4.9576
  34   0.0000       0.182190         4.9576

MULLIKEN ATOMIC CHARGES
-----------------------
   0 O :   -0.916799
   1 H :    0.496572
   2 H :    0.496591
   3 O :   -0.916799
   4 H :    0.496572
   5 O :   -0.916785
   6 H :    0.496572
   7 O :   -0.916785
   8 H :    0.420220
   9 H :    0.420214
  10 H :    0.420214
  11 H :    0.420220
  12 O :   -0.916799
  13 H :    0.496572
  14 H :    0.420214
  15 O :   -0.916799
  16 H :    0.496591
  17 H :    0.420214
Sum of atomic charges:   -0.0000000

LOEWDIN ATOMIC CHARGES
----------------------
   0 O :   -0.654533
   1 H :    0.349568
   2 H :    0.349574
   3 O :   -0.654533
   4 H :    0.349568
   5 O :   -0.654531
   6 H :    0.349568
   7 O :   -0.654531
   8 H :    0.304964
   9 H :    0.304961
  10 H :    0.304961
  11 H :    0.304964
  12 O :   -0.654533
  13 H :    0.349568
  14 H :    0.304961
  15 O :   -0.654533
  16 H :    0.349574
  17 H :    0.304961

  Mayer bond orders larger than 0.100000
B(  0-O ,  2-H ) :   0.3754 B(  0-O ,  4-H ) :   0.3754 B(  0-O , 10-H ) :   0.7961
B(  1-H ,  3-O ) :   0.3754 B(  1-H ,  7-O ) :   0.3754 B(  2-H ,  3-O ) :   0.3754
B(  3-O ,  9-H ) :   0.7961 B(  4-H ,  5-O ) :   0.3754 B(  5-O ,  6-H ) :   0.3754
B(  5-O , 11-H ) :   0.7961 B(  6-H , 12-O ) :   0.3754 B(  7-O ,  8-H ) :   0.7961
B(  7-O , 13-H ) :   0.3754 B( 12-O , 14-H ) :   0.7961 B( 12-O , 16-H ) :   0.3754
B( 13-H , 15-O ) :   0.3754 B( 15-O , 16-H ) :   0.3754 B( 15-O , 17-H ) :   0.7961

Dispersion correction           -0.005254680
FINAL SINGLE POINT ENERGY      -457.601348809866

DIPOLE MOMENT
-------------
                                X             Y             Z
Electronic contribution:      0.00000      -0.00000       0.00000
Nuclear contribution   :      0.00000      -0.00000       0.00000
                        -----------------------------------------
Total Dipole Moment    :      0.00000      -0.00000       0.00000
                        -----------------------------------------
Magnitude (a.u.)       :      0.00000
Magnitude (Debye)      :      0.00000

Rotational constants in cm-1:     0.052447     0.052447     0.026693
Rotational constants in MHz :  1572.307097  1572.306741   800.243838

                             ****ORCA TERMINATED NORMALLY****
TOTAL RUN TIME: 0 days 0 hours 1 minutes 13 seconds 192 msec
