                         Program Version 5.0.3 -  RELEASE  -
|  1> ! PBEh-3c def2/J TightSCF DefGrid3
|  2>
|  3> %maxcore 60000
|  4>
|  5> %pal
|  6> nprocs 4
|  7> end
|  8>
|  9> *xyzfile 0 1 Thioether.xyz
| 10>
| 11>                          ****END OF INPUT****

CARTESIAN COORDINATES (ANGSTROEM)
---------------------------------
  C     -1.311974   -0.107035   -0.101418
  S      0.071159    0.944159    0.412300
  C      1.440365   -0.165937   -0.006808
  H     -2.227585    0.448726    0.091617
  H     -1.256108   -0.340820   -1.165598
  H     -1.332182   -1.032846    0.472939
  H      2.363787    0.360631    0.228019
  H      1.435994   -0.415118   -1.068910
  H      1.395543   -1.081759    0.581858

 Total Charge           Charge          ....    0
 Multiplicity           Mult            ....    1
 Number of Electrons    NEL             ....   34
 Basis Dimension        Dim             ....   60

ORBITAL ENERGIES
----------------

  NO   OCC          E(Eh)            E(eV)
   0   2.0000     -89.570960     -2437.3497
   1   2.0000     -10.458500      -284.5903
   2   2.0000     -10.458439      -284.5886
   3   2.0000      -8.209896      -223.4026
   4   2.0000      -6.101332      -166.0257
   5   2.0000      -6.098001      -165.9350
   6   2.0000      -6.091854      -165.7678
   7   2.0000      -0.884077       -24.0570
   8   2.0000      -0.787400       -21.4262
   9   2.0000      -0.667155       -18.1542
  10   2.0000      -0.500388       -13.6163
  11   2.0000      -0.497653       -13.5418
  12   2.0000      -0.480902       -13.0860
  13   2.0000      -0.463736       -12.6189
  14   2.0000      -0.412416       -11.2224
  15   2.0000      -0.357680        -9.7330
  16   2.0000      -0.260479        -7.0880
  17   0.0000       0.088356         2.4043
  18   0.0000       0.130502         3.5511
  19   0.0000       0.143167         3.8958
  20   0.0000       0.172727         4.7002
  21   0.0000       0.200168         5.4468

MULLIKEN ATOMIC CHARGES
-----------------------
   0 C :   -0.746193
   1 S :    0.017818
   2 C :   -0.746245
   3 H :    0.255627
   4 H :    0.240533
   5 H :    0.241151
   6 H :    0.255550
   7 H :    0.240401
   8 H :    0.241359
Sum of atomic charges:   -0.0000000

LOEWDIN ATOMIC CHARGES
----------------------
   0 C :   -0.467859
   1 S :    0.140061
   2 C :   -0.467878
   3 H :    0.141596
   4 H :    0.128117
   5 H :    0.128110
   6 H :    0.141588
   7 H :    0.128218
   8 H :    0.128047

  Mayer bond orders larger than 0.100000
B(  0-C ,  1-S ) :   1.0199 B(  0-C ,  3-H ) :   0.9101 B(  0-C ,  4-H ) :   0.8986
B(  0-C ,  5-H ) :   0.8984 B(  1-S ,  2-C ) :   1.0200 B(  2-C ,  6-H ) :   0.9101
B(  2-C ,  7-H ) :   0.8986 B(  2-C ,  8-H ) :   0.8983

Dispersion correction           -0.003067260
FINAL SINGLE POINT ENERGY      -477.387343728837

DIPOLE MOMENT
-------------
                                X             Y             Z
Electronic contribution:      0.02142       3.60644       1.55621
Nuclear contribution   :     -0.02517      -4.20667      -1.81497
                        -----------------------------------------
Total Dipole Moment    :     -0.00375      -0.60023      -0.25876
                        -----------------------------------------
Magnitude (a.u.)       :      0.65364
Magnitude (Debye)      :      1.66142

Rotational constants in cm-1:     0.589496     0.252288     0.189360
Rotational constants in MHz : 17672.649907  7563.411806  5676.856264

                             ****ORCA TERMINATED NORMALLY****
TOTAL RUN TIME: 0 days 0 hours 0 minutes 26 seconds 440 msec
