                         Program Version 5.0.3 -  RELEASE  -
|  1> ! PBEh-3c def2/J TightSCF DefGrid3
|  2>
|  3> %maxcore 60000
|  4>
|  5> %pal
|  6> nprocs 4
|  7> end
|  8>
|  9> *xyzfile 0 1 K_Cl.xyz
| 10>
| 11>                          ****END OF INPUT****

CARTESIAN COORDINATES (ANGSTROEM)
---------------------------------
  P      2.004181   -0.012429   -0.231535
  B     -1.597164   -0.013165   -0.441293
  C      2.508048    1.700383   -0.461500
  C      1.875613   -0.411856    1.512085
  C      3.225484   -1.105327   -0.993099
  H      3.457708    1.882904    0.044095
  H      2.614829    1.909137   -1.526878
  H      1.724815    2.334684   -0.046014
  H      4.193540   -0.992040   -0.502860
  H      2.886317   -2.137171   -0.890078
  H      3.325943   -0.867263   -2.052838
  H      2.840814   -0.230152    1.989940
  H      1.582696   -1.456025    1.611830
  H      1.094921    0.210063    1.948214
  Cl    -0.889602    1.467290    0.593173
  Cl    -1.054007   -1.648407    0.392527
  Cl    -3.420368    0.103289   -0.563666
  H      0.801384   -0.220211   -0.897401
  H     -1.067113    0.042212   -1.518009

 Total Charge           Charge          ....    0
 Multiplicity           Mult            ....    1
 Number of Electrons    NEL             ....  100
 Basis Dimension        Dim             ....  154

ORBITAL ENERGIES
----------------

  NO   OCC          E(Eh)            E(eV)
   0   2.0000    -102.238490     -2782.0508
   1   2.0000    -102.231719     -2781.8665
   2   2.0000    -102.217986     -2781.4928
   3   2.0000     -77.861703     -2118.7246
   4   2.0000     -10.513700      -286.0923
   5   2.0000     -10.506018      -285.8833
   6   2.0000     -10.495252      -285.5903
   7   2.0000      -9.704339      -264.0685
   8   2.0000      -9.698054      -263.8975
   9   2.0000      -9.685062      -263.5439
  10   2.0000      -7.389777      -201.0861
  11   2.0000      -7.385552      -200.9711
  12   2.0000      -7.384945      -200.9546
  13   2.0000      -7.383676      -200.9200
  14   2.0000      -7.379025      -200.7935
  15   2.0000      -7.378617      -200.7824
  16   2.0000      -7.371097      -200.5778
  17   2.0000      -7.365596      -200.4281
  18   2.0000      -7.365415      -200.4231
  19   2.0000      -6.999500      -190.4661
  20   2.0000      -6.934644      -188.7013
  21   2.0000      -5.025728      -136.7570
  22   2.0000      -5.025553      -136.7522
  23   2.0000      -5.025271      -136.7446
  24   2.0000      -0.949282       -25.8313
  25   2.0000      -0.874101       -23.7855
  26   2.0000      -0.859017       -23.3750
  27   2.0000      -0.850014       -23.1300
  28   2.0000      -0.831669       -22.6309
  29   2.0000      -0.824358       -22.4319
  30   2.0000      -0.705120       -19.1873
  31   2.0000      -0.589841       -16.0504
  32   2.0000      -0.565008       -15.3746
  33   2.0000      -0.559987       -15.2380
  34   2.0000      -0.537455       -14.6249
  35   2.0000      -0.529976       -14.4214
  36   2.0000      -0.528635       -14.3849
  37   2.0000      -0.511791       -13.9265
  38   2.0000      -0.482318       -13.1246
  39   2.0000      -0.471895       -12.8409
  40   2.0000      -0.469723       -12.7818
  41   2.0000      -0.408197       -11.1076
  42   2.0000      -0.398933       -10.8555
  43   2.0000      -0.395439       -10.7604
  44   2.0000      -0.327057        -8.8997
  45   2.0000      -0.324967        -8.8428
  46   2.0000      -0.302227        -8.2240
  47   2.0000      -0.299517        -8.1503
  48   2.0000      -0.285139        -7.7590
  49   2.0000      -0.279788        -7.6134
  50   0.0000       0.034911         0.9500
  51   0.0000       0.040531         1.1029
  52   0.0000       0.049273         1.3408
  53   0.0000       0.079723         2.1694
  54   0.0000       0.098294         2.6747

MULLIKEN ATOMIC CHARGES
-----------------------
   0 P :    0.593511
   1 B :    0.191513
   2 C :   -0.846883
   3 C :   -0.838770
   4 C :   -0.853963
   5 H :    0.260844
   6 H :    0.276797
   7 H :    0.320021
   8 H :    0.268638
   9 H :    0.296279
  10 H :    0.281474
  11 H :    0.249101
  12 H :    0.298949
  13 H :    0.326632
  14 Cl:   -0.370080
  15 Cl:   -0.364438
  16 Cl:   -0.287822
  17 H :    0.214310
  18 H :   -0.016113
Sum of atomic charges:   -0.0000000

LOEWDIN ATOMIC CHARGES
----------------------
   0 P :    0.786063
   1 B :   -0.399562
   2 C :   -0.514710
   3 C :   -0.513762
   4 C :   -0.516415
   5 H :    0.157517
   6 H :    0.165615
   7 H :    0.184040
   8 H :    0.159903
   9 H :    0.172993
  10 H :    0.165439
  11 H :    0.151106
  12 H :    0.177192
  13 H :    0.187852
  14 Cl:   -0.191258
  15 Cl:   -0.175606
  16 Cl:   -0.065358
  17 H :    0.117773
  18 H :   -0.048820

  Mayer bond orders larger than 0.100000
B(  0-P ,  2-C ) :   1.0039 B(  0-P ,  3-C ) :   1.0230 B(  0-P ,  4-C ) :   0.9967
B(  0-P , 17-H ) :   0.8705 B(  1-B , 14-Cl) :   0.8135 B(  1-B , 15-Cl) :   0.8652
B(  1-B , 16-Cl) :   1.0475 B(  1-B , 18-H ) :   0.9084 B(  2-C ,  5-H ) :   0.8894
B(  2-C ,  6-H ) :   0.8896 B(  2-C ,  7-H ) :   0.8544 B(  3-C , 11-H ) :   0.8826
B(  3-C , 12-H ) :   0.8730 B(  3-C , 13-H ) :   0.8461 B(  4-C ,  8-H ) :   0.8908
B(  4-C ,  9-H ) :   0.8826 B(  4-C , 10-H ) :   0.8900

Dispersion correction           -0.012199704
FINAL SINGLE POINT ENERGY     -1865.647583345076

DIPOLE MOMENT
-------------
                                X             Y             Z
Electronic contribution:    -23.75802      -0.53077       1.46009
Nuclear contribution   :     29.34309       0.58664      -1.79636
                        -----------------------------------------
Total Dipole Moment    :      5.58506       0.05587      -0.33627
                        -----------------------------------------
Magnitude (a.u.)       :      5.59546
Magnitude (Debye)      :     14.22252

Rotational constants in cm-1:     0.049311     0.016191     0.014154
Rotational constants in MHz :  1478.301777   485.398652   424.313533

                             ****ORCA TERMINATED NORMALLY****
TOTAL RUN TIME: 0 days 0 hours 1 minutes 20 seconds 844 msec
