                         Program Version 5.0.3 -  RELEASE  -
|  1> ! PBEh-3c def2/J TightSCF DefGrid3
|  2>
|  3> %maxcore 60000
|  4>
|  5> %pal
|  6> nprocs 4
|  7> end
|  8>
|  9> *xyzfile 0 1 PRO_xac.xyz
| 10>
| 11>                          ****END OF INPUT****

CARTESIAN COORDINATES (ANGSTROEM)
---------------------------------
  N      0.980822    0.121499   -0.072601
  C     -0.076603    0.459637    0.872529
  C     -1.468878   -0.035167    0.474340
  O     -2.427180    0.168036    1.209952
  C     -0.047827    1.992057    0.878718
  C      0.335448    2.317943   -0.564071
  C      1.404322    1.274840   -0.875413
  H      0.122188    0.054615    1.863176
  H     -1.000964    2.404574    1.198154
  H      0.732249    2.333896    1.559443
  H     -0.526704    2.181373   -1.217158
  H      0.701310    3.333804   -0.691378
  H      1.465285    1.007376   -1.928495
  H      2.399105    1.595852   -0.560208
  N     -1.535438   -0.673588   -0.716757
  H     -0.672955   -0.775638   -1.225485
  C     -2.776803   -1.197623   -1.242295
  H     -2.695140   -2.264634   -1.439112
  H     -3.541429   -1.028260   -0.490138
  H     -3.061985   -0.687790   -2.160887
  C      1.780242   -0.988784   -0.019366
  O      2.768258   -1.090290   -0.737381
  C      1.364161   -2.063867    0.956583
  H      1.910421   -2.968627    0.712259
  H      0.293329   -2.255402    0.925559
  H      1.622794   -1.764503    1.972485

 Total Charge           Charge          ....    0
 Multiplicity           Mult            ....    1
 Number of Electrons    NEL             ....   92
 Basis Dimension        Dim             ....  208

ORBITAL ENERGIES
----------------

  NO   OCC          E(Eh)            E(eV)
   0   2.0000     -19.461305      -529.5690
   1   2.0000     -19.459685      -529.5249
   2   2.0000     -14.675259      -399.3341
   3   2.0000     -14.669745      -399.1841
   4   2.0000     -10.552546      -287.1494
   5   2.0000     -10.549191      -287.0581
   6   2.0000     -10.499132      -285.6959
   7   2.0000     -10.479068      -285.1499
   8   2.0000     -10.471639      -284.9478
   9   2.0000     -10.454575      -284.4835
  10   2.0000     -10.452190      -284.4186
  11   2.0000     -10.445670      -284.2411
  12   2.0000      -1.151112       -31.3233
  13   2.0000      -1.143560       -31.1179
  14   2.0000      -1.060283       -28.8518
  15   2.0000      -1.025189       -27.8968
  16   2.0000      -0.901848       -24.5405
  17   2.0000      -0.859324       -23.3834
  18   2.0000      -0.827477       -22.5168
  19   2.0000      -0.796219       -21.6662
  20   2.0000      -0.727527       -19.7970
  21   2.0000      -0.683731       -18.6053
  22   2.0000      -0.661210       -17.9925
  23   2.0000      -0.645002       -17.5514
  24   2.0000      -0.605821       -16.4852
  25   2.0000      -0.560716       -15.2578
  26   2.0000      -0.551945       -15.0192
  27   2.0000      -0.535076       -14.5601
  28   2.0000      -0.521645       -14.1947
  29   2.0000      -0.508997       -13.8505
  30   2.0000      -0.501350       -13.6424
  31   2.0000      -0.491033       -13.3617
  32   2.0000      -0.487396       -13.2627
  33   2.0000      -0.465249       -12.6601
  34   2.0000      -0.460238       -12.5237
  35   2.0000      -0.455112       -12.3842
  36   2.0000      -0.448475       -12.2036
  37   2.0000      -0.438839       -11.9414
  38   2.0000      -0.416940       -11.3455
  39   2.0000      -0.413372       -11.2484
  40   2.0000      -0.401496       -10.9253
  41   2.0000      -0.395778       -10.7697
  42   2.0000      -0.331236        -9.0134
  43   2.0000      -0.312282        -8.4976
  44   2.0000      -0.308285        -8.3889
  45   2.0000      -0.287725        -7.8294
  46   0.0000       0.049175         1.3381
  47   0.0000       0.052535         1.4296
  48   0.0000       0.107098         2.9143
  49   0.0000       0.138012         3.7555
  50   0.0000       0.157580         4.2880

MULLIKEN ATOMIC CHARGES
-----------------------
   0 N :   -0.496863
   1 C :   -0.182438
   2 C :    0.530003
   3 O :   -0.430589
   4 C :   -0.455493
   5 C :   -0.481093
   6 C :   -0.250998
   7 H :    0.273197
   8 H :    0.274149
   9 H :    0.236189
  10 H :    0.233508
  11 H :    0.244130
  12 H :    0.242711
  13 H :    0.239015
  14 N :   -0.635525
  15 H :    0.380728
  16 C :   -0.494307
  17 H :    0.222857
  18 H :    0.266863
  19 H :    0.222735
  20 C :    0.495288
  21 O :   -0.417568
  22 C :   -0.777709
  23 H :    0.273944
  24 H :    0.240757
  25 H :    0.246509
Sum of atomic charges:    0.0000000

LOEWDIN ATOMIC CHARGES
----------------------
   0 N :   -0.146052
   1 C :   -0.086241
   2 C :    0.093651
   3 O :   -0.282857
   4 C :   -0.221729
   5 C :   -0.246964
   6 C :   -0.132183
   7 H :    0.149500
   8 H :    0.149831
   9 H :    0.132790
  10 H :    0.131659
  11 H :    0.136938
  12 H :    0.131852
  13 H :    0.129926
  14 N :   -0.243357
  15 H :    0.260495
  16 C :   -0.257107
  17 H :    0.124456
  18 H :    0.154801
  19 H :    0.123580
  20 C :    0.104417
  21 O :   -0.265840
  22 C :   -0.394028
  23 H :    0.157850
  24 H :    0.143741
  25 H :    0.150873

  Mayer bond orders larger than 0.100000
B(  0-N ,  1-C ) :   0.9098 B(  0-N ,  6-C ) :   0.9238 B(  0-N , 20-C ) :   1.1222
B(  1-C ,  2-C ) :   0.8970 B(  1-C ,  4-C ) :   0.9593 B(  1-C ,  7-H ) :   0.8897
B(  2-C ,  3-O ) :   1.9786 B(  2-C , 14-N ) :   1.1487 B(  3-O , 14-N ) :   0.1015
B(  4-C ,  5-C ) :   0.9665 B(  4-C ,  8-H ) :   0.9038 B(  4-C ,  9-H ) :   0.9143
B(  5-C ,  6-C ) :   0.9591 B(  5-C , 10-H ) :   0.9119 B(  5-C , 11-H ) :   0.9239
B(  6-C , 12-H ) :   0.9141 B(  6-C , 13-H ) :   0.9066 B( 14-N , 15-H ) :   0.7912
B( 14-N , 16-C ) :   0.9490 B( 16-C , 17-H ) :   0.9215 B( 16-C , 18-H ) :   0.8974
B( 16-C , 19-H ) :   0.9204 B( 20-C , 21-O ) :   2.0027 B( 20-C , 22-C ) :   0.9398
B( 22-C , 23-H ) :   0.9140 B( 22-C , 24-H ) :   0.9032 B( 22-C , 25-H ) :   0.9060

Dispersion correction           -0.016133574
FINAL SINGLE POINT ENERGY      -572.044027837489

DIPOLE MOMENT
-------------
                                X             Y             Z
Electronic contribution:      1.99961      -0.83712       1.12148
Nuclear contribution   :     -2.23450       1.09211      -1.44853
                        -----------------------------------------
Total Dipole Moment    :     -0.23489       0.25500      -0.32706
                        -----------------------------------------
Magnitude (a.u.)       :      0.47662
Magnitude (Debye)      :      1.21146

Rotational constants in cm-1:     0.039764     0.026143     0.020771
Rotational constants in MHz :  1192.091692   783.759887   622.687042

                             ****ORCA TERMINATED NORMALLY****
TOTAL RUN TIME: 0 days 0 hours 2 minutes 52 seconds 406 msec
