                         Program Version 5.0.3 -  RELEASE  -
|  1> ! PBEh-3c def2/J TightSCF DefGrid3
|  2>
|  3> %maxcore 60000
|  4>
|  5> %pal
|  6> nprocs 4
|  7> end
|  8>
|  9> *xyzfile 0 1 oxirane.xyz
| 10>
| 11>                          ****END OF INPUT****

CARTESIAN COORDINATES (ANGSTROEM)
---------------------------------
  O      0.000000    0.801498    0.000000
  C     -0.732294   -0.426000    0.000000
  C      0.732294   -0.426000    0.000000
  H     -1.263085   -0.642457   -0.919428
  H     -1.263085   -0.642457    0.919428
  H      1.263085   -0.642457   -0.919428
  H      1.263085   -0.642457    0.919428

 Total Charge           Charge          ....    0
 Multiplicity           Mult            ....    1
 Number of Electrons    NEL             ....   24
 Basis Dimension        Dim             ....   53

ORBITAL ENERGIES
----------------

  NO   OCC          E(Eh)            E(eV)
   0   2.0000     -19.504562      -530.7461
   1   2.0000     -10.491900      -285.4991
   2   2.0000     -10.491569      -285.4901
   3   2.0000      -1.179857       -32.1055
   4   2.0000      -0.760281       -20.6883
   5   2.0000      -0.711388       -19.3579
   6   2.0000      -0.580912       -15.8074
   7   2.0000      -0.543953       -14.8017
   8   2.0000      -0.449168       -12.2225
   9   2.0000      -0.442789       -12.0489
  10   2.0000      -0.365659        -9.9501
  11   2.0000      -0.328705        -8.9445
  12   0.0000       0.136296         3.7088
  13   0.0000       0.152855         4.1594
  14   0.0000       0.161183         4.3860
  15   0.0000       0.205561         5.5936
  16   0.0000       0.205744         5.5986

MULLIKEN ATOMIC CHARGES
-----------------------
   0 O :   -0.439512
   1 C :   -0.214796
   2 C :   -0.214796
   3 H :    0.217276
   4 H :    0.217276
   5 H :    0.217276
   6 H :    0.217276
Sum of atomic charges:   -0.0000000

LOEWDIN ATOMIC CHARGES
----------------------
   0 O :   -0.272928
   1 C :   -0.106649
   2 C :   -0.106649
   3 H :    0.121557
   4 H :    0.121557
   5 H :    0.121556
   6 H :    0.121557

  Mayer bond orders larger than 0.100000
B(  0-O ,  1-C ) :   0.9671 B(  0-O ,  2-C ) :   0.9671 B(  1-C ,  2-C ) :   0.9720
B(  1-C ,  3-H ) :   0.9126 B(  1-C ,  4-H ) :   0.9126 B(  2-C ,  5-H ) :   0.9126
B(  2-C ,  6-H ) :   0.9126

Dispersion correction           -0.001647416
FINAL SINGLE POINT ENERGY      -153.449948473260

DIPOLE MOMENT
-------------
                                X             Y             Z
Electronic contribution:      0.00000       1.57399       0.00000
Nuclear contribution   :      0.00000      -2.39905       0.00000
                        -----------------------------------------
Total Dipole Moment    :      0.00000      -0.82506       0.00000
                        -----------------------------------------
Magnitude (a.u.)       :      0.82506
Magnitude (Debye)      :      2.09713

Rotational constants in cm-1:     0.855292     0.741878     0.473319
Rotational constants in MHz : 25641.012249 22240.946860 14189.732593

                             ****ORCA TERMINATED NORMALLY****
TOTAL RUN TIME: 0 days 0 hours 0 minutes 46 seconds 866 msec
