                         Program Version 5.0.3 -  RELEASE  -
|  1> ! PBEh-3c def2/J TightSCF DefGrid3
|  2>
|  3> %maxcore 60000
|  4>
|  5> %pal
|  6> nprocs 4
|  7> end
|  8>
|  9> *xyzfile 0 1 A.xyz
| 10>
| 11>                          ****END OF INPUT****

CARTESIAN COORDINATES (ANGSTROEM)
---------------------------------
  N     -1.947942    0.557684    0.000000
  N     -0.043733    2.000805    0.000000
  N      1.217451   -1.326346    0.000000
  N      2.035913    0.741358    0.000000
  N     -1.813542   -1.743865    0.000000
  C      2.294684   -0.595170    0.000000
  C      0.683770    0.882779    0.000000
  C     -1.206860   -0.556083    0.000000
  C     -1.339082    1.741567    0.000000
  C      0.193120   -0.414884    0.000000
  H      2.722459    1.481519    0.000000
  H     -2.817982   -1.801616    0.000000
  H     -1.286132   -2.599909    0.000000
  H     -1.999443    2.603950    0.000000
  H      3.307318   -0.971790    0.000000

 Total Charge           Charge          ....    0
 Multiplicity           Mult            ....    1
 Number of Electrons    NEL             ....   70
 Basis Dimension        Dim             ....  160

ORBITAL ENERGIES
----------------

  NO   OCC          E(Eh)            E(eV)
   0   2.0000     -14.705106      -400.1463
   1   2.0000     -14.659088      -398.8941
   2   2.0000     -14.636101      -398.2686
   3   2.0000     -14.626186      -397.9987
   4   2.0000     -14.620706      -397.8496
   5   2.0000     -10.535065      -286.6737
   6   2.0000     -10.518817      -286.2316
   7   2.0000     -10.514841      -286.1234
   8   2.0000     -10.501327      -285.7556
   9   2.0000     -10.465309      -284.7755
  10   2.0000      -1.153869       -31.3984
  11   2.0000      -1.087557       -29.5939
  12   2.0000      -1.041045       -28.3283
  13   2.0000      -0.989787       -26.9335
  14   2.0000      -0.954308       -25.9680
  15   2.0000      -0.856297       -23.3010
  16   2.0000      -0.749700       -20.4004
  17   2.0000      -0.728420       -19.8213
  18   2.0000      -0.705229       -19.1903
  19   2.0000      -0.657552       -17.8929
  20   2.0000      -0.622886       -16.9496
  21   2.0000      -0.580128       -15.7861
  22   2.0000      -0.565867       -15.3980
  23   2.0000      -0.534327       -14.5398
  24   2.0000      -0.523812       -14.2536
  25   2.0000      -0.503102       -13.6901
  26   2.0000      -0.480851       -13.0846
  27   2.0000      -0.464773       -12.6471
  28   2.0000      -0.412737       -11.2311
  29   2.0000      -0.374357       -10.1868
  30   2.0000      -0.345994        -9.4150
  31   2.0000      -0.338041        -9.1986
  32   2.0000      -0.309089        -8.4108
  33   2.0000      -0.301514        -8.2046
  34   2.0000      -0.257826        -7.0158
  35   0.0000       0.009357         0.2546
  36   0.0000       0.038997         1.0612
  37   0.0000       0.079352         2.1593
  38   0.0000       0.123393         3.3577
  39   0.0000       0.139598         3.7987

MULLIKEN ATOMIC CHARGES
-----------------------
   0 N :   -0.436186
   1 N :   -0.408890
   2 N :   -0.399789
   3 N :   -0.652504
   4 N :   -0.815454
   5 C :    0.107694
   6 C :    0.472502
   7 C :    0.471737
   8 C :    0.058521
   9 C :    0.003076
  10 H :    0.377018
  11 H :    0.373936
  12 H :    0.383915
  13 H :    0.223093
  14 H :    0.241332
Sum of atomic charges:    0.0000000

LOEWDIN ATOMIC CHARGES
----------------------
   0 N :   -0.217855
   1 N :   -0.204688
   2 N :   -0.180966
   3 N :   -0.144521
   4 N :   -0.334551
   5 C :   -0.019815
   6 C :    0.049002
   7 C :    0.093913
   8 C :    0.000400
   9 C :   -0.103917
  10 H :    0.275274
  11 H :    0.263935
  12 H :    0.266524
  13 H :    0.123389
  14 H :    0.133876

  Mayer bond orders larger than 0.100000
B(  0-N ,  7-C ) :   1.4881 B(  0-N ,  8-C ) :   1.4608 B(  1-N ,  6-C ) :   1.4321
B(  1-N ,  8-C ) :   1.5339 B(  2-N ,  5-C ) :   1.6965 B(  2-N ,  9-C ) :   1.2957
B(  3-N ,  5-C ) :   1.1606 B(  3-N ,  6-C ) :   1.0662 B(  3-N , 10-H ) :   0.8149
B(  4-N ,  7-C ) :   1.1574 B(  4-N , 11-H ) :   0.8245 B(  4-N , 12-H ) :   0.8257
B(  5-C , 14-H ) :   0.9092 B(  6-C ,  9-C ) :   1.2615 B(  7-C ,  9-C ) :   1.1791
B(  8-C , 13-H ) :   0.9139

Dispersion correction           -0.008774684
FINAL SINGLE POINT ENERGY      -466.312131310171

DIPOLE MOMENT
-------------
                                X             Y             Z
Electronic contribution:      0.86417       1.17578      -0.00000
Nuclear contribution   :     -0.06214      -1.71775       0.00000
                        -----------------------------------------
Total Dipole Moment    :      0.80202      -0.54198      -0.00000
                        -----------------------------------------
Magnitude (a.u.)       :      0.96798
Magnitude (Debye)      :      2.46040

Rotational constants in cm-1:     0.080393     0.052911     0.031910
Rotational constants in MHz :  2410.116800  1586.236342   956.625884

                             ****ORCA TERMINATED NORMALLY****
TOTAL RUN TIME: 0 days 0 hours 1 minutes 50 seconds 313 msec
