                         Program Version 5.0.3 -  RELEASE  -
|  1> ! PBEh-3c def2/J TightSCF DefGrid3
|  2>
|  3> %maxcore 60000
|  4>
|  5> %pal
|  6> nprocs 4
|  7> end
|  8>
|  9> *xyzfile 0 1 hfAr.xyz
| 10>
| 11>                          ****END OF INPUT****

CARTESIAN COORDINATES (ANGSTROEM)
---------------------------------
  H      0.000000    0.000000   -0.576715
  F      0.000000    0.000000   -1.492456
  Ar     0.000000    0.000000    2.069171

 Total Charge           Charge          ....    0
 Multiplicity           Mult            ....    1
 Number of Electrons    NEL             ....   28
 Basis Dimension        Dim             ....   35

ORBITAL ENERGIES
----------------

  NO   OCC          E(Eh)            E(eV)
   0   2.0000    -115.921417     -3154.3821
   1   2.0000     -25.059955      -681.9160
   2   2.0000     -11.480165      -312.3912
   3   2.0000      -8.955027      -243.6787
   4   2.0000      -8.954824      -243.6732
   5   2.0000      -8.954824      -243.6732
   6   2.0000      -1.298262       -35.3275
   7   2.0000      -1.077070       -29.3086
   8   2.0000      -0.596773       -16.2390
   9   2.0000      -0.499434       -13.5903
  10   2.0000      -0.495915       -13.4945
  11   2.0000      -0.495915       -13.4945
  12   2.0000      -0.460106       -12.5201
  13   2.0000      -0.460106       -12.5201
  14   0.0000       0.132820         3.6142
  15   0.0000       0.592271        16.1165
  16   0.0000       0.810225        22.0474
  17   0.0000       0.839507        22.8441
  18   0.0000       0.839507        22.8441

MULLIKEN ATOMIC CHARGES
-----------------------
   0 H :    0.497731
   1 F :   -0.513460
   2 Ar:    0.015728
Sum of atomic charges:   -0.0000000

LOEWDIN ATOMIC CHARGES
----------------------
   0 H :    0.366917
   1 F :   -0.385066
   2 Ar:    0.018149

  Mayer bond orders larger than 0.100000
B(  0-H ,  1-F ) :   0.7239

Dispersion correction           -0.000299371
FINAL SINGLE POINT ENERGY      -627.218188597055

DIPOLE MOMENT
-------------
                                X             Y             Z
Electronic contribution:     -0.00000      -0.00000       4.32712
Nuclear contribution   :      0.00000       0.00000      -3.50409
                        -----------------------------------------
Total Dipole Moment    :     -0.00000      -0.00000       0.82302
                        -----------------------------------------
Magnitude (a.u.)       :      0.82302
Magnitude (Debye)      :      2.09196

Rotational constants in cm-1:     0.000000     0.101830     0.101830
Rotational constants in MHz :     0.000000  3052.800115  3052.800115

                             ****ORCA TERMINATED NORMALLY****
TOTAL RUN TIME: 0 days 0 hours 0 minutes 46 seconds 455 msec
