                         Program Version 5.0.3 -  RELEASE  -
|  1> ! PBEh-3c def2/J TightSCF DefGrid3
|  2>
|  3> %maxcore 60000
|  4>
|  5> %pal
|  6> nprocs 4
|  7> end
|  8>
|  9> *xyzfile 0 2 30.xyz
| 10>
| 11>                          ****END OF INPUT****

CARTESIAN COORDINATES (ANGSTROEM)
---------------------------------
  F      1.775298    1.426225   -1.356085
  F     -2.273688   -0.851626    1.762681
  B      0.573062   -1.278388   -2.097141
  C     -0.211075    1.587281    0.691943
  F      2.432250    0.539450    0.946222
  F     -2.098932   -0.151806   -0.557526
  Si     1.553247    1.771232    0.209418
  F      1.582156   -1.717027   -2.862936
  H     -0.331579    2.006127    1.701687
  H     -0.165377   -0.465182   -2.555628
  S      0.352349   -1.993477   -0.451236
  H     -0.810173    2.188008   -0.005446
  H      0.175480   -0.780617    2.073330
  Li     1.682383   -1.162728    1.304945
  Li    -3.394638   -0.760768    0.412918
  Al    -0.840763   -0.356702    0.782853

 Total Charge           Charge          ....    0
 Multiplicity           Mult            ....    2
 Number of Electrons    NEL             ....  109
 Basis Dimension        Dim             ....  185

ORBITAL ENERGIES
----------------
                 SPIN UP ORBITALS
  NO   OCC          E(Eh)            E(eV)
   0   1.0000     -89.542017     -2436.5621
   1   1.0000     -66.822794     -1818.3407
   2   1.0000     -56.609012     -1540.4095
   3   1.0000     -25.112720      -683.3518
   4   1.0000     -25.084791      -682.5919
   5   1.0000     -25.080586      -682.4774
   6   1.0000     -25.042585      -681.4434
   7   1.0000     -25.025965      -680.9911
   8   1.0000     -10.413171      -283.3568
   9   1.0000      -8.182769      -222.6645
  10   1.0000      -7.022244      -191.0850
  11   1.0000      -6.071515      -165.2143
  12   1.0000      -6.070131      -165.1767
  13   1.0000      -6.068949      -165.1445
  14   1.0000      -5.583754      -151.9417
  15   1.0000      -4.332434      -117.8915
  16   1.0000      -3.876915      -105.4962
  17   1.0000      -3.876500      -105.4849
  18   1.0000      -3.872175      -105.3672
  19   1.0000      -2.824118       -76.8482
  20   1.0000      -2.822045       -76.7917
  21   1.0000      -2.821085       -76.7656
  22   1.0000      -2.119096       -57.6635
  23   1.0000      -2.102762       -57.2191
  24   1.0000      -1.326248       -36.0890
  25   1.0000      -1.308162       -35.5969
  26   1.0000      -1.297399       -35.3040
  27   1.0000      -1.244661       -33.8690
  28   1.0000      -1.220745       -33.2182
  29   1.0000      -0.772498       -21.0208
  30   1.0000      -0.762917       -20.7600
  31   1.0000      -0.633978       -17.2514
  32   1.0000      -0.598427       -16.2840
  33   1.0000      -0.566364       -15.4115
  34   1.0000      -0.546803       -14.8793
  35   1.0000      -0.535308       -14.5665
  36   1.0000      -0.529955       -14.4208
  37   1.0000      -0.520335       -14.1590
  38   1.0000      -0.506135       -13.7726
  39   1.0000      -0.499477       -13.5915
  40   1.0000      -0.491204       -13.3664
  41   1.0000      -0.486009       -13.2250
  42   1.0000      -0.480701       -13.0805
  43   1.0000      -0.468466       -12.7476
  44   1.0000      -0.464304       -12.6344
  45   1.0000      -0.451468       -12.2851
  46   1.0000      -0.432795       -11.7770
  47   1.0000      -0.425652       -11.5826
  48   1.0000      -0.415925       -11.3179
  49   1.0000      -0.398773       -10.8512
  50   1.0000      -0.355671        -9.6783
  51   1.0000      -0.317317        -8.6346
  52   1.0000      -0.302904        -8.2424
  53   1.0000      -0.293657        -7.9908
  54   1.0000      -0.250015        -6.8033
  55   0.0000      -0.018051        -0.4912
  56   0.0000       0.005290         0.1439
  57   0.0000       0.028550         0.7769
  58   0.0000       0.068460         1.8629
  59   0.0000       0.072484         1.9724

                 SPIN DOWN ORBITALS
  NO   OCC          E(Eh)            E(eV)
   0   1.0000     -89.542020     -2436.5622
   1   1.0000     -66.818992     -1818.2372
   2   1.0000     -56.608837     -1540.4048
   3   1.0000     -25.110738      -683.2979
   4   1.0000     -25.082400      -682.5268
   5   1.0000     -25.080582      -682.4773
   6   1.0000     -25.042523      -681.4417
   7   1.0000     -25.025733      -680.9848
   8   1.0000     -10.409577      -283.2590
   9   1.0000      -8.182773      -222.6646
  10   1.0000      -7.022237      -191.0848
  11   1.0000      -6.071518      -165.2144
  12   1.0000      -6.070135      -165.1768
  13   1.0000      -6.068956      -165.1447
  14   1.0000      -5.578328      -151.7940
  15   1.0000      -4.332157      -117.8840
  16   1.0000      -3.873659      -105.4076
  17   1.0000      -3.870283      -105.3158
  18   1.0000      -3.865144      -105.1759
  19   1.0000      -2.823927       -76.8430
  20   1.0000      -2.821576       -76.7790
  21   1.0000      -2.820923       -76.7612
  22   1.0000      -2.119090       -57.6634
  23   1.0000      -2.102698       -57.2173
  24   1.0000      -1.321277       -35.9538
  25   1.0000      -1.308150       -35.5966
  26   1.0000      -1.291612       -35.1466
  27   1.0000      -1.244445       -33.8631
  28   1.0000      -1.220239       -33.2044
  29   1.0000      -0.771589       -20.9960
  30   1.0000      -0.752384       -20.4734
  31   1.0000      -0.622588       -16.9415
  32   1.0000      -0.598373       -16.2826
  33   1.0000      -0.558802       -15.2058
  34   1.0000      -0.539244       -14.6736
  35   1.0000      -0.531995       -14.4763
  36   1.0000      -0.528033       -14.3685
  37   1.0000      -0.519894       -14.1470
  38   1.0000      -0.502104       -13.6629
  39   1.0000      -0.495333       -13.4787
  40   1.0000      -0.490097       -13.3362
  41   1.0000      -0.483911       -13.1679
  42   1.0000      -0.479137       -13.0380
  43   1.0000      -0.467753       -12.7282
  44   1.0000      -0.463428       -12.6105
  45   1.0000      -0.449749       -12.2383
  46   1.0000      -0.431514       -11.7421
  47   1.0000      -0.425334       -11.5739
  48   1.0000      -0.406422       -11.0593
  49   1.0000      -0.388206       -10.5636
  50   1.0000      -0.347278        -9.4499
  51   1.0000      -0.309826        -8.4308
  52   1.0000      -0.301940        -8.2162
  53   1.0000      -0.289015        -7.8645
  54   0.0000      -0.065335        -1.7778
  55   0.0000      -0.017559        -0.4778
  56   0.0000       0.006836         0.1860
  57   0.0000       0.029305         0.7974
  58   0.0000       0.073507         2.0002

MULLIKEN ATOMIC CHARGES AND SPIN POPULATIONS
--------------------------------------------
   0 F :   -0.452388    0.034746
   1 F :   -0.554998    0.000983
   2 B :    0.352536    0.001515
   3 C :   -1.056912    0.159606
   4 F :   -0.485818    0.024957
   5 F :   -0.559866    0.003300
   6 Si:    1.095281    0.756936
   7 F :   -0.267169    0.000061
   8 H :    0.252276   -0.008173
   9 H :    0.023001   -0.000064
  10 S :   -0.596127   -0.000300
  11 H :    0.256604   -0.009125
  12 H :   -0.256867    0.003428
  13 Li:    0.541456    0.004264
  14 Li:    0.703130    0.003220
  15 Al:    1.005863    0.024647
Sum of atomic charges         :   -0.0000000

LOEWDIN ATOMIC CHARGES AND SPIN POPULATIONS
-------------------------------------------
   0 F :   -0.239250    0.047180
   1 F :   -0.278825    0.001238
   2 B :    0.011960    0.001176
   3 C :   -0.633045    0.133183
   4 F :   -0.221940    0.038611
   5 F :   -0.300954    0.004480
   6 Si:    0.628377    0.734105
   7 F :   -0.145495    0.000110
   8 H :    0.170112   -0.003346
   9 H :    0.002945    0.000077
  10 S :    0.014465   -0.000191
  11 H :    0.171028   -0.004898
  12 H :   -0.089721    0.002609
  13 Li:    0.133565    0.011038
  14 Li:    0.475797    0.001907
  15 Al:    0.300979    0.032721

  Mayer bond orders larger than 0.100000
B(  0-F ,  6-Si) :   0.8796 B(  1-F , 14-Li) :   0.2303 B(  1-F , 15-Al) :   0.5931
B(  2-B ,  7-F ) :   1.1491 B(  2-B ,  9-H ) :   0.9427 B(  2-B , 10-S ) :   1.1321
B(  3-C ,  6-Si) :   1.0952 B(  3-C ,  8-H ) :   0.8803 B(  3-C , 11-H ) :   0.8824
B(  3-C , 15-Al) :   0.6021 B(  4-F ,  6-Si) :   0.6752 B(  4-F , 13-Li) :   0.2034
B(  5-F , 14-Li) :   0.2575 B(  5-F , 15-Al) :   0.5250 B( 10-S , 13-Li) :   0.2213
B( 10-S , 15-Al) :   0.5842 B( 12-H , 13-Li) :   0.2738 B( 12-H , 15-Al) :   0.6015

Dispersion correction           -0.009877376
FINAL SINGLE POINT ENERGY     -1507.974502553213

DIPOLE MOMENT
-------------
                                X             Y             Z
Electronic contribution:     -1.95549      -5.40573      -0.82394
Nuclear contribution   :      0.34745       5.55725       1.86501
                        -----------------------------------------
Total Dipole Moment    :     -1.60804       0.15152       1.04107
                        -----------------------------------------
Magnitude (a.u.)       :      1.92161
Magnitude (Debye)      :      4.88434

Rotational constants in cm-1:     0.025274     0.019326     0.014388
Rotational constants in MHz :   757.693038   579.376059   431.331974

                             ****ORCA TERMINATED NORMALLY****
TOTAL RUN TIME: 0 days 0 hours 4 minutes 45 seconds 528 msec
