                         Program Version 5.0.3 -  RELEASE  -
|  1> ! PBEh-3c def2/J TightSCF DefGrid3
|  2>
|  3> %maxcore 60000
|  4>
|  5> %pal
|  6> nprocs 4
|  7> end
|  8>
|  9> *xyzfile 0 1 ph3.xyz
| 10>
| 11>                          ****END OF INPUT****

CARTESIAN COORDINATES (ANGSTROEM)
---------------------------------
  P      0.000000    0.000000    0.067989
  H      1.190342   -0.000101   -0.696461
  H     -0.595085    1.030917   -0.696459
  H     -0.595260   -1.030816   -0.696459

 Total Charge           Charge          ....    0
 Multiplicity           Mult            ....    1
 Number of Electrons    NEL             ....   18
 Basis Dimension        Dim             ....   24

ORBITAL ENERGIES
----------------

  NO   OCC          E(Eh)            E(eV)
   0   2.0000     -77.727443     -2115.0712
   1   2.0000      -6.808376      -185.2653
   2   2.0000      -4.898500      -133.2950
   3   2.0000      -4.898500      -133.2950
   4   2.0000      -4.896552      -133.2420
   5   2.0000      -0.719117       -19.5682
   6   2.0000      -0.436587       -11.8801
   7   2.0000      -0.436587       -11.8801
   8   2.0000      -0.316536        -8.6134
   9   0.0000       0.071770         1.9530
  10   0.0000       0.071772         1.9530
  11   0.0000       0.163966         4.4617
  12   0.0000       0.384230        10.4554
  13   0.0000       0.513020        13.9600

MULLIKEN ATOMIC CHARGES
-----------------------
   0 P :   -0.259507
   1 H :    0.086500
   2 H :    0.086503
   3 H :    0.086503
Sum of atomic charges:   -0.0000000

LOEWDIN ATOMIC CHARGES
----------------------
   0 P :   -0.093931
   1 H :    0.031307
   2 H :    0.031312
   3 H :    0.031312

  Mayer bond orders larger than 0.100000
B(  0-P ,  1-H ) :   0.9629 B(  0-P ,  2-H ) :   0.9629 B(  0-P ,  3-H ) :   0.9629

Dispersion correction           -0.000715599
FINAL SINGLE POINT ENERGY      -342.730799007068

DIPOLE MOMENT
-------------
                                X             Y             Z
Electronic contribution:      0.00001      -0.00000       1.61202
Nuclear contribution   :     -0.00000       0.00000      -2.02094
                        -----------------------------------------
Total Dipole Moment    :      0.00001      -0.00000      -0.40892
                        -----------------------------------------
Magnitude (a.u.)       :      0.40892
Magnitude (Debye)      :      1.03939

Rotational constants in cm-1:     4.492540     4.492537     3.934331
Rotational constants in MHz : 134682.953409 134682.866978 117948.288409

                             ****ORCA TERMINATED NORMALLY****
TOTAL RUN TIME: 0 days 0 hours 0 minutes 39 seconds 939 msec
