                         Program Version 5.0.3 -  RELEASE  -
|  1> ! PBEh-3c def2/J TightSCF DefGrid3
|  2>
|  3> %maxcore 60000
|  4>
|  5> %pal
|  6> nprocs 4
|  7> end
|  8>
|  9> *xyzfile 0 1 GLY_aL.xyz
| 10>
| 11>                          ****END OF INPUT****

CARTESIAN COORDINATES (ANGSTROEM)
---------------------------------
  H     -2.352294    1.817896    3.148586
  C     -3.106206    1.721658    2.364533
  H     -3.395334    2.732477    2.061597
  H     -3.985785    1.210749    2.764260
  C     -2.485334    1.015446    1.172989
  O     -1.336117    1.251946    0.805877
  N     -3.272913    0.080424    0.553837
  H     -4.243884    0.055888    0.830951
  C     -2.976614   -0.439841   -0.793610
  H     -3.682211   -1.265391   -0.949315
  C     -3.168497    0.608298   -1.889767
  H     -2.489780    1.449194   -1.734102
  H     -2.944855    0.172337   -2.865161
  H     -4.199658    0.974058   -1.889399
  C     -1.562072   -1.062768   -0.857646
  O     -0.814612   -0.870905   -1.804792
  N     -1.260137   -1.910440    0.164706
  H     -1.899442   -1.962941    0.943875
  C      0.025046   -2.593292    0.241498
  H      0.033596   -3.195118    1.154052
  H      0.155143   -3.257650   -0.616210
  C      1.262420   -1.669937    0.240662
  O      2.262824   -1.988987   -0.381435
  N      1.191512   -0.605402    1.095128
  H      0.264317   -0.294009    1.353754
  C      2.261950    0.399371    1.186053
  H      1.856125    1.187040    1.833445
  C      3.532594   -0.164346    1.821326
  H      3.945243   -0.956293    1.196674
  H      4.280325    0.625294    1.910179
  H      3.307229   -0.563530    2.815209
  C      2.569841    1.080582   -0.175132
  O      3.720907    1.307513   -0.529956
  N      1.468352    1.497604   -0.859750
  H      0.558913    1.188770   -0.546855
  C      1.564087    2.052601   -2.197237
  H      1.123294    1.373867   -2.935217
  H      1.054097    3.021055   -2.257209
  H      2.621663    2.193651   -2.422924

 Total Charge           Charge          ....    0
 Multiplicity           Mult            ....    1
 Number of Electrons    NEL             ....  146
 Basis Dimension        Dim             ....  325

ORBITAL ENERGIES
----------------

  NO   OCC          E(Eh)            E(eV)
   0   2.0000     -19.502069      -530.6783
   1   2.0000     -19.478276      -530.0308
   2   2.0000     -19.450955      -529.2874
   3   2.0000     -19.428682      -528.6813
   4   2.0000     -14.705904      -400.1680
   5   2.0000     -14.682596      -399.5337
   6   2.0000     -14.651560      -398.6892
   7   2.0000     -14.628682      -398.0667
   8   2.0000     -10.592987      -288.2498
   9   2.0000     -10.568224      -287.5760
  10   2.0000     -10.541104      -286.8380
  11   2.0000     -10.524516      -286.3866
  12   2.0000     -10.518674      -286.2277
  13   2.0000     -10.490583      -285.4633
  14   2.0000     -10.477373      -285.1038
  15   2.0000     -10.476311      -285.0749
  16   2.0000     -10.449049      -284.3331
  17   2.0000     -10.438263      -284.0396
  18   2.0000     -10.403743      -283.1002
  19   2.0000      -1.183907       -32.2157
  20   2.0000      -1.161653       -31.6102
  21   2.0000      -1.134021       -30.8583
  22   2.0000      -1.109902       -30.2020
  23   2.0000      -1.063600       -28.9420
  24   2.0000      -1.038411       -28.2566
  25   2.0000      -1.011650       -27.5284
  26   2.0000      -0.983502       -26.7625
  27   2.0000      -0.897901       -24.4331
  28   2.0000      -0.849996       -23.1296
  29   2.0000      -0.842712       -22.9314
  30   2.0000      -0.812026       -22.0964
  31   2.0000      -0.765013       -20.8171
  32   2.0000      -0.747772       -20.3479
  33   2.0000      -0.706772       -19.2322
  34   2.0000      -0.694267       -18.8920
  35   2.0000      -0.668676       -18.1956
  36   2.0000      -0.643761       -17.5176
  37   2.0000      -0.620050       -16.8724
  38   2.0000      -0.611820       -16.6485
  39   2.0000      -0.605660       -16.4808
  40   2.0000      -0.584215       -15.8973
  41   2.0000      -0.571199       -15.5431
  42   2.0000      -0.552894       -15.0450
  43   2.0000      -0.544713       -14.8224
  44   2.0000      -0.537159       -14.6169
  45   2.0000      -0.517145       -14.0722
  46   2.0000      -0.509354       -13.8602
  47   2.0000      -0.500848       -13.6288
  48   2.0000      -0.498084       -13.5535
  49   2.0000      -0.495344       -13.4790
  50   2.0000      -0.491486       -13.3740
  51   2.0000      -0.481857       -13.1120
  52   2.0000      -0.473013       -12.8713
  53   2.0000      -0.463541       -12.6136
  54   2.0000      -0.459315       -12.4986
  55   2.0000      -0.453620       -12.3436
  56   2.0000      -0.448555       -12.2058
  57   2.0000      -0.443221       -12.0606
  58   2.0000      -0.437215       -11.8972
  59   2.0000      -0.426846       -11.6151
  60   2.0000      -0.417750       -11.3676
  61   2.0000      -0.408261       -11.1094
  62   2.0000      -0.405981       -11.0473
  63   2.0000      -0.393418       -10.7054
  64   2.0000      -0.385932       -10.5018
  65   2.0000      -0.358645        -9.7592
  66   2.0000      -0.347119        -9.4456
  67   2.0000      -0.334941        -9.1142
  68   2.0000      -0.323423        -8.8008
  69   2.0000      -0.314308        -8.5528
  70   2.0000      -0.291027        -7.9193
  71   2.0000      -0.270004        -7.3472
  72   2.0000      -0.268713        -7.3121
  73   0.0000       0.012660         0.3445
  74   0.0000       0.033435         0.9098
  75   0.0000       0.058759         1.5989
  76   0.0000       0.082337         2.2405
  77   0.0000       0.089182         2.4268

MULLIKEN ATOMIC CHARGES
-----------------------
   0 H :    0.270538
   1 C :   -0.751478
   2 H :    0.268193
   3 H :    0.223025
   4 C :    0.538936
   5 O :   -0.445377
   6 N :   -0.640347
   7 H :    0.363898
   8 C :   -0.221179
   9 H :    0.259464
  10 C :   -0.629294
  11 H :    0.250862
  12 H :    0.257222
  13 H :    0.209047
  14 C :    0.566438
  15 O :   -0.403001
  16 N :   -0.650193
  17 H :    0.362315
  18 C :   -0.380726
  19 H :    0.246728
  20 H :    0.280422
  21 C :    0.523488
  22 O :   -0.401396
  23 N :   -0.651269
  24 H :    0.374201
  25 C :   -0.202792
  26 H :    0.244155
  27 C :   -0.631952
  28 H :    0.265446
  29 H :    0.236551
  30 H :    0.199097
  31 C :    0.557831
  32 O :   -0.429356
  33 N :   -0.646351
  34 H :    0.389501
  35 C :   -0.493011
  36 H :    0.231004
  37 H :    0.202077
  38 H :    0.257286
Sum of atomic charges:    0.0000000

LOEWDIN ATOMIC CHARGES
----------------------
   0 H :    0.162131
   1 C :   -0.388485
   2 H :    0.164015
   3 H :    0.133777
   4 C :    0.120143
   5 O :   -0.280732
   6 N :   -0.244007
   7 H :    0.258354
   8 C :   -0.095590
   9 H :    0.144849
  10 C :   -0.356874
  11 H :    0.147819
  12 H :    0.152671
  13 H :    0.124822
  14 C :    0.107999
  15 O :   -0.243818
  16 N :   -0.245909
  17 H :    0.255930
  18 C :   -0.167943
  19 H :    0.145091
  20 H :    0.155202
  21 C :    0.103772
  22 O :   -0.245045
  23 N :   -0.247236
  24 H :    0.253169
  25 C :   -0.091589
  26 H :    0.139943
  27 C :   -0.356621
  28 H :    0.153369
  29 H :    0.141836
  30 H :    0.120091
  31 C :    0.112053
  32 O :   -0.275065
  33 N :   -0.248952
  34 H :    0.256606
  35 C :   -0.256106
  36 H :    0.126970
  37 H :    0.113820
  38 H :    0.149539

  Mayer bond orders larger than 0.100000
B(  0-H ,  1-C ) :   0.9066 B(  1-C ,  2-H ) :   0.9001 B(  1-C ,  3-H ) :   0.9183
B(  1-C ,  4-C ) :   0.9294 B(  4-C ,  5-O ) :   1.9067 B(  4-C ,  6-N ) :   1.1362
B(  6-N ,  7-H ) :   0.8232 B(  6-N ,  8-C ) :   0.9171 B(  8-C ,  9-H ) :   0.8968
B(  8-C , 10-C ) :   0.9894 B(  8-C , 14-C ) :   0.8897 B( 10-C , 11-H ) :   0.9117
B( 10-C , 12-H ) :   0.9061 B( 10-C , 13-H ) :   0.9226 B( 14-C , 15-O ) :   1.9868
B( 14-C , 16-N ) :   1.1171 B( 16-N , 17-H ) :   0.8188 B( 16-N , 18-C ) :   0.9311
B( 18-C , 19-H ) :   0.9090 B( 18-C , 20-H ) :   0.8945 B( 18-C , 21-C ) :   0.8991
B( 21-C , 22-O ) :   2.0036 B( 21-C , 23-N ) :   1.1169 B( 23-N , 24-H ) :   0.7881
B( 23-N , 25-C ) :   0.9271 B( 25-C , 26-H ) :   0.9055 B( 25-C , 27-C ) :   0.9910
B( 25-C , 31-C ) :   0.8836 B( 27-C , 28-H ) :   0.9041 B( 27-C , 29-H ) :   0.9150
B( 27-C , 30-H ) :   0.9269 B( 31-C , 32-O ) :   1.9751 B( 31-C , 33-N ) :   1.1484
B( 32-O , 33-N ) :   0.1025 B( 33-N , 34-H ) :   0.7723 B( 33-N , 35-C ) :   0.9620
B( 35-C , 36-H ) :   0.9153 B( 35-C , 37-H ) :   0.9263 B( 35-C , 38-H ) :   0.9021

Dispersion correction           -0.026388927
FINAL SINGLE POINT ENERGY      -949.162064393618

DIPOLE MOMENT
-------------
                                X             Y             Z
Electronic contribution:      4.36586      -6.15401      -1.57441
Nuclear contribution   :     -9.32889       6.09539       3.53840
                        -----------------------------------------
Total Dipole Moment    :     -4.96303      -0.05861       1.96399
                        -----------------------------------------
Magnitude (a.u.)       :      5.33783
Magnitude (Debye)      :     13.56767

Rotational constants in cm-1:     0.017421     0.008643     0.008272
Rotational constants in MHz :   522.279777   259.102226   247.988456

                             ****ORCA TERMINATED NORMALLY****
TOTAL RUN TIME: 0 days 0 hours 5 minutes 37 seconds 729 msec
