                         Program Version 5.0.3 -  RELEASE  -
|  1> ! PBEh-3c def2/J TightSCF DefGrid3
|  2>
|  3> %maxcore 60000
|  4>
|  5> %pal
|  6> nprocs 4
|  7> end
|  8>
|  9> *xyzfile 0 1 3CL.xyz
| 10>
| 11>                          ****END OF INPUT****

CARTESIAN COORDINATES (ANGSTROEM)
---------------------------------
  Cl     0.000000    0.000000   -3.061501
  H      0.000000    0.000000   -1.768981
  Si     0.000000    0.000000    0.925625
  H      1.094704    0.000000    1.952428
  H     -1.094704    0.000000    1.952428

 Total Charge           Charge          ....    0
 Multiplicity           Mult            ....    1
 Number of Electrons    NEL             ....   34
 Basis Dimension        Dim             ....   42

ORBITAL ENERGIES
----------------

  NO   OCC          E(Eh)            E(eV)
   0   2.0000    -102.274427     -2783.0286
   1   2.0000     -66.776814     -1817.0895
   2   2.0000      -9.743627      -265.1376
   3   2.0000      -7.431089      -202.2102
   4   2.0000      -7.422997      -201.9900
   5   2.0000      -7.422970      -201.9893
   6   2.0000      -5.555234      -151.1656
   7   2.0000      -3.850193      -104.7691
   8   2.0000      -3.842108      -104.5491
   9   2.0000      -3.840361      -104.5015
  10   2.0000      -0.903459       -24.5844
  11   2.0000      -0.590878       -16.0786
  12   2.0000      -0.500938       -13.6312
  13   2.0000      -0.400500       -10.8982
  14   2.0000      -0.355289        -9.6679
  15   2.0000      -0.355134        -9.6637
  16   2.0000      -0.300217        -8.1693
  17   0.0000      -0.111095        -3.0231
  18   0.0000       0.053847         1.4652
  19   0.0000       0.076882         2.0921
  20   0.0000       0.165119         4.4931
  21   0.0000       0.182202         4.9580

MULLIKEN ATOMIC CHARGES
-----------------------
   0 Cl:   -0.334821
   1 H :    0.303169
   2 Si:    0.078823
   3 H :   -0.023585
   4 H :   -0.023585
Sum of atomic charges:   -0.0000000

LOEWDIN ATOMIC CHARGES
----------------------
   0 Cl:   -0.222058
   1 H :    0.180947
   2 Si:    0.102744
   3 H :   -0.030816
   4 H :   -0.030816

  Mayer bond orders larger than 0.100000
B(  0-Cl,  1-H ) :   0.8298 B(  2-Si,  3-H ) :   0.9721 B(  2-Si,  4-H ) :   0.9721

Dispersion correction           -0.001153727
FINAL SINGLE POINT ENERGY      -750.539882248501

DIPOLE MOMENT
-------------
                                X             Y             Z
Electronic contribution:      0.00000      -0.00000      -6.58312
Nuclear contribution   :      0.00000       0.00000       7.76964
                        -----------------------------------------
Total Dipole Moment    :      0.00000      -0.00000       1.18652
                        -----------------------------------------
Magnitude (a.u.)       :      1.18652
Magnitude (Debye)      :      3.01590

Rotational constants in cm-1:     6.977708     0.062411     0.061857
Rotational constants in MHz : 209186.429643  1871.022466  1854.435869

                             ****ORCA TERMINATED NORMALLY****
TOTAL RUN TIME: 0 days 0 hours 0 minutes 16 seconds 852 msec
