                         Program Version 5.0.3 -  RELEASE  -
|  1> ! PBEh-3c def2/J TightSCF DefGrid3
|  2>
|  3> %maxcore 60000
|  4>
|  5> %pal
|  6> nprocs 4
|  7> end
|  8>
|  9> *xyzfile 0 1 05.xyz
| 10>
| 11>                          ****END OF INPUT****

CARTESIAN COORDINATES (ANGSTROEM)
---------------------------------
  O     -1.527646    0.457973   -0.213562
  H     -0.583414    0.434177   -0.417697
  C     -2.043576   -0.830032   -0.478901
  H     -3.101456   -0.815010   -0.230205
  H     -1.948121   -1.111415   -1.530352
  H     -1.566347   -1.605017    0.126350
  O      1.318908    0.359134   -0.506264
  H      1.787697    0.973518   -1.075930
  C      1.827742    0.516153    0.815454
  H      1.274173   -0.172043    1.445584
  H      2.886738    0.265714    0.872177
  H      1.675302    1.526847    1.193346

 Total Charge           Charge          ....    0
 Multiplicity           Mult            ....    1
 Number of Electrons    NEL             ....   36
 Basis Dimension        Dim             ....   76

ORBITAL ENERGIES
----------------

  NO   OCC          E(Eh)            E(eV)
   0   2.0000     -19.514334      -531.0120
   1   2.0000     -19.449982      -529.2609
   2   2.0000     -10.489143      -285.4241
   3   2.0000     -10.452633      -284.4306
   4   2.0000      -1.146464       -31.1969
   5   2.0000      -1.088595       -29.6222
   6   2.0000      -0.779925       -21.2228
   7   2.0000      -0.737402       -20.0657
   8   2.0000      -0.593106       -16.1392
   9   2.0000      -0.546349       -14.8669
  10   2.0000      -0.515045       -14.0151
  11   2.0000      -0.499291       -13.5864
  12   2.0000      -0.475645       -12.9430
  13   2.0000      -0.456949       -12.4342
  14   2.0000      -0.416552       -11.3350
  15   2.0000      -0.366977        -9.9860
  16   2.0000      -0.347028        -9.4431
  17   2.0000      -0.298312        -8.1175
  18   0.0000       0.104240         2.8365
  19   0.0000       0.175267         4.7693
  20   0.0000       0.183248         4.9864
  21   0.0000       0.211644         5.7591
  22   0.0000       0.214184         5.8282

MULLIKEN ATOMIC CHARGES
-----------------------
   0 O :   -0.667594
   1 H :    0.441387
   2 C :   -0.364487
   3 H :    0.202948
   4 H :    0.174077
   5 H :    0.170636
   6 O :   -0.641717
   7 H :    0.429491
   8 C :   -0.382789
   9 H :    0.233478
  10 H :    0.201535
  11 H :    0.203036
Sum of atomic charges:    0.0000000

LOEWDIN ATOMIC CHARGES
----------------------
   0 O :   -0.446645
   1 H :    0.297396
   2 C :   -0.196030
   3 H :    0.113441
   4 H :    0.091712
   5 H :    0.090314
   6 O :   -0.412316
   7 H :    0.314944
   8 C :   -0.198640
   9 H :    0.130210
  10 H :    0.107658
  11 H :    0.107954

  Mayer bond orders larger than 0.100000
B(  0-O ,  1-H ) :   0.7134 B(  0-O ,  2-C ) :   1.0440 B(  2-C ,  3-H ) :   0.9286
B(  2-C ,  4-H ) :   0.9192 B(  2-C ,  5-H ) :   0.9199 B(  6-O ,  7-H ) :   0.7839
B(  6-O ,  8-C ) :   0.9681 B(  8-C ,  9-H ) :   0.9211 B(  8-C , 10-H ) :   0.9174
B(  8-C , 11-H ) :   0.9159

Dispersion correction           -0.003106498
FINAL SINGLE POINT ENERGY      -230.943636283850

DIPOLE MOMENT
-------------
                                X             Y             Z
Electronic contribution:      0.17898       1.49995      -1.19487
Nuclear contribution   :      1.04240      -1.49422       1.18232
                        -----------------------------------------
Total Dipole Moment    :      1.22138       0.00573      -0.01255
                        -----------------------------------------
Magnitude (a.u.)       :      1.22145
Magnitude (Debye)      :      3.10469

Rotational constants in cm-1:     0.542860     0.077741     0.076542
Rotational constants in MHz : 16274.536510  2330.625982  2294.673903

                             ****ORCA TERMINATED NORMALLY****
TOTAL RUN TIME: 0 days 0 hours 1 minutes 8 seconds 623 msec
