                         Program Version 5.0.3 -  RELEASE  -
|  1> ! PBEh-3c def2/J TightSCF DefGrid3
|  2>
|  3> %maxcore 60000
|  4>
|  5> %pal
|  6> nprocs 4
|  7> end
|  8>
|  9> *xyzfile 0 1 LYS_xan.xyz
| 10>
| 11>                          ****END OF INPUT****

CARTESIAN COORDINATES (ANGSTROEM)
---------------------------------
  N     -1.626346   -1.161941   -0.407608
  C     -0.561809   -0.317738    0.119363
  C     -0.823339    1.134032   -0.303160
  O     -0.244989    1.658169   -1.250087
  C      0.786934   -0.805424   -0.372048
  C      1.947099   -0.083346    0.299690
  H     -1.496890   -1.581147   -1.313089
  H     -0.623485   -0.389300    1.206280
  H      0.856105   -1.878158   -0.177449
  H      1.872273   -0.209458    1.383633
  H      1.869001    0.984496    0.090900
  N     -1.759726    1.751211    0.452203
  H     -2.303249    1.157503    1.066958
  C     -2.245084    3.067092    0.095089
  H     -3.003143    3.025323   -0.687883
  H     -1.410755    3.656192   -0.273187
  H     -2.667398    3.545266    0.974062
  C     -2.819267   -1.294977    0.221532
  O     -3.077250   -0.710404    1.274148
  C     -3.810118   -2.221416   -0.435710
  H     -4.041450   -3.025300    0.259185
  H     -3.448313   -2.646970   -1.368198
  H     -4.729146   -1.671110   -0.621268
  H      0.843033   -0.648909   -1.451271
  C      3.297478   -0.595449   -0.181015
  H      3.379173   -0.478774   -1.262857
  H      3.377800   -1.666689    0.028757
  C      4.461496    0.127761    0.473134
  H      4.362587    0.048881    1.563165
  H      4.403300    1.188585    0.225499
  N      5.730202   -0.385923   -0.044927
  H      6.503312    0.114277    0.375872
  H      5.839501   -1.352148    0.239267

 Total Charge           Charge          ....    0
 Multiplicity           Mult            ....    1
 Number of Electrons    NEL             ....  110
 Basis Dimension        Dim             ....  248

ORBITAL ENERGIES
----------------

  NO   OCC          E(Eh)            E(eV)
   0   2.0000     -19.470309      -529.8140
   1   2.0000     -19.452413      -529.3271
   2   2.0000     -14.677699      -399.4005
   3   2.0000     -14.647934      -398.5906
   4   2.0000     -14.602689      -397.3594
   5   2.0000     -10.562672      -287.4249
   6   2.0000     -10.536335      -286.7083
   7   2.0000     -10.488359      -285.4028
   8   2.0000     -10.457881      -284.5734
   9   2.0000     -10.452397      -284.4242
  10   2.0000     -10.450474      -284.3718
  11   2.0000     -10.439270      -284.0670
  12   2.0000     -10.429468      -283.8003
  13   2.0000     -10.424710      -283.6708
  14   2.0000      -1.156423       -31.4679
  15   2.0000      -1.134082       -30.8599
  16   2.0000      -1.038677       -28.2638
  17   2.0000      -1.010662       -27.5015
  18   2.0000      -0.971594       -26.4384
  19   2.0000      -0.900404       -24.5012
  20   2.0000      -0.857317       -23.3288
  21   2.0000      -0.820280       -22.3209
  22   2.0000      -0.792944       -21.5771
  23   2.0000      -0.744028       -20.2460
  24   2.0000      -0.687973       -18.7207
  25   2.0000      -0.670018       -18.2321
  26   2.0000      -0.648250       -17.6398
  27   2.0000      -0.640718       -17.4348
  28   2.0000      -0.602181       -16.3862
  29   2.0000      -0.567179       -15.4337
  30   2.0000      -0.557383       -15.1672
  31   2.0000      -0.544047       -14.8043
  32   2.0000      -0.532886       -14.5006
  33   2.0000      -0.516766       -14.0619
  34   2.0000      -0.516254       -14.0480
  35   2.0000      -0.502638       -13.6775
  36   2.0000      -0.497034       -13.5250
  37   2.0000      -0.479498       -13.0478
  38   2.0000      -0.475329       -12.9344
  39   2.0000      -0.471120       -12.8198
  40   2.0000      -0.456459       -12.4209
  41   2.0000      -0.451084       -12.2746
  42   2.0000      -0.439138       -11.9495
  43   2.0000      -0.428695       -11.6654
  44   2.0000      -0.419003       -11.4017
  45   2.0000      -0.412422       -11.2226
  46   2.0000      -0.399902       -10.8819
  47   2.0000      -0.384528       -10.4635
  48   2.0000      -0.379480       -10.3262
  49   2.0000      -0.371917       -10.1204
  50   2.0000      -0.336154        -9.1472
  51   2.0000      -0.322397        -8.7729
  52   2.0000      -0.296875        -8.0784
  53   2.0000      -0.288377        -7.8471
  54   2.0000      -0.282692        -7.6924
  55   0.0000       0.041829         1.1382
  56   0.0000       0.065843         1.7917
  57   0.0000       0.114889         3.1263
  58   0.0000       0.135829         3.6961
  59   0.0000       0.142627         3.8811

MULLIKEN ATOMIC CHARGES
-----------------------
   0 N :   -0.624356
   1 C :   -0.202523
   2 C :    0.562156
   3 O :   -0.438676
   4 C :   -0.430921
   5 C :   -0.425320
   6 H :    0.365311
   7 H :    0.262069
   8 H :    0.218538
   9 H :    0.197602
  10 H :    0.245139
  11 N :   -0.645722
  12 H :    0.401412
  13 C :   -0.491719
  14 H :    0.218388
  15 H :    0.250750
  16 H :    0.220117
  17 C :    0.540361
  18 O :   -0.462553
  19 C :   -0.744246
  20 H :    0.263490
  21 H :    0.216522
  22 H :    0.260982
  23 H :    0.235013
  24 C :   -0.414913
  25 H :    0.230843
  26 H :    0.190274
  27 C :   -0.268824
  28 H :    0.172834
  29 H :    0.211696
  30 N :   -0.737968
  31 H :    0.316825
  32 H :    0.307419
Sum of atomic charges:   -0.0000000

LOEWDIN ATOMIC CHARGES
----------------------
   0 N :   -0.211709
   1 C :   -0.093447
   2 C :    0.101283
   3 O :   -0.283257
   4 C :   -0.235613
   5 C :   -0.239253
   6 H :    0.261039
   7 H :    0.145631
   8 H :    0.125693
   9 H :    0.117500
  10 H :    0.138452
  11 N :   -0.247859
  12 H :    0.266714
  13 C :   -0.254636
  14 H :    0.119480
  15 H :    0.143949
  16 H :    0.125633
  17 C :    0.113317
  18 O :   -0.302690
  19 C :   -0.384116
  20 H :    0.160473
  21 H :    0.129418
  22 H :    0.158370
  23 H :    0.138125
  24 C :   -0.244271
  25 H :    0.132624
  26 H :    0.113342
  27 C :   -0.163886
  28 H :    0.089285
  29 H :    0.118668
  30 N :   -0.475475
  31 H :    0.220166
  32 H :    0.217049

  Mayer bond orders larger than 0.100000
B(  0-N ,  1-C ) :   0.9135 B(  0-N ,  6-H ) :   0.8195 B(  0-N , 17-C ) :   1.1725
B(  1-C ,  2-C ) :   0.8704 B(  1-C ,  4-C ) :   0.9946 B(  1-C ,  7-H ) :   0.8815
B(  2-C ,  3-O ) :   1.9535 B(  2-C , 11-N ) :   1.1763 B(  4-C ,  5-C ) :   0.9926
B(  4-C ,  8-H ) :   0.9148 B(  4-C , 23-H ) :   0.8957 B(  5-C ,  9-H ) :   0.9169
B(  5-C , 10-H ) :   0.8978 B(  5-C , 24-C ) :   0.9858 B( 11-N , 12-H ) :   0.7470
B( 11-N , 13-C ) :   0.9622 B( 13-C , 14-H ) :   0.9184 B( 13-C , 15-H ) :   0.9096
B( 13-C , 16-H ) :   0.9259 B( 17-C , 18-O ) :   1.8889 B( 17-C , 19-C ) :   0.9323
B( 19-C , 20-H ) :   0.9065 B( 19-C , 21-H ) :   0.9214 B( 19-C , 22-H ) :   0.9078
B( 24-C , 25-H ) :   0.9090 B( 24-C , 26-H ) :   0.9220 B( 24-C , 27-C ) :   0.9900
B( 27-C , 28-H ) :   0.9090 B( 27-C , 29-H ) :   0.9124 B( 27-C , 30-N ) :   1.0392
B( 30-N , 31-H ) :   0.8642 B( 30-N , 32-H ) :   0.8663

Dispersion correction           -0.018628721
FINAL SINGLE POINT ENERGY      -667.701197143350

DIPOLE MOMENT
-------------
                                X             Y             Z
Electronic contribution:    -10.01515       1.08287      -0.00125
Nuclear contribution   :      9.65119      -2.07981       0.27452
                        -----------------------------------------
Total Dipole Moment    :     -0.36396      -0.99694       0.27326
                        -----------------------------------------
Magnitude (a.u.)       :      1.09591
Magnitude (Debye)      :      2.78559

Rotational constants in cm-1:     0.034413     0.009553     0.008068
Rotational constants in MHz :  1031.689639   286.388706   241.870770

                             ****ORCA TERMINATED NORMALLY****
TOTAL RUN TIME: 0 days 0 hours 3 minutes 8 seconds 35 msec
