                         Program Version 5.0.3 -  RELEASE  -
|  1> ! PBEh-3c def2/J TightSCF DefGrid3
|  2>
|  3> %maxcore 60000
|  4>
|  5> %pal
|  6> nprocs 4
|  7> end
|  8>
|  9> *xyzfile 0 1 F3CI.xyz
| 10>
| 11>                          ****END OF INPUT****

CARTESIAN COORDINATES (ANGSTROEM)
---------------------------------
  I      0.000000    0.000000    0.968386
  C      0.000000    0.000000   -1.171167
  F      0.000000    1.244106   -1.640647
  F     -1.077427   -0.622053   -1.640647
  F      1.077427   -0.622053   -1.640647

 Total Charge           Charge          ....    0
 Multiplicity           Mult            ....    1
 Number of Electrons    NEL             ....   58
 Basis Dimension        Dim             ....   86

ORBITAL ENERGIES
----------------

  NO   OCC          E(Eh)            E(eV)
   0   2.0000     -25.160034      -684.6393
   1   2.0000     -25.159937      -684.6367
   2   2.0000     -25.159935      -684.6366
   3   2.0000     -10.753334      -292.6131
   4   2.0000      -7.122465      -193.8121
   5   2.0000      -5.107140      -138.9723
   6   2.0000      -5.088770      -138.4725
   7   2.0000      -5.088770      -138.4725
   8   2.0000      -2.061144       -56.0866
   9   2.0000      -2.055303       -55.9276
  10   2.0000      -2.055302       -55.9276
  11   2.0000      -2.039339       -55.4932
  12   2.0000      -2.039336       -55.4931
  13   2.0000      -1.476026       -40.1647
  14   2.0000      -1.380661       -37.5697
  15   2.0000      -1.380657       -37.5696
  16   2.0000      -0.850668       -23.1478
  17   2.0000      -0.775681       -21.1073
  18   2.0000      -0.695987       -18.9388
  19   2.0000      -0.695986       -18.9387
  20   2.0000      -0.646623       -17.5955
  21   2.0000      -0.569236       -15.4897
  22   2.0000      -0.569233       -15.4896
  23   2.0000      -0.530721       -14.4417
  24   2.0000      -0.530716       -14.4415
  25   2.0000      -0.507457       -13.8086
  26   2.0000      -0.425709       -11.5841
  27   2.0000      -0.335626        -9.1328
  28   2.0000      -0.335625        -9.1328
  29   0.0000      -0.043098        -1.1728
  30   0.0000       0.162982         4.4350
  31   0.0000       0.162982         4.4350
  32   0.0000       0.233728         6.3601
  33   0.0000       0.281910         7.6712

MULLIKEN ATOMIC CHARGES
-----------------------
   0 I :    0.046273
   1 C :    0.754062
   2 F :   -0.266773
   3 F :   -0.266781
   4 F :   -0.266781
Sum of atomic charges:    0.0000000

LOEWDIN ATOMIC CHARGES
----------------------
   0 I :    0.102149
   1 C :    0.238153
   2 F :   -0.113431
   3 F :   -0.113435
   4 F :   -0.113435

  Mayer bond orders larger than 0.100000
B(  0-I ,  1-C ) :   0.9883 B(  1-C ,  2-F ) :   1.0247 B(  1-C ,  3-F ) :   1.0247
B(  1-C ,  4-F ) :   1.0247

Dispersion correction           -0.001541022
FINAL SINGLE POINT ENERGY      -634.717547370082

DIPOLE MOMENT
-------------
                                X             Y             Z
Electronic contribution:     -0.00000       0.00002      60.12253
Nuclear contribution   :      0.00000      -0.00000     -59.80754
                        -----------------------------------------
Total Dipole Moment    :     -0.00000       0.00002       0.31499
                        -----------------------------------------
Magnitude (a.u.)       :      0.31499
Magnitude (Debye)      :      0.80065

Rotational constants in cm-1:     0.191097     0.050807     0.050807
Rotational constants in MHz :  5728.935358  1523.143413  1523.143247

                             ****ORCA TERMINATED NORMALLY****
TOTAL RUN TIME: 0 days 0 hours 1 minutes 20 seconds 18 msec
