                         Program Version 5.0.3 -  RELEASE  -
|  1> ! PBEh-3c def2/J TightSCF DefGrid3
|  2>
|  3> %maxcore 60000
|  4>
|  5> %pal
|  6> nprocs 4
|  7> end
|  8>
|  9> *xyzfile 0 1 13ts_6a.xyz
| 10>
| 11>                          ****END OF INPUT****

CARTESIAN COORDINATES (ANGSTROEM)
---------------------------------
  C      1.276090   -0.773273    0.000000
  C      1.231347    0.589053    0.000000
  C     -1.181924    1.073250    0.000000
  N     -1.494352   -0.199055    0.000000
  C     -1.066385   -1.338402    0.000000
  H      1.420158   -1.330849   -0.917089
  H      1.420158   -1.330849    0.917089
  H      1.345362    1.150220   -0.919568
  H      1.345362    1.150220    0.919568
  H     -1.300314    1.619324    0.929003
  H     -1.300314    1.619324   -0.929003
  H     -1.695188   -2.228964    0.000000

 Total Charge           Charge          ....    0
 Multiplicity           Mult            ....    1
 Number of Electrons    NEL             ....   38
 Basis Dimension        Dim             ....   89

ORBITAL ENERGIES
----------------

  NO   OCC          E(Eh)            E(eV)
   0   2.0000     -14.691500      -399.7760
   1   2.0000     -10.492065      -285.5036
   2   2.0000     -10.482909      -285.2545
   3   2.0000     -10.426362      -283.7157
   4   2.0000     -10.418719      -283.5078
   5   2.0000      -1.064240       -28.9594
   6   2.0000      -0.831755       -22.6332
   7   2.0000      -0.821298       -22.3487
   8   2.0000      -0.634678       -17.2705
   9   2.0000      -0.623328       -16.9616
  10   2.0000      -0.551117       -14.9967
  11   2.0000      -0.537858       -14.6359
  12   2.0000      -0.501356       -13.6426
  13   2.0000      -0.472798       -12.8655
  14   2.0000      -0.451550       -12.2873
  15   2.0000      -0.393429       -10.7057
  16   2.0000      -0.372093       -10.1252
  17   2.0000      -0.274233        -7.4623
  18   2.0000      -0.250027        -6.8036
  19   0.0000       0.014050         0.3823
  20   0.0000       0.024232         0.6594
  21   0.0000       0.089094         2.4244
  22   0.0000       0.159412         4.3378
  23   0.0000       0.196404         5.3444

MULLIKEN ATOMIC CHARGES
-----------------------
   0 C :   -0.438831
   1 C :   -0.474768
   2 C :   -0.365812
   3 N :   -0.101613
   4 C :   -0.170934
   5 H :    0.214310
   6 H :    0.214310
   7 H :    0.208896
   8 H :    0.208896
   9 H :    0.234060
  10 H :    0.234060
  11 H :    0.237426
Sum of atomic charges:   -0.0000000

LOEWDIN ATOMIC CHARGES
----------------------
   0 C :   -0.273014
   1 C :   -0.312762
   2 C :   -0.233312
   3 N :    0.024234
   4 C :   -0.131862
   5 H :    0.128693
   6 H :    0.128693
   7 H :    0.125721
   8 H :    0.125721
   9 H :    0.138082
  10 H :    0.138082
  11 H :    0.141723

  Mayer bond orders larger than 0.100000
B(  0-C ,  1-C ) :   1.6841 B(  0-C ,  4-C ) :   0.2595 B(  0-C ,  5-H ) :   0.9287
B(  0-C ,  6-H ) :   0.9287 B(  1-C ,  2-C ) :   0.2589 B(  1-C ,  7-H ) :   0.9295
B(  1-C ,  8-H ) :   0.9295 B(  2-C ,  3-N ) :   1.4141 B(  2-C ,  4-C ) :   0.2226
B(  2-C ,  9-H ) :   0.9003 B(  2-C , 10-H ) :   0.9003 B(  3-N ,  4-C ) :   2.0977
B(  4-C , 11-H ) :   0.8652

Dispersion correction           -0.005239368
FINAL SINGLE POINT ENERGY      -210.761609429228

DIPOLE MOMENT
-------------
                                X             Y             Z
Electronic contribution:     -3.27986      -1.28535      -0.00000
Nuclear contribution   :      2.72696       1.32361       0.00000
                        -----------------------------------------
Total Dipole Moment    :     -0.55289       0.03825      -0.00000
                        -----------------------------------------
Magnitude (a.u.)       :      0.55421
Magnitude (Debye)      :      1.40870

Rotational constants in cm-1:     0.247518     0.147008     0.097727
Rotational constants in MHz :  7420.403487  4407.181874  2929.767921

                             ****ORCA TERMINATED NORMALLY****
TOTAL RUN TIME: 0 days 0 hours 1 minutes 47 seconds 264 msec
