                         Program Version 5.0.3 -  RELEASE  -
|  1> ! PBEh-3c def2/J TightSCF DefGrid3
|  2>
|  3> %maxcore 60000
|  4>
|  5> %pal
|  6> nprocs 4
|  7> end
|  8>
|  9> *xyzfile 1 3 IP_68.xyz
| 10>
| 11>                          ****END OF INPUT****

CARTESIAN COORDINATES (ANGSTROEM)
---------------------------------
  S      0.000000    0.000000   -0.686668
  H      0.000000    0.000000    0.686668

 Total Charge           Charge          ....    1
 Multiplicity           Mult            ....    3
 Number of Electrons    NEL             ....   16
 Basis Dimension        Dim             ....   20

ORBITAL ENERGIES
----------------
                 SPIN UP ORBITALS
  NO   OCC          E(Eh)            E(eV)
   0   1.0000     -90.038838     -2450.0813
   1   1.0000      -8.675252      -236.0656
   2   1.0000      -6.570763      -178.7995
   3   1.0000      -6.570763      -178.7995
   4   1.0000      -6.555586      -178.3866
   5   1.0000      -1.213066       -33.0092
   6   1.0000      -0.813788       -22.1443
   7   1.0000      -0.736122       -20.0309
   8   1.0000      -0.736122       -20.0309
   9   0.0000      -0.246297        -6.7021
  10   0.0000       0.055774         1.5177
  11   0.0000       0.260085         7.0773
  12   0.0000       0.271570         7.3898
  13   0.0000       0.271570         7.3898

                 SPIN DOWN ORBITALS
  NO   OCC          E(Eh)            E(eV)
   0   1.0000     -90.024359     -2449.6874
   1   1.0000      -8.660721      -235.6702
   2   1.0000      -6.546860      -178.1491
   3   1.0000      -6.539986      -177.9621
   4   1.0000      -6.539986      -177.9621
   5   1.0000      -1.096669       -29.8419
   6   1.0000      -0.780933       -21.2503
   7   0.0000      -0.464223       -12.6322
   8   0.0000      -0.464223       -12.6322
   9   0.0000      -0.220031        -5.9873
  10   0.0000       0.095985         2.6119
  11   0.0000       0.289942         7.8897

MULLIKEN ATOMIC CHARGES AND SPIN POPULATIONS
--------------------------------------------
   0 S :    0.670266    2.061383
   1 H :    0.329734   -0.061383
Sum of atomic charges         :    1.0000000

LOEWDIN ATOMIC CHARGES AND SPIN POPULATIONS
-------------------------------------------
   0 S :    0.786041    2.041845
   1 H :    0.213959   -0.041845

  Mayer bond orders larger than 0.100000
B(  0-S ,  1-H ) :   0.8695

Dispersion correction           -0.000186044
FINAL SINGLE POINT ENERGY      -397.902434454563

DIPOLE MOMENT
-------------
                                X             Y             Z
Electronic contribution:     -0.00000      -0.00000      -0.62758
Nuclear contribution   :      0.00000       0.00000       1.25037
                        -----------------------------------------
Total Dipole Moment    :     -0.00000      -0.00000       0.62279
                        -----------------------------------------
Magnitude (a.u.)       :      0.62279
Magnitude (Debye)      :      1.58301

Rotational constants in cm-1:     0.000000     9.145918     9.145918
Rotational constants in MHz :     0.000000 274187.719906 274187.719906

                             ****ORCA TERMINATED NORMALLY****
TOTAL RUN TIME: 0 days 0 hours 0 minutes 8 seconds 206 msec
