                         Program Version 5.0.3 -  RELEASE  -
|  1> ! PBEh-3c def2/J TightSCF DefGrid3
|  2>
|  3> %maxcore 60000
|  4>
|  5> %pal
|  6> nprocs 4
|  7> end
|  8>
|  9> *xyzfile 0 1 MeI_OPH3.xyz
| 10>
| 11>                          ****END OF INPUT****

CARTESIAN COORDINATES (ANGSTROEM)
---------------------------------
  C     -2.762156   -0.692968    0.006172
  I     -0.815254    0.173132   -0.001895
  H     -3.257069   -0.410488    0.928556
  H     -2.660640   -1.770600   -0.055906
  H     -3.307874   -0.313161   -0.850245
  O      2.239270    0.923492    0.007392
  P      2.798642   -0.454150   -0.000447
  H      2.535571   -1.235400   -1.145881
  H      2.374400   -1.313458    1.035140
  H      4.203210   -0.550763    0.099320

 Total Charge           Charge          ....    0
 Multiplicity           Mult            ....    1
 Number of Electrons    NEL             ....   60
 Basis Dimension        Dim             ....   86

ORBITAL ENERGIES
----------------

  NO   OCC          E(Eh)            E(eV)
   0   2.0000     -77.823763     -2117.6923
   1   2.0000     -19.451676      -529.3070
   2   2.0000     -10.473387      -284.9954
   3   2.0000      -7.076966      -192.5740
   4   2.0000      -6.893023      -187.5687
   5   2.0000      -5.060354      -137.6992
   6   2.0000      -5.044051      -137.2556
   7   2.0000      -5.043506      -137.2408
   8   2.0000      -4.984719      -135.6411
   9   2.0000      -4.984701      -135.6406
  10   2.0000      -4.983730      -135.6142
  11   2.0000      -2.014078       -54.8058
  12   2.0000      -2.009173       -54.6724
  13   2.0000      -2.008729       -54.6603
  14   2.0000      -1.994634       -54.2768
  15   2.0000      -1.994628       -54.2766
  16   2.0000      -1.074206       -29.2306
  17   2.0000      -0.829468       -22.5710
  18   2.0000      -0.725789       -19.7497
  19   2.0000      -0.703503       -19.1433
  20   2.0000      -0.508515       -13.8374
  21   2.0000      -0.505833       -13.7644
  22   2.0000      -0.489453       -13.3187
  23   2.0000      -0.489132       -13.3099
  24   2.0000      -0.446202       -12.1418
  25   2.0000      -0.395814       -10.7706
  26   2.0000      -0.339085        -9.2270
  27   2.0000      -0.336095        -9.1456
  28   2.0000      -0.289262        -7.8712
  29   2.0000      -0.287526        -7.8240
  30   0.0000       0.017379         0.4729
  31   0.0000       0.082223         2.2374
  32   0.0000       0.107140         2.9154
  33   0.0000       0.109810         2.9881
  34   0.0000       0.117428         3.1954

MULLIKEN ATOMIC CHARGES
-----------------------
   0 C :   -0.828875
   1 I :    0.015936
   2 H :    0.264997
   3 H :    0.259574
   4 H :    0.265269
   5 O :   -0.641352
   6 P :    0.490913
   7 H :    0.058775
   8 H :    0.061636
   9 H :    0.053128
Sum of atomic charges:    0.0000000

LOEWDIN ATOMIC CHARGES
----------------------
   0 C :   -0.503771
   1 I :    0.052580
   2 H :    0.144614
   3 H :    0.142126
   4 H :    0.144763
   5 O :   -0.559358
   6 P :    0.571585
   7 H :    0.002868
   8 H :    0.004123
   9 H :    0.000468

  Mayer bond orders larger than 0.100000
B(  0-C ,  1-I ) :   0.9998 B(  0-C ,  2-H ) :   0.8985 B(  0-C ,  3-H ) :   0.9007
B(  0-C ,  4-H ) :   0.8984 B(  5-O ,  6-P ) :   1.7546 B(  6-P ,  7-H ) :   0.8690
B(  6-P ,  8-H ) :   0.8696 B(  6-P ,  9-H ) :   0.8715

Dispersion correction           -0.003631945
FINAL SINGLE POINT ENERGY      -755.363425622772

DIPOLE MOMENT
-------------
                                X             Y             Z
Electronic contribution:    -51.32036      12.74700      -0.13201
Nuclear contribution   :     51.54572     -14.31019       0.13033
                        -----------------------------------------
Total Dipole Moment    :      0.22536      -1.56318      -0.00167
                        -----------------------------------------
Magnitude (a.u.)       :      1.57935
Magnitude (Debye)      :      4.01438

Rotational constants in cm-1:     0.419044     0.030070     0.028437
Rotational constants in MHz : 12562.620793   901.490020   852.528233

                             ****ORCA TERMINATED NORMALLY****
TOTAL RUN TIME: 0 days 0 hours 1 minutes 45 seconds 643 msec
