                         Program Version 5.0.3 -  RELEASE  -
|  1> ! PBEh-3c def2/J TightSCF DefGrid3
|  2>
|  3> %maxcore 60000
|  4>
|  5> %pal
|  6> nprocs 4
|  7> end
|  8>
|  9> *xyzfile 0 1 hnc.xyz
| 10>
| 11>                          ****END OF INPUT****

CARTESIAN COORDINATES (ANGSTROEM)
---------------------------------
  H      1.479905    0.000000    0.000000
  N      0.483733    0.000000    0.000000
  C     -0.688294    0.000000    0.000000

 Total Charge           Charge          ....    0
 Multiplicity           Mult            ....    1
 Number of Electrons    NEL             ....   14
 Basis Dimension        Dim             ....   32

ORBITAL ENERGIES
----------------

  NO   OCC          E(Eh)            E(eV)
   0   2.0000     -14.680204      -399.4686
   1   2.0000     -10.501377      -285.7570
   2   2.0000      -1.047599       -28.5066
   3   2.0000      -0.738975       -20.1085
   4   2.0000      -0.429507       -11.6875
   5   2.0000      -0.429507       -11.6875
   6   2.0000      -0.372189       -10.1278
   7   0.0000       0.058826         1.6007
   8   0.0000       0.058826         1.6007
   9   0.0000       0.120061         3.2670
  10   0.0000       0.337142         9.1741
  11   0.0000       0.549539        14.9537

MULLIKEN ATOMIC CHARGES
-----------------------
   0 H :    0.396484
   1 N :   -0.425603
   2 C :    0.029119
Sum of atomic charges:   -0.0000000

LOEWDIN ATOMIC CHARGES
----------------------
   0 H :    0.266095
   1 N :   -0.190774
   2 C :   -0.075321

  Mayer bond orders larger than 0.100000
B(  0-H ,  1-N ) :   0.7885 B(  1-N ,  2-C ) :   2.5056

Dispersion correction           -0.000492409
FINAL SINGLE POINT ENERGY       -93.184122640050

DIPOLE MOMENT
-------------
                                X             Y             Z
Electronic contribution:     -0.20259       0.00000      -0.00000
Nuclear contribution   :      1.39107       0.00000       0.00000
                        -----------------------------------------
Total Dipole Moment    :      1.18847       0.00000      -0.00000
                        -----------------------------------------
Magnitude (a.u.)       :      1.18847
Magnitude (Debye)      :      3.02086

Rotational constants in cm-1:     0.000000     1.508455     1.508455
Rotational constants in MHz :     0.000000 45222.338579 45222.338579

                             ****ORCA TERMINATED NORMALLY****
TOTAL RUN TIME: 0 days 0 hours 0 minutes 46 seconds 730 msec
