                         Program Version 5.0.3 -  RELEASE  -
|  1> ! PBEh-3c def2/J TightSCF DefGrid3
|  2>
|  3> %maxcore 60000
|  4>
|  5> %pal
|  6> nprocs 4
|  7> end
|  8>
|  9> *xyzfile 1 2 h2o2+_1.5.xyz
| 10>
| 11>                          ****END OF INPUT****

CARTESIAN COORDINATES (ANGSTROEM)
---------------------------------
  O      1.516178    0.000000    0.069843
  O     -1.516178    0.000000   -0.069843
  H      1.649552    0.775137   -0.509521
  H      1.649552   -0.775137   -0.509521
  H     -1.649552    0.775137    0.509522
  H     -1.649552   -0.775137    0.509522

 Total Charge           Charge          ....    1
 Multiplicity           Mult            ....    2
 Number of Electrons    NEL             ....   19
 Basis Dimension        Dim             ....   38

ORBITAL ENERGIES
----------------
                 SPIN UP ORBITALS
  NO   OCC          E(Eh)            E(eV)
   0   1.0000     -19.841761      -539.9218
   1   1.0000     -19.841760      -539.9217
   2   1.0000      -1.441549       -39.2265
   3   1.0000      -1.439191       -39.1624
   4   1.0000      -0.894834       -24.3497
   5   1.0000      -0.892632       -24.2898
   6   1.0000      -0.760795       -20.7023
   7   1.0000      -0.759126       -20.6569
   8   1.0000      -0.736044       -20.0288
   9   1.0000      -0.718596       -19.5540
  10   0.0000      -0.129661        -3.5283
  11   0.0000      -0.103006        -2.8029
  12   0.0000      -0.042149        -1.1469
  13   0.0000      -0.036930        -1.0049
  14   0.0000       0.553140        15.0517

                 SPIN DOWN ORBITALS
  NO   OCC          E(Eh)            E(eV)
   0   1.0000     -19.825046      -539.4669
   1   1.0000     -19.825032      -539.4665
   2   1.0000      -1.396263       -37.9942
   3   1.0000      -1.392264       -37.8854
   4   1.0000      -0.881906       -23.9979
   5   1.0000      -0.879526       -23.9331
   6   1.0000      -0.740653       -20.1542
   7   1.0000      -0.739994       -20.1363
   8   1.0000      -0.575144       -15.6505
   9   0.0000      -0.469495       -12.7756
  10   0.0000      -0.122573        -3.3354
  11   0.0000      -0.095829        -2.6076
  12   0.0000      -0.037905        -1.0315
  13   0.0000      -0.032911        -0.8956

MULLIKEN ATOMIC CHARGES AND SPIN POPULATIONS
--------------------------------------------
   0 O :   -0.514304    0.535167
   1 O :   -0.514305    0.535166
   2 H :    0.507152   -0.017583
   3 H :    0.507152   -0.017583
   4 H :    0.507152   -0.017583
   5 H :    0.507152   -0.017583
Sum of atomic charges         :    1.0000000

LOEWDIN ATOMIC CHARGES AND SPIN POPULATIONS
-------------------------------------------
   0 O :   -0.240377    0.527455
   1 O :   -0.240378    0.527455
   2 H :    0.370189   -0.013728
   3 H :    0.370189   -0.013728
   4 H :    0.370189   -0.013728
   5 H :    0.370189   -0.013728

  Mayer bond orders larger than 0.100000
B(  0-O ,  1-O ) :   0.5002 B(  0-O ,  2-H ) :   0.7286 B(  0-O ,  3-H ) :   0.7286
B(  1-O ,  4-H ) :   0.7286 B(  1-O ,  5-H ) :   0.7286

Dispersion correction           -0.000750667
FINAL SINGLE POINT ENERGY      -152.115244965610

DIPOLE MOMENT
-------------
                                X             Y             Z
Electronic contribution:      0.00000      -0.00000      -0.00000
Nuclear contribution   :      0.00000       0.00000       0.00000
                        -----------------------------------------
Total Dipole Moment    :      0.00000      -0.00000       0.00000
                        -----------------------------------------
Magnitude (a.u.)       :      0.00000
Magnitude (Debye)      :      0.00001

Rotational constants in cm-1:     4.649848     0.196635     0.193876
Rotational constants in MHz : 139398.944951  5894.955617  5812.261827

                             ****ORCA TERMINATED NORMALLY****
TOTAL RUN TIME: 0 days 0 hours 1 minutes 20 seconds 318 msec
