                         Program Version 5.0.3 -  RELEASE  -
|  1> ! PBEh-3c def2/J TightSCF DefGrid3
|  2>
|  3> %maxcore 60000
|  4>
|  5> %pal
|  6> nprocs 4
|  7> end
|  8>
|  9> *xyzfile 0 1 C3H7CONH2.xyz
| 10>
| 11>                          ****END OF INPUT****

CARTESIAN COORDINATES (ANGSTROEM)
---------------------------------
  C      1.155448    1.148793   -0.286363
  O      1.937819    1.248471    0.653568
  C      0.204146   -0.036156   -0.446077
  H     -0.567705    0.175246   -1.203908
  H      0.808253   -0.873149   -0.837975
  C     -0.440214   -0.452910    0.881060
  H     -1.081977    0.366634    1.243202
  H      0.358962   -0.569403    1.627095
  C     -1.257666   -1.740155    0.763614
  H     -1.711033   -2.011394    1.727441
  H     -2.073102   -1.638148    0.030877
  H     -0.627653   -2.583899    0.443102
  N      1.089865    2.092350   -1.278171
  H      1.740075    2.870459   -1.248716
  H      0.464783    2.003264   -2.068750

 Total Charge           Charge          ....    0
 Multiplicity           Mult            ....    1
 Number of Electrons    NEL             ....   48
 Basis Dimension        Dim             ....  108

ORBITAL ENERGIES
----------------

  NO   OCC          E(Eh)            E(eV)
   0   2.0000     -19.451570      -529.3041
   1   2.0000     -14.656174      -398.8148
   2   2.0000     -10.547838      -287.0213
   3   2.0000     -10.449533      -284.3463
   4   2.0000     -10.437822      -284.0276
   5   2.0000     -10.429028      -283.7883
   6   2.0000      -1.132235       -30.8097
   7   2.0000      -0.996132       -27.1061
   8   2.0000      -0.881742       -23.9934
   9   2.0000      -0.789029       -21.4706
  10   2.0000      -0.683550       -18.6003
  11   2.0000      -0.641241       -17.4491
  12   2.0000      -0.598725       -16.2921
  13   2.0000      -0.543777       -14.7969
  14   2.0000      -0.519003       -14.1228
  15   2.0000      -0.483025       -13.1438
  16   2.0000      -0.474568       -12.9136
  17   2.0000      -0.451729       -12.2922
  18   2.0000      -0.423584       -11.5263
  19   2.0000      -0.406309       -11.0562
  20   2.0000      -0.388685       -10.5766
  21   2.0000      -0.378565       -10.3013
  22   2.0000      -0.315597        -8.5878
  23   2.0000      -0.302806        -8.2398
  24   0.0000       0.065430         1.7805
  25   0.0000       0.119150         3.2422
  26   0.0000       0.147264         4.0073
  27   0.0000       0.166333         4.5262
  28   0.0000       0.189303         5.1512

MULLIKEN ATOMIC CHARGES
-----------------------
   0 C :    0.536509
   1 O :   -0.419793
   2 C :   -0.540672
   3 H :    0.205887
   4 H :    0.247032
   5 C :   -0.414155
   6 H :    0.215320
   7 H :    0.248420
   8 C :   -0.639288
   9 H :    0.224439
  10 H :    0.204265
  11 H :    0.210094
  12 N :   -0.808988
  13 H :    0.370847
  14 H :    0.360086
Sum of atomic charges:   -0.0000000

LOEWDIN ATOMIC CHARGES
----------------------
   0 C :    0.115346
   1 O :   -0.278642
   2 C :   -0.272962
   3 H :    0.120868
   4 H :    0.147766
   5 C :   -0.240752
   6 H :    0.124931
   7 H :    0.141435
   8 C :   -0.362382
   9 H :    0.129834
  10 H :    0.121140
  11 H :    0.124107
  12 N :   -0.380920
  13 H :    0.258878
  14 H :    0.251354

  Mayer bond orders larger than 0.100000
B(  0-C ,  1-O ) :   2.0197 B(  0-C ,  2-C ) :   0.9103 B(  0-C , 12-N ) :   1.1274
B(  2-C ,  3-H ) :   0.9169 B(  2-C ,  4-H ) :   0.9019 B(  2-C ,  5-C ) :   0.9691
B(  5-C ,  6-H ) :   0.9216 B(  5-C ,  7-H ) :   0.9035 B(  5-C ,  8-C ) :   0.9871
B(  8-C ,  9-H ) :   0.9308 B(  8-C , 10-H ) :   0.9298 B(  8-C , 11-H ) :   0.9286
B( 12-N , 13-H ) :   0.8248 B( 12-N , 14-H ) :   0.8306

Dispersion correction           -0.006210392
FINAL SINGLE POINT ENERGY      -287.222953681217

DIPOLE MOMENT
-------------
                                X             Y             Z
Electronic contribution:      5.54920       5.52562      -0.64738
Nuclear contribution   :     -6.32539      -5.39631      -0.58004
                        -----------------------------------------
Total Dipole Moment    :     -0.77619       0.12931      -1.22742
                        -----------------------------------------
Magnitude (a.u.)       :      1.45800
Magnitude (Debye)      :      3.70594

Rotational constants in cm-1:     0.280622     0.060482     0.052646
Rotational constants in MHz :  8412.831964  1813.199758  1578.273518

                             ****ORCA TERMINATED NORMALLY****
TOTAL RUN TIME: 0 days 0 hours 1 minutes 38 seconds 3 msec
