                         Program Version 5.0.3 -  RELEASE  -
|  1> ! PBEh-3c def2/J TightSCF DefGrid3
|  2>
|  3> %maxcore 60000
|  4>
|  5> %pal
|  6> nprocs 4
|  7> end
|  8>
|  9> *xyzfile 0 1 50.xyz
| 10>
| 11>                          ****END OF INPUT****

CARTESIAN COORDINATES (ANGSTROEM)
---------------------------------
  N     -1.035434    2.659350   -0.076739
  C      0.242437    2.180621   -0.282061
  C      0.237241    0.803039   -0.253755
  C     -1.124853    0.413829   -0.015945
  C     -1.758601   -0.835650    0.117385
  C     -3.121402   -0.860953    0.357767
  C     -3.874266    0.329361    0.467863
  C     -3.272451    1.570867    0.335481
  C     -1.894095    1.598169    0.090796
  H     -1.290990    3.629017   -0.045283
  H      1.057087    2.868889   -0.435046
  H     -1.210863   -1.766646    0.050962
  H     -4.932517    0.253619    0.678714
  H     -3.851000    2.480816    0.429361
  O     -3.755199   -2.077924    0.536966
  C     -4.471674   -2.493834   -0.622709
  H     -3.794726   -2.622460   -1.470735
  H     -5.244478   -1.770176   -0.891579
  H     -4.936249   -3.445635   -0.378874
  C      1.396481   -0.130679   -0.429345
  C      2.724253    0.590951   -0.665220
  N      3.847139   -0.312103   -0.834563
  C      4.622940   -0.852713    0.157398
  C      4.470004   -0.251760    1.540947
  H      1.208074   -0.802006   -1.272817
  H      1.493796   -0.771738    0.451625
  H      2.935993    1.262704    0.165060
  H      2.650565    1.210039   -1.560929
  H      3.939481   -0.790128   -1.717394
  O      5.419980   -1.748717   -0.077644
  H      5.120304   -0.800970    2.213588
  H      3.442415   -0.316155    1.897596
  H      4.760609    0.798972    1.539130

 Total Charge           Charge          ....    0
 Multiplicity           Mult            ....    1
 Number of Electrons    NEL             ....  124
 Basis Dimension        Dim             ....  287

ORBITAL ENERGIES
----------------

  NO   OCC          E(Eh)            E(eV)
   0   2.0000     -19.505507      -530.7718
   1   2.0000     -19.448557      -529.2221
   2   2.0000     -14.690231      -399.7415
   3   2.0000     -14.655908      -398.8075
   4   2.0000     -10.544103      -286.9196
   5   2.0000     -10.495284      -285.5912
   6   2.0000     -10.487988      -285.3926
   7   2.0000     -10.486196      -285.3439
   8   2.0000     -10.484251      -285.2910
   9   2.0000     -10.481138      -285.2063
  10   2.0000     -10.456466      -284.5349
  11   2.0000     -10.452839      -284.4362
  12   2.0000     -10.450325      -284.3678
  13   2.0000     -10.449538      -284.3464
  14   2.0000     -10.447149      -284.2814
  15   2.0000     -10.445291      -284.2308
  16   2.0000     -10.438388      -284.0430
  17   2.0000      -1.154020       -31.4025
  18   2.0000      -1.134840       -30.8806
  19   2.0000      -1.092941       -29.7404
  20   2.0000      -1.021101       -27.7856
  21   2.0000      -0.940988       -25.6056
  22   2.0000      -0.905722       -24.6459
  23   2.0000      -0.848723       -23.0949
  24   2.0000      -0.832300       -22.6480
  25   2.0000      -0.824748       -22.4425
  26   2.0000      -0.804639       -21.8953
  27   2.0000      -0.767580       -20.8869
  28   2.0000      -0.739023       -20.1098
  29   2.0000      -0.704008       -19.1570
  30   2.0000      -0.667760       -18.1707
  31   2.0000      -0.648772       -17.6540
  32   2.0000      -0.635198       -17.2846
  33   2.0000      -0.618454       -16.8290
  34   2.0000      -0.576325       -15.6826
  35   2.0000      -0.561704       -15.2847
  36   2.0000      -0.551772       -15.0145
  37   2.0000      -0.547922       -14.9097
  38   2.0000      -0.524650       -14.2765
  39   2.0000      -0.518484       -14.1087
  40   2.0000      -0.515726       -14.0336
  41   2.0000      -0.508765       -13.8442
  42   2.0000      -0.500524       -13.6199
  43   2.0000      -0.491463       -13.3734
  44   2.0000      -0.482431       -13.1276
  45   2.0000      -0.475824       -12.9478
  46   2.0000      -0.470088       -12.7917
  47   2.0000      -0.457254       -12.4425
  48   2.0000      -0.453931       -12.3521
  49   2.0000      -0.447263       -12.1706
  50   2.0000      -0.435114       -11.8400
  51   2.0000      -0.422009       -11.4835
  52   2.0000      -0.412234       -11.2175
  53   2.0000      -0.405539       -11.0353
  54   2.0000      -0.400405       -10.8956
  55   2.0000      -0.377930       -10.2840
  56   2.0000      -0.327596        -8.9144
  57   2.0000      -0.323865        -8.8128
  58   2.0000      -0.302390        -8.2284
  59   2.0000      -0.295220        -8.0333
  60   2.0000      -0.258748        -7.0409
  61   2.0000      -0.246996        -6.7211
  62   0.0000       0.001271         0.0346
  63   0.0000       0.046761         1.2724
  64   0.0000       0.065912         1.7935
  65   0.0000       0.087648         2.3850
  66   0.0000       0.117210         3.1894

MULLIKEN ATOMIC CHARGES
-----------------------
   0 N :   -0.707574
   1 C :   -0.056517
   2 C :    0.003932
   3 C :    0.074309
   4 C :   -0.427463
   5 C :    0.360248
   6 C :   -0.310776
   7 C :   -0.262754
   8 C :    0.367119
   9 H :    0.359328
  10 H :    0.238028
  11 H :    0.220770
  12 H :    0.228898
  13 H :    0.215242
  14 O :   -0.485318
  15 C :   -0.376787
  16 H :    0.202485
  17 H :    0.197824
  18 H :    0.220811
  19 C :   -0.498941
  20 C :   -0.280182
  21 N :   -0.613316
  22 C :    0.493852
  23 C :   -0.783283
  24 H :    0.227487
  25 H :    0.231173
  26 H :    0.231378
  27 H :    0.237461
  28 H :    0.358510
  29 O :   -0.416246
  30 H :    0.273769
  31 H :    0.237509
  32 H :    0.239025
Sum of atomic charges:    0.0000000

LOEWDIN ATOMIC CHARGES
----------------------
   0 N :   -0.158938
   1 C :   -0.092145
   2 C :   -0.104476
   3 C :   -0.054935
   4 C :   -0.148903
   5 C :    0.042904
   6 C :   -0.157020
   7 C :   -0.153579
   8 C :    0.014789
   9 H :    0.262260
  10 H :    0.134247
  11 H :    0.145748
  12 H :    0.142729
  13 H :    0.137244
  14 O :   -0.220336
  15 C :   -0.172314
  16 H :    0.110414
  17 H :    0.107670
  18 H :    0.124394
  19 C :   -0.236847
  20 C :   -0.147764
  21 N :   -0.245314
  22 C :    0.107302
  23 C :   -0.398798
  24 H :    0.135608
  25 H :    0.135777
  26 H :    0.130092
  27 H :    0.128465
  28 H :    0.258581
  29 O :   -0.272189
  30 H :    0.157286
  31 H :    0.142637
  32 H :    0.145413

  Mayer bond orders larger than 0.100000
B(  0-N ,  1-C ) :   1.1225 B(  0-N ,  8-C ) :   1.0129 B(  0-N ,  9-H ) :   0.8334
B(  1-C ,  2-C ) :   1.5477 B(  1-C , 10-H ) :   0.9121 B(  2-C ,  3-C ) :   1.2461
B(  2-C , 19-C ) :   0.9620 B(  3-C ,  4-C ) :   1.2427 B(  3-C ,  8-C ) :   1.2394
B(  4-C ,  5-C ) :   1.4801 B(  4-C , 11-H ) :   0.9281 B(  5-C ,  6-C ) :   1.3210
B(  5-C , 14-O ) :   0.9534 B(  6-C ,  7-C ) :   1.4840 B(  6-C , 12-H ) :   0.9123
B(  7-C ,  8-C ) :   1.2899 B(  7-C , 13-H ) :   0.9203 B( 14-O , 15-C ) :   0.9516
B( 15-C , 16-H ) :   0.9124 B( 15-C , 17-H ) :   0.9120 B( 15-C , 18-H ) :   0.9283
B( 19-C , 20-C ) :   0.9830 B( 19-C , 24-H ) :   0.9077 B( 19-C , 25-H ) :   0.9036
B( 20-C , 21-N ) :   0.9616 B( 20-C , 26-H ) :   0.9024 B( 20-C , 27-H ) :   0.9088
B( 21-N , 22-C ) :   1.1463 B( 21-N , 28-H ) :   0.8230 B( 22-C , 23-C ) :   0.9274
B( 22-C , 29-O ) :   2.0359 B( 23-C , 30-H ) :   0.9152 B( 23-C , 31-H ) :   0.9060
B( 23-C , 32-H ) :   0.9096

Dispersion correction           -0.020911216
FINAL SINGLE POINT ENERGY      -763.319098802738

DIPOLE MOMENT
-------------
                                X             Y             Z
Electronic contribution:     -2.74971       2.25624      -0.01509
Nuclear contribution   :      1.47117      -0.31913      -0.57138
                        -----------------------------------------
Total Dipole Moment    :     -1.27854       1.93711      -0.58647
                        -----------------------------------------
Magnitude (a.u.)       :      2.39395
Magnitude (Debye)      :      6.08495

Rotational constants in cm-1:     0.028243     0.006528     0.005602
Rotational constants in MHz :   846.694195   195.696399   167.933590

                             ****ORCA TERMINATED NORMALLY****
TOTAL RUN TIME: 0 days 0 hours 3 minutes 58 seconds 795 msec
