                         Program Version 5.0.3 -  RELEASE  -
|  1> ! PBEh-3c def2/J TightSCF DefGrid3
|  2>
|  3> %maxcore 60000
|  4>
|  5> %pal
|  6> nprocs 4
|  7> end
|  8>
|  9> *xyzfile 0 1 P11.xyz
| 10>
| 11>                          ****END OF INPUT****

CARTESIAN COORDINATES (ANGSTROEM)
---------------------------------
  C     -4.491701   -0.265622    0.000000
  C     -3.187364    0.533203    0.000000
  C     -1.936053   -0.349068    0.000000
  C     -0.625286    0.441640    0.000000
  C      0.625286   -0.441640    0.000000
  C      1.936053    0.349068    0.000000
  C      3.187364   -0.533203    0.000000
  C      4.491701    0.265622    0.000000
  H     -5.363854    0.392579    0.000000
  H     -4.561379   -0.908419   -0.882077
  H     -4.561379   -0.908419    0.882077
  H     -3.163304    1.191907    0.875419
  H     -3.163304    1.191907   -0.875419
  H     -1.960846   -1.008709    0.875983
  H     -1.960846   -1.008709   -0.875983
  H     -0.601483    1.101083    0.875985
  H     -0.601483    1.101083   -0.875985
  H      0.601483   -1.101083    0.875985
  H      0.601483   -1.101083   -0.875985
  H      1.960846    1.008709    0.875983
  H      1.960846    1.008709   -0.875983
  H      3.163304   -1.191907    0.875419
  H      3.163304   -1.191907   -0.875419
  H      4.561379    0.908419    0.882077
  H      5.363854   -0.392579    0.000000
  H      4.561379    0.908419   -0.882077

 Total Charge           Charge          ....    0
 Multiplicity           Mult            ....    1
 Number of Electrons    NEL             ....   66
 Basis Dimension        Dim             ....  156

ORBITAL ENERGIES
----------------

  NO   OCC          E(Eh)            E(eV)
   0   2.0000     -10.428962      -283.7865
   1   2.0000     -10.428959      -283.7864
   2   2.0000     -10.427336      -283.7422
   3   2.0000     -10.427193      -283.7383
   4   2.0000     -10.426984      -283.7327
   5   2.0000     -10.426935      -283.7313
   6   2.0000     -10.420769      -283.5635
   7   2.0000     -10.420766      -283.5635
   8   2.0000      -0.899793       -24.4846
   9   2.0000      -0.874469       -23.7955
  10   2.0000      -0.833628       -22.6842
  11   2.0000      -0.780112       -21.2279
  12   2.0000      -0.719352       -19.5746
  13   2.0000      -0.664268       -18.0757
  14   2.0000      -0.644226       -17.5303
  15   2.0000      -0.640396       -17.4261
  16   2.0000      -0.542399       -14.7594
  17   2.0000      -0.519660       -14.1407
  18   2.0000      -0.492521       -13.4022
  19   2.0000      -0.485207       -13.2032
  20   2.0000      -0.472301       -12.8520
  21   2.0000      -0.466752       -12.7010
  22   2.0000      -0.444748       -12.1022
  23   2.0000      -0.435590       -11.8530
  24   2.0000      -0.406591       -11.0639
  25   2.0000      -0.404350       -11.0029
  26   2.0000      -0.400388       -10.8951
  27   2.0000      -0.379153       -10.3173
  28   2.0000      -0.376967       -10.2578
  29   2.0000      -0.367536       -10.0012
  30   2.0000      -0.366182        -9.9643
  31   2.0000      -0.364016        -9.9054
  32   2.0000      -0.347090        -9.4448
  33   0.0000       0.132336         3.6010
  34   0.0000       0.143977         3.9178
  35   0.0000       0.154899         4.2150
  36   0.0000       0.174001         4.7348
  37   0.0000       0.178556         4.8587

MULLIKEN ATOMIC CHARGES
-----------------------
   0 C :   -0.638682
   1 C :   -0.409574
   2 C :   -0.395798
   3 C :   -0.400052
   4 C :   -0.400053
   5 C :   -0.395799
   6 C :   -0.409573
   7 C :   -0.638682
   8 H :    0.217912
   9 H :    0.208753
  10 H :    0.208753
  11 H :    0.204259
  12 H :    0.204259
  13 H :    0.199786
  14 H :    0.199786
  15 H :    0.200299
  16 H :    0.200299
  17 H :    0.200299
  18 H :    0.200299
  19 H :    0.199786
  20 H :    0.199786
  21 H :    0.204259
  22 H :    0.204259
  23 H :    0.208753
  24 H :    0.217912
  25 H :    0.208753
Sum of atomic charges:   -0.0000000

LOEWDIN ATOMIC CHARGES
----------------------
   0 C :   -0.362433
   1 C :   -0.245441
   2 C :   -0.239625
   3 C :   -0.238047
   4 C :   -0.238047
   5 C :   -0.239625
   6 C :   -0.245441
   7 C :   -0.362433
   8 H :    0.126059
   9 H :    0.123163
  10 H :    0.123163
  11 H :    0.119256
  12 H :    0.119256
  13 H :    0.118484
  14 H :    0.118484
  15 H :    0.118840
  16 H :    0.118840
  17 H :    0.118840
  18 H :    0.118840
  19 H :    0.118484
  20 H :    0.118484
  21 H :    0.119256
  22 H :    0.119256
  23 H :    0.123163
  24 H :    0.126059
  25 H :    0.123163

  Mayer bond orders larger than 0.100000
B(  0-C ,  1-C ) :   0.9970 B(  0-C ,  8-H ) :   0.9319 B(  0-C ,  9-H ) :   0.9296
B(  0-C , 10-H ) :   0.9296 B(  1-C ,  2-C ) :   0.9898 B(  1-C , 11-H ) :   0.9205
B(  1-C , 12-H ) :   0.9205 B(  2-C ,  3-C ) :   0.9947 B(  2-C , 13-H ) :   0.9185
B(  2-C , 14-H ) :   0.9185 B(  3-C ,  4-C ) :   0.9936 B(  3-C , 15-H ) :   0.9184
B(  3-C , 16-H ) :   0.9184 B(  4-C ,  5-C ) :   0.9947 B(  4-C , 17-H ) :   0.9184
B(  4-C , 18-H ) :   0.9184 B(  5-C ,  6-C ) :   0.9898 B(  5-C , 19-H ) :   0.9185
B(  5-C , 20-H ) :   0.9185 B(  6-C ,  7-C ) :   0.9970 B(  6-C , 21-H ) :   0.9205
B(  6-C , 22-H ) :   0.9205 B(  7-C , 23-H ) :   0.9296 B(  7-C , 24-H ) :   0.9319
B(  7-C , 25-H ) :   0.9296

Dispersion correction           -0.011873798
FINAL SINGLE POINT ENERGY      -315.016662657077

DIPOLE MOMENT
-------------
                                X             Y             Z
Electronic contribution:      0.00000      -0.00000      -0.00000
Nuclear contribution   :     -0.00000       0.00000       0.00000
                        -----------------------------------------
Total Dipole Moment    :      0.00000      -0.00000      -0.00000
                        -----------------------------------------
Magnitude (a.u.)       :      0.00000
Magnitude (Debye)      :      0.00000

Rotational constants in cm-1:     0.359371     0.016213     0.015876
Rotational constants in MHz : 10773.663120   486.059264   475.952529

                             ****ORCA TERMINATED NORMALLY****
TOTAL RUN TIME: 0 days 0 hours 1 minutes 38 seconds 418 msec
