                         Program Version 5.0.3 -  RELEASE  -
|  1> ! PBEh-3c def2/J TightSCF DefGrid3
|  2>
|  3> %maxcore 60000
|  4>
|  5> %pal
|  6> nprocs 4
|  7> end
|  8>
|  9> *xyzfile 0 1 c5.xyz
| 10>
| 11>                          ****END OF INPUT****

CARTESIAN COORDINATES (ANGSTROEM)
---------------------------------
  C      0.000000    0.000000    2.310071
  C     -1.247169    0.720053    1.794581
  H     -2.147341    0.222049    2.166585
  C     -1.247215    0.720080    0.266384
  H     -1.265971    1.748627    2.166585
  C      0.000000   -1.440106    1.794581
  H      0.000000    0.000000    3.402537
  C      1.247169    0.720053    1.794581
  C     -1.247215   -0.720080   -0.266384
  C      0.000000    1.440160   -0.266384
  H     -2.140219    1.235656   -0.103949
  H     -2.140219   -1.235656    0.103949
  C      0.000000    0.000000   -2.310071
  C     -1.247169   -0.720053   -1.794581
  C      0.000000    1.440106   -1.794581
  H     -0.881370    1.970677   -2.166585
  H      0.000000    2.471312    0.103949
  H     -0.881370   -1.970677    2.166585
  H      0.881370   -1.970677    2.166585
  C      0.000000   -1.440160    0.266384
  H      2.147341    0.222049    2.166585
  H      1.265971    1.748627    2.166585
  C      1.247215    0.720080    0.266384
  H     -1.265971   -1.748627   -2.166585
  H      2.147341   -0.222049   -2.166585
  H      0.000000   -2.471312   -0.103949
  H      2.140219    1.235656   -0.103949
  C      1.247215   -0.720080   -0.266384
  H     -2.147341   -0.222049   -2.166585
  C      1.247169   -0.720053   -1.794581
  H      0.881370    1.970677   -2.166585
  H      0.000000    0.000000   -3.402537
  H      2.140219   -1.235656    0.103949
  H      1.265971   -1.748627   -2.166585

 Total Charge           Charge          ....    0
 Multiplicity           Mult            ....    1
 Number of Electrons    NEL             ....  104
 Basis Dimension        Dim             ....  250

ORBITAL ENERGIES
----------------

  NO   OCC          E(Eh)            E(eV)
   0   2.0000     -10.430039      -283.8158
   1   2.0000     -10.430027      -283.8155
   2   2.0000     -10.428375      -283.7705
   3   2.0000     -10.428359      -283.7701
   4   2.0000     -10.428358      -283.7701
   5   2.0000     -10.428140      -283.7641
   6   2.0000     -10.428139      -283.7641
   7   2.0000     -10.427933      -283.7585
   8   2.0000     -10.421487      -283.5831
   9   2.0000     -10.421486      -283.5830
  10   2.0000     -10.421464      -283.5825
  11   2.0000     -10.421463      -283.5824
  12   2.0000     -10.421413      -283.5811
  13   2.0000     -10.421366      -283.5798
  14   2.0000      -0.983405       -26.7598
  15   2.0000      -0.907787       -24.7021
  16   2.0000      -0.868041       -23.6206
  17   2.0000      -0.868040       -23.6206
  18   2.0000      -0.823944       -22.4206
  19   2.0000      -0.788792       -21.4641
  20   2.0000      -0.788792       -21.4641
  21   2.0000      -0.687065       -18.6960
  22   2.0000      -0.687065       -18.6960
  23   2.0000      -0.657858       -17.9012
  24   2.0000      -0.649755       -17.6807
  25   2.0000      -0.649753       -17.6807
  26   2.0000      -0.621324       -16.9071
  27   2.0000      -0.548922       -14.9369
  28   2.0000      -0.532585       -14.4924
  29   2.0000      -0.503367       -13.6973
  30   2.0000      -0.503174       -13.6921
  31   2.0000      -0.503171       -13.6920
  32   2.0000      -0.481348       -13.0981
  33   2.0000      -0.481348       -13.0981
  34   2.0000      -0.470899       -12.8138
  35   2.0000      -0.455845       -12.4042
  36   2.0000      -0.447343       -12.1728
  37   2.0000      -0.447342       -12.1728
  38   2.0000      -0.437063       -11.8931
  39   2.0000      -0.437061       -11.8930
  40   2.0000      -0.415174       -11.2975
  41   2.0000      -0.394919       -10.7463
  42   2.0000      -0.394919       -10.7463
  43   2.0000      -0.383923       -10.4471
  44   2.0000      -0.358687        -9.7604
  45   2.0000      -0.358687        -9.7604
  46   2.0000      -0.345497        -9.4014
  47   2.0000      -0.341058        -9.2807
  48   2.0000      -0.341058        -9.2807
  49   2.0000      -0.309423        -8.4198
  50   2.0000      -0.309423        -8.4198
  51   2.0000      -0.302212        -8.2236
  52   0.0000       0.113921         3.0999
  53   0.0000       0.149512         4.0684
  54   0.0000       0.166543         4.5319
  55   0.0000       0.166546         4.5319
  56   0.0000       0.173124         4.7109

MULLIKEN ATOMIC CHARGES
-----------------------
   0 C :   -0.236136
   1 C :   -0.407104
   2 H :    0.212123
   3 C :   -0.217751
   4 H :    0.212121
   5 C :   -0.407090
   6 H :    0.213725
   7 C :   -0.407104
   8 C :   -0.217751
   9 C :   -0.217745
  10 H :    0.208081
  11 H :    0.208081
  12 C :   -0.236137
  13 C :   -0.407104
  14 C :   -0.407090
  15 H :    0.212119
  16 H :    0.208067
  17 H :    0.212119
  18 H :    0.212119
  19 C :   -0.217745
  20 H :    0.212123
  21 H :    0.212121
  22 C :   -0.217751
  23 H :    0.212121
  24 H :    0.212123
  25 H :    0.208067
  26 H :    0.208081
  27 C :   -0.217751
  28 H :    0.212124
  29 C :   -0.407104
  30 H :    0.212119
  31 H :    0.213725
  32 H :    0.208081
  33 H :    0.212121
Sum of atomic charges:    0.0000000

LOEWDIN ATOMIC CHARGES
----------------------
   0 C :   -0.145501
   1 C :   -0.220289
   2 H :    0.120930
   3 C :   -0.132789
   4 H :    0.120929
   5 C :   -0.220288
   6 H :    0.120901
   7 C :   -0.220289
   8 C :   -0.132789
   9 C :   -0.132784
  10 H :    0.119417
  11 H :    0.119417
  12 C :   -0.145501
  13 C :   -0.220289
  14 C :   -0.220288
  15 H :    0.120930
  16 H :    0.119416
  17 H :    0.120930
  18 H :    0.120930
  19 C :   -0.132784
  20 H :    0.120930
  21 H :    0.120929
  22 C :   -0.132789
  23 H :    0.120929
  24 H :    0.120930
  25 H :    0.119416
  26 H :    0.119417
  27 C :   -0.132789
  28 H :    0.120930
  29 C :   -0.220289
  30 H :    0.120930
  31 H :    0.120901
  32 H :    0.119417
  33 H :    0.120929

  Mayer bond orders larger than 0.100000
B(  0-C ,  1-C ) :   0.9740 B(  0-C ,  5-C ) :   0.9740 B(  0-C ,  6-H ) :   0.9203
B(  0-C ,  7-C ) :   0.9740 B(  1-C ,  2-H ) :   0.9239 B(  1-C ,  3-C ) :   0.9854
B(  1-C ,  4-H ) :   0.9239 B(  3-C ,  8-C ) :   0.9576 B(  3-C ,  9-C ) :   0.9576
B(  3-C , 10-H ) :   0.9166 B(  5-C , 17-H ) :   0.9239 B(  5-C , 18-H ) :   0.9239
B(  5-C , 19-C ) :   0.9854 B(  7-C , 20-H ) :   0.9239 B(  7-C , 21-H ) :   0.9239
B(  7-C , 22-C ) :   0.9854 B(  8-C , 11-H ) :   0.9166 B(  8-C , 13-C ) :   0.9854
B(  8-C , 19-C ) :   0.9576 B(  9-C , 14-C ) :   0.9854 B(  9-C , 16-H ) :   0.9166
B(  9-C , 22-C ) :   0.9576 B( 12-C , 13-C ) :   0.9740 B( 12-C , 14-C ) :   0.9740
B( 12-C , 29-C ) :   0.9740 B( 12-C , 31-H ) :   0.9203 B( 13-C , 23-H ) :   0.9239
B( 13-C , 28-H ) :   0.9239 B( 14-C , 15-H ) :   0.9239 B( 14-C , 30-H ) :   0.9239
B( 19-C , 25-H ) :   0.9166 B( 19-C , 27-C ) :   0.9576 B( 22-C , 26-H ) :   0.9166
B( 22-C , 27-C ) :   0.9576 B( 24-H , 29-C ) :   0.9239 B( 27-C , 29-C ) :   0.9854
B( 27-C , 32-H ) :   0.9166 B( 29-C , 33-H ) :   0.9239

Dispersion correction           -0.026965308
FINAL SINGLE POINT ENERGY      -544.416218130584

DIPOLE MOMENT
-------------
                                X             Y             Z
Electronic contribution:     -0.00000       0.00000       0.00000
Nuclear contribution   :     -0.00000       0.00000       0.00000
                        -----------------------------------------
Total Dipole Moment    :     -0.00000       0.00000       0.00000
                        -----------------------------------------
Magnitude (a.u.)       :      0.00000
Magnitude (Debye)      :      0.00000

Rotational constants in cm-1:     0.042978     0.026270     0.026270
Rotational constants in MHz :  1288.454840   787.564904   787.564903

                             ****ORCA TERMINATED NORMALLY****
TOTAL RUN TIME: 0 days 0 hours 3 minutes 58 seconds 829 msec
