                         Program Version 5.0.3 -  RELEASE  -
|  1> ! PBEh-3c def2/J TightSCF DefGrid3
|  2>
|  3> %maxcore 60000
|  4>
|  5> %pal
|  6> nprocs 4
|  7> end
|  8>
|  9> *xyzfile 0 1 144.xyz
| 10>
| 11>                          ****END OF INPUT****

CARTESIAN COORDINATES (ANGSTROEM)
---------------------------------
  C     -0.092140   -0.019860    0.033390
  C     -0.092140   -0.019860    1.547650
  N      1.303660   -0.019860    2.060560
  H      1.824540    0.792760    1.719320
  H      1.833750   -0.875930    1.699760
  H      1.330550   -0.005500    3.083390
  H     -0.572870   -0.910670    1.946460
  H     -0.598190    0.855200    1.949730
  H     -1.118690   -0.018500   -0.326520
  H      0.409780    0.864120   -0.356700
  H      0.412260   -0.901910   -0.354940
  O      2.580810   -2.068570    0.950540
  C      3.234500   -1.470350    0.048330
  C      3.895020   -2.352370   -1.022810
  F      4.222200   -3.581340   -0.545990
  O      3.373240   -0.243580   -0.112790
  F      2.983280   -2.550500   -2.027410
  H      4.784110   -1.897220   -1.455620

 Total Charge           Charge          ....    0
 Multiplicity           Mult            ....    1
 Number of Electrons    NEL             ....   74
 Basis Dimension        Dim             ....  153

ORBITAL ENERGIES
----------------

  NO   OCC          E(Eh)            E(eV)
   0   2.0000     -25.065379      -682.0636
   1   2.0000     -25.063335      -682.0080
   2   2.0000     -19.434030      -528.8268
   3   2.0000     -19.420821      -528.4674
   4   2.0000     -14.755766      -401.5248
   5   2.0000     -10.561336      -287.3886
   6   2.0000     -10.531790      -286.5846
   7   2.0000     -10.516632      -286.1721
   8   2.0000     -10.458637      -284.5940
   9   2.0000      -1.336340       -36.3637
  10   2.0000      -1.275135       -34.6982
  11   2.0000      -1.130372       -30.7590
  12   2.0000      -1.109812       -30.1995
  13   2.0000      -1.032118       -28.0853
  14   2.0000      -0.886005       -24.1094
  15   2.0000      -0.767229       -20.8774
  16   2.0000      -0.750127       -20.4120
  17   2.0000      -0.662598       -18.0302
  18   2.0000      -0.660897       -17.9839
  19   2.0000      -0.615593       -16.7512
  20   2.0000      -0.582458       -15.8495
  21   2.0000      -0.579647       -15.7730
  22   2.0000      -0.572760       -15.5856
  23   2.0000      -0.534279       -14.5385
  24   2.0000      -0.509769       -13.8715
  25   2.0000      -0.477210       -12.9855
  26   2.0000      -0.471442       -12.8286
  27   2.0000      -0.463808       -12.6208
  28   2.0000      -0.460389       -12.5278
  29   2.0000      -0.449730       -12.2378
  30   2.0000      -0.438630       -11.9357
  31   2.0000      -0.435029       -11.8377
  32   2.0000      -0.419752       -11.4220
  33   2.0000      -0.392118       -10.6701
  34   2.0000      -0.293719        -7.9925
  35   2.0000      -0.289905        -7.8887
  36   2.0000      -0.277687        -7.5562
  37   0.0000       0.063733         1.7343
  38   0.0000       0.089293         2.4298
  39   0.0000       0.116516         3.1706
  40   0.0000       0.131518         3.5788
  41   0.0000       0.157169         4.2768

MULLIKEN ATOMIC CHARGES
-----------------------
   0 C :   -0.655428
   1 C :   -0.328683
   2 N :   -0.805993
   3 H :    0.422390
   4 H :    0.474416
   5 H :    0.402885
   6 H :    0.267536
   7 H :    0.245469
   8 H :    0.239452
   9 H :    0.240315
  10 H :    0.286185
  11 O :   -0.585752
  12 C :    0.379940
  13 C :    0.487145
  14 F :   -0.333656
  15 O :   -0.542151
  16 F :   -0.352325
  17 H :    0.158253
Sum of atomic charges:    0.0000000

LOEWDIN ATOMIC CHARGES
----------------------
   0 C :   -0.368515
   1 C :   -0.154165
   2 N :   -0.261742
   3 H :    0.289492
   4 H :    0.307311
   5 H :    0.275783
   6 H :    0.144319
   7 H :    0.130984
   8 H :    0.142548
   9 H :    0.142589
  10 H :    0.162607
  11 O :   -0.393729
  12 C :    0.012598
  13 C :    0.222459
  14 F :   -0.186285
  15 O :   -0.367924
  16 F :   -0.201061
  17 H :    0.102731

  Mayer bond orders larger than 0.100000
B(  0-C ,  1-C ) :   0.9930 B(  0-C ,  8-H ) :   0.9140 B(  0-C ,  9-H ) :   0.9146
B(  0-C , 10-H ) :   0.8905 B(  1-C ,  2-N ) :   0.8945 B(  1-C ,  6-H ) :   0.8996
B(  1-C ,  7-H ) :   0.9085 B(  2-N ,  3-H ) :   0.7808 B(  2-N ,  4-H ) :   0.4937
B(  2-N ,  5-H ) :   0.8132 B(  4-H , 11-O ) :   0.3066 B( 11-O , 12-C ) :   1.5343
B( 11-O , 15-O ) :   0.1343 B( 12-C , 13-C ) :   0.8611 B( 12-C , 15-O ) :   1.8185
B( 13-C , 14-F ) :   0.9931 B( 13-C , 16-F ) :   0.9603 B( 13-C , 17-H ) :   0.9063

Dispersion correction           -0.007995136
FINAL SINGLE POINT ENERGY      -561.573693979658

DIPOLE MOMENT
-------------
                                X             Y             Z
Electronic contribution:     12.67486     -11.10696      -7.29221
Nuclear contribution   :    -14.85578      13.17586       9.41909
                        -----------------------------------------
Total Dipole Moment    :     -2.18092       2.06889       2.12688
                        -----------------------------------------
Magnitude (a.u.)       :      3.68244
Magnitude (Debye)      :      9.36001

Rotational constants in cm-1:     0.093735     0.024443     0.022823
Rotational constants in MHz :  2810.095909   732.783657   684.230241

                             ****ORCA TERMINATED NORMALLY****
TOTAL RUN TIME: 0 days 0 hours 1 minutes 39 seconds 471 msec
