                         Program Version 5.0.3 -  RELEASE  -
|  1> ! PBEh-3c def2/J TightSCF DefGrid3
|  2>
|  3> %maxcore 60000
|  4>
|  5> %pal
|  6> nprocs 4
|  7> end
|  8>
|  9> *xyzfile 0 1 E17.xyz
| 10>
| 11>                          ****END OF INPUT****

CARTESIAN COORDINATES (ANGSTROEM)
---------------------------------
  N      0.685628   -0.133834    1.356978
  C     -0.513281    0.267497    0.611287
  C     -0.484029   -0.330885   -0.799662
  N      0.651543    0.062592   -1.630093
  H      0.637846   -1.113711    1.616074
  H      0.788698    0.399610    2.211690
  H      0.584681    1.044877   -1.876612
  H      1.505426   -0.045547   -1.091140
  H     -1.456057   -0.018630    1.104487
  H     -0.509260    1.359370    0.535797
  H     -1.408220   -0.067027   -1.321629
  H     -0.482976   -1.424314   -0.717176

 Total Charge           Charge          ....    0
 Multiplicity           Mult            ....    1
 Number of Electrons    NEL             ....   34
 Basis Dimension        Dim             ....   76

ORBITAL ENERGIES
----------------

  NO   OCC          E(Eh)            E(eV)
   0   2.0000     -14.611057      -397.5871
   1   2.0000     -14.592986      -397.0953
   2   2.0000     -10.455288      -284.5029
   3   2.0000     -10.449558      -284.3469
   4   2.0000      -0.984274       -26.7835
   5   2.0000      -0.945166       -25.7193
   6   2.0000      -0.780672       -21.2432
   7   2.0000      -0.666686       -18.1414
   8   2.0000      -0.563064       -15.3218
   9   2.0000      -0.535653       -14.5759
  10   2.0000      -0.504481       -13.7276
  11   2.0000      -0.470153       -12.7935
  12   2.0000      -0.455963       -12.4074
  13   2.0000      -0.408114       -11.1054
  14   2.0000      -0.391379       -10.6500
  15   2.0000      -0.293127        -7.9764
  16   2.0000      -0.270938        -7.3726
  17   0.0000       0.129297         3.5183
  18   0.0000       0.167410         4.5554
  19   0.0000       0.185116         5.0373
  20   0.0000       0.192270         5.2319
  21   0.0000       0.219618         5.9761

MULLIKEN ATOMIC CHARGES
-----------------------
   0 N :   -0.754660
   1 C :   -0.291302
   2 C :   -0.283935
   3 N :   -0.732493
   4 H :    0.315178
   5 H :    0.324073
   6 H :    0.305473
   7 H :    0.329297
   8 H :    0.179016
   9 H :    0.200199
  10 H :    0.207674
  11 H :    0.201481
Sum of atomic charges:   -0.0000000

LOEWDIN ATOMIC CHARGES
----------------------
   0 N :   -0.485417
   1 C :   -0.187816
   2 C :   -0.177761
   3 N :   -0.474161
   4 H :    0.220521
   5 H :    0.223515
   6 H :    0.216539
   7 H :    0.226984
   8 H :    0.093590
   9 H :    0.113217
  10 H :    0.117884
  11 H :    0.112906

  Mayer bond orders larger than 0.100000
B(  0-N ,  1-C ) :   1.0195 B(  0-N ,  4-H ) :   0.8637 B(  0-N ,  5-H ) :   0.8621
B(  1-C ,  2-C ) :   0.9500 B(  1-C ,  8-H ) :   0.9050 B(  1-C ,  9-H ) :   0.9202
B(  2-C ,  3-N ) :   1.0710 B(  2-C , 10-H ) :   0.9221 B(  2-C , 11-H ) :   0.9171
B(  3-N ,  6-H ) :   0.8667 B(  3-N ,  7-H ) :   0.8467

Dispersion correction           -0.004330508
FINAL SINGLE POINT ENERGY      -190.099230399787

DIPOLE MOMENT
-------------
                                X             Y             Z
Electronic contribution:      0.79921      -0.06508      -0.25942
Nuclear contribution   :     -1.11297       0.32896       1.13469
                        -----------------------------------------
Total Dipole Moment    :     -0.31375       0.26388       0.87527
                        -----------------------------------------
Magnitude (a.u.)       :      0.96652
Magnitude (Debye)      :      2.45670

Rotational constants in cm-1:     0.481826     0.169205     0.144218
Rotational constants in MHz : 14444.783291  5072.639941  4323.541080

                             ****ORCA TERMINATED NORMALLY****
TOTAL RUN TIME: 0 days 0 hours 0 minutes 30 seconds 452 msec
