                         Program Version 5.0.3 -  RELEASE  -
|  1> ! PBEh-3c def2/J TightSCF DefGrid3
|  2>
|  3> %maxcore 60000
|  4>
|  5> %pal
|  6> nprocs 4
|  7> end
|  8>
|  9> *xyzfile 0 1 Triazasumanene.xyz
| 10>
| 11>                          ****END OF INPUT****

CARTESIAN COORDINATES (ANGSTROEM)
---------------------------------
  C     -0.791330    0.114233    1.379090
  C     -1.185234   -0.090331    0.069584
  C     -0.500116   -1.046975   -0.747133
  C      0.598871   -1.718128   -0.243760
  C      1.013211   -1.504717    1.111037
  C      0.347076   -0.584348    1.898193
  C      1.050121    0.216303    2.806416
  C      2.412642   -0.054572    2.919798
  N      3.088357   -0.922045    2.108391
  C      2.407297   -1.587107    1.190278
  C      1.697347   -1.998161   -1.064411
  C      1.549722   -1.660383   -2.408882
  N      0.489118   -0.957681   -2.905259
  C     -0.476378   -0.602926   -2.072412
  C     -1.662962    0.974626   -0.703459
  C     -1.810952    2.189026   -0.034798
  N     -1.382667    2.411828    1.243647
  C     -0.827310    1.409056    1.905341
  C     -1.444731    0.598563   -2.187062
  C      2.925558   -2.177611   -0.143442
  C      0.193543    1.476687    3.067543
  H      3.045361    0.524828    3.581493
  H      2.349092   -1.831007   -3.120227
  H     -2.159314    3.075350   -0.551675
  H     -0.985575    1.407371   -2.753853
  H     -2.373631    0.323342   -2.693123
  H      3.224759   -3.223703   -0.036102
  H      3.793790   -1.624057   -0.497304
  H     -0.303879    1.454801    4.040817
  H      0.780216    2.392738    3.017276

 Total Charge           Charge          ....    0
 Multiplicity           Mult            ....    1
 Number of Electrons    NEL             ....  138
 Basis Dimension        Dim             ....  333

ORBITAL ENERGIES
----------------

  NO   OCC          E(Eh)            E(eV)
   0   2.0000     -14.653628      -398.7455
   1   2.0000     -14.653549      -398.7434
   2   2.0000     -14.653473      -398.7413
   3   2.0000     -10.510088      -285.9940
   4   2.0000     -10.510082      -285.9939
   5   2.0000     -10.509955      -285.9904
   6   2.0000     -10.500744      -285.7398
   7   2.0000     -10.500707      -285.7388
   8   2.0000     -10.500662      -285.7375
   9   2.0000     -10.485423      -285.3229
  10   2.0000     -10.485347      -285.3208
  11   2.0000     -10.485303      -285.3196
  12   2.0000     -10.480605      -285.1918
  13   2.0000     -10.480470      -285.1881
  14   2.0000     -10.480221      -285.1813
  15   2.0000     -10.476944      -285.0921
  16   2.0000     -10.476805      -285.0883
  17   2.0000     -10.476738      -285.0865
  18   2.0000     -10.472144      -284.9615
  19   2.0000     -10.472111      -284.9606
  20   2.0000     -10.471953      -284.9563
  21   2.0000      -1.081579       -29.4313
  22   2.0000      -1.060514       -28.8581
  23   2.0000      -1.060356       -28.8538
  24   2.0000      -0.993131       -27.0245
  25   2.0000      -0.967605       -26.3299
  26   2.0000      -0.967471       -26.3262
  27   2.0000      -0.870079       -23.6760
  28   2.0000      -0.866764       -23.5858
  29   2.0000      -0.866677       -23.5835
  30   2.0000      -0.852356       -23.1938
  31   2.0000      -0.784588       -21.3497
  32   2.0000      -0.784492       -21.3471
  33   2.0000      -0.753347       -20.4996
  34   2.0000      -0.753261       -20.4973
  35   2.0000      -0.704548       -19.1717
  36   2.0000      -0.668200       -18.1827
  37   2.0000      -0.668143       -18.1811
  38   2.0000      -0.649848       -17.6833
  39   2.0000      -0.626359       -17.0441
  40   2.0000      -0.574703       -15.6385
  41   2.0000      -0.574619       -15.6362
  42   2.0000      -0.568599       -15.4724
  43   2.0000      -0.543012       -14.7761
  44   2.0000      -0.541334       -14.7304
  45   2.0000      -0.541208       -14.7270
  46   2.0000      -0.522042       -14.2055
  47   2.0000      -0.521848       -14.2002
  48   2.0000      -0.495412       -13.4809
  49   2.0000      -0.494669       -13.4606
  50   2.0000      -0.494593       -13.4586
  51   2.0000      -0.473718       -12.8905
  52   2.0000      -0.460348       -12.5267
  53   2.0000      -0.457748       -12.4559
  54   2.0000      -0.457681       -12.4541
  55   2.0000      -0.447785       -12.1848
  56   2.0000      -0.447551       -12.1785
  57   2.0000      -0.434414       -11.8210
  58   2.0000      -0.415110       -11.2957
  59   2.0000      -0.414928       -11.2908
  60   2.0000      -0.390027       -10.6132
  61   2.0000      -0.353079        -9.6078
  62   2.0000      -0.352794        -9.6000
  63   2.0000      -0.337132        -9.1738
  64   2.0000      -0.317592        -8.6421
  65   2.0000      -0.317431        -8.6377
  66   2.0000      -0.297170        -8.0864
  67   2.0000      -0.275700        -7.5022
  68   2.0000      -0.275253        -7.4900
  69   0.0000      -0.047461        -1.2915
  70   0.0000      -0.047084        -1.2812
  71   0.0000      -0.036549        -0.9946
  72   0.0000       0.010361         0.2819
  73   0.0000       0.010699         0.2911

MULLIKEN ATOMIC CHARGES
-----------------------
   0 C :   -0.003929
   1 C :    0.100176
   2 C :   -0.003487
   3 C :    0.100008
   4 C :   -0.003329
   5 C :    0.100380
   6 C :   -0.025501
   7 C :   -0.109961
   8 N :   -0.384324
   9 C :    0.188960
  10 C :   -0.026414
  11 C :   -0.109293
  12 N :   -0.385416
  13 C :    0.190129
  14 C :   -0.025943
  15 C :   -0.109765
  16 N :   -0.385314
  17 C :    0.189722
  18 C :   -0.545785
  19 C :   -0.545367
  20 C :   -0.545415
  21 H :    0.236659
  22 H :    0.236891
  23 H :    0.236821
  24 H :    0.270494
  25 H :    0.272851
  26 H :    0.272645
  27 H :    0.270467
  28 H :    0.272837
  29 H :    0.270204
Sum of atomic charges:   -0.0000000

LOEWDIN ATOMIC CHARGES
----------------------
   0 C :   -0.053731
   1 C :    0.011995
   2 C :   -0.053846
   3 C :    0.012200
   4 C :   -0.053664
   5 C :    0.011921
   6 C :   -0.062216
   7 C :   -0.041199
   8 N :   -0.141889
   9 C :    0.045731
  10 C :   -0.062998
  11 C :   -0.040825
  12 N :   -0.142150
  13 C :    0.045678
  14 C :   -0.062574
  15 C :   -0.041113
  16 N :   -0.142188
  17 C :    0.045744
  18 C :   -0.212210
  19 C :   -0.212320
  20 C :   -0.212137
  21 H :    0.134569
  22 H :    0.134622
  23 H :    0.134672
  24 H :    0.158869
  25 H :    0.160760
  26 H :    0.160632
  27 H :    0.158546
  28 H :    0.160795
  29 H :    0.158329

  Mayer bond orders larger than 0.100000
B(  0-C ,  1-C ) :   1.3102 B(  0-C ,  5-C ) :   1.1035 B(  0-C , 17-C ) :   1.2234
B(  1-C ,  2-C ) :   1.1039 B(  1-C , 14-C ) :   1.2823 B(  2-C ,  3-C ) :   1.3095
B(  2-C , 13-C ) :   1.2252 B(  3-C ,  4-C ) :   1.1035 B(  3-C , 10-C ) :   1.2837
B(  4-C ,  5-C ) :   1.3117 B(  4-C ,  9-C ) :   1.2212 B(  5-C ,  6-C ) :   1.2806
B(  6-C ,  7-C ) :   1.4021 B(  6-C , 20-C ) :   0.9556 B(  7-C ,  8-N ) :   1.4360
B(  7-C , 21-H ) :   0.9201 B(  8-N ,  9-C ) :   1.5730 B(  9-C , 19-C ) :   0.9882
B( 10-C , 11-C ) :   1.3987 B( 10-C , 19-C ) :   0.9551 B( 11-C , 12-N ) :   1.4392
B( 11-C , 22-H ) :   0.9199 B( 12-N , 13-C ) :   1.5679 B( 13-C , 18-C ) :   0.9886
B( 14-C , 15-C ) :   1.3997 B( 14-C , 18-C ) :   0.9553 B( 15-C , 16-N ) :   1.4376
B( 15-C , 23-H ) :   0.9200 B( 16-N , 17-C ) :   1.5703 B( 17-C , 20-C ) :   0.9880
B( 18-C , 24-H ) :   0.9014 B( 18-C , 25-H ) :   0.8889 B( 19-C , 26-H ) :   0.8890
B( 19-C , 27-H ) :   0.9016 B( 20-C , 28-H ) :   0.8887 B( 20-C , 29-H ) :   0.9020

Dispersion correction           -0.026858093
FINAL SINGLE POINT ENERGY      -853.659096623914

DIPOLE MOMENT
-------------
                                X             Y             Z
Electronic contribution:     -3.52347      -4.21072       1.81574
Nuclear contribution   :      3.62948       4.33116      -1.86388
                        -----------------------------------------
Total Dipole Moment    :      0.10601       0.12044      -0.04815
                        -----------------------------------------
Magnitude (a.u.)       :      0.16752
Magnitude (Debye)      :      0.42580

Rotational constants in cm-1:     0.015881     0.015803     0.008569
Rotational constants in MHz :   476.097727   473.763079   256.886954

                             ****ORCA TERMINATED NORMALLY****
TOTAL RUN TIME: 0 days 0 hours 5 minutes 17 seconds 700 msec
