                         Program Version 5.0.3 -  RELEASE  -
|  1> ! PBEh-3c def2/J TightSCF DefGrid3
|  2>
|  3> %maxcore 60000
|  4>
|  5> %pal
|  6> nprocs 4
|  7> end
|  8>
|  9> *xyzfile 0 1 kr3.xyz
| 10>
| 11>                          ****END OF INPUT****

CARTESIAN COORDINATES (ANGSTROEM)
---------------------------------
  Kr     1.205536    2.088049    0.000000
  Kr     1.205536   -2.088049    0.000000
  Kr    -2.411071    0.000000    0.000000

 Total Charge           Charge          ....    0
 Multiplicity           Mult            ....    1
 Number of Electrons    NEL             ....  108
 Basis Dimension        Dim             ....   96

ORBITAL ENERGIES
----------------

  NO   OCC          E(Eh)            E(eV)
   0   2.0000    -514.486404    -13999.8868
   1   2.0000    -514.486398    -13999.8866
   2   2.0000    -514.486390    -13999.8864
   3   2.0000     -67.849723     -1846.2848
   4   2.0000     -67.849718     -1846.2847
   5   2.0000     -67.849713     -1846.2846
   6   2.0000     -61.311951     -1668.3830
   7   2.0000     -61.311945     -1668.3829
   8   2.0000     -61.311944     -1668.3828
   9   2.0000     -61.311937     -1668.3826
  10   2.0000     -61.311930     -1668.3824
  11   2.0000     -61.311928     -1668.3824
  12   2.0000     -61.311904     -1668.3817
  13   2.0000     -61.311900     -1668.3816
  14   2.0000     -61.311886     -1668.3812
  15   2.0000      -9.985917      -271.7306
  16   2.0000      -9.985914      -271.7305
  17   2.0000      -9.985906      -271.7303
  18   2.0000      -7.630988      -207.6497
  19   2.0000      -7.630987      -207.6497
  20   2.0000      -7.630987      -207.6497
  21   2.0000      -7.630983      -207.6496
  22   2.0000      -7.630983      -207.6496
  23   2.0000      -7.630983      -207.6496
  24   2.0000      -7.630983      -207.6496
  25   2.0000      -7.630983      -207.6496
  26   2.0000      -7.630982      -207.6496
  27   2.0000      -3.404857       -92.6509
  28   2.0000      -3.404855       -92.6508
  29   2.0000      -3.404854       -92.6508
  30   2.0000      -3.404852       -92.6507
  31   2.0000      -3.404852       -92.6507
  32   2.0000      -3.404851       -92.6507
  33   2.0000      -3.404851       -92.6507
  34   2.0000      -3.404850       -92.6507
  35   2.0000      -3.404849       -92.6507
  36   2.0000      -3.404849       -92.6506
  37   2.0000      -3.404848       -92.6506
  38   2.0000      -3.404847       -92.6506
  39   2.0000      -3.404847       -92.6506
  40   2.0000      -3.404846       -92.6506
  41   2.0000      -3.404845       -92.6506
  42   2.0000      -0.970711       -26.4144
  43   2.0000      -0.969265       -26.3750
  44   2.0000      -0.969263       -26.3750
  45   2.0000      -0.439738       -11.9659
  46   2.0000      -0.434369       -11.8198
  47   2.0000      -0.434366       -11.8197
  48   2.0000      -0.431932       -11.7535
  49   2.0000      -0.429902       -11.6982
  50   2.0000      -0.429900       -11.6982
  51   2.0000      -0.426672       -11.6103
  52   2.0000      -0.424300       -11.5458
  53   2.0000      -0.424299       -11.5458
  54   0.0000       0.336721         9.1626
  55   0.0000       0.403589        10.9822
  56   0.0000       0.403591        10.9823
  57   0.0000       0.587287        15.9809
  58   0.0000       0.587630        15.9902

MULLIKEN ATOMIC CHARGES
-----------------------
   0 Kr:   -0.000000
   1 Kr:   -0.000000
   2 Kr:    0.000000
Sum of atomic charges:   -0.0000000

LOEWDIN ATOMIC CHARGES
----------------------
   0 Kr:   -0.000000
   1 Kr:   -0.000000
   2 Kr:    0.000000

Dispersion correction           -0.000736067
FINAL SINGLE POINT ENERGY     -8257.729117043482

DIPOLE MOMENT
-------------
                                X             Y             Z
Electronic contribution:     -0.00001      -0.00000       0.00000
Nuclear contribution   :      0.00000       0.00000       0.00000
                        -----------------------------------------
Total Dipole Moment    :     -0.00001      -0.00000       0.00000
                        -----------------------------------------
Magnitude (a.u.)       :      0.00001
Magnitude (Debye)      :      0.00003

Rotational constants in cm-1:     0.023070     0.023070     0.011535
Rotational constants in MHz :   691.611464   691.611452   345.805729

                             ****ORCA TERMINATED NORMALLY****
TOTAL RUN TIME: 0 days 0 hours 0 minutes 35 seconds 650 msec
