                         Program Version 5.0.3 -  RELEASE  -
|  1> ! PBEh-3c def2/J TightSCF DefGrid3
|  2>
|  3> %maxcore 60000
|  4>
|  5> %pal
|  6> nprocs 4
|  7> end
|  8>
|  9> *xyzfile 0 1 15b.xyz
| 10>
| 11>                          ****END OF INPUT****

CARTESIAN COORDINATES (ANGSTROEM)
---------------------------------
  N      1.027029   -0.217307   -1.455456
  N     -1.244124    0.005701   -1.245901
  H      2.177446   -0.208925    0.277105
  H     -0.072661    1.090015    2.578056
  H     -0.408601   -0.632578    2.695970
  H      1.262813   -0.061815    2.531675
  H     -2.149838    0.120027   -1.680594
  H      1.836898   -0.284953   -2.049022
  C      0.109166    0.029334    0.737214
  C      0.233697    0.107950    2.221558
  C     -1.216903    0.137675    0.146737
  C      1.164622   -0.134534   -0.091709
  C     -0.179962   -0.125201   -2.111078
  O     -0.288219   -0.149847   -3.326318
  O     -2.251361    0.324457    0.771762

 Total Charge           Charge          ....    0
 Multiplicity           Mult            ....    1
 Number of Electrons    NEL             ....   66
 Basis Dimension        Dim             ....  147

ORBITAL ENERGIES
----------------

  NO   OCC          E(Eh)            E(eV)
   0   2.0000     -19.477988      -530.0230
   1   2.0000     -19.477331      -530.0051
   2   2.0000     -14.713104      -400.3639
   3   2.0000     -14.696169      -399.9031
   4   2.0000     -10.605171      -288.5814
   5   2.0000     -10.571045      -287.6528
   6   2.0000     -10.529298      -286.5168
   7   2.0000     -10.474316      -285.0206
   8   2.0000     -10.446406      -284.2612
   9   2.0000      -1.192423       -32.4475
  10   2.0000      -1.156184       -31.4614
  11   2.0000      -1.088725       -29.6257
  12   2.0000      -1.032557       -28.0973
  13   2.0000      -0.918281       -24.9877
  14   2.0000      -0.805829       -21.9277
  15   2.0000      -0.765060       -20.8183
  16   2.0000      -0.746798       -20.3214
  17   2.0000      -0.646083       -17.5808
  18   2.0000      -0.640305       -17.4236
  19   2.0000      -0.590482       -16.0678
  20   2.0000      -0.552301       -15.0289
  21   2.0000      -0.542549       -14.7635
  22   2.0000      -0.508050       -13.8248
  23   2.0000      -0.494405       -13.4534
  24   2.0000      -0.490574       -13.3492
  25   2.0000      -0.466424       -12.6920
  26   2.0000      -0.458818       -12.4851
  27   2.0000      -0.449160       -12.2223
  28   2.0000      -0.416829       -11.3425
  29   2.0000      -0.357208        -9.7201
  30   2.0000      -0.339126        -9.2281
  31   2.0000      -0.327898        -8.9225
  32   2.0000      -0.287626        -7.8267
  33   0.0000      -0.018254        -0.4967
  34   0.0000       0.042050         1.1442
  35   0.0000       0.100371         2.7312
  36   0.0000       0.148757         4.0479
  37   0.0000       0.153985         4.1901

MULLIKEN ATOMIC CHARGES
-----------------------
   0 N :   -0.677444
   1 N :   -0.721285
   2 H :    0.262840
   3 H :    0.248002
   4 H :    0.250716
   5 H :    0.214520
   6 H :    0.398391
   7 H :    0.391156
   8 C :   -0.156550
   9 C :   -0.674500
  10 C :    0.561550
  11 C :    0.044740
  12 C :    0.672543
  13 O :   -0.423081
  14 O :   -0.391598
Sum of atomic charges:    0.0000000

LOEWDIN ATOMIC CHARGES
----------------------
   0 N :   -0.187912
   1 N :   -0.199834
   2 H :    0.146725
   3 H :    0.147586
   4 H :    0.149532
   5 H :    0.131007
   6 H :    0.286638
   7 H :    0.281467
   8 C :   -0.149208
   9 C :   -0.333666
  10 C :    0.129746
  11 C :   -0.025910
  12 C :    0.143551
  13 O :   -0.272223
  14 O :   -0.247501

  Mayer bond orders larger than 0.100000
B(  0-N ,  7-H ) :   0.8089 B(  0-N , 11-C ) :   1.0564 B(  0-N , 12-C ) :   1.0415
B(  1-N ,  6-H ) :   0.7987 B(  1-N , 10-C ) :   0.9917 B(  1-N , 12-C ) :   1.0600
B(  2-H , 11-C ) :   0.9036 B(  3-H ,  9-C ) :   0.9091 B(  4-H ,  9-C ) :   0.9089
B(  5-H ,  9-C ) :   0.9287 B(  8-C ,  9-C ) :   0.9878 B(  8-C , 10-C ) :   1.0202
B(  8-C , 11-C ) :   1.6562 B( 10-C , 14-O ) :   2.0535 B( 12-C , 13-O ) :   2.0370

Dispersion correction           -0.008136426
FINAL SINGLE POINT ENERGY      -453.173945565378

DIPOLE MOMENT
-------------
                                X             Y             Z
Electronic contribution:     -2.56551      -0.15373      -6.40500
Nuclear contribution   :      4.22738       0.02030       6.88512
                        -----------------------------------------
Total Dipole Moment    :      1.66187      -0.13343       0.48012
                        -----------------------------------------
Magnitude (a.u.)       :      1.73497
Magnitude (Debye)      :      4.40994

Rotational constants in cm-1:     0.107121     0.046941     0.032846
Rotational constants in MHz :  3211.416746  1407.261416   984.687774

                             ****ORCA TERMINATED NORMALLY****
TOTAL RUN TIME: 0 days 0 hours 1 minutes 35 seconds 143 msec
