                         Program Version 5.0.3 -  RELEASE  -
|  1> ! PBEh-3c def2/J TightSCF DefGrid3
|  2>
|  3> %maxcore 60000
|  4>
|  5> %pal
|  6> nprocs 4
|  7> end
|  8>
|  9> *xyzfile 0 1 h2s.xyz
| 10>
| 11>                          ****END OF INPUT****

CARTESIAN COORDINATES (ANGSTROEM)
---------------------------------
  H     -0.960104    0.000000   -0.307850
  S      0.000000    0.000000    0.615700
  H      0.960104    0.000000   -0.307850

 Total Charge           Charge          ....    0
 Multiplicity           Mult            ....    1
 Number of Electrons    NEL             ....   18
 Basis Dimension        Dim             ....   22

ORBITAL ENERGIES
----------------

  NO   OCC          E(Eh)            E(eV)
   0   2.0000     -89.581087     -2437.6253
   1   2.0000      -8.224782      -223.8077
   2   2.0000      -6.115415      -166.4089
   3   2.0000      -6.112758      -166.3366
   4   2.0000      -6.106877      -166.1766
   5   2.0000      -0.824571       -22.4377
   6   2.0000      -0.500816       -13.6279
   7   2.0000      -0.413426       -11.2499
   8   2.0000      -0.303340        -8.2543
   9   0.0000       0.068142         1.8542
  10   0.0000       0.107592         2.9277
  11   0.0000       0.429971        11.7001
  12   0.0000       0.550938        14.9918
  13   0.0000       0.628213        17.0945

MULLIKEN ATOMIC CHARGES
-----------------------
   0 H :    0.188804
   1 S :   -0.377607
   2 H :    0.188804
Sum of atomic charges:   -0.0000000

LOEWDIN ATOMIC CHARGES
----------------------
   0 H :    0.104806
   1 S :   -0.209612
   2 H :    0.104806

  Mayer bond orders larger than 0.100000
B(  0-H ,  1-S ) :   0.9338 B(  1-S ,  2-H ) :   0.9338

Dispersion correction           -0.000417794
FINAL SINGLE POINT ENERGY      -398.931691386443

DIPOLE MOMENT
-------------
                                X             Y             Z
Electronic contribution:     -0.00000       0.00000       1.04401
Nuclear contribution   :      0.00000       0.00000      -1.63197
                        -----------------------------------------
Total Dipole Moment    :     -0.00000       0.00000      -0.58795
                        -----------------------------------------
Magnitude (a.u.)       :      0.58795
Magnitude (Debye)      :      1.49446

Rotational constants in cm-1:    10.420070     9.071308     4.849512
Rotational constants in MHz : 312385.841962 271950.967695 145384.700419

                             ****ORCA TERMINATED NORMALLY****
TOTAL RUN TIME: 0 days 0 hours 1 minutes 4 seconds 737 msec
