                         Program Version 5.0.3 -  RELEASE  -
|  1> ! PBEh-3c def2/J TightSCF DefGrid3
|  2>
|  3> %maxcore 60000
|  4>
|  5> %pal
|  6> nprocs 4
|  7> end
|  8>
|  9> *xyzfile -1 1 19.xyz
| 10>
| 11>                          ****END OF INPUT****

CARTESIAN COORDINATES (ANGSTROEM)
---------------------------------
  O      1.380508   -0.614276    0.645537
  O      0.759996    1.341651   -0.384163
  C      0.562372    0.172403    0.094221
  H     -0.500100   -0.194260    0.001452
  H      2.304994    2.015235   -0.288666
  O      3.236864    2.376506   -0.262225
  C      4.087152    1.237324   -0.326917
  H      5.052092    1.493098    0.146055
  H      3.638988    0.374565    0.194738
  H      4.294164    0.938419   -1.375632

 Total Charge           Charge          ....   -1
 Multiplicity           Mult            ....    1
 Number of Electrons    NEL             ....   42
 Basis Dimension        Dim             ....   85

ORBITAL ENERGIES
----------------

  NO   OCC          E(Eh)            E(eV)
   0   2.0000     -19.277159      -524.5582
   1   2.0000     -19.246654      -523.7281
   2   2.0000     -19.240016      -523.5475
   3   2.0000     -10.339686      -281.3571
   4   2.0000     -10.302521      -280.3458
   5   2.0000      -0.927280       -25.2326
   6   2.0000      -0.907486       -24.6939
   7   2.0000      -0.839434       -22.8422
   8   2.0000      -0.573195       -15.5974
   9   2.0000      -0.432738       -11.7754
  10   2.0000      -0.364710        -9.9243
  11   2.0000      -0.315424        -8.5831
  12   2.0000      -0.309134        -8.4120
  13   2.0000      -0.296766        -8.0754
  14   2.0000      -0.270713        -7.3665
  15   2.0000      -0.246613        -6.7107
  16   2.0000      -0.197375        -5.3708
  17   2.0000      -0.131432        -3.5764
  18   2.0000      -0.105597        -2.8735
  19   2.0000      -0.104974        -2.8565
  20   2.0000      -0.096832        -2.6349
  21   0.0000       0.282809         7.6956
  22   0.0000       0.330729         8.9996
  23   0.0000       0.365962         9.9583
  24   0.0000       0.379611        10.3297
  25   0.0000       0.386724        10.5233

MULLIKEN ATOMIC CHARGES
-----------------------
   0 O :   -0.561476
   1 O :   -0.598014
   2 C :    0.271760
   3 H :    0.025895
   4 H :    0.448968
   5 O :   -0.709990
   6 C :   -0.355075
   7 H :    0.130562
   8 H :    0.225124
   9 H :    0.122245
Sum of atomic charges:   -1.0000000

LOEWDIN ATOMIC CHARGES
----------------------
   0 O :   -0.425050
   1 O :   -0.440134
   2 C :    0.003086
   3 H :   -0.000280
   4 H :    0.305131
   5 O :   -0.495476
   6 C :   -0.205191
   7 H :    0.074914
   8 H :    0.117584
   9 H :    0.065417

  Mayer bond orders larger than 0.100000
B(  0-O ,  1-O ) :   0.1407 B(  0-O ,  2-C ) :   1.7936 B(  1-O ,  2-C ) :   1.6235
B(  1-O ,  4-H ) :   0.1868 B(  2-C ,  3-H ) :   0.8734 B(  4-H ,  5-O ) :   0.6262
B(  5-O ,  6-C ) :   1.0677 B(  6-C ,  7-H ) :   0.9351 B(  6-C ,  8-H ) :   0.8887
B(  6-C ,  9-H ) :   0.9211

Dispersion correction           -0.002970132
FINAL SINGLE POINT ENERGY      -304.284638040717

DIPOLE MOMENT
-------------
                                X             Y             Z
Electronic contribution:     -3.84297      -0.14727       0.76470
Nuclear contribution   :      4.32081       0.00829      -0.98586
                        -----------------------------------------
Total Dipole Moment    :      0.47784      -0.13898      -0.22116
                        -----------------------------------------
Magnitude (a.u.)       :      0.54457
Magnitude (Debye)      :      1.38420

Rotational constants in cm-1:     0.281788     0.084592     0.067258
Rotational constants in MHz :  8447.777588  2536.011979  2016.339021

                             ****ORCA TERMINATED NORMALLY****
TOTAL RUN TIME: 0 days 0 hours 0 minutes 45 seconds 241 msec
