                         Program Version 5.0.3 -  RELEASE  -
|  1> ! PBEh-3c def2/J TightSCF DefGrid3
|  2>
|  3> %maxcore 60000
|  4>
|  5> %pal
|  6> nprocs 4
|  7> end
|  8>
|  9> *xyzfile 0 1 i10p.xyz
| 10>
| 11>                          ****END OF INPUT****

CARTESIAN COORDINATES (ANGSTROEM)
---------------------------------
  C     -1.510310    0.626061    0.264974
  C     -2.647988    0.706498    1.089949
  C     -3.846046    0.110962    0.699860
  C     -3.935991   -0.578655   -0.516584
  C     -2.805941   -0.658307   -1.333195
  C     -1.595940   -0.063302   -0.956521
  O     -0.398117    1.242096    0.769743
  C      0.892904    1.240085    0.072058
  C      1.396510   -0.174142   -0.288780
  C      1.221239   -1.251971    0.505556
  C      0.555288   -1.243128    1.865290
  C      1.656564   -2.652931    0.116523
  C      2.163079   -0.236984   -1.593700
  C      0.754669    2.195960   -1.132486
  C      1.856381    1.877649    1.085823
  H     -2.567102    1.239758    2.034419
  H     -4.714664    0.184807    1.352021
  H     -4.870572   -1.045028   -0.819970
  H     -2.855713   -1.191178   -2.281394
  H     -0.731976   -0.158677   -1.601214
  H     -0.460622   -1.659924    1.787258
  H      0.470455   -0.253999    2.313645
  H      1.117594   -1.898780    2.546822
  H      1.785698   -2.797977   -0.959880
  H      2.600658   -2.922293    0.616591
  H      0.902564   -3.375457    0.459575
  H      2.681185   -1.187553   -1.734591
  H      2.926114    0.553778   -1.624591
  H      1.508894   -0.068275   -2.462845
  H      0.097386    1.795931   -1.908912
  H      1.732379    2.408944   -1.576611
  H      0.327543    3.135605   -0.765877
  H      1.932278    1.262694    1.987078
  H      1.510011    2.882700    1.358268
  H      2.851590    1.955036    0.631697

 Total Charge           Charge          ....    0
 Multiplicity           Mult            ....    1
 Number of Electrons    NEL             ....  112
 Basis Dimension        Dim             ....  265

ORBITAL ENERGIES
----------------

  NO   OCC          E(Eh)            E(eV)
   0   2.0000     -19.516594      -531.0735
   1   2.0000     -10.517932      -286.2075
   2   2.0000     -10.505569      -285.8711
   3   2.0000     -10.452477      -284.4264
   4   2.0000     -10.448084      -284.3068
   5   2.0000     -10.445803      -284.2447
   6   2.0000     -10.444878      -284.2196
   7   2.0000     -10.440262      -284.0940
   8   2.0000     -10.437362      -284.0151
   9   2.0000     -10.436892      -284.0023
  10   2.0000     -10.436600      -283.9943
  11   2.0000     -10.431663      -283.8600
  12   2.0000     -10.431413      -283.8532
  13   2.0000     -10.430812      -283.8368
  14   2.0000     -10.422281      -283.6047
  15   2.0000      -1.158439       -31.5227
  16   2.0000      -0.943233       -25.6667
  17   2.0000      -0.920610       -25.0511
  18   2.0000      -0.875125       -23.8133
  19   2.0000      -0.829142       -22.5621
  20   2.0000      -0.823280       -22.4026
  21   2.0000      -0.804692       -21.8968
  22   2.0000      -0.775052       -21.0902
  23   2.0000      -0.763637       -20.7796
  24   2.0000      -0.726400       -19.7663
  25   2.0000      -0.690637       -18.7932
  26   2.0000      -0.673570       -18.3288
  27   2.0000      -0.639954       -17.4140
  28   2.0000      -0.605011       -16.4632
  29   2.0000      -0.556828       -15.1521
  30   2.0000      -0.543359       -14.7855
  31   2.0000      -0.529669       -14.4130
  32   2.0000      -0.524910       -14.2835
  33   2.0000      -0.511732       -13.9249
  34   2.0000      -0.492567       -13.4034
  35   2.0000      -0.488478       -13.2922
  36   2.0000      -0.481964       -13.1149
  37   2.0000      -0.470214       -12.7952
  38   2.0000      -0.461867       -12.5680
  39   2.0000      -0.459715       -12.5095
  40   2.0000      -0.451274       -12.2798
  41   2.0000      -0.449550       -12.2329
  42   2.0000      -0.439944       -11.9715
  43   2.0000      -0.431533       -11.7426
  44   2.0000      -0.426141       -11.5959
  45   2.0000      -0.422809       -11.5052
  46   2.0000      -0.416216       -11.3258
  47   2.0000      -0.410549       -11.1716
  48   2.0000      -0.401900       -10.9363
  49   2.0000      -0.395058       -10.7501
  50   2.0000      -0.386522       -10.5178
  51   2.0000      -0.359215        -9.7747
  52   2.0000      -0.351970        -9.5776
  53   2.0000      -0.288330        -7.8459
  54   2.0000      -0.265005        -7.2112
  55   2.0000      -0.252832        -6.8799
  56   0.0000       0.024138         0.6568
  57   0.0000       0.037790         1.0283
  58   0.0000       0.045784         1.2459
  59   0.0000       0.115915         3.1542
  60   0.0000       0.133645         3.6367

MULLIKEN ATOMIC CHARGES
-----------------------
   0 C :    0.399751
   1 C :   -0.314959
   2 C :   -0.210820
   3 C :   -0.244388
   4 C :   -0.216059
   5 C :   -0.307593
   6 O :   -0.507207
   7 C :    0.128045
   8 C :    0.042505
   9 C :    0.078831
  10 C :   -0.719468
  11 C :   -0.703313
  12 C :   -0.713488
  13 C :   -0.647867
  14 C :   -0.617040
  15 H :    0.230133
  16 H :    0.215954
  17 H :    0.213469
  18 H :    0.215411
  19 H :    0.240504
  20 H :    0.243586
  21 H :    0.245682
  22 H :    0.220486
  23 H :    0.223066
  24 H :    0.225872
  25 H :    0.231810
  26 H :    0.238866
  27 H :    0.222485
  28 H :    0.219714
  29 H :    0.233627
  30 H :    0.215812
  31 H :    0.243689
  32 H :    0.236677
  33 H :    0.225235
  34 H :    0.210993
Sum of atomic charges:    0.0000000

LOEWDIN ATOMIC CHARGES
----------------------
   0 C :    0.079313
   1 C :   -0.163064
   2 C :   -0.128043
   3 C :   -0.166544
   4 C :   -0.126899
   5 C :   -0.183786
   6 O :   -0.176578
   7 C :    0.058561
   8 C :   -0.097142
   9 C :   -0.053143
  10 C :   -0.357266
  11 C :   -0.351090
  12 C :   -0.345321
  13 C :   -0.353516
  14 C :   -0.337029
  15 H :    0.143598
  16 H :    0.135492
  17 H :    0.133788
  18 H :    0.134660
  19 H :    0.141807
  20 H :    0.145351
  21 H :    0.138298
  22 H :    0.129510
  23 H :    0.129632
  24 H :    0.136150
  25 H :    0.136142
  26 H :    0.134819
  27 H :    0.130216
  28 H :    0.128020
  29 H :    0.133259
  30 H :    0.130322
  31 H :    0.141350
  32 H :    0.136175
  33 H :    0.132383
  34 H :    0.130572

  Mayer bond orders larger than 0.100000
B(  0-C ,  1-C ) :   1.3652 B(  0-C ,  5-C ) :   1.3377 B(  0-C ,  6-O ) :   1.0154
B(  1-C ,  2-C ) :   1.4516 B(  1-C , 15-H ) :   0.9116 B(  2-C ,  3-C ) :   1.4078
B(  2-C , 16-H ) :   0.9213 B(  3-C ,  4-C ) :   1.4392 B(  3-C , 17-H ) :   0.9205
B(  4-C ,  5-C ) :   1.4192 B(  4-C , 18-H ) :   0.9218 B(  5-C , 19-H ) :   0.8988
B(  6-O ,  7-C ) :   0.8590 B(  7-C ,  8-C ) :   0.9451 B(  7-C , 13-C ) :   0.9901
B(  7-C , 14-C ) :   0.9918 B(  8-C ,  9-C ) :   1.8299 B(  8-C , 12-C ) :   0.9627
B(  9-C , 10-C ) :   0.9855 B(  9-C , 11-C ) :   0.9739 B( 10-C , 20-H ) :   0.9033
B( 10-C , 21-H ) :   0.9069 B( 10-C , 22-H ) :   0.9194 B( 11-C , 23-H ) :   0.9246
B( 11-C , 24-H ) :   0.9132 B( 11-C , 25-H ) :   0.9191 B( 12-C , 26-H ) :   0.9195
B( 12-C , 27-H ) :   0.9169 B( 12-C , 28-H ) :   0.9102 B( 13-C , 29-H ) :   0.9159
B( 13-C , 30-H ) :   0.9127 B( 13-C , 31-H ) :   0.9160 B( 14-C , 32-H ) :   0.9167
B( 14-C , 33-H ) :   0.9174 B( 14-C , 34-H ) :   0.9206

Dispersion correction           -0.024311320
FINAL SINGLE POINT ENERGY      -619.381507648611

DIPOLE MOMENT
-------------
                                X             Y             Z
Electronic contribution:    -11.76679       2.47318       1.28972
Nuclear contribution   :     12.31186      -2.65907      -1.53500
                        -----------------------------------------
Total Dipole Moment    :      0.54507      -0.18589      -0.24528
                        -----------------------------------------
Magnitude (a.u.)       :      0.62596
Magnitude (Debye)      :      1.59106

Rotational constants in cm-1:     0.028773     0.015209     0.013607
Rotational constants in MHz :   862.599373   455.948448   407.920192

                             ****ORCA TERMINATED NORMALLY****
TOTAL RUN TIME: 0 days 0 hours 4 minutes 40 seconds 289 msec
