                         Program Version 5.0.3 -  RELEASE  -
|  1> ! PBEh-3c def2/J TightSCF DefGrid3
|  2>
|  3> %maxcore 60000
|  4>
|  5> %pal
|  6> nprocs 4
|  7> end
|  8>
|  9> *xyzfile 0 1 LEU_xae.xyz
| 10>
| 11>                          ****END OF INPUT****

CARTESIAN COORDINATES (ANGSTROEM)
---------------------------------
  N     -1.434442   -0.040035   -0.427027
  C     -0.021217   -0.306727   -0.187463
  C      0.745760    1.007499   -0.386145
  O      1.286166    1.305922   -1.446090
  C      0.476992   -1.403997   -1.114711
  C      1.704064   -2.159456   -0.590437
  C      2.869154   -1.234536   -0.251366
  C      1.350193   -3.036314    0.607318
  H     -1.787966   -0.136771   -1.364187
  H      0.049760   -0.606885    0.857696
  H      0.704902   -0.947055   -2.079343
  H     -0.333815   -2.122215   -1.258178
  H      2.024919   -2.819178   -1.400758
  H      2.624802   -0.593414    0.597737
  H      3.745413   -1.820462    0.025822
  H      3.127840   -0.590986   -1.089834
  H      1.044408   -2.434241    1.463785
  H      2.211866   -3.626553    0.918276
  H      0.537057   -3.723130    0.371476
  N      0.732969    1.804678    0.707094
  H      0.057697    1.566340    1.423102
  C      1.258675    3.151937    0.630995
  H      0.591616    3.820791    0.085946
  H      1.404939    3.533185    1.637152
  H      2.211471    3.129246    0.110470
  C     -2.233435    0.484776    0.534384
  O     -1.819015    0.746642    1.664052
  C     -3.670957    0.713693    0.142791
  H     -3.895864    1.771792    0.254547
  H     -4.306600    0.166070    0.834218
  H     -3.894167    0.403025   -0.874692

 Total Charge           Charge          ....    0
 Multiplicity           Mult            ....    1
 Number of Electrons    NEL             ....  102
 Basis Dimension        Dim             ....  231

ORBITAL ENERGIES
----------------

  NO   OCC          E(Eh)            E(eV)
   0   2.0000     -19.469479      -529.7914
   1   2.0000     -19.453535      -529.3576
   2   2.0000     -14.676933      -399.3797
   3   2.0000     -14.649178      -398.6244
   4   2.0000     -10.561785      -287.4008
   5   2.0000     -10.536874      -286.7229
   6   2.0000     -10.487336      -285.3749
   7   2.0000     -10.458509      -284.5905
   8   2.0000     -10.451776      -284.4073
   9   2.0000     -10.442906      -284.1659
  10   2.0000     -10.436747      -283.9983
  11   2.0000     -10.421914      -283.5947
  12   2.0000     -10.414375      -283.3896
  13   2.0000      -1.155623       -31.4461
  14   2.0000      -1.135112       -30.8880
  15   2.0000      -1.037697       -28.2372
  16   2.0000      -1.011430       -27.5224
  17   2.0000      -0.910905       -24.7870
  18   2.0000      -0.859865       -23.3981
  19   2.0000      -0.815697       -22.1963
  20   2.0000      -0.787678       -21.4338
  21   2.0000      -0.761729       -20.7277
  22   2.0000      -0.724504       -19.7147
  23   2.0000      -0.675123       -18.3710
  24   2.0000      -0.642427       -17.4813
  25   2.0000      -0.625029       -17.0079
  26   2.0000      -0.600913       -16.3517
  27   2.0000      -0.565558       -15.3896
  28   2.0000      -0.557576       -15.1724
  29   2.0000      -0.525722       -14.3056
  30   2.0000      -0.519416       -14.1340
  31   2.0000      -0.505439       -13.7537
  32   2.0000      -0.499410       -13.5896
  33   2.0000      -0.493557       -13.4304
  34   2.0000      -0.487937       -13.2774
  35   2.0000      -0.473183       -12.8760
  36   2.0000      -0.466695       -12.6994
  37   2.0000      -0.457916       -12.4605
  38   2.0000      -0.443423       -12.0662
  39   2.0000      -0.439622       -11.9627
  40   2.0000      -0.429245       -11.6804
  41   2.0000      -0.426291       -11.6000
  42   2.0000      -0.413187       -11.2434
  43   2.0000      -0.408456       -11.1146
  44   2.0000      -0.377350       -10.2682
  45   2.0000      -0.371737       -10.1155
  46   2.0000      -0.366942        -9.9850
  47   2.0000      -0.335611        -9.1325
  48   2.0000      -0.321405        -8.7459
  49   2.0000      -0.298968        -8.1353
  50   2.0000      -0.288493        -7.8503
  51   0.0000       0.042692         1.1617
  52   0.0000       0.065382         1.7791
  53   0.0000       0.116376         3.1668
  54   0.0000       0.129528         3.5246
  55   0.0000       0.154582         4.2064

MULLIKEN ATOMIC CHARGES
-----------------------
   0 N :   -0.624264
   1 C :   -0.199574
   2 C :    0.561129
   3 O :   -0.437279
   4 C :   -0.450784
   5 C :   -0.239696
   6 C :   -0.653543
   7 C :   -0.632545
   8 H :    0.365809
   9 H :    0.265835
  10 H :    0.258588
  11 H :    0.215366
  12 H :    0.220289
  13 H :    0.209040
  14 H :    0.218582
  15 H :    0.249501
  16 H :    0.209741
  17 H :    0.222356
  18 H :    0.213920
  19 N :   -0.641298
  20 H :    0.399411
  21 C :   -0.491729
  22 H :    0.219919
  23 H :    0.220055
  24 H :    0.247858
  25 C :    0.539679
  26 O :   -0.462377
  27 C :   -0.744494
  28 H :    0.260129
  29 H :    0.264021
  30 H :    0.216354
Sum of atomic charges:   -0.0000000

LOEWDIN ATOMIC CHARGES
----------------------
   0 N :   -0.210458
   1 C :   -0.091814
   2 C :    0.100505
   3 O :   -0.282510
   4 C :   -0.236204
   5 C :   -0.156558
   6 C :   -0.358058
   7 C :   -0.355873
   8 H :    0.261072
   9 H :    0.143766
  10 H :    0.145198
  11 H :    0.124933
  12 H :    0.124595
  13 H :    0.124336
  14 H :    0.125237
  15 H :    0.140829
  16 H :    0.122365
  17 H :    0.128615
  18 H :    0.124109
  19 N :   -0.248546
  20 H :    0.266705
  21 C :   -0.254109
  22 H :    0.120293
  23 H :    0.126042
  24 H :    0.141727
  25 C :    0.113232
  26 O :   -0.303196
  27 C :   -0.384218
  28 H :    0.158253
  29 H :    0.160396
  30 H :    0.129337

  Mayer bond orders larger than 0.100000
B(  0-N ,  1-C ) :   0.9169 B(  0-N ,  8-H ) :   0.8198 B(  0-N , 25-C ) :   1.1716
B(  1-C ,  2-C ) :   0.8723 B(  1-C ,  4-C ) :   0.9625 B(  1-C ,  9-H ) :   0.8775
B(  2-C ,  3-O ) :   1.9514 B(  2-C , 19-N ) :   1.1616 B(  4-C ,  5-C ) :   0.9885
B(  4-C , 10-H ) :   0.8910 B(  4-C , 11-H ) :   0.9197 B(  5-C ,  6-C ) :   0.9876
B(  5-C ,  7-C ) :   0.9869 B(  5-C , 12-H ) :   0.9115 B(  6-C , 13-H ) :   0.9192
B(  6-C , 14-H ) :   0.9271 B(  6-C , 15-H ) :   0.9146 B(  7-C , 16-H ) :   0.9208
B(  7-C , 17-H ) :   0.9287 B(  7-C , 18-H ) :   0.9308 B( 19-N , 20-H ) :   0.7522
B( 19-N , 21-C ) :   0.9632 B( 21-C , 22-H ) :   0.9177 B( 21-C , 23-H ) :   0.9261
B( 21-C , 24-H ) :   0.9117 B( 25-C , 26-O ) :   1.8928 B( 25-C , 27-C ) :   0.9320
B( 27-C , 28-H ) :   0.9074 B( 27-C , 29-H ) :   0.9071 B( 27-C , 30-H ) :   0.9214

Dispersion correction           -0.018670226
FINAL SINGLE POINT ENERGY      -612.478486396995

DIPOLE MOMENT
-------------
                                X             Y             Z
Electronic contribution:     -5.04274       6.09490      -0.62166
Nuclear contribution   :      4.12919      -6.41141       0.43673
                        -----------------------------------------
Total Dipole Moment    :     -0.91355      -0.31651      -0.18493
                        -----------------------------------------
Magnitude (a.u.)       :      0.98435
Magnitude (Debye)      :      2.50201

Rotational constants in cm-1:     0.030322     0.019650     0.014458
Rotational constants in MHz :   909.023499   589.097857   433.449626

                             ****ORCA TERMINATED NORMALLY****
TOTAL RUN TIME: 0 days 0 hours 3 minutes 47 seconds 627 msec
