                         Program Version 5.0.3 -  RELEASE  -
|  1> ! PBEh-3c def2/J TightSCF DefGrid3
|  2>
|  3> %maxcore 60000
|  4>
|  5> %pal
|  6> nprocs 4
|  7> end
|  8>
|  9> *xyzfile 0 1 ch2o.xyz
| 10>
| 11>                          ****END OF INPUT****

CARTESIAN COORDINATES (ANGSTROEM)
---------------------------------
  C      0.000000    0.000000    0.007614
  O      0.000000    0.000000   -1.202313
  H      0.941600    0.000000    0.597349
  H     -0.941600    0.000000    0.597349

 Total Charge           Charge          ....    0
 Multiplicity           Mult            ....    1
 Number of Electrons    NEL             ....   16
 Basis Dimension        Dim             ....   34

ORBITAL ENERGIES
----------------

  NO   OCC          E(Eh)            E(eV)
   0   2.0000     -19.516100      -531.0601
   1   2.0000     -10.545205      -286.9496
   2   2.0000      -1.169102       -31.8129
   3   2.0000      -0.713326       -19.4106
   4   2.0000      -0.562128       -15.2963
   5   2.0000      -0.517321       -14.0770
   6   2.0000      -0.452116       -12.3027
   7   2.0000      -0.327252        -8.9050
   8   0.0000      -0.009046        -0.2462
   9   0.0000       0.152030         4.1370
  10   0.0000       0.249013         6.7760
  11   0.0000       0.254701         6.9308
  12   0.0000       0.503303        13.6956

MULLIKEN ATOMIC CHARGES
-----------------------
   0 C :   -0.029862
   1 O :   -0.290759
   2 H :    0.160311
   3 H :    0.160311
Sum of atomic charges:   -0.0000000

LOEWDIN ATOMIC CHARGES
----------------------
   0 C :   -0.000786
   1 O :   -0.169845
   2 H :    0.085315
   3 H :    0.085315

  Mayer bond orders larger than 0.100000
B(  0-C ,  1-O ) :   2.1268 B(  0-C ,  2-H ) :   0.8611 B(  0-C ,  3-H ) :   0.8611

Dispersion correction           -0.000600872
FINAL SINGLE POINT ENERGY      -114.250592156702

DIPOLE MOMENT
-------------
                                X             Y             Z
Electronic contribution:      0.00000       0.00000      -1.29869
Nuclear contribution   :      0.00000       0.00000       2.23299
                        -----------------------------------------
Total Dipole Moment    :      0.00000       0.00000       0.93430
                        -----------------------------------------
Magnitude (a.u.)       :      0.93430
Magnitude (Debye)      :      2.37480

Rotational constants in cm-1:     9.431340     1.284041     1.130173
Rotational constants in MHz : 282744.446978 38494.590103 33881.721503

                             ****ORCA TERMINATED NORMALLY****
TOTAL RUN TIME: 0 days 0 hours 0 minutes 32 seconds 44 msec
