                         Program Version 5.0.3 -  RELEASE  -
|  1> ! PBEh-3c def2/J TightSCF DefGrid3
|  2>
|  3> %maxcore 60000
|  4>
|  5> %pal
|  6> nprocs 4
|  7> end
|  8>
|  9> *xyzfile 0 1 methanol.xyz
| 10>
| 11>                          ****END OF INPUT****

CARTESIAN COORDINATES (ANGSTROEM)
---------------------------------
  C      0.727234   -0.013086    0.000000
  H      1.097629    1.009627   -0.000000
  H      1.111272   -0.518971    0.889854
  H      1.111272   -0.518971   -0.889854
  O     -0.689943    0.063878    0.000000
  H     -1.034368   -0.829735    0.000000

 Total Charge           Charge          ....    0
 Multiplicity           Mult            ....    1
 Number of Electrons    NEL             ....   18
 Basis Dimension        Dim             ....   38

ORBITAL ENERGIES
----------------

  NO   OCC          E(Eh)            E(eV)
   0   2.0000     -19.481802      -530.1268
   1   2.0000     -10.473623      -285.0018
   2   2.0000      -1.118286       -30.4301
   3   2.0000      -0.760551       -20.6957
   4   2.0000      -0.566957       -15.4277
   5   2.0000      -0.497641       -13.5415
   6   2.0000      -0.479883       -13.0583
   7   2.0000      -0.387798       -10.5525
   8   2.0000      -0.325302        -8.8519
   9   0.0000       0.131177         3.5695
  10   0.0000       0.194101         5.2817
  11   0.0000       0.219110         5.9623
  12   0.0000       0.232915         6.3379
  13   0.0000       0.239026         6.5042

MULLIKEN ATOMIC CHARGES
-----------------------
   0 C :   -0.369733
   1 H :    0.218031
   2 H :    0.183428
   3 H :    0.183428
   4 O :   -0.628186
   5 H :    0.413031
Sum of atomic charges:   -0.0000000

LOEWDIN ATOMIC CHARGES
----------------------
   0 C :   -0.197495
   1 H :    0.122333
   2 H :    0.097232
   3 H :    0.097232
   4 O :   -0.424444
   5 H :    0.305142

  Mayer bond orders larger than 0.100000
B(  0-C ,  1-H ) :   0.9249 B(  0-C ,  2-H ) :   0.9182 B(  0-C ,  3-H ) :   0.9182
B(  0-C ,  4-O ) :   1.0155 B(  4-O ,  5-H ) :   0.7970

Dispersion correction           -0.001080946
FINAL SINGLE POINT ENERGY      -115.467050122416

DIPOLE MOMENT
-------------
                                X             Y             Z
Electronic contribution:     -1.78512       0.19982       0.00000
Nuclear contribution   :      2.13423      -0.80405       0.00000
                        -----------------------------------------
Total Dipole Moment    :      0.34911      -0.60422       0.00000
                        -----------------------------------------
Magnitude (a.u.)       :      0.69783
Magnitude (Debye)      :      1.77373

Rotational constants in cm-1:     4.291520     0.828508     0.799607
Rotational constants in MHz : 128656.531794 24838.047995 23971.607704

                             ****ORCA TERMINATED NORMALLY****
TOTAL RUN TIME: 0 days 0 hours 0 minutes 49 seconds 504 msec
