                         Program Version 5.0.3 -  RELEASE  -
|  1> ! PBEh-3c def2/J TightSCF DefGrid3
|  2>
|  3> %maxcore 60000
|  4>
|  5> %pal
|  6> nprocs 4
|  7> end
|  8>
|  9> *xyzfile 0 1 B47.xyz
| 10>
| 11>                          ****END OF INPUT****

CARTESIAN COORDINATES (ANGSTROEM)
---------------------------------
  C      1.400066   -0.064138    0.492426
  H      0.917962   -0.915860    0.970479
  O      2.623833   -0.576937   -0.025192
  C      0.510804    0.530445   -0.592845
  H      1.059372    1.338087   -1.085789
  H      0.330223   -0.225837   -1.359567
  C     -0.816097    1.083959   -0.066318
  H     -1.351497    1.565631   -0.885949
  H     -0.621379    1.853015    0.687482
  H      3.083023    0.152189   -0.450893
  H      1.586157    0.683461    1.271665
  C     -1.734433    0.031350    0.549522
  H     -1.281161   -0.406201    1.443932
  H     -2.667155    0.500803    0.857779
  O     -2.109241   -0.986530   -0.374685
  H     -1.334331   -1.527247   -0.546836

 Total Charge           Charge          ....    0
 Multiplicity           Mult            ....    1
 Number of Electrons    NEL             ....   50
 Basis Dimension        Dim             ....  110

ORBITAL ENERGIES
----------------

  NO   OCC          E(Eh)            E(eV)
   0   2.0000     -19.489411      -530.3338
   1   2.0000     -19.485993      -530.2408
   2   2.0000     -10.486640      -285.3560
   3   2.0000     -10.482928      -285.2550
   4   2.0000     -10.442079      -284.1434
   5   2.0000     -10.439838      -284.0824
   6   2.0000      -1.126430       -30.6517
   7   2.0000      -1.122353       -30.5408
   8   2.0000      -0.888589       -24.1797
   9   2.0000      -0.798057       -21.7162
  10   2.0000      -0.725309       -19.7367
  11   2.0000      -0.657673       -17.8962
  12   2.0000      -0.579590       -15.7715
  13   2.0000      -0.574787       -15.6407
  14   2.0000      -0.530497       -14.4356
  15   2.0000      -0.501721       -13.6525
  16   2.0000      -0.493113       -13.4183
  17   2.0000      -0.477494       -12.9933
  18   2.0000      -0.442546       -12.0423
  19   2.0000      -0.421921       -11.4811
  20   2.0000      -0.403522       -10.9804
  21   2.0000      -0.386281       -10.5112
  22   2.0000      -0.370891       -10.0925
  23   2.0000      -0.330637        -8.9971
  24   2.0000      -0.323311        -8.7977
  25   0.0000       0.100297         2.7292
  26   0.0000       0.127750         3.4763
  27   0.0000       0.155047         4.2190
  28   0.0000       0.169486         4.6119
  29   0.0000       0.192893         5.2489

MULLIKEN ATOMIC CHARGES
-----------------------
   0 C :   -0.133795
   1 H :    0.201573
   2 O :   -0.621124
   3 C :   -0.488762
   4 H :    0.213353
   5 H :    0.220258
   6 C :   -0.450784
   7 H :    0.236089
   8 H :    0.204055
   9 H :    0.409112
  10 H :    0.180065
  11 C :   -0.165369
  12 H :    0.181307
  13 H :    0.222873
  14 O :   -0.624829
  15 H :    0.415978
Sum of atomic charges:    0.0000000

LOEWDIN ATOMIC CHARGES
----------------------
   0 C :   -0.097455
   1 H :    0.114432
   2 O :   -0.409499
   3 C :   -0.273826
   4 H :    0.123666
   5 H :    0.125174
   6 C :   -0.265183
   7 H :    0.134499
   8 H :    0.124624
   9 H :    0.306286
  10 H :    0.098176
  11 C :   -0.095486
  12 H :    0.096857
  13 H :    0.123103
  14 O :   -0.412303
  15 H :    0.306935

  Mayer bond orders larger than 0.100000
B(  0-C ,  1-H ) :   0.9139 B(  0-C ,  2-O ) :   1.0205 B(  0-C ,  3-C ) :   0.9733
B(  0-C , 10-H ) :   0.9081 B(  2-O ,  9-H ) :   0.7942 B(  3-C ,  4-H ) :   0.9234
B(  3-C ,  5-H ) :   0.9072 B(  3-C ,  6-C ) :   0.9689 B(  6-C ,  7-H ) :   0.9133
B(  6-C ,  8-H ) :   0.9101 B(  6-C , 11-C ) :   0.9598 B( 11-C , 12-H ) :   0.9116
B( 11-C , 13-H ) :   0.9178 B( 11-C , 14-O ) :   1.0204 B( 14-O , 15-H ) :   0.7886

Dispersion correction           -0.006762746
FINAL SINGLE POINT ENERGY      -308.206192151357

DIPOLE MOMENT
-------------
                                X             Y             Z
Electronic contribution:      0.68604      -2.36056      -0.82728
Nuclear contribution   :     -0.28203       3.11900       0.93360
                        -----------------------------------------
Total Dipole Moment    :      0.40401       0.75844       0.10632
                        -----------------------------------------
Magnitude (a.u.)       :      0.86589
Magnitude (Debye)      :      2.20091

Rotational constants in cm-1:     0.229260     0.055731     0.051164
Rotational constants in MHz :  6873.051210  1670.763355  1533.860802

                             ****ORCA TERMINATED NORMALLY****
TOTAL RUN TIME: 0 days 0 hours 1 minutes 38 seconds 228 msec
