                         Program Version 5.0.3 -  RELEASE  -
|  1> ! PBEh-3c def2/J TightSCF DefGrid3
|  2>
|  3> %maxcore 60000
|  4>
|  5> %pal
|  6> nprocs 4
|  7> end
|  8>
|  9> *xyzfile 0 1 ts1.xyz
| 10>
| 11>                          ****END OF INPUT****

CARTESIAN COORDINATES (ANGSTROEM)
---------------------------------
  C      0.000000    0.000000    0.489758
  H      0.000000    0.000000    1.576776
  H      0.000000    0.000000   -1.018930
  O      0.000000    1.047477   -0.218525
  O      0.000000   -1.047477   -0.218525

 Total Charge           Charge          ....    0
 Multiplicity           Mult            ....    1
 Number of Electrons    NEL             ....   24
 Basis Dimension        Dim             ....   49

ORBITAL ENERGIES
----------------

  NO   OCC          E(Eh)            E(eV)
   0   2.0000     -19.532073      -531.4947
   1   2.0000     -19.532072      -531.4947
   2   2.0000     -10.603931      -288.5476
   3   2.0000      -1.264574       -34.4108
   4   2.0000      -1.112096       -30.2617
   5   2.0000      -0.724105       -19.7039
   6   2.0000      -0.603838       -16.4313
   7   2.0000      -0.540955       -14.7201
   8   2.0000      -0.530037       -14.4230
   9   2.0000      -0.474082       -12.9004
  10   2.0000      -0.377200       -10.2641
  11   2.0000      -0.370295       -10.0762
  12   0.0000       0.015022         0.4088
  13   0.0000       0.095192         2.5903
  14   0.0000       0.173133         4.7112
  15   0.0000       0.259115         7.0509
  16   0.0000       0.356045         9.6885

MULLIKEN ATOMIC CHARGES
-----------------------
   0 C :    0.335631
   1 H :    0.249921
   2 H :    0.423469
   3 O :   -0.504511
   4 O :   -0.504511
Sum of atomic charges:   -0.0000000

LOEWDIN ATOMIC CHARGES
----------------------
   0 C :    0.090319
   1 H :    0.128140
   2 H :    0.396060
   3 O :   -0.307259
   4 O :   -0.307259

  Mayer bond orders larger than 0.100000
B(  0-C ,  1-H ) :   0.8684 B(  0-C ,  3-O ) :   1.5514 B(  0-C ,  4-O ) :   1.5514
B(  2-H ,  3-O ) :   0.3965 B(  2-H ,  4-O ) :   0.3965 B(  3-O ,  4-O ) :   0.1631

Dispersion correction           -0.001023170
FINAL SINGLE POINT ENERGY      -189.295593361589

DIPOLE MOMENT
-------------
                                X             Y             Z
Electronic contribution:      0.00000      -0.00000      -0.08668
Nuclear contribution   :      0.00000       0.00000       0.53957
                        -----------------------------------------
Total Dipole Moment    :      0.00000      -0.00000       0.45289
                        -----------------------------------------
Magnitude (a.u.)       :      0.45289
Magnitude (Debye)      :      1.15115

Rotational constants in cm-1:     2.119093     0.480159     0.391459
Rotational constants in MHz : 63528.821897 14394.804748 11735.657418

                             ****ORCA TERMINATED NORMALLY****
TOTAL RUN TIME: 0 days 0 hours 0 minutes 28 seconds 583 msec
