                         Program Version 5.0.3 -  RELEASE  -
|  1> ! PBEh-3c def2/J TightSCF DefGrid3
|  2>
|  3> %maxcore 60000
|  4>
|  5> %pal
|  6> nprocs 4
|  7> end
|  8>
|  9> *xyzfile 0 1 nh3-ch2.xyz
| 10>
| 11>                          ****END OF INPUT****

CARTESIAN COORDINATES (ANGSTROEM)
---------------------------------
  C     -0.058750    0.891443    0.000000
  N     -0.058750   -0.652682    0.000000
  H      0.545438    1.145591    0.877962
  H      0.545438    1.145591   -0.877962
  H     -0.582797   -0.961689   -0.812097
  H     -0.582797   -0.961689    0.812097
  H      0.838462   -1.147683    0.000000

 Total Charge           Charge          ....    0
 Multiplicity           Mult            ....    1
 Number of Electrons    NEL             ....   18
 Basis Dimension        Dim             ....   40

ORBITAL ENERGIES
----------------

  NO   OCC          E(Eh)            E(eV)
   0   2.0000     -14.729481      -400.8095
   1   2.0000     -10.363789      -282.0130
   2   2.0000      -1.062858       -28.9218
   3   2.0000      -0.694398       -18.8955
   4   2.0000      -0.621602       -16.9146
   5   2.0000      -0.618011       -16.8169
   6   2.0000      -0.451812       -12.2944
   7   2.0000      -0.368028       -10.0146
   8   2.0000      -0.168433        -4.5833
   9   0.0000       0.084221         2.2918
  10   0.0000       0.152757         4.1567
  11   0.0000       0.156681         4.2635
  12   0.0000       0.227466         6.1897
  13   0.0000       0.261848         7.1252

MULLIKEN ATOMIC CHARGES
-----------------------
   0 C :   -0.650398
   1 N :   -0.771301
   2 H :    0.130987
   3 H :    0.130987
   4 H :    0.401870
   5 H :    0.401870
   6 H :    0.355984
Sum of atomic charges:   -0.0000000

LOEWDIN ATOMIC CHARGES
----------------------
   0 C :   -0.665891
   1 N :   -0.250877
   2 H :    0.072303
   3 H :    0.072303
   4 H :    0.271720
   5 H :    0.271720
   6 H :    0.228722

  Mayer bond orders larger than 0.100000
B(  0-C ,  1-N ) :   0.7877 B(  0-C ,  2-H ) :   0.9570 B(  0-C ,  3-H ) :   0.9570
B(  1-N ,  4-H ) :   0.8176 B(  1-N ,  5-H ) :   0.8176 B(  1-N ,  6-H ) :   0.7902

Dispersion correction           -0.001633455
FINAL SINGLE POINT ENERGY       -95.532470296524

DIPOLE MOMENT
-------------
                                X             Y             Z
Electronic contribution:     -0.31439      -1.34730      -0.00000
Nuclear contribution   :      0.83093      -0.85304       0.00000
                        -----------------------------------------
Total Dipole Moment    :      0.51654      -2.20033      -0.00000
                        -----------------------------------------
Magnitude (a.u.)       :      2.26015
Magnitude (Debye)      :      5.74485

Rotational constants in cm-1:     3.472755     0.720581     0.693522
Rotational constants in MHz : 104110.570750 21602.471566 20791.256512

                             ****ORCA TERMINATED NORMALLY****
TOTAL RUN TIME: 0 days 0 hours 1 minutes 8 seconds 275 msec
