                         Program Version 5.0.3 -  RELEASE  -
|  1> ! PBEh-3c def2/J TightSCF DefGrid3
|  2>
|  3> %maxcore 60000
|  4>
|  5> %pal
|  6> nprocs 4
|  7> end
|  8>
|  9> *xyzfile 0 1 nh3_4_ts.xyz
| 10>
| 11>                          ****END OF INPUT****

CARTESIAN COORDINATES (ANGSTROEM)
---------------------------------
  H      1.424320    0.315746    0.000000
  H      0.446026   -1.447322    0.000000
  H     -1.508748    0.121957    0.000000
  H      0.000000    1.458660    0.000000
  H      1.507411    1.878060    0.821411
  H      1.964125   -1.661433   -0.812887
  H     -1.557872   -1.938180    0.802236
  H     -2.045777    1.558489   -0.812895
  N      1.134596    1.413387    0.000000
  N     -1.163704   -1.448618    0.000000
  N      1.542580   -1.223744    0.000000
  N     -1.527382    1.241416    0.000000
  H     -2.045777    1.558489    0.812895
  H     -1.557872   -1.938180   -0.802236
  H      1.964125   -1.661433    0.812887
  H      1.507411    1.878060   -0.821411

 Total Charge           Charge          ....    0
 Multiplicity           Mult            ....    1
 Number of Electrons    NEL             ....   40
 Basis Dimension        Dim             ....   84

ORBITAL ENERGIES
----------------

  NO   OCC          E(Eh)            E(eV)
   0   2.0000     -14.658356      -398.8741
   1   2.0000     -14.571533      -396.5116
   2   2.0000     -14.571444      -396.5092
   3   2.0000     -14.476736      -393.9320
   4   2.0000      -1.002234       -27.2722
   5   2.0000      -0.901013       -24.5178
   6   2.0000      -0.900316       -24.4989
   7   2.0000      -0.780833       -21.2475
   8   2.0000      -0.575977       -15.6731
   9   2.0000      -0.565856       -15.3977
  10   2.0000      -0.541597       -14.7376
  11   2.0000      -0.491204       -13.3663
  12   2.0000      -0.490958       -13.3596
  13   2.0000      -0.466073       -12.6825
  14   2.0000      -0.462102       -12.5744
  15   2.0000      -0.392219       -10.6728
  16   2.0000      -0.311821        -8.4851
  17   2.0000      -0.296667        -8.0727
  18   2.0000      -0.239731        -6.5234
  19   2.0000      -0.168534        -4.5860
  20   0.0000       0.116462         3.1691
  21   0.0000       0.174266         4.7420
  22   0.0000       0.176724         4.8089
  23   0.0000       0.176814         4.8114
  24   0.0000       0.235773         6.4157

MULLIKEN ATOMIC CHARGES
-----------------------
   0 H :    0.456090
   1 H :    0.412814
   2 H :    0.412748
   3 H :    0.456114
   4 H :    0.361585
   5 H :    0.312820
   6 H :    0.247628
   7 H :    0.312791
   8 N :   -1.026707
   9 N :   -1.071159
  10 N :   -1.054727
  11 N :   -1.054822
  12 H :    0.312791
  13 H :    0.247628
  14 H :    0.312820
  15 H :    0.361585
Sum of atomic charges:   -0.0000000

LOEWDIN ATOMIC CHARGES
----------------------
   0 H :    0.298596
   1 H :    0.270014
   2 H :    0.270113
   3 H :    0.298656
   4 H :    0.249700
   5 H :    0.214540
   6 H :    0.168506
   7 H :    0.214518
   8 N :   -0.527988
   9 N :   -0.904365
  10 N :   -0.699660
  11 N :   -0.699892
  12 H :    0.214518
  13 H :    0.168506
  14 H :    0.214540
  15 H :    0.249700

  Mayer bond orders larger than 0.100000
B(  0-H ,  8-N ) :   0.4931 B(  0-H , 10-N ) :   0.3245 B(  1-H ,  9-N ) :   0.3460
B(  1-H , 10-N ) :   0.5186 B(  2-H ,  9-N ) :   0.3469 B(  2-H , 11-N ) :   0.5176
B(  3-H ,  8-N ) :   0.4924 B(  3-H , 11-N ) :   0.3251 B(  4-H ,  8-N ) :   0.8489
B(  5-H , 10-N ) :   0.8767 B(  6-H ,  9-N ) :   0.9031 B(  7-H , 11-N ) :   0.8767
B(  8-N , 15-H ) :   0.8489 B(  9-N , 13-H ) :   0.9031 B( 10-N , 14-H ) :   0.8767
B( 11-N , 12-H ) :   0.8767

Dispersion correction           -0.005596989
FINAL SINGLE POINT ENERGY      -225.685211056578

DIPOLE MOMENT
-------------
                                X             Y             Z
Electronic contribution:      1.07392       1.33570       0.00000
Nuclear contribution   :      0.10729       0.13543       0.00000
                        -----------------------------------------
Total Dipole Moment    :      1.18120       1.47112       0.00000
                        -----------------------------------------
Magnitude (a.u.)       :      1.88665
Magnitude (Debye)      :      4.79548

Rotational constants in cm-1:     0.131763     0.115944     0.064173
Rotational constants in MHz :  3950.166852  3475.915515  1923.867016

                             ****ORCA TERMINATED NORMALLY****
TOTAL RUN TIME: 0 days 0 hours 1 minutes 28 seconds 804 msec
