                         Program Version 5.0.3 -  RELEASE  -
|  1> ! PBEh-3c def2/J TightSCF DefGrid3
|  2>
|  3> %maxcore 60000
|  4>
|  5> %pal
|  6> nprocs 4
|  7> end
|  8>
|  9> *xyzfile 0 1 P44.xyz
| 10>
| 11>                          ****END OF INPUT****

CARTESIAN COORDINATES (ANGSTROEM)
---------------------------------
  C     -0.043527   -0.011039    0.431388
  C      1.061961    1.052454    0.050602
  C      1.029463   -1.041669    0.096056
  C      1.956398   -0.137313   -0.221003
  C     -1.268353   -0.016356   -0.416443
  C     -2.513646   -0.013758    0.042065
  H     -0.314946    0.020910    1.488672
  H      1.360202    1.704625    0.873090
  H      0.809268    1.669229   -0.812993
  H      1.009421   -2.122907    0.112833
  H      2.984226   -0.210686   -0.549059
  H     -1.093249   -0.030005   -1.488982
  H     -3.365283   -0.019919   -0.624500
  H     -2.723419   -0.005159    1.104954

 Total Charge           Charge          ....    0
 Multiplicity           Mult            ....    1
 Number of Electrons    NEL             ....   44
 Basis Dimension        Dim             ....  106

ORBITAL ENERGIES
----------------

  NO   OCC          E(Eh)            E(eV)
   0   2.0000     -10.451854      -284.4094
   1   2.0000     -10.445168      -284.2275
   2   2.0000     -10.443646      -284.1861
   3   2.0000     -10.443328      -284.1774
   4   2.0000     -10.442472      -284.1541
   5   2.0000     -10.431279      -283.8495
   6   2.0000      -0.963241       -26.2111
   7   2.0000      -0.859446       -23.3867
   8   2.0000      -0.740453       -20.1487
   9   2.0000      -0.727571       -19.7982
  10   2.0000      -0.632536       -17.2122
  11   2.0000      -0.587082       -15.9753
  12   2.0000      -0.568138       -15.4598
  13   2.0000      -0.516332       -14.0501
  14   2.0000      -0.496687       -13.5155
  15   2.0000      -0.447832       -12.1861
  16   2.0000      -0.445456       -12.1215
  17   2.0000      -0.394591       -10.7374
  18   2.0000      -0.389399       -10.5961
  19   2.0000      -0.367655       -10.0044
  20   2.0000      -0.304679        -8.2907
  21   2.0000      -0.289948        -7.8899
  22   0.0000       0.034095         0.9278
  23   0.0000       0.057307         1.5594
  24   0.0000       0.161351         4.3906
  25   0.0000       0.174208         4.7405
  26   0.0000       0.178629         4.8607

MULLIKEN ATOMIC CHARGES
-----------------------
   0 C :   -0.354830
   1 C :   -0.430403
   2 C :   -0.152187
   3 C :   -0.209395
   4 C :   -0.090288
   5 C :   -0.498474
   6 H :    0.228834
   7 H :    0.229251
   8 H :    0.227412
   9 H :    0.206440
  10 H :    0.203664
  11 H :    0.215186
  12 H :    0.215302
  13 H :    0.209488
Sum of atomic charges:    0.0000000

LOEWDIN ATOMIC CHARGES
----------------------
   0 C :   -0.130773
   1 C :   -0.217053
   2 C :   -0.135022
   3 C :   -0.137062
   4 C :   -0.134157
   5 C :   -0.274912
   6 H :    0.130165
   7 H :    0.129805
   8 H :    0.128949
   9 H :    0.126233
  10 H :    0.123792
  11 H :    0.130346
  12 H :    0.131825
  13 H :    0.127863

  Mayer bond orders larger than 0.100000
B(  0-C ,  1-C ) :   0.9403 B(  0-C ,  2-C ) :   0.9985 B(  0-C ,  4-C ) :   0.9799
B(  0-C ,  6-H ) :   0.9062 B(  1-C ,  3-C ) :   1.0104 B(  1-C ,  7-H ) :   0.9095
B(  1-C ,  8-H ) :   0.9118 B(  2-C ,  3-C ) :   1.8572 B(  2-C ,  9-H ) :   0.9272
B(  3-C , 10-H ) :   0.9285 B(  4-C ,  5-C ) :   1.9187 B(  4-C , 11-H ) :   0.9165
B(  5-C , 12-H ) :   0.9296 B(  5-C , 13-H ) :   0.9303

Dispersion correction           -0.006257821
FINAL SINGLE POINT ENERGY      -232.844435107256

DIPOLE MOMENT
-------------
                                X             Y             Z
Electronic contribution:      1.48127      -0.99118      -0.10503
Nuclear contribution   :     -1.37548       1.03754       0.10727
                        -----------------------------------------
Total Dipole Moment    :      0.10579       0.04636       0.00223
                        -----------------------------------------
Magnitude (a.u.)       :      0.11552
Magnitude (Debye)      :      0.29364

Rotational constants in cm-1:     0.338593     0.079106     0.071107
Rotational constants in MHz : 10150.771389  2371.524672  2131.735102

                             ****ORCA TERMINATED NORMALLY****
TOTAL RUN TIME: 0 days 0 hours 0 minutes 47 seconds 260 msec
