                         Program Version 5.0.3 -  RELEASE  -
|  1> ! PBEh-3c def2/J TightSCF DefGrid3
|  2>
|  3> %maxcore 60000
|  4>
|  5> %pal
|  6> nprocs 4
|  7> end
|  8>
|  9> *xyzfile 1 2 3e.xyz
| 10>
| 11>                          ****END OF INPUT****

CARTESIAN COORDINATES (ANGSTROEM)
---------------------------------
  C     -2.051153   -0.112429    0.090451
  C     -1.421222    1.151528    0.062409
  C     -0.063233    1.216842    0.003836
  C      0.722681    0.016102   -0.026290
  C      2.182704    0.111235   -0.091031
  C      0.064771   -1.248442    0.000665
  C     -1.294072   -1.311574    0.059153
  H     -3.133259   -0.169207    0.135841
  H     -2.022661    2.051544    0.087500
  H      0.448452    2.172314   -0.019595
  H      2.680989   -0.853809   -0.041649
  H      2.556166    0.770683    0.703709
  H      2.471553    0.620738   -1.023522
  H      0.664891   -2.150143   -0.023984
  H     -1.806607   -2.265382    0.082504

 Total Charge           Charge          ....    1
 Multiplicity           Mult            ....    2
 Number of Electrons    NEL             ....   49
 Basis Dimension        Dim             ....  121

ORBITAL ENERGIES
----------------
                 SPIN UP ORBITALS
  NO   OCC          E(Eh)            E(eV)
   0   1.0000     -10.717239      -291.6309
   1   1.0000     -10.698857      -291.1307
   2   1.0000     -10.672056      -290.4014
   3   1.0000     -10.667883      -290.2879
   4   1.0000     -10.666676      -290.2550
   5   1.0000     -10.662674      -290.1461
   6   1.0000     -10.622702      -289.0584
   7   1.0000      -1.188525       -32.3414
   8   1.0000      -1.092072       -29.7168
   9   1.0000      -1.061512       -28.8852
  10   1.0000      -0.981010       -26.6946
  11   1.0000      -0.899648       -24.4807
  12   1.0000      -0.875959       -23.8361
  13   1.0000      -0.791445       -21.5363
  14   1.0000      -0.747348       -20.3364
  15   1.0000      -0.725129       -19.7318
  16   1.0000      -0.698615       -19.0103
  17   1.0000      -0.687722       -18.7139
  18   1.0000      -0.680426       -18.5153
  19   1.0000      -0.638830       -17.3834
  20   1.0000      -0.626442       -17.0464
  21   1.0000      -0.616409       -16.7733
  22   1.0000      -0.602091       -16.3837
  23   1.0000      -0.516495       -14.0545
  24   1.0000      -0.514604       -14.0031
  25   0.0000      -0.225338        -6.1317
  26   0.0000      -0.189799        -5.1647
  27   0.0000      -0.040659        -1.1064
  28   0.0000      -0.036094        -0.9822
  29   0.0000       0.000258         0.0070

                 SPIN DOWN ORBITALS
  NO   OCC          E(Eh)            E(eV)
   0   1.0000     -10.710931      -291.4593
   1   1.0000     -10.691327      -290.9258
   2   1.0000     -10.670220      -290.3514
   3   1.0000     -10.668181      -290.2960
   4   1.0000     -10.665938      -290.2349
   5   1.0000     -10.663911      -290.1798
   6   1.0000     -10.622724      -289.0590
   7   1.0000      -1.175142       -31.9772
   8   1.0000      -1.074372       -29.2352
   9   1.0000      -1.059675       -28.8352
  10   1.0000      -0.969945       -26.3936
  11   1.0000      -0.893064       -24.3015
  12   1.0000      -0.867498       -23.6058
  13   1.0000      -0.787337       -21.4245
  14   1.0000      -0.743076       -20.2201
  15   1.0000      -0.720820       -19.6145
  16   1.0000      -0.698181       -18.9985
  17   1.0000      -0.674547       -18.3554
  18   1.0000      -0.659931       -17.9576
  19   1.0000      -0.636656       -17.3243
  20   1.0000      -0.614179       -16.7127
  21   1.0000      -0.598378       -16.2827
  22   1.0000      -0.593031       -16.1372
  23   1.0000      -0.511241       -13.9116
  24   0.0000      -0.362448        -9.8627
  25   0.0000      -0.176358        -4.7989
  26   0.0000      -0.170041        -4.6270
  27   0.0000      -0.038676        -1.0524
  28   0.0000      -0.014794        -0.4026

MULLIKEN ATOMIC CHARGES AND SPIN POPULATIONS
--------------------------------------------
   0 C :   -0.152266    0.520746
   1 C :   -0.174235   -0.094142
   2 C :   -0.205294    0.113248
   3 C :    0.182862    0.440269
   4 C :   -0.730821   -0.021622
   5 C :   -0.217368    0.042142
   6 C :   -0.167497   -0.029999
   7 H :    0.325146   -0.026772
   8 H :    0.312179    0.002416
   9 H :    0.303605   -0.008306
  10 H :    0.290830   -0.001001
  11 H :    0.305811    0.030329
  12 H :    0.309697    0.038221
  13 H :    0.302979   -0.004901
  14 H :    0.314372   -0.000626
Sum of atomic charges         :    1.0000000

LOEWDIN ATOMIC CHARGES AND SPIN POPULATIONS
-------------------------------------------
   0 C :    0.047364    0.436850
   1 C :   -0.085908   -0.042187
   2 C :   -0.056752    0.121657
   3 C :    0.116841    0.361076
   4 C :   -0.340116    0.007908
   5 C :   -0.075077    0.066634
   6 C :   -0.066888    0.006953
   7 H :    0.184150   -0.013200
   8 H :    0.181426    0.000949
   9 H :    0.178433   -0.004248
  10 H :    0.168561   -0.000247
  11 H :    0.191016    0.026945
  12 H :    0.196773    0.034022
  13 H :    0.178111   -0.002591
  14 H :    0.182064   -0.000524

  Mayer bond orders larger than 0.100000
B(  0-C ,  1-C ) :   1.2369 B(  0-C ,  6-C ) :   1.2216 B(  0-C ,  7-H ) :   0.8754
B(  1-C ,  2-C ) :   1.5593 B(  1-C ,  8-H ) :   0.8842 B(  2-C ,  3-C ) :   1.1673
B(  2-C ,  9-H ) :   0.8931 B(  3-C ,  4-C ) :   1.0093 B(  3-C ,  5-C ) :   1.2246
B(  4-C , 10-H ) :   0.9033 B(  4-C , 11-H ) :   0.8633 B(  4-C , 12-H ) :   0.8528
B(  5-C ,  6-C ) :   1.5606 B(  5-C , 13-H ) :   0.8901 B(  6-C , 14-H ) :   0.8826

Dispersion correction           -0.007743846
FINAL SINGLE POINT ENERGY      -270.637317881092

DIPOLE MOMENT
-------------
                                X             Y             Z
Electronic contribution:     -3.46251      -0.26591       0.16602
Nuclear contribution   :      3.41117       0.32421      -0.18197
                        -----------------------------------------
Total Dipole Moment    :     -0.05133       0.05831      -0.01594
                        -----------------------------------------
Magnitude (a.u.)       :      0.07930
Magnitude (Debye)      :      0.20157

Rotational constants in cm-1:     0.177163     0.086858     0.058902
Rotational constants in MHz :  5311.223425  2603.935979  1765.828910

                             ****ORCA TERMINATED NORMALLY****
TOTAL RUN TIME: 0 days 0 hours 3 minutes 49 seconds 56 msec
