                         Program Version 5.0.3 -  RELEASE  -
|  1> ! PBEh-3c def2/J TightSCF DefGrid3
|  2>
|  3> %maxcore 60000
|  4>
|  5> %pal
|  6> nprocs 4
|  7> end
|  8>
|  9> *xyzfile -1 1 7a.xyz
| 10>
| 11>                          ****END OF INPUT****

CARTESIAN COORDINATES (ANGSTROEM)
---------------------------------
  H     -5.351692   -1.398349   -2.372873
  O     -4.519811   -1.428589   -1.873865
  C     -4.670135   -0.592774   -0.716070
  H     -5.582719   -0.851138   -0.165061
  H     -4.720251    0.467441   -1.000997
  C     -3.470605   -0.769995    0.184885
  H     -3.563270   -0.066694    1.021879
  O     -3.428311   -2.124761    0.725671
  C     -2.091219   -2.570850    0.838802
  H     -1.898170   -2.950857    1.843192
  N     -1.870462   -3.710367   -0.111456
  C     -2.764813   -4.019218   -1.103354
  H     -3.637360   -3.376925   -1.144270
  C     -2.561198   -5.040822   -1.974167
  H     -3.286123   -5.262453   -2.746177
  C     -1.369458   -5.842562   -1.882842
  O     -1.058959   -6.796664   -2.608235
  N     -0.505941   -5.447426   -0.848087
  H      0.357708   -5.974355   -0.743596
  C     -0.683676   -4.418134    0.051768
  O      0.137187   -4.136547    0.924861
  C     -2.101314   -0.596281   -0.470836
  H     -2.085979   -1.039775   -1.469547
  C     -1.188249   -1.387006    0.472560
  H     -0.255936   -1.707254    0.000495
  O     -0.927609   -0.631716    1.656469
  H     -0.915902    0.305176    1.377668
  O     -1.747546    0.783544   -0.523113
  P     -0.918217    1.340956   -1.855408
  O     -1.869249    2.169449   -2.666345
  O     -0.130680    0.219020   -2.457351
  O      0.153454    2.303883   -1.088300
  C     -0.331871    3.366502   -0.242135
  H     -1.193311    3.025193    0.340187
  H     -0.632094    4.223525   -0.855270
  C      0.777238    3.786673    0.692201
  H      0.435627    4.660346    1.262214
  O      1.057052    2.703076    1.625073
  C      2.433649    2.657091    1.946058
  H      2.576570    2.658923    3.027795
  N      3.018190    1.378038    1.418348
  C      2.317244    0.545802    0.585064
  H      1.319247    0.886821    0.347155
  C      2.844529   -0.597372    0.079063
  H      2.264610   -1.227093   -0.581943
  C      4.198624   -0.968677    0.394603
  O      4.804103   -1.974904    0.003787
  N      4.854559   -0.039642    1.218999
  H      5.821027   -0.242988    1.461426
  C      4.345976    1.125883    1.749966
  O      5.008978    1.889568    2.452529
  C      2.135654    4.088876    0.067642
  H      2.356391    3.379156   -0.735746
  C      3.083558    3.867047    1.257859
  H      4.116452    3.671325    0.958684
  O      3.011496    4.978870    2.151365
  H      2.886023    5.764221    1.581505
  O      2.147569    5.431304   -0.418614
  H      2.869414    5.514480   -1.064112

 Total Charge           Charge          ....   -1
 Multiplicity           Mult            ....    1
 Number of Electrons    NEL             ....  286
 Basis Dimension        Dim             ....  602

ORBITAL ENERGIES
----------------

  NO   OCC          E(Eh)            E(eV)
   0   2.0000     -77.721712     -2114.9153
   1   2.0000     -19.453152      -529.3472
   2   2.0000     -19.447026      -529.1805
   3   2.0000     -19.439993      -528.9891
   4   2.0000     -19.428621      -528.6797
   5   2.0000     -19.426439      -528.6203
   6   2.0000     -19.400018      -527.9013
   7   2.0000     -19.398736      -527.8664
   8   2.0000     -19.397151      -527.8233
   9   2.0000     -19.394057      -527.7391
  10   2.0000     -19.392302      -527.6914
  11   2.0000     -19.383016      -527.4387
  12   2.0000     -19.377152      -527.2791
  13   2.0000     -19.280218      -524.6414
  14   2.0000     -19.274293      -524.4802
  15   2.0000     -14.628271      -398.0555
  16   2.0000     -14.627393      -398.0316
  17   2.0000     -14.610457      -397.5707
  18   2.0000     -14.610160      -397.5627
  19   2.0000     -10.520370      -286.2738
  20   2.0000     -10.516961      -286.1811
  21   2.0000     -10.482172      -285.2344
  22   2.0000     -10.475610      -285.0558
  23   2.0000     -10.474432      -285.0238
  24   2.0000     -10.462303      -284.6937
  25   2.0000     -10.433998      -283.9235
  26   2.0000     -10.432803      -283.8910
  27   2.0000     -10.429496      -283.8010
  28   2.0000     -10.427980      -283.7598
  29   2.0000     -10.421680      -283.5883
  30   2.0000     -10.420263      -283.5498
  31   2.0000     -10.419420      -283.5268
  32   2.0000     -10.406433      -283.1735
  33   2.0000     -10.404056      -283.1088
  34   2.0000     -10.403753      -283.1005
  35   2.0000     -10.369408      -282.1659
  36   2.0000     -10.356854      -281.8243
  37   2.0000      -6.766156      -184.1165
  38   2.0000      -4.861365      -132.2845
  39   2.0000      -4.860022      -132.2479
  40   2.0000      -4.857413      -132.1769
  41   2.0000      -1.114877       -30.3373
  42   2.0000      -1.107697       -30.1420
  43   2.0000      -1.098296       -29.8862
  44   2.0000      -1.089724       -29.6529
  45   2.0000      -1.081092       -29.4180
  46   2.0000      -1.057123       -28.7658
  47   2.0000      -1.057014       -28.7628
  48   2.0000      -1.055283       -28.7157
  49   2.0000      -1.052544       -28.6412
  50   2.0000      -1.051423       -28.6107
  51   2.0000      -1.032029       -28.0829
  52   2.0000      -1.008038       -27.4301
  53   2.0000      -0.993288       -27.0287
  54   2.0000      -0.992264       -27.0009
  55   2.0000      -0.943255       -25.6673
  56   2.0000      -0.943143       -25.6642
  57   2.0000      -0.910368       -24.7724
  58   2.0000      -0.866097       -23.5677
  59   2.0000      -0.809432       -22.0258
  60   2.0000      -0.805378       -21.9154
  61   2.0000      -0.799422       -21.7534
  62   2.0000      -0.786594       -21.4043
  63   2.0000      -0.768637       -20.9157
  64   2.0000      -0.761060       -20.7095
  65   2.0000      -0.692412       -18.8415
  66   2.0000      -0.689890       -18.7729
  67   2.0000      -0.684141       -18.6164
  68   2.0000      -0.681313       -18.5395
  69   2.0000      -0.642381       -17.4801
  70   2.0000      -0.639127       -17.3915
  71   2.0000      -0.613445       -16.6927
  72   2.0000      -0.600138       -16.3306
  73   2.0000      -0.589728       -16.0473
  74   2.0000      -0.583296       -15.8723
  75   2.0000      -0.561021       -15.2662
  76   2.0000      -0.553865       -15.0714
  77   2.0000      -0.544671       -14.8212
  78   2.0000      -0.541813       -14.7435
  79   2.0000      -0.531991       -14.4762
  80   2.0000      -0.526288       -14.3210
  81   2.0000      -0.512013       -13.9326
  82   2.0000      -0.507471       -13.8090
  83   2.0000      -0.498918       -13.5763
  84   2.0000      -0.497894       -13.5484
  85   2.0000      -0.489479       -13.3194
  86   2.0000      -0.480803       -13.0833
  87   2.0000      -0.472773       -12.8648
  88   2.0000      -0.468569       -12.7504
  89   2.0000      -0.462808       -12.5936
  90   2.0000      -0.461778       -12.5656
  91   2.0000      -0.457618       -12.4524
  92   2.0000      -0.447864       -12.1870
  93   2.0000      -0.441048       -12.0015
  94   2.0000      -0.436545       -11.8790
  95   2.0000      -0.429152       -11.6778
  96   2.0000      -0.426401       -11.6030
  97   2.0000      -0.420497       -11.4423
  98   2.0000      -0.415759       -11.3134
  99   2.0000      -0.409868       -11.1531
 100   2.0000      -0.405578       -11.0364
 101   2.0000      -0.401003       -10.9118
 102   2.0000      -0.396742       -10.7959
 103   2.0000      -0.390089       -10.6149
 104   2.0000      -0.388045       -10.5592
 105   2.0000      -0.384044       -10.4504
 106   2.0000      -0.383164       -10.4264
 107   2.0000      -0.379085       -10.3154
 108   2.0000      -0.377465       -10.2713
 109   2.0000      -0.365892        -9.9564
 110   2.0000      -0.363997        -9.9049
 111   2.0000      -0.361639        -9.8407
 112   2.0000      -0.347898        -9.4668
 113   2.0000      -0.346191        -9.4203
 114   2.0000      -0.340895        -9.2762
 115   2.0000      -0.334318        -9.0973
 116   2.0000      -0.330924        -9.0049
 117   2.0000      -0.326974        -8.8974
 118   2.0000      -0.323508        -8.8031
 119   2.0000      -0.311832        -8.4854
 120   2.0000      -0.303568        -8.2605
 121   2.0000      -0.290832        -7.9139
 122   2.0000      -0.278570        -7.5803
 123   2.0000      -0.276926        -7.5355
 124   2.0000      -0.274430        -7.4676
 125   2.0000      -0.272951        -7.4274
 126   2.0000      -0.264135        -7.1875
 127   2.0000      -0.263268        -7.1639
 128   2.0000      -0.261107        -7.1051
 129   2.0000      -0.259737        -7.0678
 130   2.0000      -0.250013        -6.8032
 131   2.0000      -0.248372        -6.7585
 132   2.0000      -0.246382        -6.7044
 133   2.0000      -0.245069        -6.6687
 134   2.0000      -0.234835        -6.3902
 135   2.0000      -0.230510        -6.2725
 136   2.0000      -0.230261        -6.2657
 137   2.0000      -0.205499        -5.5919
 138   2.0000      -0.198584        -5.4037
 139   2.0000      -0.196010        -5.3337
 140   2.0000      -0.190419        -5.1816
 141   2.0000      -0.166146        -4.5211
 142   2.0000      -0.154744        -4.2108
 143   0.0000       0.072771         1.9802
 144   0.0000       0.080863         2.2004
 145   0.0000       0.124278         3.3818
 146   0.0000       0.125586         3.4174
 147   0.0000       0.156777         4.2661

MULLIKEN ATOMIC CHARGES
-----------------------
   0 H :    0.421711
   1 O :   -0.629745
   2 C :   -0.181830
   3 H :    0.190037
   4 H :    0.229418
   5 C :    0.046422
   6 H :    0.224219
   7 O :   -0.507262
   8 C :    0.202193
   9 H :    0.269318
  10 N :   -0.574121
  11 C :    0.085508
  12 H :    0.317340
  13 C :   -0.477028
  14 H :    0.240818
  15 C :    0.561051
  16 O :   -0.436207
  17 N :   -0.732693
  18 H :    0.390509
  19 C :    0.718694
  20 O :   -0.441393
  21 C :   -0.034261
  22 H :    0.280148
  23 C :   -0.027493
  24 H :    0.269701
  25 O :   -0.653757
  26 H :    0.432506
  27 O :   -0.661291
  28 P :    1.366249
  29 O :   -0.723529
  30 O :   -0.726700
  31 O :   -0.610856
  32 C :   -0.164470
  33 H :    0.223463
  34 H :    0.224330
  35 C :    0.034546
  36 H :    0.220973
  37 O :   -0.498468
  38 C :    0.217875
  39 H :    0.272159
  40 N :   -0.580807
  41 C :    0.081425
  42 H :    0.325714
  43 C :   -0.469430
  44 H :    0.285638
  45 C :    0.557780
  46 O :   -0.430751
  47 N :   -0.730860
  48 H :    0.383187
  49 C :    0.710631
  50 O :   -0.460537
  51 C :   -0.065550
  52 H :    0.267174
  53 C :   -0.038658
  54 H :    0.242677
  55 O :   -0.640245
  56 H :    0.419431
  57 O :   -0.640576
  58 H :    0.425672
Sum of atomic charges:   -1.0000000

LOEWDIN ATOMIC CHARGES
----------------------
   0 H :    0.312921
   1 O :   -0.409505
   2 C :   -0.094846
   3 H :    0.106066
   4 H :    0.128816
   5 C :   -0.013854
   6 H :    0.126421
   7 O :   -0.240773
   8 C :    0.085920
   9 H :    0.141128
  10 N :   -0.093525
  11 C :   -0.000975
  12 H :    0.168155
  13 C :   -0.261051
  14 H :    0.154190
  15 C :    0.126910
  16 O :   -0.288350
  17 N :   -0.199105
  18 H :    0.283710
  19 C :    0.158406
  20 O :   -0.279741
  21 C :   -0.035878
  22 H :    0.151155
  23 C :   -0.035259
  24 H :    0.133615
  25 O :   -0.400861
  26 H :    0.314695
  27 O :   -0.362310
  28 P :    0.809037
  29 O :   -0.606394
  30 O :   -0.600181
  31 O :   -0.354174
  32 C :   -0.086303
  33 H :    0.126492
  34 H :    0.129209
  35 C :   -0.013381
  36 H :    0.124940
  37 O :   -0.231803
  38 C :    0.092885
  39 H :    0.142013
  40 N :   -0.099213
  41 C :   -0.000477
  42 H :    0.171133
  43 C :   -0.239085
  44 H :    0.173537
  45 C :    0.125634
  46 O :   -0.282697
  47 N :   -0.200957
  48 H :    0.279352
  49 C :    0.153560
  50 O :   -0.298071
  51 C :   -0.045645
  52 H :    0.139788
  53 C :   -0.046413
  54 H :    0.122849
  55 O :   -0.398622
  56 H :    0.310681
  57 O :   -0.393850
  58 H :    0.320078

  Mayer bond orders larger than 0.100000
B(  0-H ,  1-O ) :   0.7884 B(  1-O ,  2-C ) :   0.9939 B(  2-C ,  3-H ) :   0.9042
B(  2-C ,  4-H ) :   0.8862 B(  2-C ,  5-C ) :   0.9759 B(  5-C ,  6-H ) :   0.8917
B(  5-C ,  7-O ) :   0.9020 B(  5-C , 21-C ) :   0.9145 B(  7-O ,  8-C ) :   1.0097
B(  8-C ,  9-H ) :   0.8830 B(  8-C , 10-N ) :   0.8301 B(  8-C , 23-C ) :   0.9243
B( 10-N , 11-C ) :   1.0974 B( 10-N , 19-C ) :   1.0301 B( 11-C , 12-H ) :   0.8349
B( 11-C , 13-C ) :   1.5818 B( 13-C , 14-H ) :   0.9205 B( 13-C , 15-C ) :   1.0856
B( 15-C , 16-O ) :   1.9952 B( 15-C , 17-N ) :   0.9854 B( 17-N , 18-H ) :   0.8031
B( 17-N , 19-C ) :   1.0644 B( 19-C , 20-O ) :   1.9597 B( 21-C , 22-H ) :   0.8468
B( 21-C , 23-C ) :   0.9387 B( 21-C , 27-O ) :   0.9277 B( 23-C , 24-H ) :   0.8831
B( 23-C , 25-O ) :   0.9931 B( 25-O , 26-H ) :   0.7435 B( 27-O , 28-P ) :   0.7883
B( 28-P , 29-O ) :   1.7754 B( 28-P , 30-O ) :   1.7214 B( 28-P , 31-O ) :   0.8539
B( 31-O , 32-C ) :   0.9384 B( 32-C , 33-H ) :   0.8903 B( 32-C , 34-H ) :   0.8931
B( 32-C , 35-C ) :   0.9641 B( 35-C , 36-H ) :   0.8895 B( 35-C , 37-O ) :   0.9016
B( 35-C , 51-C ) :   0.9254 B( 37-O , 38-C ) :   1.0183 B( 38-C , 39-H ) :   0.8836
B( 38-C , 40-N ) :   0.8378 B( 38-C , 53-C ) :   0.9298 B( 40-N , 41-C ) :   1.0652
B( 40-N , 49-C ) :   1.0418 B( 41-C , 42-H ) :   0.8312 B( 41-C , 43-C ) :   1.6037
B( 43-C , 44-H ) :   0.8967 B( 43-C , 45-C ) :   1.0790 B( 45-C , 46-O ) :   1.9983
B( 45-C , 47-N ) :   0.9697 B( 47-N , 48-H ) :   0.8071 B( 47-N , 49-C ) :   1.0781
B( 49-C , 50-O ) :   1.9383 B( 51-C , 52-H ) :   0.8614 B( 51-C , 53-C ) :   0.9286
B( 51-C , 57-O ) :   0.9884 B( 53-C , 54-H ) :   0.8954 B( 53-C , 55-O ) :   0.9956
B( 55-O , 56-H ) :   0.7588 B( 57-O , 58-H ) :   0.7854

Dispersion correction           -0.048091456
FINAL SINGLE POINT ENERGY     -2308.301903295213

DIPOLE MOMENT
-------------
                                X             Y             Z
Electronic contribution:      8.78810     -10.00993      -1.59131
Nuclear contribution   :    -10.12488      11.95732       3.55605
                        -----------------------------------------
Total Dipole Moment    :     -1.33678       1.94740       1.96473
                        -----------------------------------------
Magnitude (a.u.)       :      3.07238
Magnitude (Debye)      :      7.80936

Rotational constants in cm-1:     0.004919     0.002174     0.001723
Rotational constants in MHz :   147.452959    65.172081    51.641792

                             ****ORCA TERMINATED NORMALLY****
TOTAL RUN TIME: 0 days 0 hours 14 minutes 2 seconds 775 msec
