                         Program Version 5.0.3 -  RELEASE  -
|  1> ! PBEh-3c def2/J TightSCF DefGrid3
|  2>
|  3> %maxcore 60000
|  4>
|  5> %pal
|  6> nprocs 4
|  7> end
|  8>
|  9> *xyzfile 0 2 RKT02.xyz
| 10>
| 11>                          ****END OF INPUT****

CARTESIAN COORDINATES (ANGSTROEM)
---------------------------------
  O     -0.827925   -0.297134    0.000000
  H     -0.954805    0.662483    0.000000
  H      0.488625   -0.289452    0.000000
  H      1.294106   -0.075898    0.000000

 Total Charge           Charge          ....    0
 Multiplicity           Mult            ....    2
 Number of Electrons    NEL             ....   11
 Basis Dimension        Dim             ....   21

ORBITAL ENERGIES
----------------
                 SPIN UP ORBITALS
  NO   OCC          E(Eh)            E(eV)
   0   1.0000     -19.536626      -531.6186
   1   1.0000      -1.119449       -30.4618
   2   1.0000      -0.594204       -16.1691
   3   1.0000      -0.516635       -14.0584
   4   1.0000      -0.391218       -10.6456
   5   1.0000      -0.375717       -10.2238
   6   0.0000       0.140683         3.8282
   7   0.0000       0.237319         6.4578
   8   0.0000       0.755338        20.5538
   9   0.0000       0.890436        24.2300
  10   0.0000       0.933138        25.3920

                 SPIN DOWN ORBITALS
  NO   OCC          E(Eh)            E(eV)
   0   1.0000     -19.514574      -531.0186
   1   1.0000      -1.053487       -28.6668
   2   1.0000      -0.539454       -14.6793
   3   1.0000      -0.459534       -12.5046
   4   1.0000      -0.367395        -9.9973
   5   0.0000      -0.101781        -2.7696
   6   0.0000       0.150662         4.0997
   7   0.0000       0.277378         7.5478
   8   0.0000       0.777415        21.1545
   9   0.0000       0.900959        24.5163

MULLIKEN ATOMIC CHARGES AND SPIN POPULATIONS
--------------------------------------------
   0 O :   -0.538069    0.754390
   1 H :    0.417917   -0.024065
   2 H :    0.122248   -0.139652
   3 H :   -0.002096    0.409327
Sum of atomic charges         :   -0.0000000

LOEWDIN ATOMIC CHARGES AND SPIN POPULATIONS
-------------------------------------------
   0 O :   -0.419831    0.734235
   1 H :    0.297592   -0.018483
   2 H :    0.128156   -0.067539
   3 H :   -0.005917    0.351787

  Mayer bond orders larger than 0.100000
B(  0-O ,  1-H ) :   0.8043 B(  0-O ,  2-H ) :   0.3052 B(  0-O ,  3-H ) :   0.1522
B(  2-H ,  3-H ) :   0.6641

Dispersion correction           -0.000431451
FINAL SINGLE POINT ENERGY       -76.729571617895

DIPOLE MOMENT
-------------
                                X             Y             Z
Electronic contribution:     -2.46036      -0.24877      -0.00000
Nuclear contribution   :      2.61047       0.93687       0.00000
                        -----------------------------------------
Total Dipole Moment    :      0.15010       0.68810      -0.00000
                        -----------------------------------------
Magnitude (a.u.)       :      0.70428
Magnitude (Debye)      :      1.79014

Rotational constants in cm-1:    18.783322     2.946448     2.546925
Rotational constants in MHz : 563109.841178 88332.293487 76354.876526

                             ****ORCA TERMINATED NORMALLY****
TOTAL RUN TIME: 0 days 0 hours 0 minutes 56 seconds 765 msec
