                         Program Version 5.0.3 -  RELEASE  -
|  1> ! PBEh-3c def2/J TightSCF DefGrid3
|  2>
|  3> %maxcore 60000
|  4>
|  5> %pal
|  6> nprocs 4
|  7> end
|  8>
|  9> *xyzfile 0 1 ASN_xah.xyz
| 10>
| 11>                          ****END OF INPUT****

CARTESIAN COORDINATES (ANGSTROEM)
---------------------------------
  N     -0.118938    0.910322   -0.336746
  C     -0.098807   -0.392213    0.299480
  C      1.260748   -1.089185    0.276982
  O      1.447808   -2.076423    0.978529
  C     -1.094232   -1.321919   -0.403679
  C     -2.484212   -0.733723   -0.369728
  O     -2.786788    0.240580   -1.055064
  N     -3.352796   -1.319186    0.487761
  H     -0.919089    1.080946   -0.936468
  H     -0.354411   -0.298451    1.357492
  H     -1.037293   -2.295570    0.077611
  H     -0.802446   -1.427448   -1.448669
  H     -4.272283   -0.926098    0.586047
  H     -3.085397   -2.100477    1.055104
  N      2.149872   -0.592035   -0.607518
  H      1.909114    0.286341   -1.034787
  C      3.503606   -1.094738   -0.679998
  H      3.846839   -1.096180   -1.711372
  H      4.185246   -0.497386   -0.074986
  H      3.500439   -2.110598   -0.297596
  C      0.391489    1.982149    0.354927
  O      1.101781    1.834831    1.338908
  C      0.016065    3.334636   -0.197494
  H     -0.805209    3.734190    0.395903
  H     -0.297941    3.286667   -1.237185
  H      0.862579    4.006526   -0.094082

 Total Charge           Charge          ....    0
 Multiplicity           Mult            ....    1
 Number of Electrons    NEL             ....  100
 Basis Dimension        Dim             ....  221

ORBITAL ENERGIES
----------------

  NO   OCC          E(Eh)            E(eV)
   0   2.0000     -19.478242      -530.0299
   1   2.0000     -19.463711      -529.6345
   2   2.0000     -19.450627      -529.2785
   3   2.0000     -14.676634      -399.3715
   4   2.0000     -14.662924      -398.9984
   5   2.0000     -14.656207      -398.8157
   6   2.0000     -10.570832      -287.6470
   7   2.0000     -10.552562      -287.1498
   8   2.0000     -10.540566      -286.8234
   9   2.0000     -10.497771      -285.6589
  10   2.0000     -10.467052      -284.8230
  11   2.0000     -10.461200      -284.6637
  12   2.0000     -10.443947      -284.1943
  13   2.0000      -1.162647       -31.6372
  14   2.0000      -1.150014       -31.2935
  15   2.0000      -1.135476       -30.8979
  16   2.0000      -1.035722       -28.1834
  17   2.0000      -1.025165       -27.8962
  18   2.0000      -1.012679       -27.5564
  19   2.0000      -0.891934       -24.2708
  20   2.0000      -0.830543       -22.6002
  21   2.0000      -0.801021       -21.7969
  22   2.0000      -0.747214       -20.3327
  23   2.0000      -0.681839       -18.5538
  24   2.0000      -0.663221       -18.0472
  25   2.0000      -0.647230       -17.6120
  26   2.0000      -0.627563       -17.0769
  27   2.0000      -0.591102       -16.0847
  28   2.0000      -0.582353       -15.8466
  29   2.0000      -0.554833       -15.0978
  30   2.0000      -0.545634       -14.8475
  31   2.0000      -0.515564       -14.0292
  32   2.0000      -0.511881       -13.9290
  33   2.0000      -0.509112       -13.8536
  34   2.0000      -0.490065       -13.3354
  35   2.0000      -0.486690       -13.2435
  36   2.0000      -0.479049       -13.0356
  37   2.0000      -0.462524       -12.5859
  38   2.0000      -0.455320       -12.3899
  39   2.0000      -0.446698       -12.1553
  40   2.0000      -0.443201       -12.0601
  41   2.0000      -0.440436       -11.9849
  42   2.0000      -0.421318       -11.4647
  43   2.0000      -0.397418       -10.8143
  44   2.0000      -0.344396        -9.3715
  45   2.0000      -0.332832        -9.0568
  46   2.0000      -0.328907        -8.9500
  47   2.0000      -0.313750        -8.5376
  48   2.0000      -0.298626        -8.1260
  49   2.0000      -0.291836        -7.9413
  50   0.0000       0.037068         1.0087
  51   0.0000       0.051119         1.3910
  52   0.0000       0.069734         1.8976
  53   0.0000       0.108868         2.9625
  54   0.0000       0.139746         3.8027

MULLIKEN ATOMIC CHARGES
-----------------------
   0 N :   -0.679781
   1 C :   -0.154053
   2 C :    0.549634
   3 O :   -0.442590
   4 C :   -0.593869
   5 C :    0.536437
   6 O :   -0.442064
   7 N :   -0.791352
   8 H :    0.397814
   9 H :    0.282073
  10 H :    0.270792
  11 H :    0.273723
  12 H :    0.379022
  13 H :    0.376751
  14 N :   -0.624483
  15 H :    0.375416
  16 C :   -0.493389
  17 H :    0.215694
  18 H :    0.229732
  19 H :    0.259400
  20 C :    0.491370
  21 O :   -0.406626
  22 C :   -0.757249
  23 H :    0.258165
  24 H :    0.228303
  25 H :    0.261132
Sum of atomic charges:   -0.0000000

LOEWDIN ATOMIC CHARGES
----------------------
   0 N :   -0.265773
   1 C :   -0.080606
   2 C :    0.109101
   3 O :   -0.286880
   4 C :   -0.259631
   5 C :    0.111115
   6 O :   -0.294304
   7 N :   -0.353267
   8 H :    0.268357
   9 H :    0.150069
  10 H :    0.152917
  11 H :    0.156910
  12 H :    0.263200
  13 H :    0.260379
  14 N :   -0.236618
  15 H :    0.259913
  16 C :   -0.254864
  17 H :    0.122454
  18 H :    0.125480
  19 H :    0.150223
  20 C :    0.101883
  21 O :   -0.260688
  22 C :   -0.390878
  23 H :    0.158893
  24 H :    0.136497
  25 H :    0.156117

  Mayer bond orders larger than 0.100000
B(  0-N ,  1-C ) :   0.9166 B(  0-N ,  8-H ) :   0.7534 B(  0-N , 20-C ) :   1.1074
B(  1-C ,  2-C ) :   0.9114 B(  1-C ,  4-C ) :   0.9460 B(  1-C ,  9-H ) :   0.8776
B(  2-C ,  3-O ) :   1.9624 B(  2-C , 14-N ) :   1.1631 B(  4-C ,  5-C ) :   0.9173
B(  4-C , 10-H ) :   0.8906 B(  4-C , 11-H ) :   0.8941 B(  5-C ,  6-O ) :   1.9402
B(  5-C ,  7-N ) :   1.1753 B(  7-N , 12-H ) :   0.8209 B(  7-N , 13-H ) :   0.8231
B( 14-N , 15-H ) :   0.7977 B( 14-N , 16-C ) :   0.9559 B( 16-C , 17-H ) :   0.9255
B( 16-C , 18-H ) :   0.9160 B( 16-C , 19-H ) :   0.9037 B( 20-C , 21-O ) :   2.0189
B( 20-C , 22-C ) :   0.9334 B( 22-C , 23-H ) :   0.9057 B( 22-C , 24-H ) :   0.9175
B( 22-C , 25-H ) :   0.9123

Dispersion correction           -0.015278730
FINAL SINGLE POINT ENERGY      -663.140914759979

DIPOLE MOMENT
-------------
                                X             Y             Z
Electronic contribution:     -3.69395      -1.85959       2.45377
Nuclear contribution   :      2.65573       1.80729      -3.25485
                        -----------------------------------------
Total Dipole Moment    :     -1.03822      -0.05230      -0.80108
                        -----------------------------------------
Magnitude (a.u.)       :      1.31239
Magnitude (Debye)      :      3.33583

Rotational constants in cm-1:     0.030104     0.020201     0.014009
Rotational constants in MHz :   902.503938   605.595940   419.966948

                             ****ORCA TERMINATED NORMALLY****
TOTAL RUN TIME: 0 days 0 hours 3 minutes 47 seconds 505 msec
