                         Program Version 5.0.3 -  RELEASE  -
|  1> ! PBEh-3c def2/J TightSCF DefGrid3
|  2>
|  3> %maxcore 60000
|  4>
|  5> %pal
|  6> nprocs 4
|  7> end
|  8>
|  9> *xyzfile 0 1 N3H5_3.xyz
| 10>
| 11>                          ****END OF INPUT****

CARTESIAN COORDINATES (ANGSTROEM)
---------------------------------
  N     -0.454515    0.218702    0.000000
  N      0.372323    0.197579    1.173540
  N      0.372323    0.197579   -1.173540
  H      0.502661   -0.751955   -1.530822
  H     -0.110894    0.742539   -1.884599
  H      0.502661   -0.751955    1.530822
  H     -0.110894    0.742539    1.884599
  H     -1.073666   -0.595029    0.000000

 Total Charge           Charge          ....    0
 Multiplicity           Mult            ....    1
 Number of Electrons    NEL             ....   26
 Basis Dimension        Dim             ....   55

ORBITAL ENERGIES
----------------

  NO   OCC          E(Eh)            E(eV)
   0   2.0000     -14.666594      -399.0983
   1   2.0000     -14.627478      -398.0339
   2   2.0000     -14.627407      -398.0320
   3   2.0000      -1.077984       -29.3334
   4   2.0000      -0.937357       -25.5068
   5   2.0000      -0.770040       -20.9539
   6   2.0000      -0.580947       -15.8084
   7   2.0000      -0.551807       -15.0154
   8   2.0000      -0.530667       -14.4402
   9   2.0000      -0.490893       -13.3579
  10   2.0000      -0.300659        -8.1813
  11   2.0000      -0.296867        -8.0782
  12   2.0000      -0.290679        -7.9098
  13   0.0000       0.119453         3.2505
  14   0.0000       0.166636         4.5344
  15   0.0000       0.168736         4.5915
  16   0.0000       0.213349         5.8055
  17   0.0000       0.226896         6.1742

MULLIKEN ATOMIC CHARGES
-----------------------
   0 N :   -0.362108
   1 N :   -0.595282
   2 N :   -0.595282
   3 H :    0.297983
   4 H :    0.328050
   5 H :    0.297983
   6 H :    0.328050
   7 H :    0.300607
Sum of atomic charges:   -0.0000000

LOEWDIN ATOMIC CHARGES
----------------------
   0 N :   -0.228884
   1 N :   -0.399178
   2 N :   -0.399178
   3 H :    0.198621
   4 H :    0.218807
   5 H :    0.198621
   6 H :    0.218807
   7 H :    0.192383

  Mayer bond orders larger than 0.100000
B(  0-N ,  1-N ) :   1.0121 B(  0-N ,  2-N ) :   1.0121 B(  0-N ,  7-H ) :   0.8525
B(  1-N ,  5-H ) :   0.8640 B(  1-N ,  6-H ) :   0.8561 B(  2-N ,  3-H ) :   0.8640
B(  2-N ,  4-H ) :   0.8561

Dispersion correction           -0.002117493
FINAL SINGLE POINT ENERGY      -166.810503422347

DIPOLE MOMENT
-------------
                                X             Y             Z
Electronic contribution:     -0.13178       0.38313       0.00000
Nuclear contribution   :     -0.64784      -1.37071       0.00000
                        -----------------------------------------
Total Dipole Moment    :     -0.77962      -0.98758       0.00000
                        -----------------------------------------
Magnitude (a.u.)       :      1.25822
Magnitude (Debye)      :      3.19814

Rotational constants in cm-1:     1.506507     0.315263     0.287433
Rotational constants in MHz : 45163.941456  9451.353371  8617.033845

                             ****ORCA TERMINATED NORMALLY****
TOTAL RUN TIME: 0 days 0 hours 1 minutes 4 seconds 630 msec
