                         Program Version 5.0.3 -  RELEASE  -
|  1> ! PBEh-3c def2/J TightSCF DefGrid3
|  2>
|  3> %maxcore 60000
|  4>
|  5> %pal
|  6> nprocs 4
|  7> end
|  8>
|  9> *xyzfile 0 1 PCH_PhI.xyz
| 10>
| 11>                          ****END OF INPUT****

CARTESIAN COORDINATES (ANGSTROEM)
---------------------------------
  P      0.000000    0.000000    4.198438
  C      0.000000    0.000000    5.723559
  H      0.000000    0.000000    6.795242
  I      0.000000    0.000000    0.434814
  C      0.000000    0.000000   -1.660899
  C      0.000000    1.205543   -2.346244
  C      0.000000    1.199222   -3.733517
  C      0.000000    0.000000   -4.429003
  C      0.000000   -1.199222   -3.733517
  C      0.000000   -1.205543   -2.346244
  H      0.000000    2.142581   -1.805804
  H      0.000000    2.139722   -4.269458
  H      0.000000    0.000000   -5.511263
  H      0.000000   -2.139722   -4.269458
  H      0.000000   -2.142581   -1.805804

 Total Charge           Charge          ....    0
 Multiplicity           Mult            ....    1
 Number of Electrons    NEL             ....   88
 Basis Dimension        Dim             ....  161

ORBITAL ENERGIES
----------------

  NO   OCC          E(Eh)            E(eV)
   0   2.0000     -77.746444     -2115.5883
   1   2.0000     -10.503774      -285.8222
   2   2.0000     -10.486018      -285.3390
   3   2.0000     -10.464390      -284.7505
   4   2.0000     -10.464360      -284.7497
   5   2.0000     -10.461587      -284.6743
   6   2.0000     -10.461498      -284.6718
   7   2.0000     -10.459287      -284.6117
   8   2.0000      -7.094787      -193.0590
   9   2.0000      -6.824322      -185.6992
  10   2.0000      -5.078273      -138.1868
  11   2.0000      -5.061652      -137.7346
  12   2.0000      -5.061567      -137.7322
  13   2.0000      -4.913735      -133.7095
  14   2.0000      -4.913735      -133.7095
  15   2.0000      -4.913630      -133.7067
  16   2.0000      -2.032304       -55.3018
  17   2.0000      -2.026827       -55.1528
  18   2.0000      -2.026807       -55.1522
  19   2.0000      -2.012464       -54.7619
  20   2.0000      -2.012457       -54.7617
  21   2.0000      -0.975733       -26.5510
  22   2.0000      -0.865181       -23.5428
  23   2.0000      -0.854221       -23.2445
  24   2.0000      -0.805011       -21.9055
  25   2.0000      -0.766721       -20.8635
  26   2.0000      -0.698945       -19.0193
  27   2.0000      -0.674584       -18.3564
  28   2.0000      -0.609560       -16.5870
  29   2.0000      -0.593994       -16.1634
  30   2.0000      -0.532948       -14.5022
  31   2.0000      -0.526155       -14.3174
  32   2.0000      -0.497862       -13.5475
  33   2.0000      -0.470115       -12.7925
  34   2.0000      -0.445599       -12.1254
  35   2.0000      -0.417317       -11.3558
  36   2.0000      -0.416185       -11.3250
  37   2.0000      -0.383967       -10.4483
  38   2.0000      -0.343631        -9.3507
  39   2.0000      -0.330789        -9.0012
  40   2.0000      -0.330384        -8.9902
  41   2.0000      -0.308502        -8.3948
  42   2.0000      -0.308179        -8.3860
  43   2.0000      -0.278233        -7.5711
  44   0.0000      -0.022902        -0.6232
  45   0.0000      -0.022765        -0.6195
  46   0.0000      -0.003569        -0.0971
  47   0.0000       0.003207         0.0873
  48   0.0000       0.005591         0.1521

MULLIKEN ATOMIC CHARGES
-----------------------
   0 P :    0.157541
   1 C :   -0.407781
   2 H :    0.253192
   3 I :    0.067259
   4 C :   -0.188131
   5 C :   -0.207063
   6 C :   -0.210471
   7 C :   -0.224045
   8 C :   -0.210471
   9 C :   -0.207063
  10 H :    0.245118
  11 H :    0.229666
  12 H :    0.227466
  13 H :    0.229666
  14 H :    0.245118
Sum of atomic charges:   -0.0000000

LOEWDIN ATOMIC CHARGES
----------------------
   0 P :    0.234241
   1 C :   -0.379216
   2 H :    0.153433
   3 I :    0.112021
   4 C :   -0.173639
   5 C :   -0.138869
   6 C :   -0.126897
   7 C :   -0.131999
   8 C :   -0.126897
   9 C :   -0.138869
  10 H :    0.147095
  11 H :    0.141331
  12 H :    0.139838
  13 H :    0.141331
  14 H :    0.147095

  Mayer bond orders larger than 0.100000
B(  0-P ,  1-C ) :   2.8987 B(  1-C ,  2-H ) :   0.8930 B(  3-I ,  4-C ) :   1.0343
B(  4-C ,  5-C ) :   1.3735 B(  4-C ,  9-C ) :   1.3735 B(  5-C ,  6-C ) :   1.4324
B(  5-C , 10-H ) :   0.9101 B(  6-C ,  7-C ) :   1.4223 B(  6-C , 11-H ) :   0.9158
B(  7-C ,  8-C ) :   1.4223 B(  7-C , 12-H ) :   0.9174 B(  8-C ,  9-C ) :   1.4324
B(  8-C , 13-H ) :   0.9158 B(  9-C , 14-H ) :   0.9101

Dispersion correction           -0.008488805
FINAL SINGLE POINT ENERGY      -908.361818930273

DIPOLE MOMENT
-------------
                                X             Y             Z
Electronic contribution:     -0.00000       0.00000      38.58768
Nuclear contribution   :      0.00000      -0.00000     -38.97869
                        -----------------------------------------
Total Dipole Moment    :     -0.00000       0.00000      -0.39101
                        -----------------------------------------
Magnitude (a.u.)       :      0.39101
Magnitude (Debye)      :      0.99386

Rotational constants in cm-1:     0.191687     0.009275     0.008847
Rotational constants in MHz :  5746.628736   278.069248   265.234993

                             ****ORCA TERMINATED NORMALLY****
TOTAL RUN TIME: 0 days 0 hours 2 minutes 17 seconds 27 msec
