                         Program Version 5.0.3 -  RELEASE  -
|  1> ! PBEh-3c def2/J TightSCF DefGrid3
|  2>
|  3> %maxcore 60000
|  4>
|  5> %pal
|  6> nprocs 4
|  7> end
|  8>
|  9> *xyzfile 0 1 nh3_4.xyz
| 10>
| 11>                          ****END OF INPUT****

CARTESIAN COORDINATES (ANGSTROEM)
---------------------------------
  H     -1.710690   -0.579609    0.003110
  H     -0.579609    1.710690   -0.003110
  H      2.081757    1.949474   -0.823544
  H     -2.081757   -1.949474   -0.823544
  H     -1.949474    2.081757    0.823544
  H      1.710690    0.579609    0.003110
  H      0.579609   -1.710690   -0.003110
  H      1.949474   -2.081757    0.823544
  N     -1.596691    1.596691    0.006345
  N     -1.596691   -1.596691   -0.006345
  N      1.596691    1.596691   -0.006345
  N      1.596691   -1.596691    0.006345
  H      2.084236    1.965445    0.802282
  H     -1.965445    2.084236   -0.802282
  H     -2.084236   -1.965445    0.802282
  H      1.965445   -2.084236   -0.802282

 Total Charge           Charge          ....    0
 Multiplicity           Mult            ....    1
 Number of Electrons    NEL             ....   40
 Basis Dimension        Dim             ....   84

ORBITAL ENERGIES
----------------

  NO   OCC          E(Eh)            E(eV)
   0   2.0000     -14.577172      -396.6650
   1   2.0000     -14.577140      -396.6641
   2   2.0000     -14.577140      -396.6641
   3   2.0000     -14.577086      -396.6627
   4   2.0000      -0.918398       -24.9909
   5   2.0000      -0.912259       -24.8238
   6   2.0000      -0.912259       -24.8238
   7   2.0000      -0.906312       -24.6620
   8   2.0000      -0.496972       -13.5233
   9   2.0000      -0.495905       -13.4943
  10   2.0000      -0.493474       -13.4281
  11   2.0000      -0.493474       -13.4281
  12   2.0000      -0.491191       -13.3660
  13   2.0000      -0.486347       -13.2342
  14   2.0000      -0.486347       -13.2342
  15   2.0000      -0.478755       -13.0276
  16   2.0000      -0.306725        -8.3464
  17   2.0000      -0.292789        -7.9672
  18   2.0000      -0.292789        -7.9672
  19   2.0000      -0.278006        -7.5649
  20   0.0000       0.139949         3.8082
  21   0.0000       0.169768         4.6196
  22   0.0000       0.169768         4.6196
  23   0.0000       0.191228         5.2036
  24   0.0000       0.232490         6.3264

MULLIKEN ATOMIC CHARGES
-----------------------
   0 H :    0.384166
   1 H :    0.384166
   2 H :    0.308457
   3 H :    0.308457
   4 H :    0.308457
   5 H :    0.384166
   6 H :    0.384166
   7 H :    0.308457
   8 N :   -1.000986
   9 N :   -1.000986
  10 N :   -1.000986
  11 N :   -1.000986
  12 H :    0.308363
  13 H :    0.308363
  14 H :    0.308363
  15 H :    0.308363
Sum of atomic charges:    0.0000000

LOEWDIN ATOMIC CHARGES
----------------------
   0 H :    0.237085
   1 H :    0.237085
   2 H :    0.213111
   3 H :    0.213111
   4 H :    0.213111
   5 H :    0.237085
   6 H :    0.237085
   7 H :    0.213111
   8 N :   -0.663230
   9 N :   -0.663230
  10 N :   -0.663230
  11 N :   -0.663230
  12 H :    0.213035
  13 H :    0.213035
  14 H :    0.213035
  15 H :    0.213035

  Mayer bond orders larger than 0.100000
B(  0-H ,  9-N ) :   0.7779 B(  1-H ,  8-N ) :   0.7779 B(  2-H , 10-N ) :   0.8830
B(  3-H ,  9-N ) :   0.8830 B(  4-H ,  8-N ) :   0.8830 B(  5-H , 10-N ) :   0.7779
B(  6-H , 11-N ) :   0.7779 B(  7-H , 11-N ) :   0.8830 B(  8-N , 13-H ) :   0.8829
B(  9-N , 14-H ) :   0.8829 B( 10-N , 12-H ) :   0.8829 B( 11-N , 15-H ) :   0.8829

Dispersion correction           -0.004353273
FINAL SINGLE POINT ENERGY      -225.750884701487

DIPOLE MOMENT
-------------
                                X             Y             Z
Electronic contribution:     -0.00000       0.00000       0.00000
Nuclear contribution   :      0.00000       0.00000       0.00000
                        -----------------------------------------
Total Dipole Moment    :     -0.00000       0.00000       0.00000
                        -----------------------------------------
Magnitude (a.u.)       :      0.00000
Magnitude (Debye)      :      0.00000

Rotational constants in cm-1:     0.089815     0.089815     0.046221
Rotational constants in MHz :  2692.600848  2692.600848  1385.665634

                             ****ORCA TERMINATED NORMALLY****
TOTAL RUN TIME: 0 days 0 hours 1 minutes 17 seconds 228 msec
