                         Program Version 5.0.3 -  RELEASE  -
|  1> ! PBEh-3c def2/J TightSCF DefGrid3
|  2>
|  3> %maxcore 60000
|  4>
|  5> %pal
|  6> nprocs 4
|  7> end
|  8>
|  9> *xyzfile 0 1 ARG_xak.xyz
| 10>
| 11>                          ****END OF INPUT****

CARTESIAN COORDINATES (ANGSTROEM)
---------------------------------
  N      2.475416    0.167400    0.424047
  H      2.791093    1.059776    0.779530
  C      1.250150    0.230510   -0.337489
  H      1.485621    0.065247   -1.395164
  C      0.234930   -0.836276    0.091378
  C      0.740239    1.666817   -0.195603
  H      0.787807   -1.668432    0.524900
  H     -0.413907   -0.425095    0.867273
  C     -0.577863   -1.338621   -1.094668
  O      1.490695    2.567407    0.184728
  H      0.082147   -1.927241   -1.735451
  H     -0.942381   -0.509046   -1.695784
  C     -1.767859   -2.213394   -0.703000
  H     -1.420979   -3.204030   -0.410084
  H     -2.421900   -2.335633   -1.566107
  N     -2.573591   -1.730555    0.408687
  H     -2.299972   -2.038340    1.326725
  C     -3.197223   -0.514897    0.376170
  N     -3.098342    0.263544   -0.650194
  N     -3.880443   -0.238980    1.559484
  H     -3.743291    1.042653   -0.544851
  H     -4.468745    0.576354    1.506706
  H     -4.368447   -1.031626    1.947091
  N     -0.543304    1.891251   -0.533011
  C     -1.085054    3.228960   -0.416529
  H     -1.200803    1.134379   -0.689146
  H     -0.428544    3.938961   -0.912490
  H     -1.183627    3.535101    0.625132
  H     -2.061091    3.246578   -0.892732
  C      3.356316   -0.842508    0.205894
  C      4.689739   -0.701954    0.899847
  O      3.082270   -1.812011   -0.496746
  H      4.727207    0.145921    1.578910
  H      4.895250   -1.617209    1.448825
  H      5.463252   -0.590829    0.142646

 Total Charge           Charge          ....    0
 Multiplicity           Mult            ....    1
 Number of Electrons    NEL             ....  124
 Basis Dimension        Dim             ....  278

ORBITAL ENERGIES
----------------

  NO   OCC          E(Eh)            E(eV)
   0   2.0000     -19.453738      -529.3631
   1   2.0000     -19.442241      -529.0503
   2   2.0000     -14.663452      -399.0128
   3   2.0000     -14.659537      -398.9063
   4   2.0000     -14.647558      -398.5803
   5   2.0000     -14.642331      -398.4381
   6   2.0000     -14.603314      -397.3764
   7   2.0000     -10.557735      -287.2906
   8   2.0000     -10.538280      -286.7612
   9   2.0000     -10.533887      -286.6416
  10   2.0000     -10.477117      -285.0969
  11   2.0000     -10.472783      -284.9789
  12   2.0000     -10.458579      -284.5924
  13   2.0000     -10.431119      -283.8452
  14   2.0000     -10.430175      -283.8195
  15   2.0000     -10.427539      -283.7478
  16   2.0000      -1.140036       -31.0220
  17   2.0000      -1.125365       -30.6227
  18   2.0000      -1.099780       -29.9265
  19   2.0000      -1.011612       -27.5274
  20   2.0000      -1.009230       -27.4626
  21   2.0000      -0.999572       -27.1997
  22   2.0000      -0.952144       -25.9091
  23   2.0000      -0.886043       -24.1105
  24   2.0000      -0.836966       -22.7750
  25   2.0000      -0.804955       -21.9039
  26   2.0000      -0.777099       -21.1459
  27   2.0000      -0.735879       -20.0243
  28   2.0000      -0.692229       -18.8365
  29   2.0000      -0.656277       -17.8582
  30   2.0000      -0.646037       -17.5796
  31   2.0000      -0.632140       -17.2014
  32   2.0000      -0.622415       -16.9368
  33   2.0000      -0.599659       -16.3175
  34   2.0000      -0.592212       -16.1149
  35   2.0000      -0.543067       -14.7776
  36   2.0000      -0.535985       -14.5849
  37   2.0000      -0.529162       -14.3992
  38   2.0000      -0.519583       -14.1386
  39   2.0000      -0.514878       -14.0105
  40   2.0000      -0.501758       -13.6535
  41   2.0000      -0.500328       -13.6146
  42   2.0000      -0.494552       -13.4574
  43   2.0000      -0.486654       -13.2425
  44   2.0000      -0.463129       -12.6024
  45   2.0000      -0.459536       -12.5046
  46   2.0000      -0.448522       -12.2049
  47   2.0000      -0.446185       -12.1413
  48   2.0000      -0.444090       -12.0843
  49   2.0000      -0.434642       -11.8272
  50   2.0000      -0.415515       -11.3067
  51   2.0000      -0.411924       -11.2090
  52   2.0000      -0.393093       -10.6966
  53   2.0000      -0.382589       -10.4108
  54   2.0000      -0.378646       -10.3035
  55   2.0000      -0.337957        -9.1963
  56   2.0000      -0.323438        -8.8012
  57   2.0000      -0.309666        -8.4265
  58   2.0000      -0.300106        -8.1663
  59   2.0000      -0.293263        -7.9801
  60   2.0000      -0.288340        -7.8461
  61   2.0000      -0.284799        -7.7498
  62   0.0000       0.062756         1.7077
  63   0.0000       0.068207         1.8560
  64   0.0000       0.076632         2.0853
  65   0.0000       0.095244         2.5917
  66   0.0000       0.140779         3.8308

MULLIKEN ATOMIC CHARGES
-----------------------
   0 N :   -0.647197
   1 H :    0.383107
   2 C :   -0.130431
   3 H :    0.266223
   4 C :   -0.467498
   5 C :    0.526740
   6 H :    0.266028
   7 H :    0.217165
   8 C :   -0.478253
   9 O :   -0.459379
  10 H :    0.249961
  11 H :    0.242371
  12 C :   -0.274995
  13 H :    0.222520
  14 H :    0.246578
  15 N :   -0.623741
  16 H :    0.354209
  17 C :    0.571242
  18 N :   -0.656116
  19 N :   -0.801527
  20 H :    0.290030
  21 H :    0.349078
  22 H :    0.352138
  23 N :   -0.668914
  24 C :   -0.490366
  25 H :    0.438574
  26 H :    0.244834
  27 H :    0.221788
  28 H :    0.210208
  29 C :    0.517001
  30 C :   -0.748974
  31 O :   -0.447298
  32 H :    0.219923
  33 H :    0.252913
  34 H :    0.252059
Sum of atomic charges:   -0.0000000

LOEWDIN ATOMIC CHARGES
----------------------
   0 N :   -0.232531
   1 H :    0.267246
   2 C :   -0.083554
   3 H :    0.146315
   4 C :   -0.247066
   5 C :    0.111077
   6 H :    0.145646
   7 H :    0.120328
   8 C :   -0.263890
   9 O :   -0.298202
  10 H :    0.140348
  11 H :    0.131270
  12 C :   -0.143222
  13 H :    0.126486
  14 H :    0.136447
  15 N :   -0.256172
  16 H :    0.252647
  17 C :    0.088322
  18 N :   -0.451637
  19 N :   -0.415230
  20 H :    0.214451
  21 H :    0.245414
  22 H :    0.249646
  23 N :   -0.242918
  24 C :   -0.251007
  25 H :    0.266737
  26 H :    0.137710
  27 H :    0.121952
  28 H :    0.122378
  29 C :    0.104309
  30 C :   -0.388195
  31 O :   -0.293862
  32 H :    0.130777
  33 H :    0.153684
  34 H :    0.154296

  Mayer bond orders larger than 0.100000
B(  0-N ,  1-H ) :   0.7692 B(  0-N ,  2-C ) :   0.9328 B(  0-N , 29-C ) :   1.1680
B(  2-C ,  3-H ) :   0.8825 B(  2-C ,  4-C ) :   0.9281 B(  2-C ,  5-C ) :   0.9269
B(  4-C ,  6-H ) :   0.9053 B(  4-C ,  7-H ) :   0.9107 B(  4-C ,  8-C ) :   0.9554
B(  5-C ,  9-O ) :   1.9187 B(  5-C , 23-N ) :   1.1945 B(  8-C , 10-H ) :   0.9021
B(  8-C , 11-H ) :   0.8993 B(  8-C , 12-C ) :   0.9680 B( 12-C , 13-H ) :   0.9228
B( 12-C , 14-H ) :   0.9127 B( 12-C , 15-N ) :   0.9582 B( 15-N , 16-H ) :   0.8293
B( 15-N , 17-C ) :   1.1150 B( 17-C , 18-N ) :   1.7963 B( 17-C , 19-N ) :   1.0779
B( 18-N , 20-H ) :   0.8528 B( 19-N , 21-H ) :   0.8448 B( 19-N , 22-H ) :   0.8337
B( 23-N , 24-C ) :   0.9713 B( 23-N , 25-H ) :   0.6936 B( 24-C , 26-H ) :   0.9134
B( 24-C , 27-H ) :   0.9165 B( 24-C , 28-H ) :   0.9277 B( 29-C , 30-C ) :   0.9284
B( 29-C , 31-O ) :   1.9529 B( 30-C , 32-H ) :   0.9207 B( 30-C , 33-H ) :   0.9139
B( 30-C , 34-H ) :   0.9111

Dispersion correction           -0.022579379
FINAL SINGLE POINT ENERGY      -776.975970535466

DIPOLE MOMENT
-------------
                                X             Y             Z
Electronic contribution:      2.66400       0.43203       0.19913
Nuclear contribution   :     -4.82704      -0.59482       0.94907
                        -----------------------------------------
Total Dipole Moment    :     -2.16304      -0.16279       1.14820
                        -----------------------------------------
Magnitude (a.u.)       :      2.45430
Magnitude (Debye)      :      6.23834

Rotational constants in cm-1:     0.023785     0.010542     0.008128
Rotational constants in MHz :   713.054105   316.037574   243.674929

                             ****ORCA TERMINATED NORMALLY****
TOTAL RUN TIME: 0 days 0 hours 5 minutes 10 seconds 656 msec
