                         Program Version 5.0.3 -  RELEASE  -
|  1> ! PBEh-3c def2/J TightSCF DefGrid3
|  2>
|  3> %maxcore 60000
|  4>
|  5> %pal
|  6> nprocs 4
|  7> end
|  8>
|  9> *xyzfile 0 2 P35.xyz
| 10>
| 11>                          ****END OF INPUT****

CARTESIAN COORDINATES (ANGSTROEM)
---------------------------------
  C     -1.126665    0.780807    0.000000
  S     -0.709893   -0.887092    0.000000
  C      1.091721   -0.813101    0.000000
  O      1.745797    0.192468    0.000000
  H     -0.341916    1.522541    0.000000
  H     -2.174553    1.033924    0.000000
  H      1.515510   -1.829548    0.000000

 Total Charge           Charge          ....    0
 Multiplicity           Mult            ....    2
 Number of Electrons    NEL             ....   39
 Basis Dimension        Dim             ....   69

ORBITAL ENERGIES
----------------
                 SPIN UP ORBITALS
  NO   OCC          E(Eh)            E(eV)
   0   1.0000     -89.624737     -2438.8131
   1   1.0000     -19.523491      -531.2612
   2   1.0000     -10.575277      -287.7679
   3   1.0000     -10.484164      -285.2886
   4   1.0000      -8.264933      -224.9003
   5   1.0000      -6.155050      -167.4874
   6   1.0000      -6.151250      -167.3840
   7   1.0000      -6.149895      -167.3472
   8   1.0000      -1.189310       -32.3628
   9   1.0000      -0.913069       -24.8459
  10   1.0000      -0.766381       -20.8543
  11   1.0000      -0.654235       -17.8026
  12   1.0000      -0.565818       -15.3967
  13   1.0000      -0.538574       -14.6553
  14   1.0000      -0.492909       -13.4127
  15   1.0000      -0.487679       -13.2704
  16   1.0000      -0.426838       -11.6148
  17   1.0000      -0.389323       -10.5940
  18   1.0000      -0.335307        -9.1242
  19   1.0000      -0.246960        -6.7201
  20   0.0000      -0.005661        -0.1541
  21   0.0000       0.058170         1.5829
  22   0.0000       0.107620         2.9285
  23   0.0000       0.191198         5.2028
  24   0.0000       0.214620         5.8401

                 SPIN DOWN ORBITALS
  NO   OCC          E(Eh)            E(eV)
   0   1.0000     -89.624421     -2438.8045
   1   1.0000     -19.521597      -531.2097
   2   1.0000     -10.575191      -287.7656
   3   1.0000     -10.469269      -284.8833
   4   1.0000      -8.264605      -224.8913
   5   1.0000      -6.155217      -167.4920
   6   1.0000      -6.151484      -167.3904
   7   1.0000      -6.147889      -167.2926
   8   1.0000      -1.185661       -32.2635
   9   1.0000      -0.898292       -24.4438
  10   1.0000      -0.741406       -20.1747
  11   1.0000      -0.641639       -17.4599
  12   1.0000      -0.561709       -15.2849
  13   1.0000      -0.534808       -14.5529
  14   1.0000      -0.484472       -13.1832
  15   1.0000      -0.475244       -12.9320
  16   1.0000      -0.418747       -11.3947
  17   1.0000      -0.345873        -9.4117
  18   1.0000      -0.333734        -9.0814
  19   0.0000      -0.048692        -1.3250
  20   0.0000       0.019951         0.5429
  21   0.0000       0.063285         1.7221
  22   0.0000       0.120084         3.2677
  23   0.0000       0.200317         5.4509

MULLIKEN ATOMIC CHARGES AND SPIN POPULATIONS
--------------------------------------------
   0 C :   -0.587516    0.984441
   1 S :    0.083717    0.039066
   2 C :    0.031883    0.022751
   3 O :   -0.300167    0.063065
   4 H :    0.288318   -0.051610
   5 H :    0.266558   -0.054382
   6 H :    0.217207   -0.003333
Sum of atomic charges         :   -0.0000000

LOEWDIN ATOMIC CHARGES AND SPIN POPULATIONS
-------------------------------------------
   0 C :   -0.429460    0.887270
   1 S :    0.269024    0.078936
   2 C :   -0.071384    0.027793
   3 O :   -0.181585    0.060786
   4 H :    0.156965   -0.026249
   5 H :    0.148034   -0.026864
   6 H :    0.108406   -0.001672

  Mayer bond orders larger than 0.100000
B(  0-C ,  1-S ) :   1.1837 B(  0-C ,  4-H ) :   0.8701 B(  0-C ,  5-H ) :   0.8993
B(  1-S ,  2-C ) :   1.0284 B(  1-S ,  3-O ) :   0.1286 B(  2-C ,  3-O ) :   2.0427
B(  2-C ,  6-H ) :   0.8450

Dispersion correction           -0.002607361
FINAL SINGLE POINT ENERGY      -550.581942369909

DIPOLE MOMENT
-------------
                                X             Y             Z
Electronic contribution:      0.63282      -2.01322      -0.00000
Nuclear contribution   :     -1.03227       1.64325       0.00000
                        -----------------------------------------
Total Dipole Moment    :     -0.39945      -0.36996      -0.00000
                        -----------------------------------------
Magnitude (a.u.)       :      0.54446
Magnitude (Debye)      :      1.38390

Rotational constants in cm-1:     0.426332     0.166096     0.119529
Rotational constants in MHz : 12781.111849  4979.439894  3583.378442

                             ****ORCA TERMINATED NORMALLY****
TOTAL RUN TIME: 0 days 0 hours 3 minutes 48 seconds 477 msec
