                         Program Version 5.0.3 -  RELEASE  -
|  1> ! PBEh-3c def2/J TightSCF DefGrid3
|  2>
|  3> %maxcore 60000
|  4>
|  5> %pal
|  6> nprocs 4
|  7> end
|  8>
|  9> *xyzfile 0 2 RKT07.xyz
| 10>
| 11>                          ****END OF INPUT****

CARTESIAN COORDINATES (ANGSTROEM)
---------------------------------
  N     -0.925916   -0.196008   -0.217123
  O      1.404088   -0.244772   -0.124854
  H     -1.078282   -0.699717    0.652007
  H     -1.114012    0.783731   -0.022710
  H      0.194214   -0.305910   -0.467748
  H      1.519909    0.662677    0.180427

 Total Charge           Charge          ....    0
 Multiplicity           Mult            ....    2
 Number of Electrons    NEL             ....   19
 Basis Dimension        Dim             ....   38

ORBITAL ENERGIES
----------------
                 SPIN UP ORBITALS
  NO   OCC          E(Eh)            E(eV)
   0   1.0000     -19.503005      -530.7038
   1   1.0000     -14.655605      -398.7993
   2   1.0000      -1.098585       -29.8940
   3   1.0000      -0.968545       -26.3554
   4   1.0000      -0.591769       -16.1029
   5   1.0000      -0.551735       -15.0135
   6   1.0000      -0.488251       -13.2860
   7   1.0000      -0.402182       -10.9439
   8   1.0000      -0.365377        -9.9424
   9   1.0000      -0.347036        -9.4433
  10   0.0000       0.114686         3.1208
  11   0.0000       0.171881         4.6771
  12   0.0000       0.201117         5.4727
  13   0.0000       0.346524         9.4294
  14   0.0000       0.705597        19.2003

                 SPIN DOWN ORBITALS
  NO   OCC          E(Eh)            E(eV)
   0   1.0000     -19.485188      -530.2189
   1   1.0000     -14.642807      -398.4510
   2   1.0000      -1.048979       -28.5442
   3   1.0000      -0.929160       -25.2837
   4   1.0000      -0.556547       -15.1444
   5   1.0000      -0.540549       -14.7091
   6   1.0000      -0.455842       -12.4041
   7   1.0000      -0.346516        -9.4292
   8   1.0000      -0.325224        -8.8498
   9   0.0000      -0.097541        -2.6542
  10   0.0000       0.123061         3.3486
  11   0.0000       0.179284         4.8786
  12   0.0000       0.205222         5.5844
  13   0.0000       0.363890         9.9019

MULLIKEN ATOMIC CHARGES AND SPIN POPULATIONS
--------------------------------------------
   0 N :   -0.835202    0.553135
   1 O :   -0.664153    0.580118
   2 H :    0.344317   -0.021662
   3 H :    0.328968   -0.022068
   4 H :    0.426143   -0.069615
   5 H :    0.399927   -0.019907
Sum of atomic charges         :   -0.0000000

LOEWDIN ATOMIC CHARGES AND SPIN POPULATIONS
-------------------------------------------
   0 N :   -0.519933    0.517345
   1 O :   -0.510152    0.566175
   2 H :    0.233287   -0.013914
   3 H :    0.223712   -0.014098
   4 H :    0.285322   -0.040739
   5 H :    0.287763   -0.014769

  Mayer bond orders larger than 0.100000
B(  0-N ,  1-O ) :   0.3626 B(  0-N ,  2-H ) :   0.8553 B(  0-N ,  3-H ) :   0.8625
B(  0-N ,  4-H ) :   0.4980 B(  1-O ,  4-H ) :   0.3254 B(  1-O ,  5-H ) :   0.8131

Dispersion correction           -0.001075750
FINAL SINGLE POINT ENERGY      -131.994461582822

DIPOLE MOMENT
-------------
                                X             Y             Z
Electronic contribution:      1.02737      -0.23107      -0.13829
Nuclear contribution   :     -1.43197       1.09800       0.83811
                        -----------------------------------------
Total Dipole Moment    :     -0.40460       0.86693       0.69983
                        -----------------------------------------
Magnitude (a.u.)       :      1.18533
Magnitude (Debye)      :      3.01288

Rotational constants in cm-1:     5.738426     0.359419     0.351370
Rotational constants in MHz : 172033.670799 10775.107726 10533.794179

                             ****ORCA TERMINATED NORMALLY****
TOTAL RUN TIME: 0 days 0 hours 2 minutes 7 seconds 702 msec
