                         Program Version 5.0.3 -  RELEASE  -
|  1> ! PBEh-3c def2/J TightSCF DefGrid3
|  2>
|  3> %maxcore 60000
|  4>
|  5> %pal
|  6> nprocs 4
|  7> end
|  8>
|  9> *xyzfile 0 1 SER_xaf.xyz
| 10>
| 11>                          ****END OF INPUT****

CARTESIAN COORDINATES (ANGSTROEM)
---------------------------------
  N     -1.044603   -0.813154   -0.510153
  C      0.272801   -0.849461    0.101716
  C      1.149426    0.316049   -0.375274
  O      2.163932    0.127575   -1.051751
  C      0.934370   -2.178940   -0.236432
  O      2.222324   -2.276354    0.318305
  H     -1.199714   -1.368989   -1.334529
  H      0.139908   -0.764732    1.180764
  H      0.335488   -2.987608    0.179517
  H      0.957656   -2.292010   -1.326636
  H      2.725585   -1.582193   -0.131249
  N      0.707302    1.523819    0.016412
  H     -0.163960    1.542760    0.535480
  C      1.372873    2.750772   -0.364239
  H      0.784817    3.311849   -1.089173
  H      1.543530    3.373890    0.510474
  H      2.326128    2.487328   -0.811216
  C     -2.055184   -0.042093   -0.039576
  O     -1.903708    0.732030    0.905546
  C     -3.381391   -0.195466   -0.737692
  H     -4.111922   -0.543962   -0.011324
  H     -3.350016   -0.888997   -1.574034
  H     -3.704933    0.781265   -1.088291

 Total Charge           Charge          ....    0
 Multiplicity           Mult            ....    1
 Number of Electrons    NEL             ....   86
 Basis Dimension        Dim             ....  189

ORBITAL ENERGIES
----------------

  NO   OCC          E(Eh)            E(eV)
   0   2.0000     -19.479573      -530.0661
   1   2.0000     -19.477948      -530.0219
   2   2.0000     -19.467895      -529.7484
   3   2.0000     -14.688099      -399.6835
   4   2.0000     -14.660068      -398.9207
   5   2.0000     -10.571954      -287.6775
   6   2.0000     -10.551451      -287.1196
   7   2.0000     -10.495363      -285.5934
   8   2.0000     -10.490626      -285.4644
   9   2.0000     -10.465779      -284.7883
  10   2.0000     -10.459294      -284.6119
  11   2.0000      -1.166757       -31.7491
  12   2.0000      -1.150646       -31.3107
  13   2.0000      -1.119304       -30.4578
  14   2.0000      -1.048801       -28.5393
  15   2.0000      -1.022701       -27.8291
  16   2.0000      -0.880127       -23.9495
  17   2.0000      -0.826400       -22.4875
  18   2.0000      -0.796670       -21.6785
  19   2.0000      -0.719697       -19.5839
  20   2.0000      -0.682726       -18.5779
  21   2.0000      -0.654389       -17.8068
  22   2.0000      -0.616337       -16.7714
  23   2.0000      -0.579854       -15.7786
  24   2.0000      -0.575876       -15.6704
  25   2.0000      -0.551856       -15.0168
  26   2.0000      -0.533066       -14.5055
  27   2.0000      -0.523004       -14.2317
  28   2.0000      -0.510972       -13.9043
  29   2.0000      -0.495577       -13.4853
  30   2.0000      -0.486043       -13.2259
  31   2.0000      -0.479499       -13.0478
  32   2.0000      -0.464242       -12.6327
  33   2.0000      -0.457883       -12.4596
  34   2.0000      -0.446580       -12.1520
  35   2.0000      -0.433173       -11.7872
  36   2.0000      -0.428116       -11.6496
  37   2.0000      -0.394052       -10.7227
  38   2.0000      -0.350279        -9.5316
  39   2.0000      -0.332873        -9.0579
  40   2.0000      -0.326655        -8.8887
  41   2.0000      -0.304986        -8.2991
  42   2.0000      -0.302486        -8.2311
  43   0.0000       0.031247         0.8503
  44   0.0000       0.055047         1.4979
  45   0.0000       0.105382         2.8676
  46   0.0000       0.146661         3.9909
  47   0.0000       0.161902         4.4056

MULLIKEN ATOMIC CHARGES
-----------------------
   0 N :   -0.625523
   1 C :   -0.257442
   2 C :    0.573803
   3 O :   -0.470996
   4 C :   -0.144302
   5 O :   -0.631510
   6 H :    0.363838
   7 H :    0.285278
   8 H :    0.221999
   9 H :    0.180217
  10 H :    0.441754
  11 N :   -0.647942
  12 H :    0.410594
  13 C :   -0.495698
  14 H :    0.221080
  15 H :    0.225901
  16 H :    0.260422
  17 C :    0.544480
  18 O :   -0.460805
  19 C :   -0.743235
  20 H :    0.267291
  21 H :    0.217590
  22 H :    0.263205
Sum of atomic charges:    0.0000000

LOEWDIN ATOMIC CHARGES
----------------------
   0 N :   -0.214759
   1 C :   -0.117717
   2 C :    0.107518
   3 O :   -0.303238
   4 C :   -0.093032
   5 O :   -0.403853
   6 H :    0.259331
   7 H :    0.156553
   8 H :    0.123996
   9 H :    0.102633
  10 H :    0.315974
  11 N :   -0.234837
  12 H :    0.270232
  13 C :   -0.255529
  14 H :    0.122455
  15 H :    0.126746
  16 H :    0.150848
  17 C :    0.115847
  18 O :   -0.298289
  19 C :   -0.383407
  20 H :    0.162754
  21 H :    0.130109
  22 H :    0.159665

  Mayer bond orders larger than 0.100000
B(  0-N ,  1-C ) :   0.8975 B(  0-N ,  6-H ) :   0.8180 B(  0-N , 17-C ) :   1.1683
B(  1-C ,  2-C ) :   0.8722 B(  1-C ,  4-C ) :   0.9582 B(  1-C ,  7-H ) :   0.8699
B(  2-C ,  3-O ) :   1.8798 B(  2-C , 11-N ) :   1.2245 B(  3-O , 11-N ) :   0.1075
B(  4-C ,  5-O ) :   1.0715 B(  4-C ,  8-H ) :   0.9103 B(  4-C ,  9-H ) :   0.8999
B(  5-O , 10-H ) :   0.7325 B( 11-N , 12-H ) :   0.7293 B( 11-N , 13-C ) :   0.9536
B( 13-C , 14-H ) :   0.9199 B( 13-C , 15-H ) :   0.9211 B( 13-C , 16-H ) :   0.9026
B( 17-C , 18-O ) :   1.8806 B( 17-C , 19-C ) :   0.9341 B( 19-C , 20-H ) :   0.9043
B( 19-C , 21-H ) :   0.9209 B( 19-C , 22-H ) :   0.9067

Dispersion correction           -0.012545301
FINAL SINGLE POINT ENERGY      -569.849428366987

DIPOLE MOMENT
-------------
                                X             Y             Z
Electronic contribution:      2.76686      -1.75530       1.81465
Nuclear contribution   :     -4.21152       1.97626      -2.60549
                        -----------------------------------------
Total Dipole Moment    :     -1.44466       0.22096      -0.79083
                        -----------------------------------------
Magnitude (a.u.)       :      1.66171
Magnitude (Debye)      :      4.22374

Rotational constants in cm-1:     0.043205     0.028618     0.019251
Rotational constants in MHz :  1295.244206   857.944441   577.141886

                             ****ORCA TERMINATED NORMALLY****
TOTAL RUN TIME: 0 days 0 hours 2 minutes 19 seconds 689 msec
