                         Program Version 5.0.3 -  RELEASE  -
|  1> ! PBEh-3c def2/J TightSCF DefGrid3
|  2>
|  3> %maxcore 60000
|  4>
|  5> %pal
|  6> nprocs 4
|  7> end
|  8>
|  9> *xyzfile 0 1 propylfuran.xyz
| 10>
| 11>                          ****END OF INPUT****

CARTESIAN COORDINATES (ANGSTROEM)
---------------------------------
  C     -2.100846    0.711186   -0.427529
  C     -0.741739    0.580325   -0.512135
  C     -0.240433    1.924443   -0.650492
  C     -1.324171    2.752163   -0.640329
  H     -2.909498   -0.003450   -0.320350
  H      0.797003    2.229091   -0.750358
  H     -1.448440    3.826060   -0.719005
  C      0.055739   -0.689294   -0.451848
  H      0.715400   -0.753196   -1.334742
  H     -0.627978   -1.551250   -0.520094
  C      0.914473   -0.824527    0.819625
  H      1.591621    0.041967    0.893759
  H      0.255868   -0.770856    1.701435
  C      1.726687   -2.120655    0.849393
  H      2.412839   -2.182252   -0.009229
  H      2.330725   -2.194650    1.764730
  H      1.070390   -3.003474    0.811089
  O     -2.477641    2.028370   -0.503919

 Total Charge           Charge          ....    0
 Multiplicity           Mult            ....    1
 Number of Electrons    NEL             ....   60
 Basis Dimension        Dim             ....  140

ORBITAL ENERGIES
----------------

  NO   OCC          E(Eh)            E(eV)
   0   2.0000     -19.560684      -532.2733
   1   2.0000     -10.493825      -285.5515
   2   2.0000     -10.488818      -285.4152
   3   2.0000     -10.449220      -284.3377
   4   2.0000     -10.446048      -284.2514
   5   2.0000     -10.441362      -284.1239
   6   2.0000     -10.438624      -284.0494
   7   2.0000     -10.428805      -283.7822
   8   2.0000      -1.212801       -33.0020
   9   2.0000      -0.912204       -24.8223
  10   2.0000      -0.862590       -23.4723
  11   2.0000      -0.827280       -22.5114
  12   2.0000      -0.766728       -20.8637
  13   2.0000      -0.673760       -18.3339
  14   2.0000      -0.647736       -17.6258
  15   2.0000      -0.633468       -17.2375
  16   2.0000      -0.584875       -15.9153
  17   2.0000      -0.523037       -14.2326
  18   2.0000      -0.508565       -13.8388
  19   2.0000      -0.499042       -13.5796
  20   2.0000      -0.480308       -13.0699
  21   2.0000      -0.466169       -12.6851
  22   2.0000      -0.455907       -12.4058
  23   2.0000      -0.444839       -12.1047
  24   2.0000      -0.412743       -11.2313
  25   2.0000      -0.398721       -10.8498
  26   2.0000      -0.392965       -10.6931
  27   2.0000      -0.376772       -10.2525
  28   2.0000      -0.311925        -8.4879
  29   2.0000      -0.263067        -7.1584
  30   0.0000       0.041751         1.1361
  31   0.0000       0.096964         2.6385
  32   0.0000       0.139595         3.7986
  33   0.0000       0.171048         4.6544
  34   0.0000       0.175238         4.7685

MULLIKEN ATOMIC CHARGES
-----------------------
   0 C :   -0.021347
   1 C :    0.078195
   2 C :   -0.359199
   3 C :    0.049446
   4 H :    0.234687
   5 H :    0.218089
   6 H :    0.237486
   7 C :   -0.500929
   8 H :    0.220960
   9 H :    0.217272
  10 C :   -0.403895
  11 H :    0.210596
  12 H :    0.219121
  13 C :   -0.641729
  14 H :    0.208905
  15 H :    0.222054
  16 H :    0.209044
  17 O :   -0.398755
Sum of atomic charges:   -0.0000000

LOEWDIN ATOMIC CHARGES
----------------------
   0 C :   -0.052143
   1 C :   -0.097146
   2 C :   -0.195957
   3 C :   -0.037679
   4 H :    0.137676
   5 H :    0.142324
   6 H :    0.137861
   7 C :   -0.224865
   8 H :    0.131399
   9 H :    0.130276
  10 C :   -0.240245
  11 H :    0.121999
  12 H :    0.125904
  13 C :   -0.363055
  14 H :    0.123493
  15 H :    0.128723
  16 H :    0.123683
  17 O :   -0.092247

  Mayer bond orders larger than 0.100000
B(  0-C ,  1-C ) :   1.6122 B(  0-C ,  4-H ) :   0.9179 B(  0-C , 17-O ) :   1.0701
B(  1-C ,  2-C ) :   1.2491 B(  1-C ,  7-C ) :   0.9507 B(  2-C ,  3-C ) :   1.6226
B(  2-C ,  5-H ) :   0.9254 B(  3-C ,  6-H ) :   0.9141 B(  3-C , 17-O ) :   1.0886
B(  7-C ,  8-H ) :   0.9162 B(  7-C ,  9-H ) :   0.9266 B(  7-C , 10-C ) :   0.9669
B( 10-C , 11-H ) :   0.9203 B( 10-C , 12-H ) :   0.9186 B( 10-C , 13-C ) :   0.9911
B( 13-C , 14-H ) :   0.9290 B( 13-C , 15-H ) :   0.9307 B( 13-C , 16-H ) :   0.9290

Dispersion correction           -0.008630701
FINAL SINGLE POINT ENERGY      -347.207370564236

DIPOLE MOMENT
-------------
                                X             Y             Z
Electronic contribution:     -8.32602       8.67106      -2.97395
Nuclear contribution   :      8.66594      -8.84646       3.01145
                        -----------------------------------------
Total Dipole Moment    :      0.33992      -0.17540       0.03750
                        -----------------------------------------
Magnitude (a.u.)       :      0.38434
Magnitude (Debye)      :      0.97692

Rotational constants in cm-1:     0.216094     0.033525     0.030874
Rotational constants in MHz :  6478.332487  1005.062721   925.576127

                             ****ORCA TERMINATED NORMALLY****
TOTAL RUN TIME: 0 days 0 hours 1 minutes 52 seconds 761 msec
