                         Program Version 5.0.3 -  RELEASE  -
|  1> ! PBEh-3c def2/J TightSCF DefGrid3
|  2>
|  3> %maxcore 60000
|  4>
|  5> %pal
|  6> nprocs 4
|  7> end
|  8>
|  9> *xyzfile 0 1 carbooxo2.xyz
| 10>
| 11>                          ****END OF INPUT****

CARTESIAN COORDINATES (ANGSTROEM)
---------------------------------
  O     -1.850765    3.205619    0.000000
  C     -1.253392    2.170938    0.000000
  C     -1.213910    0.714602    0.000000
  C     -1.213910   -0.714602    0.000000
  C     -1.253392   -2.170938    0.000000
  O     -1.850765   -3.205619    0.000000
  C     -0.011908   -1.408578    0.000000
  C      1.225818   -0.693976    0.000000
  C      2.506784    0.000000    0.000000
  O      3.701530    0.000000    0.000000
  C      1.225818    0.693976    0.000000
  C     -0.011908    1.408578    0.000000

 Total Charge           Charge          ....    0
 Multiplicity           Mult            ....    1
 Number of Electrons    NEL             ....   78
 Basis Dimension        Dim             ....  180

ORBITAL ENERGIES
----------------

  NO   OCC          E(Eh)            E(eV)
   0   2.0000     -19.545470      -531.8593
   1   2.0000     -19.545469      -531.8592
   2   2.0000     -19.545439      -531.8584
   3   2.0000     -10.632526      -289.3258
   4   2.0000     -10.632526      -289.3257
   5   2.0000     -10.632440      -289.3234
   6   2.0000     -10.565312      -287.4967
   7   2.0000     -10.565232      -287.4946
   8   2.0000     -10.565232      -287.4946
   9   2.0000     -10.564579      -287.4768
  10   2.0000     -10.564578      -287.4768
  11   2.0000     -10.564368      -287.4711
  12   2.0000      -1.212717       -32.9997
  13   2.0000      -1.211556       -32.9681
  14   2.0000      -1.211555       -32.9681
  15   2.0000      -1.108416       -30.1615
  16   2.0000      -1.048484       -28.5307
  17   2.0000      -1.048483       -28.5307
  18   2.0000      -0.818495       -22.2724
  19   2.0000      -0.796908       -21.6850
  20   2.0000      -0.796907       -21.6850
  21   2.0000      -0.600789       -16.3483
  22   2.0000      -0.600788       -16.3483
  23   2.0000      -0.593746       -16.1566
  24   2.0000      -0.592201       -16.1146
  25   2.0000      -0.577816       -15.7232
  26   2.0000      -0.565360       -15.3842
  27   2.0000      -0.565360       -15.3842
  28   2.0000      -0.535646       -14.5757
  29   2.0000      -0.532012       -14.4768
  30   2.0000      -0.532012       -14.4768
  31   2.0000      -0.451924       -12.2975
  32   2.0000      -0.451922       -12.2974
  33   2.0000      -0.450309       -12.2535
  34   2.0000      -0.385573       -10.4920
  35   2.0000      -0.385571       -10.4919
  36   2.0000      -0.384194       -10.4544
  37   2.0000      -0.348378        -9.4799
  38   2.0000      -0.348378        -9.4798
  39   0.0000      -0.115218        -3.1352
  40   0.0000      -0.115218        -3.1352
  41   0.0000      -0.010081        -0.2743
  42   0.0000       0.061523         1.6741
  43   0.0000       0.061523         1.6741

MULLIKEN ATOMIC CHARGES
-----------------------
   0 O :   -0.260031
   1 C :    0.202100
   2 C :    0.028970
   3 C :    0.028972
   4 C :    0.202099
   5 O :   -0.260031
   6 C :    0.028940
   7 C :    0.028988
   8 C :    0.202096
   9 O :   -0.260030
  10 C :    0.028989
  11 C :    0.028939
Sum of atomic charges:    0.0000000

LOEWDIN ATOMIC CHARGES
----------------------
   0 O :   -0.139321
   1 C :    0.157187
   2 C :   -0.008930
   3 C :   -0.008930
   4 C :    0.157187
   5 O :   -0.139321
   6 C :   -0.008936
   7 C :   -0.008931
   8 C :    0.157186
   9 O :   -0.139323
  10 C :   -0.008931
  11 C :   -0.008936

  Mayer bond orders larger than 0.100000
B(  0-O ,  1-C ) :   2.1855 B(  1-C ,  2-C ) :   0.9105 B(  1-C , 11-C ) :   0.9105
B(  2-C ,  3-C ) :   1.1105 B(  2-C , 11-C ) :   1.1857 B(  3-C ,  4-C ) :   0.9105
B(  3-C ,  6-C ) :   1.1857 B(  4-C ,  5-O ) :   2.1855 B(  4-C ,  6-C ) :   0.9105
B(  6-C ,  7-C ) :   1.1105 B(  7-C ,  8-C ) :   0.9105 B(  7-C , 10-C ) :   1.1856
B(  8-C ,  9-O ) :   2.1855 B(  8-C , 10-C ) :   0.9105 B( 10-C , 11-C ) :   1.1105

Dispersion correction           -0.007660334
FINAL SINGLE POINT ENERGY      -567.080164632286

DIPOLE MOMENT
-------------
                                X             Y             Z
Electronic contribution:     -0.00003      -0.00000       0.00000
Nuclear contribution   :     -0.00000      -0.00000       0.00000
                        -----------------------------------------
Total Dipole Moment    :     -0.00003      -0.00000       0.00000
                        -----------------------------------------
Magnitude (a.u.)       :      0.00003
Magnitude (Debye)      :      0.00007

Rotational constants in cm-1:     0.032827     0.032827     0.016414
Rotational constants in MHz :   984.139621   984.139620   492.069810

                             ****ORCA TERMINATED NORMALLY****
TOTAL RUN TIME: 0 days 0 hours 1 minutes 28 seconds 98 msec
