                         Program Version 5.0.3 -  RELEASE  -
|  1> ! PBEh-3c def2/J TightSCF DefGrid3
|  2>
|  3> %maxcore 60000
|  4>
|  5> %pal
|  6> nprocs 4
|  7> end
|  8>
|  9> *xyzfile 0 1 co2.xyz
| 10>
| 11>                          ****END OF INPUT****

CARTESIAN COORDINATES (ANGSTROEM)
---------------------------------
  C      0.000000    0.000000    0.000000
  O      1.162600    0.000000    0.000000
  O     -1.162600    0.000000    0.000000

 Total Charge           Charge          ....    0
 Multiplicity           Mult            ....    1
 Number of Electrons    NEL             ....   22
 Basis Dimension        Dim             ....   45

ORBITAL ENERGIES
----------------

  NO   OCC          E(Eh)            E(eV)
   0   2.0000     -19.584567      -532.9232
   1   2.0000     -19.584563      -532.9231
   2   2.0000     -10.650833      -289.8239
   3   2.0000      -1.281594       -34.8739
   4   2.0000      -1.235198       -33.6114
   5   2.0000      -0.640363       -17.4252
   6   2.0000      -0.592227       -16.1153
   7   2.0000      -0.586737       -15.9659
   8   2.0000      -0.586737       -15.9659
   9   2.0000      -0.431591       -11.7442
  10   2.0000      -0.431591       -11.7442
  11   0.0000       0.070929         1.9301
  12   0.0000       0.070929         1.9301
  13   0.0000       0.127219         3.4618
  14   0.0000       0.391067        10.6415
  15   0.0000       0.457980        12.4623

MULLIKEN ATOMIC CHARGES
-----------------------
   0 C :    0.629402
   1 O :   -0.314701
   2 O :   -0.314701
Sum of atomic charges:    0.0000000

LOEWDIN ATOMIC CHARGES
----------------------
   0 C :    0.225049
   1 O :   -0.112525
   2 O :   -0.112525

  Mayer bond orders larger than 0.100000
B(  0-C ,  1-O ) :   2.1127 B(  0-C ,  2-O ) :   2.1127 B(  1-O ,  2-O ) :   0.2453

Dispersion correction           -0.000486798
FINAL SINGLE POINT ENERGY      -188.190960778213

DIPOLE MOMENT
-------------
                                X             Y             Z
Electronic contribution:      0.00000       0.00000       0.00000
Nuclear contribution   :      0.00000       0.00000       0.00000
                        -----------------------------------------
Total Dipole Moment    :      0.00000       0.00000       0.00000
                        -----------------------------------------
Magnitude (a.u.)       :      0.00000
Magnitude (Debye)      :      0.00000

Rotational constants in cm-1:     0.000000     0.389775     0.389775
Rotational constants in MHz :     0.000000 11685.147730 11685.147730

                             ****ORCA TERMINATED NORMALLY****
TOTAL RUN TIME: 0 days 0 hours 0 minutes 52 seconds 648 msec
