                         Program Version 5.0.3 -  RELEASE  -
|  1> ! PBEh-3c def2/J TightSCF DefGrid3
|  2>
|  3> %maxcore 60000
|  4>
|  5> %pal
|  6> nprocs 4
|  7> end
|  8>
|  9> *xyzfile 0 1 10a.xyz
| 10>
| 11>                          ****END OF INPUT****

CARTESIAN COORDINATES (ANGSTROEM)
---------------------------------
  P      0.069100    1.754672    0.000000
  H      1.025054    1.647151    1.039030
  H      1.025054    1.647151   -1.039030
  C     -0.069100    3.523765    0.000000
  C     -0.285535    4.704473    0.000000
  H     -0.463231    5.752425    0.000000

 Total Charge           Charge          ....    0
 Multiplicity           Mult            ....    1
 Number of Electrons    NEL             ....   30
 Basis Dimension        Dim             ....   54

ORBITAL ENERGIES
----------------

  NO   OCC          E(Eh)            E(eV)
   0   2.0000     -77.757834     -2115.8982
   1   2.0000     -10.457991      -284.5764
   2   2.0000     -10.454533      -284.4823
   3   2.0000      -6.834913      -185.9874
   4   2.0000      -4.925761      -134.0368
   5   2.0000      -4.924982      -134.0156
   6   2.0000      -4.923215      -133.9675
   7   2.0000      -0.854148       -23.2425
   8   2.0000      -0.744949       -20.2711
   9   2.0000      -0.603812       -16.4306
  10   2.0000      -0.494260       -13.4495
  11   2.0000      -0.461863       -12.5679
  12   2.0000      -0.376602       -10.2479
  13   2.0000      -0.337095        -9.1728
  14   2.0000      -0.297537        -8.0964
  15   0.0000       0.025767         0.7012
  16   0.0000       0.044300         1.2055
  17   0.0000       0.092565         2.5188
  18   0.0000       0.113438         3.0868
  19   0.0000       0.153385         4.1738

MULLIKEN ATOMIC CHARGES
-----------------------
   0 P :    0.003598
   1 H :    0.105708
   2 H :    0.105708
   3 C :   -0.050028
   4 C :   -0.396714
   5 H :    0.231729
Sum of atomic charges:   -0.0000000

LOEWDIN ATOMIC CHARGES
----------------------
   0 P :    0.148266
   1 H :    0.044005
   2 H :    0.044005
   3 C :   -0.229327
   4 C :   -0.170330
   5 H :    0.163380

  Mayer bond orders larger than 0.100000
B(  0-P ,  1-H ) :   0.9464 B(  0-P ,  2-H ) :   0.9464 B(  0-P ,  3-C ) :   0.9512
B(  3-C ,  4-C ) :   2.7255 B(  4-C ,  5-H ) :   0.9395

Dispersion correction           -0.001932207
FINAL SINGLE POINT ENERGY      -418.695181375375

DIPOLE MOMENT
-------------
                                X             Y             Z
Electronic contribution:     -1.14196      -1.40350      -0.00000
Nuclear contribution   :      1.44424       1.54598       0.00000
                        -----------------------------------------
Total Dipole Moment    :      0.30228       0.14248      -0.00000
                        -----------------------------------------
Magnitude (a.u.)       :      0.33417
Magnitude (Debye)      :      0.84940

Rotational constants in cm-1:     4.382637     0.170829     0.169957
Rotational constants in MHz : 131388.160115  5121.321853  5095.174170

                             ****ORCA TERMINATED NORMALLY****
TOTAL RUN TIME: 0 days 0 hours 0 minutes 38 seconds 851 msec
