                         Program Version 5.0.3 -  RELEASE  -
|  1> ! PBEh-3c def2/J TightSCF DefGrid3
|  2>
|  3> %maxcore 60000
|  4>
|  5> %pal
|  6> nprocs 4
|  7> end
|  8>
|  9> *xyzfile 0 1 pentadiene.xyz
| 10>
| 11>                          ****END OF INPUT****

CARTESIAN COORDINATES (ANGSTROEM)
---------------------------------
  C     -1.736135   -0.778479   -1.361921
  H     -1.191624   -1.713149   -1.553747
  H     -1.942816   -0.296088   -2.331683
  H     -2.718070   -1.034945   -0.930967
  C     -0.969065    0.132043   -0.457882
  H     -1.442544    1.090117   -0.211949
  C      0.243009   -0.132618    0.068039
  H      0.729278   -1.086619   -0.169546
  C      0.970292    0.768610    0.941154
  H      0.475887    1.717842    1.176699
  C      2.184097    0.517049    1.463724
  H      2.686286    1.232435    2.114376
  H      2.711405   -0.416199    1.253702

 Total Charge           Charge          ....    0
 Multiplicity           Mult            ....    1
 Number of Electrons    NEL             ....   38
 Basis Dimension        Dim             ....   91

ORBITAL ENERGIES
----------------

  NO   OCC          E(Eh)            E(eV)
   0   2.0000     -10.452270      -284.4207
   1   2.0000     -10.449714      -284.3512
   2   2.0000     -10.444856      -284.2190
   3   2.0000     -10.438276      -284.0399
   4   2.0000     -10.437924      -284.0304
   5   2.0000      -0.903576       -24.5876
   6   2.0000      -0.846410       -23.0320
   7   2.0000      -0.764733       -20.8094
   8   2.0000      -0.650584       -17.7033
   9   2.0000      -0.619207       -16.8495
  10   2.0000      -0.533492       -14.5171
  11   2.0000      -0.507213       -13.8020
  12   2.0000      -0.468803       -12.7568
  13   2.0000      -0.463632       -12.6161
  14   2.0000      -0.436136       -11.8679
  15   2.0000      -0.415017       -11.2932
  16   2.0000      -0.394164       -10.7257
  17   2.0000      -0.363870        -9.9014
  18   2.0000      -0.260453        -7.0873
  19   0.0000       0.001585         0.0431
  20   0.0000       0.111941         3.0461
  21   0.0000       0.159427         4.3382
  22   0.0000       0.163357         4.4452
  23   0.0000       0.179086         4.8732

MULLIKEN ATOMIC CHARGES
-----------------------
   0 C :   -0.684380
   1 H :    0.224556
   2 H :    0.226950
   3 H :    0.226890
   4 C :   -0.199920
   5 H :    0.211095
   6 C :   -0.196950
   7 H :    0.205788
   8 C :   -0.153912
   9 H :    0.211630
  10 C :   -0.502285
  11 H :    0.217960
  12 H :    0.212578
Sum of atomic charges:    0.0000000

LOEWDIN ATOMIC CHARGES
----------------------
   0 C :   -0.357287
   1 H :    0.133270
   2 H :    0.136675
   3 H :    0.136605
   4 C :   -0.139878
   5 H :    0.128328
   6 C :   -0.154944
   7 H :    0.130099
   8 C :   -0.137387
   9 H :    0.131641
  10 C :   -0.271014
  11 H :    0.133947
  12 H :    0.129944

  Mayer bond orders larger than 0.100000
B(  0-C ,  1-H ) :   0.9298 B(  0-C ,  2-H ) :   0.9138 B(  0-C ,  3-H ) :   0.9139
B(  0-C ,  4-C ) :   0.9945 B(  4-C ,  5-H ) :   0.9216 B(  4-C ,  6-C ) :   1.8014
B(  4-C , 10-C ) :   0.1147 B(  6-C ,  7-H ) :   0.9208 B(  6-C ,  8-C ) :   1.1039
B(  8-C ,  9-H ) :   0.9207 B(  8-C , 10-C ) :   1.8347 B( 10-C , 11-H ) :   0.9290
B( 10-C , 12-H ) :   0.9304

Dispersion correction           -0.005002793
FINAL SINGLE POINT ENERGY      -194.867557722154

DIPOLE MOMENT
-------------
                                X             Y             Z
Electronic contribution:      1.28620       1.05235       1.27211
Nuclear contribution   :     -1.48857      -1.08945      -1.40452
                        -----------------------------------------
Total Dipole Moment    :     -0.20237      -0.03711      -0.13241
                        -----------------------------------------
Magnitude (a.u.)       :      0.24467
Magnitude (Debye)      :      0.62191

Rotational constants in cm-1:     0.953891     0.071544     0.067386
Rotational constants in MHz : 28596.929722  2144.822878  2020.182093

                             ****ORCA TERMINATED NORMALLY****
TOTAL RUN TIME: 0 days 0 hours 1 minutes 12 seconds 51 msec
