                         Program Version 5.0.3 -  RELEASE  -
|  1> ! PBEh-3c def2/J TightSCF DefGrid3
|  2>
|  3> %maxcore 60000
|  4>
|  5> %pal
|  6> nprocs 4
|  7> end
|  8>
|  9> *xyzfile 0 1 16.xyz
| 10>
| 11>                          ****END OF INPUT****

CARTESIAN COORDINATES (ANGSTROEM)
---------------------------------
  C      0.000000   -0.667578   -1.767756
  C      0.000000    0.667578   -1.767756
  C      0.000000    0.000000    3.257407
  C      0.000000    0.000000    2.050144
  H     -0.923621    1.232253   -1.769282
  H      0.923621    1.232253   -1.769282
  H      0.923621   -1.232253   -1.769282
  H     -0.923621   -1.232253   -1.769282
  H      0.000000    0.000000    0.984256
  H      0.000000    0.000000    4.320834

 Total Charge           Charge          ....    0
 Multiplicity           Mult            ....    1
 Number of Electrons    NEL             ....   30
 Basis Dimension        Dim             ....   72

ORBITAL ENERGIES
----------------

  NO   OCC          E(Eh)            E(eV)
   0   2.0000     -10.452085      -284.4157
   1   2.0000     -10.451118      -284.3894
   2   2.0000     -10.449767      -284.3526
   3   2.0000     -10.447129      -284.2808
   4   2.0000      -0.859376       -23.3848
   5   2.0000      -0.833560       -22.6823
   6   2.0000      -0.661531       -18.0012
   7   2.0000      -0.629852       -17.1392
   8   2.0000      -0.551364       -15.0034
   9   2.0000      -0.540738       -14.7142
  10   2.0000      -0.486737       -13.2448
  11   2.0000      -0.418618       -11.3912
  12   2.0000      -0.331542        -9.0217
  13   2.0000      -0.331539        -9.0216
  14   2.0000      -0.327398        -8.9089
  15   0.0000       0.025341         0.6896
  16   0.0000       0.076647         2.0857
  17   0.0000       0.078542         2.1372
  18   0.0000       0.160684         4.3724
  19   0.0000       0.171166         4.6577

MULLIKEN ATOMIC CHARGES
-----------------------
   0 C :   -0.445608
   1 C :   -0.445608
   2 C :   -0.268419
   3 C :   -0.234633
   4 H :    0.224729
   5 H :    0.224729
   6 H :    0.224729
   7 H :    0.224729
   8 H :    0.261999
   9 H :    0.233354
Sum of atomic charges:    0.0000000

LOEWDIN ATOMIC CHARGES
----------------------
   0 C :   -0.263083
   1 C :   -0.263083
   2 C :   -0.174187
   3 C :   -0.163634
   4 H :    0.133928
   5 H :    0.133928
   6 H :    0.133928
   7 H :    0.133928
   8 H :    0.167370
   9 H :    0.160908

  Mayer bond orders larger than 0.100000
B(  0-C ,  1-C ) :   1.9660 B(  0-C ,  6-H ) :   0.9269 B(  0-C ,  7-H ) :   0.9269
B(  1-C ,  4-H ) :   0.9269 B(  1-C ,  5-H ) :   0.9269 B(  2-C ,  3-C ) :   2.8282
B(  2-C ,  9-H ) :   0.9312 B(  3-C ,  8-H ) :   0.9082

Dispersion correction           -0.002717356
FINAL SINGLE POINT ENERGY      -155.551005682590

DIPOLE MOMENT
-------------
                                X             Y             Z
Electronic contribution:      0.00000      -0.00000       3.55260
Nuclear contribution   :      0.00000       0.00000      -3.69151
                        -----------------------------------------
Total Dipole Moment    :      0.00000      -0.00000      -0.13891
                        -----------------------------------------
Magnitude (a.u.)       :      0.13891
Magnitude (Debye)      :      0.35308

Rotational constants in cm-1:     0.831751     0.059816     0.057103
Rotational constants in MHz : 24935.280103  1793.239287  1711.912753

                             ****ORCA TERMINATED NORMALLY****
TOTAL RUN TIME: 0 days 0 hours 0 minutes 57 seconds 490 msec
