                         Program Version 5.0.3 -  RELEASE  -
|  1> ! PBEh-3c def2/J TightSCF DefGrid3
|  2>
|  3> %maxcore 60000
|  4>
|  5> %pal
|  6> nprocs 4
|  7> end
|  8>
|  9> *xyzfile 0 1 3-hexene.xyz
| 10>
| 11>                          ****END OF INPUT****

CARTESIAN COORDINATES (ANGSTROEM)
---------------------------------
  C     -2.212705   -1.006620   -1.835379
  H     -1.882667   -2.050689   -1.943704
  H     -1.722125   -0.419370   -2.624660
  H     -3.297576   -0.978894   -2.012245
  C     -1.862930   -0.456471   -0.442827
  H     -2.209526    0.585471   -0.352458
  H     -2.418911   -1.037161    0.314752
  C     -0.393698   -0.524184   -0.138478
  H      0.056979   -1.525342   -0.165451
  C      0.393112    0.522470    0.139964
  H     -0.057475    1.523724    0.166837
  C      1.862387    0.454675    0.443694
  H      2.418217    1.032757   -0.316072
  H      2.208146   -0.587785    0.356072
  C      2.213363    1.008791    1.834259
  H      1.721151    0.425688    2.625623
  H      3.298139    0.978799    2.011291
  H      1.886118    2.054142    1.938781

 Total Charge           Charge          ....    0
 Multiplicity           Mult            ....    1
 Number of Electrons    NEL             ....   48
 Basis Dimension        Dim             ....  114

ORBITAL ENERGIES
----------------

  NO   OCC          E(Eh)            E(eV)
   0   2.0000     -10.437997      -284.0323
   1   2.0000     -10.437983      -284.0320
   2   2.0000     -10.437288      -284.0130
   3   2.0000     -10.436378      -283.9883
   4   2.0000     -10.426704      -283.7250
   5   2.0000     -10.426700      -283.7249
   6   2.0000      -0.897525       -24.4229
   7   2.0000      -0.855316       -23.2743
   8   2.0000      -0.792297       -21.5595
   9   2.0000      -0.712588       -19.3905
  10   2.0000      -0.661863       -18.0102
  11   2.0000      -0.612220       -16.6593
  12   2.0000      -0.518394       -14.1062
  13   2.0000      -0.515904       -14.0385
  14   2.0000      -0.482052       -13.1173
  15   2.0000      -0.473716       -12.8905
  16   2.0000      -0.444709       -12.1012
  17   2.0000      -0.429045       -11.6749
  18   2.0000      -0.415527       -11.3071
  19   2.0000      -0.410431       -11.1684
  20   2.0000      -0.387088       -10.5332
  21   2.0000      -0.383765       -10.4428
  22   2.0000      -0.370631       -10.0854
  23   2.0000      -0.281196        -7.6517
  24   0.0000       0.053177         1.4470
  25   0.0000       0.154006         4.1907
  26   0.0000       0.161941         4.4066
  27   0.0000       0.167424         4.5558
  28   0.0000       0.189998         5.1701

MULLIKEN ATOMIC CHARGES
-----------------------
   0 C :   -0.634326
   1 H :    0.208807
   2 H :    0.219819
   3 H :    0.216254
   4 C :   -0.466966
   5 H :    0.215581
   6 H :    0.216677
   7 C :   -0.174957
   8 H :    0.199040
   9 C :   -0.174801
  10 H :    0.199024
  11 C :   -0.466948
  12 H :    0.216696
  13 H :    0.215574
  14 C :   -0.634387
  15 H :    0.219837
  16 H :    0.216287
  17 H :    0.208788
Sum of atomic charges:   -0.0000000

LOEWDIN ATOMIC CHARGES
----------------------
   0 C :   -0.359675
   1 H :    0.123810
   2 H :    0.127992
   3 H :    0.125751
   4 C :   -0.241135
   5 H :    0.125776
   6 H :    0.127923
   7 C :   -0.153973
   8 H :    0.123509
   9 C :   -0.153956
  10 H :    0.123509
  11 C :   -0.241136
  12 H :    0.127944
  13 H :    0.125774
  14 C :   -0.359687
  15 H :    0.127997
  16 H :    0.125768
  17 H :    0.123809

  Mayer bond orders larger than 0.100000
B(  0-C ,  1-H ) :   0.9301 B(  0-C ,  2-H ) :   0.9274 B(  0-C ,  3-H ) :   0.9293
B(  0-C ,  4-C ) :   0.9746 B(  4-C ,  5-H ) :   0.9236 B(  4-C ,  6-H ) :   0.9131
B(  4-C ,  7-C ) :   0.9918 B(  7-C ,  8-H ) :   0.9189 B(  7-C ,  9-C ) :   1.9019
B(  9-C , 10-H ) :   0.9189 B(  9-C , 11-C ) :   0.9917 B( 11-C , 12-H ) :   0.9131
B( 11-C , 13-H ) :   0.9236 B( 11-C , 14-C ) :   0.9747 B( 14-C , 15-H ) :   0.9274
B( 14-C , 16-H ) :   0.9293 B( 14-C , 17-H ) :   0.9301

Dispersion correction           -0.007473589
FINAL SINGLE POINT ENERGY      -235.326985456949

DIPOLE MOMENT
-------------
                                X             Y             Z
Electronic contribution:     -0.00095      -0.00317       0.00273
Nuclear contribution   :      0.00113       0.00323      -0.00297
                        -----------------------------------------
Total Dipole Moment    :      0.00018       0.00006      -0.00024
                        -----------------------------------------
Magnitude (a.u.)       :      0.00031
Magnitude (Debye)      :      0.00079

Rotational constants in cm-1:     0.445954     0.041383     0.040267
Rotational constants in MHz : 13369.369381  1240.629578  1207.179598

                             ****ORCA TERMINATED NORMALLY****
TOTAL RUN TIME: 0 days 0 hours 1 minutes 21 seconds 459 msec
