                         Program Version 5.0.3 -  RELEASE  -
|  1> ! PBEh-3c def2/J TightSCF DefGrid3
|  2>
|  3> %maxcore 60000
|  4>
|  5> %pal
|  6> nprocs 4
|  7> end
|  8>
|  9> *xyzfile 0 1 C3H7SH.xyz
| 10>
| 11>                          ****END OF INPUT****

CARTESIAN COORDINATES (ANGSTROEM)
---------------------------------
  C     -1.162173   -0.580548   -1.007290
  H     -0.822324   -1.626342   -1.042245
  H     -0.821040   -0.087262   -1.929683
  H     -2.261016   -0.586904   -1.019599
  C     -0.631154    0.136686    0.237347
  H     -1.010270    1.170948    0.264070
  H     -1.011471   -0.358042    1.145452
  C      0.896909    0.160250    0.280531
  H      1.296568    0.682662   -0.600067
  H      1.295666   -0.864083    0.290754
  S      1.450553    1.035704    1.800952
  H      2.779753    0.916931    1.579778

 Total Charge           Charge          ....    0
 Multiplicity           Mult            ....    1
 Number of Electrons    NEL             ....   42
 Basis Dimension        Dim             ....   79

ORBITAL ENERGIES
----------------

  NO   OCC          E(Eh)            E(eV)
   0   2.0000     -89.571321     -2437.3596
   1   2.0000     -10.472096      -284.9602
   2   2.0000     -10.447367      -284.2873
   3   2.0000     -10.435191      -283.9560
   4   2.0000      -8.211791      -223.4542
   5   2.0000      -6.102806      -166.0658
   6   2.0000      -6.099933      -165.9876
   7   2.0000      -6.093860      -165.8224
   8   2.0000      -0.899154       -24.4672
   9   2.0000      -0.821288       -22.3484
  10   2.0000      -0.725167       -19.7328
  11   2.0000      -0.658425       -17.9167
  12   2.0000      -0.534959       -14.5570
  13   2.0000      -0.496670       -13.5151
  14   2.0000      -0.484171       -13.1750
  15   2.0000      -0.456489       -12.4217
  16   2.0000      -0.412807       -11.2331
  17   2.0000      -0.394683       -10.7399
  18   2.0000      -0.389630       -10.6024
  19   2.0000      -0.368096       -10.0164
  20   2.0000      -0.275741        -7.5033
  21   0.0000       0.068779         1.8716
  22   0.0000       0.110119         2.9965
  23   0.0000       0.147549         4.0150
  24   0.0000       0.186775         5.0824
  25   0.0000       0.188637         5.1331

MULLIKEN ATOMIC CHARGES
-----------------------
   0 C :   -0.635165
   1 H :    0.212118
   2 H :    0.212076
   3 H :    0.226301
   4 C :   -0.413636
   5 H :    0.227473
   6 H :    0.227360
   7 C :   -0.530515
   8 H :    0.239898
   9 H :    0.239924
  10 S :   -0.179164
  11 H :    0.173329
Sum of atomic charges:   -0.0000000

LOEWDIN ATOMIC CHARGES
----------------------
   0 C :   -0.361407
   1 H :    0.125373
   2 H :    0.125360
   3 H :    0.131442
   4 C :   -0.261208
   5 H :    0.129314
   6 H :    0.129252
   7 C :   -0.333022
   8 H :    0.127112
   9 H :    0.127069
  10 S :   -0.035333
  11 H :    0.096049

  Mayer bond orders larger than 0.100000
B(  0-C ,  1-H ) :   0.9275 B(  0-C ,  2-H ) :   0.9276 B(  0-C ,  3-H ) :   0.9290
B(  0-C ,  4-C ) :   0.9912 B(  4-C ,  5-H ) :   0.9116 B(  4-C ,  6-H ) :   0.9116
B(  4-C ,  7-C ) :   0.9601 B(  7-C ,  8-H ) :   0.8935 B(  7-C ,  9-H ) :   0.8934
B(  7-C , 10-S ) :   1.0346 B( 10-S , 11-H ) :   0.9257

Dispersion correction           -0.004766336
FINAL SINGLE POINT ENERGY      -516.613773801747

DIPOLE MOMENT
-------------
                                X             Y             Z
Electronic contribution:      4.09551       3.25380       5.66151
Nuclear contribution   :     -4.01548      -3.58649      -6.24401
                        -----------------------------------------
Total Dipole Moment    :      0.08003      -0.33269      -0.58250
                        -----------------------------------------
Magnitude (a.u.)       :      0.67557
Magnitude (Debye)      :      1.71716

Rotational constants in cm-1:     0.795217     0.078700     0.074635
Rotational constants in MHz : 23840.005672  2359.355024  2237.494717

                             ****ORCA TERMINATED NORMALLY****
TOTAL RUN TIME: 0 days 0 hours 1 minutes 20 seconds 651 msec
