                         Program Version 5.0.3 -  RELEASE  -
|  1> ! PBEh-3c def2/J TightSCF DefGrid3
|  2>
|  3> %maxcore 60000
|  4>
|  5> %pal
|  6> nprocs 4
|  7> end
|  8>
|  9> *xyzfile 0 1 20_benBr-acetoneA.xyz
| 10>
| 11>                          ****END OF INPUT****

CARTESIAN COORDINATES (ANGSTROEM)
---------------------------------
  C      1.217120    0.000086   -0.737292
  C      2.232688    0.000175    0.216500
  C      1.925210    0.000130    1.575499
  C      0.592512    0.000178    1.981958
  C     -0.433049    0.000070    1.038767
  H      1.448302   -0.000020   -1.792785
  H      3.264633    0.000102   -0.107052
  H      2.717094   -0.000023    2.311239
  H      0.345708    0.000110    3.034933
  H     -1.468501   -0.000093    1.347575
  C     -0.111082   -0.000109   -0.316811
  Br    -1.493756   -0.001748   -1.606463

 Total Charge           Charge          ....    0
 Multiplicity           Mult            ....    1
 Number of Electrons    NEL             ....   76
 Basis Dimension        Dim             ....  132

ORBITAL ENERGIES
----------------

  NO   OCC          E(Eh)            E(eV)
   0   2.0000    -484.528714    -13184.6966
   1   2.0000     -63.191899     -1719.5390
   2   2.0000     -56.895909     -1548.2164
   3   2.0000     -56.894079     -1548.1666
   4   2.0000     -56.894031     -1548.1653
   5   2.0000     -10.512816      -286.0683
   6   2.0000     -10.466074      -284.7964
   7   2.0000     -10.465984      -284.7939
   8   2.0000     -10.464198      -284.7453
   9   2.0000     -10.464120      -284.7432
  10   2.0000     -10.461165      -284.6628
  11   2.0000      -9.021123      -245.4772
  12   2.0000      -6.795470      -184.9141
  13   2.0000      -6.783142      -184.5787
  14   2.0000      -6.783043      -184.5760
  15   2.0000      -2.809159       -76.4411
  16   2.0000      -2.805369       -76.3380
  17   2.0000      -2.805243       -76.3345
  18   2.0000      -2.794670       -76.0468
  19   2.0000      -2.794661       -76.0466
  20   2.0000      -0.979148       -26.6440
  21   2.0000      -0.899339       -24.4723
  22   2.0000      -0.853778       -23.2325
  23   2.0000      -0.813724       -22.1426
  24   2.0000      -0.700534       -19.0625
  25   2.0000      -0.678848       -18.4724
  26   2.0000      -0.596056       -16.2195
  27   2.0000      -0.534202       -14.5364
  28   2.0000      -0.531035       -14.4502
  29   2.0000      -0.498587       -13.5672
  30   2.0000      -0.481884       -13.1127
  31   2.0000      -0.448907       -12.2154
  32   2.0000      -0.418528       -11.3887
  33   2.0000      -0.410860       -11.1801
  34   2.0000      -0.366851        -9.9825
  35   2.0000      -0.339689        -9.2434
  36   2.0000      -0.308508        -8.3949
  37   2.0000      -0.286487        -7.7957
  38   0.0000       0.002398         0.0653
  39   0.0000       0.003475         0.0946
  40   0.0000       0.039750         1.0816
  41   0.0000       0.152922         4.1612
  42   0.0000       0.177813         4.8385

MULLIKEN ATOMIC CHARGES
-----------------------
   0 C :   -0.206045
   1 C :   -0.216715
   2 C :   -0.221500
   3 C :   -0.216587
   4 C :   -0.206647
   5 H :    0.246310
   6 H :    0.230487
   7 H :    0.227939
   8 H :    0.230546
   9 H :    0.246190
  10 C :   -0.083709
  11 Br:   -0.030268
Sum of atomic charges:    0.0000000

LOEWDIN ATOMIC CHARGES
----------------------
   0 C :   -0.140618
   1 C :   -0.126146
   2 C :   -0.134586
   3 C :   -0.126140
   4 C :   -0.140576
   5 H :    0.148599
   6 H :    0.141639
   7 H :    0.140138
   8 H :    0.141660
   9 H :    0.148606
  10 C :   -0.123692
  11 Br:    0.071116

  Mayer bond orders larger than 0.100000
B(  0-C ,  1-C ) :   1.4279 B(  0-C ,  5-H ) :   0.9097 B(  0-C , 10-C ) :   1.3714
B(  1-C ,  2-C ) :   1.4208 B(  1-C ,  6-H ) :   0.9158 B(  2-C ,  3-C ) :   1.4209
B(  2-C ,  7-H ) :   0.9177 B(  3-C ,  4-C ) :   1.4277 B(  3-C ,  8-H ) :   0.9158
B(  4-C ,  9-H ) :   0.9098 B(  4-C , 10-C ) :   1.3718 B( 10-C , 11-Br) :   1.0357

Dispersion correction           -0.006903024
FINAL SINGLE POINT ENERGY     -2804.138675903534

DIPOLE MOMENT
-------------
                                X             Y             Z
Electronic contribution:    -17.86992      -0.01238     -16.63922
Nuclear contribution   :     18.38661       0.01240      17.12010
                        -----------------------------------------
Total Dipole Moment    :      0.51669       0.00002       0.48088
                        -----------------------------------------
Magnitude (a.u.)       :      0.70584
Magnitude (Debye)      :      1.79411

Rotational constants in cm-1:     0.190055     0.032959     0.028088
Rotational constants in MHz :  5697.692593   988.095235   842.064295

                             ****ORCA TERMINATED NORMALLY****
TOTAL RUN TIME: 0 days 0 hours 1 minutes 44 seconds 525 msec
