                         Program Version 5.0.3 -  RELEASE  -
|  1> ! PBEh-3c def2/J TightSCF DefGrid3
|  2>
|  3> %maxcore 60000
|  4>
|  5> %pal
|  6> nprocs 4
|  7> end
|  8>
|  9> *xyzfile 0 1 P21.xyz
| 10>
| 11>                          ****END OF INPUT****

CARTESIAN COORDINATES (ANGSTROEM)
---------------------------------
  N     -0.005321    2.308747    0.000000
  C      0.000718    1.608056    1.136461
  C      0.011519    0.218673    1.187780
  C      0.013584   -0.513533    0.000000
  C      0.011519    0.218673   -1.187780
  C      0.000718    1.608056   -1.136461
  C     -0.007387   -2.018518    0.000000
  H     -0.000141    2.188021    2.054451
  H      0.019957   -0.285051    2.147813
  H      0.019957   -0.285051   -2.147813
  H     -0.000141    2.188021   -2.054451
  H      0.486094   -2.423545   -0.884991
  H      0.486094   -2.423545    0.884991
  H     -1.037168   -2.389005    0.000000

 Total Charge           Charge          ....    0
 Multiplicity           Mult            ....    1
 Number of Electrons    NEL             ....   50
 Basis Dimension        Dim             ....  119

ORBITAL ENERGIES
----------------

  NO   OCC          E(Eh)            E(eV)
   0   2.0000     -14.633310      -398.1926
   1   2.0000     -10.478929      -285.1462
   2   2.0000     -10.478902      -285.1454
   3   2.0000     -10.477920      -285.1187
   4   2.0000     -10.452794      -284.4350
   5   2.0000     -10.452783      -284.4347
   6   2.0000     -10.447447      -284.2895
   7   2.0000      -1.044388       -28.4192
   8   2.0000      -0.918121       -24.9833
   9   2.0000      -0.850640       -23.1471
  10   2.0000      -0.801471       -21.8091
  11   2.0000      -0.708662       -19.2837
  12   2.0000      -0.679957       -18.5026
  13   2.0000      -0.575755       -15.6671
  14   2.0000      -0.556546       -15.1444
  15   2.0000      -0.531500       -14.4629
  16   2.0000      -0.491790       -13.3823
  17   2.0000      -0.487234       -13.2583
  18   2.0000      -0.459786       -12.5114
  19   2.0000      -0.448455       -12.2031
  20   2.0000      -0.442613       -12.0441
  21   2.0000      -0.409993       -11.1565
  22   2.0000      -0.317664        -8.6441
  23   2.0000      -0.309519        -8.4224
  24   2.0000      -0.302496        -8.2313
  25   0.0000       0.001766         0.0480
  26   0.0000       0.011759         0.3200
  27   0.0000       0.147448         4.0123
  28   0.0000       0.165709         4.5092
  29   0.0000       0.175002         4.7620

MULLIKEN ATOMIC CHARGES
-----------------------
   0 N :   -0.365704
   1 C :   -0.030466
   2 C :   -0.340868
   3 C :    0.195163
   4 C :   -0.340868
   5 C :   -0.030466
   6 C :   -0.703130
   7 H :    0.229410
   8 H :    0.221813
   9 H :    0.221813
  10 H :    0.229410
  11 H :    0.234666
  12 H :    0.234666
  13 H :    0.244562
Sum of atomic charges:    0.0000000

LOEWDIN ATOMIC CHARGES
----------------------
   0 N :   -0.145488
   1 C :   -0.054754
   2 C :   -0.168115
   3 C :   -0.023719
   4 C :   -0.168115
   5 C :   -0.054754
   6 C :   -0.348239
   7 H :    0.129114
   8 H :    0.139221
   9 H :    0.139221
  10 H :    0.129114
  11 H :    0.139544
  12 H :    0.139545
  13 H :    0.147424

  Mayer bond orders larger than 0.100000
B(  0-N ,  1-C ) :   1.4985 B(  0-N ,  5-C ) :   1.4985 B(  1-C ,  2-C ) :   1.3870
B(  1-C ,  7-H ) :   0.9180 B(  2-C ,  3-C ) :   1.3808 B(  2-C ,  8-H ) :   0.9174
B(  3-C ,  4-C ) :   1.3808 B(  3-C ,  6-C ) :   0.9656 B(  4-C ,  5-C ) :   1.3870
B(  4-C ,  9-H ) :   0.9174 B(  5-C , 10-H ) :   0.9180 B(  6-C , 11-H ) :   0.9255
B(  6-C , 12-H ) :   0.9255 B(  6-C , 13-H ) :   0.9084

Dispersion correction           -0.007142999
FINAL SINGLE POINT ENERGY      -286.964720778445

DIPOLE MOMENT
-------------
                                X             Y             Z
Electronic contribution:      0.02600       5.13130       0.00000
Nuclear contribution   :     -0.04275      -6.19432      -0.00000
                        -----------------------------------------
Total Dipole Moment    :     -0.01675      -1.06302       0.00000
                        -----------------------------------------
Magnitude (a.u.)       :      1.06315
Magnitude (Debye)      :      2.70232

Rotational constants in cm-1:     0.196313     0.084393     0.059676
Rotational constants in MHz :  5885.303389  2530.050501  1789.030953

                             ****ORCA TERMINATED NORMALLY****
TOTAL RUN TIME: 0 days 0 hours 1 minutes 25 seconds 829 msec
