                         Program Version 5.0.3 -  RELEASE  -
|  1> ! PBEh-3c def2/J TightSCF DefGrid3
|  2>
|  3> %maxcore 60000
|  4>
|  5> %pal
|  6> nprocs 4
|  7> end
|  8>
|  9> *xyzfile 0 1 TS1.xyz
| 10>
| 11>                          ****END OF INPUT****

CARTESIAN COORDINATES (ANGSTROEM)
---------------------------------
  H      1.881879   -0.993459   -0.435543
  C      1.064875   -0.518617    0.119063
  C     -1.065591   -0.517809   -0.119292
  C      0.683790    0.840347   -0.083934
  C     -0.682898    0.840868    0.083544
  H     -1.882690   -0.991912    0.435812
  H     -1.338659    1.649590    0.403211
  H      0.870728   -0.978956    1.080545
  H     -0.871958   -0.978688   -1.080606
  H      1.340525    1.648637   -0.402797

 Total Charge           Charge          ....    0
 Multiplicity           Mult            ....    1
 Number of Electrons    NEL             ....   30
 Basis Dimension        Dim             ....   72

ORBITAL ENERGIES
----------------

  NO   OCC          E(Eh)            E(eV)
   0   2.0000     -10.458404      -284.5876
   1   2.0000     -10.458374      -284.5868
   2   2.0000     -10.442590      -284.1573
   3   2.0000     -10.441918      -284.1390
   4   2.0000      -0.925219       -25.1765
   5   2.0000      -0.766483       -20.8571
   6   2.0000      -0.703942       -19.1552
   7   2.0000      -0.595967       -16.2171
   8   2.0000      -0.552368       -15.0307
   9   2.0000      -0.494315       -13.4510
  10   2.0000      -0.475135       -12.9291
  11   2.0000      -0.426800       -11.6138
  12   2.0000      -0.421513       -11.4700
  13   2.0000      -0.284528        -7.7424
  14   2.0000      -0.280767        -7.6401
  15   0.0000       0.006565         0.1786
  16   0.0000       0.048101         1.3089
  17   0.0000       0.182099         4.9552
  18   0.0000       0.189744         5.1632
  19   0.0000       0.209169         5.6918

MULLIKEN ATOMIC CHARGES
-----------------------
   0 H :    0.211203
   1 C :   -0.496102
   2 C :   -0.496052
   3 C :   -0.192040
   4 C :   -0.192041
   5 H :    0.211253
   6 H :    0.212445
   7 H :    0.264415
   8 H :    0.264437
   9 H :    0.212482
Sum of atomic charges:   -0.0000000

LOEWDIN ATOMIC CHARGES
----------------------
   0 H :    0.119729
   1 C :   -0.228461
   2 C :   -0.228461
   3 C :   -0.168249
   4 C :   -0.168208
   5 H :    0.119770
   6 H :    0.126757
   7 H :    0.150154
   8 H :    0.150177
   9 H :    0.126793

  Mayer bond orders larger than 0.100000
B(  0-H ,  1-C ) :   0.9158 B(  1-C ,  2-C ) :   0.6384 B(  1-C ,  3-C ) :   1.3299
B(  1-C ,  7-H ) :   0.8929 B(  2-C ,  4-C ) :   1.3299 B(  2-C ,  5-H ) :   0.9158
B(  2-C ,  8-H ) :   0.8929 B(  3-C ,  4-C ) :   1.5550 B(  3-C ,  9-H ) :   0.9184
B(  4-C ,  6-H ) :   0.9184

Dispersion correction           -0.003750612
FINAL SINGLE POINT ENERGY      -155.558760153872

DIPOLE MOMENT
-------------
                                X             Y             Z
Electronic contribution:      0.00034       1.24628      -0.00090
Nuclear contribution   :     -0.00036      -1.34322       0.00129
                        -----------------------------------------
Total Dipole Moment    :     -0.00002      -0.09695       0.00039
                        -----------------------------------------
Magnitude (a.u.)       :      0.09695
Magnitude (Debye)      :      0.24642

Rotational constants in cm-1:     0.475469     0.310224     0.203898
Rotational constants in MHz : 14254.200599  9300.273325  6112.700295

                             ****ORCA TERMINATED NORMALLY****
TOTAL RUN TIME: 0 days 0 hours 1 minutes 5 seconds 654 msec
