                         Program Version 5.0.3 -  RELEASE  -
|  1> ! PBEh-3c def2/J TightSCF DefGrid3
|  2>
|  3> %maxcore 60000
|  4>
|  5> %pal
|  6> nprocs 4
|  7> end
|  8>
|  9> *xyzfile 0 1 tmethen.xyz
| 10>
| 11>                          ****END OF INPUT****

CARTESIAN COORDINATES (ANGSTROEM)
---------------------------------
  C      0.000000    0.000000   -0.674136
  C      0.000000    0.000000    0.674136
  C      1.250724   -0.024822   -1.529784
  C     -1.250724    0.024822   -1.529784
  C      1.250724    0.024822    1.529784
  C     -1.250724   -0.024822    1.529784
  H      2.170502   -0.199359   -0.972300
  H      1.356174    0.918998   -2.082124
  H      1.163751   -0.816373   -2.285676
  H     -2.170502    0.199359   -0.972300
  H     -1.163751    0.816373   -2.285676
  H     -1.356174   -0.918998   -2.082124
  H      2.170502    0.199359    0.972300
  H      1.356174   -0.918998    2.082124
  H      1.163751    0.816373    2.285676
  H     -2.170502   -0.199359    0.972300
  H     -1.163751   -0.816373    2.285676
  H     -1.356174    0.918998    2.082124

 Total Charge           Charge          ....    0
 Multiplicity           Mult            ....    1
 Number of Electrons    NEL             ....   48
 Basis Dimension        Dim             ....  114

ORBITAL ENERGIES
----------------

  NO   OCC          E(Eh)            E(eV)
   0   2.0000     -10.443053      -284.1699
   1   2.0000     -10.442220      -284.1473
   2   2.0000     -10.425773      -283.6997
   3   2.0000     -10.425760      -283.6993
   4   2.0000     -10.425721      -283.6983
   5   2.0000     -10.425668      -283.6969
   6   2.0000      -0.908304       -24.7162
   7   2.0000      -0.832770       -22.6608
   8   2.0000      -0.777454       -21.1556
   9   2.0000      -0.749842       -20.4042
  10   2.0000      -0.698307       -19.0019
  11   2.0000      -0.551454       -15.0058
  12   2.0000      -0.526382       -14.3236
  13   2.0000      -0.493388       -13.4258
  14   2.0000      -0.490901       -13.3581
  15   2.0000      -0.468096       -12.7375
  16   2.0000      -0.438400       -11.9295
  17   2.0000      -0.432977       -11.7819
  18   2.0000      -0.428412       -11.6577
  19   2.0000      -0.422519       -11.4973
  20   2.0000      -0.413660       -11.2563
  21   2.0000      -0.402495       -10.9524
  22   2.0000      -0.364561        -9.9202
  23   2.0000      -0.260756        -7.0955
  24   0.0000       0.063659         1.7322
  25   0.0000       0.135064         3.6753
  26   0.0000       0.169250         4.6055
  27   0.0000       0.174356         4.7445
  28   0.0000       0.188651         5.1334

MULLIKEN ATOMIC CHARGES
-----------------------
   0 C :    0.053607
   1 C :    0.053606
   2 C :   -0.688681
   3 C :   -0.688681
   4 C :   -0.688681
   5 C :   -0.688681
   6 H :    0.223488
   7 H :    0.219860
   8 H :    0.218530
   9 H :    0.223488
  10 H :    0.218530
  11 H :    0.219860
  12 H :    0.223488
  13 H :    0.219860
  14 H :    0.218530
  15 H :    0.223488
  16 H :    0.218530
  17 H :    0.219860
Sum of atomic charges:   -0.0000000

LOEWDIN ATOMIC CHARGES
----------------------
   0 C :   -0.083273
   1 C :   -0.083273
   2 C :   -0.349669
   3 C :   -0.349669
   4 C :   -0.349669
   5 C :   -0.349669
   6 H :    0.128562
   7 H :    0.131703
   8 H :    0.131040
   9 H :    0.128562
  10 H :    0.131040
  11 H :    0.131703
  12 H :    0.128562
  13 H :    0.131703
  14 H :    0.131040
  15 H :    0.128562
  16 H :    0.131040
  17 H :    0.131703

  Mayer bond orders larger than 0.100000
B(  0-C ,  1-C ) :   1.8580 B(  0-C ,  2-C ) :   0.9784 B(  0-C ,  3-C ) :   0.9784
B(  1-C ,  4-C ) :   0.9784 B(  1-C ,  5-C ) :   0.9784 B(  2-C ,  6-H ) :   0.9245
B(  2-C ,  7-H ) :   0.9164 B(  2-C ,  8-H ) :   0.9197 B(  3-C ,  9-H ) :   0.9245
B(  3-C , 10-H ) :   0.9197 B(  3-C , 11-H ) :   0.9164 B(  4-C , 12-H ) :   0.9245
B(  4-C , 13-H ) :   0.9164 B(  4-C , 14-H ) :   0.9197 B(  5-C , 15-H ) :   0.9245
B(  5-C , 16-H ) :   0.9197 B(  5-C , 17-H ) :   0.9164

Dispersion correction           -0.008266768
FINAL SINGLE POINT ENERGY      -235.334670349305

DIPOLE MOMENT
-------------
                                X             Y             Z
Electronic contribution:     -0.00000       0.00000      -0.00000
Nuclear contribution   :      0.00000       0.00000       0.00000
                        -----------------------------------------
Total Dipole Moment    :     -0.00000       0.00000      -0.00000
                        -----------------------------------------
Magnitude (a.u.)       :      0.00000
Magnitude (Debye)      :      0.00000

Rotational constants in cm-1:     0.148775     0.098016     0.061810
Rotational constants in MHz :  4460.172325  2938.430827  1853.009700

                             ****ORCA TERMINATED NORMALLY****
TOTAL RUN TIME: 0 days 0 hours 1 minutes 3 seconds 282 msec
