                         Program Version 5.0.3 -  RELEASE  -
|  1> ! PBEh-3c def2/J TightSCF DefGrid3
|  2>
|  3> %maxcore 60000
|  4>
|  5> %pal
|  6> nprocs 4
|  7> end
|  8>
|  9> *xyzfile 0 1 1.xyz
| 10>
| 11>                          ****END OF INPUT****

CARTESIAN COORDINATES (ANGSTROEM)
---------------------------------
  P      0.000000    1.845711    0.000000
  P      0.000000   -1.845711    0.000000
  H     -0.036121    3.263535    0.000000
  H      0.036121   -3.263535    0.000000
  H     -0.958930    1.721408    1.035263
  H      0.958930   -1.721408    1.035263
  H     -0.958930    1.721408   -1.035263
  H      0.958930   -1.721408   -1.035263

 Total Charge           Charge          ....    0
 Multiplicity           Mult            ....    1
 Number of Electrons    NEL             ....   36
 Basis Dimension        Dim             ....   48

ORBITAL ENERGIES
----------------

  NO   OCC          E(Eh)            E(eV)
   0   2.0000     -77.726240     -2115.0385
   1   2.0000     -77.726177     -2115.0368
   2   2.0000      -6.806179      -185.2056
   3   2.0000      -6.806143      -185.2046
   4   2.0000      -4.896371      -133.2370
   5   2.0000      -4.896364      -133.2368
   6   2.0000      -4.896355      -133.2366
   7   2.0000      -4.896326      -133.2358
   8   2.0000      -4.894476      -133.1855
   9   2.0000      -4.894472      -133.1853
  10   2.0000      -0.717153       -19.5147
  11   2.0000      -0.712091       -19.3770
  12   2.0000      -0.437459       -11.9039
  13   2.0000      -0.435254       -11.8439
  14   2.0000      -0.430402       -11.7118
  15   2.0000      -0.429979       -11.7003
  16   2.0000      -0.320501        -8.7213
  17   2.0000      -0.305748        -8.3198
  18   0.0000       0.045458         1.2370
  19   0.0000       0.070970         1.9312
  20   0.0000       0.078337         2.1317
  21   0.0000       0.109796         2.9877
  22   0.0000       0.153179         4.1682

MULLIKEN ATOMIC CHARGES
-----------------------
   0 P :   -0.271713
   1 P :   -0.271713
   2 H :    0.083472
   3 H :    0.083472
   4 H :    0.094120
   5 H :    0.094120
   6 H :    0.094120
   7 H :    0.094120
Sum of atomic charges:   -0.0000000

LOEWDIN ATOMIC CHARGES
----------------------
   0 P :   -0.098890
   1 P :   -0.098890
   2 H :    0.028191
   3 H :    0.028191
   4 H :    0.035350
   5 H :    0.035350
   6 H :    0.035350
   7 H :    0.035350

  Mayer bond orders larger than 0.100000
B(  0-P ,  2-H ) :   0.9596 B(  0-P ,  4-H ) :   0.9626 B(  0-P ,  6-H ) :   0.9626
B(  1-P ,  3-H ) :   0.9596 B(  1-P ,  5-H ) :   0.9626 B(  1-P ,  7-H ) :   0.9626

Dispersion correction           -0.002241719
FINAL SINGLE POINT ENERGY      -685.465013647083

DIPOLE MOMENT
-------------
                                X             Y             Z
Electronic contribution:     -0.00000      -0.00000      -0.00000
Nuclear contribution   :      0.00000       0.00000       0.00000
                        -----------------------------------------
Total Dipole Moment    :     -0.00000      -0.00000      -0.00000
                        -----------------------------------------
Magnitude (a.u.)       :      0.00000
Magnitude (Debye)      :      0.00000

Rotational constants in cm-1:     2.151747     0.067929     0.067709
Rotational constants in MHz : 64507.741489  2036.466571  2029.854715

                             ****ORCA TERMINATED NORMALLY****
TOTAL RUN TIME: 0 days 0 hours 0 minutes 31 seconds 650 msec
