                         Program Version 5.0.3 -  RELEASE  -
|  1> ! PBEh-3c def2/J TightSCF DefGrid3
|  2>
|  3> %maxcore 60000
|  4>
|  5> %pal
|  6> nprocs 4
|  7> end
|  8>
|  9> *xyzfile 1 1 T2.xyz
| 10>
| 11>                          ****END OF INPUT****

CARTESIAN COORDINATES (ANGSTROEM)
---------------------------------
  N     -0.456249    1.578660    0.000000
  N      1.512254    0.442302    0.000000
  C     -0.575306   -0.806496    0.000000
  C      0.886331   -0.853601    0.000000
  C     -1.176468    0.388603    0.000000
  C      0.862680    1.594058    0.000000
  C     -1.307165   -2.104155    0.000000
  O      1.576442   -1.821383    0.000000
  O      1.425688    2.761042    0.000000
  H     -0.945629    2.466024    0.000000
  H      2.528789    0.416100    0.000000
  H     -2.250663    0.511590    0.000000
  H     -1.043625   -2.696253   -0.877265
  H     -1.043625   -2.696253    0.877265
  H     -2.384959   -1.952455    0.000000
  H      2.391505    2.772216    0.000000

 Total Charge           Charge          ....    1
 Multiplicity           Mult            ....    1
 Number of Electrons    NEL             ....   66
 Basis Dimension        Dim             ....  149

ORBITAL ENERGIES
----------------

  NO   OCC          E(Eh)            E(eV)
   0   2.0000     -19.783121      -538.3261
   1   2.0000     -19.661106      -535.0059
   2   2.0000     -14.919968      -405.9930
   3   2.0000     -14.913153      -405.8075
   4   2.0000     -10.844459      -295.0927
   5   2.0000     -10.752103      -292.5796
   6   2.0000     -10.694037      -290.9995
   7   2.0000     -10.650024      -289.8019
   8   2.0000     -10.582171      -287.9555
   9   2.0000      -1.468380       -39.9566
  10   2.0000      -1.364511       -37.1302
  11   2.0000      -1.320662       -35.9371
  12   2.0000      -1.248343       -33.9691
  13   2.0000      -1.101209       -29.9654
  14   2.0000      -1.006845       -27.3976
  15   2.0000      -0.951020       -25.8786
  16   2.0000      -0.940308       -25.5871
  17   2.0000      -0.912795       -24.8384
  18   2.0000      -0.840141       -22.8614
  19   2.0000      -0.809583       -22.0299
  20   2.0000      -0.781261       -21.2592
  21   2.0000      -0.778362       -21.1803
  22   2.0000      -0.711824       -19.3697
  23   2.0000      -0.710209       -19.3258
  24   2.0000      -0.677440       -18.4341
  25   2.0000      -0.664214       -18.0742
  26   2.0000      -0.634422       -17.2635
  27   2.0000      -0.624432       -16.9917
  28   2.0000      -0.615096       -16.7376
  29   2.0000      -0.590159       -16.0591
  30   2.0000      -0.562623       -15.3097
  31   2.0000      -0.513417       -13.9708
  32   2.0000      -0.471927       -12.8418
  33   0.0000      -0.195311        -5.3147
  34   0.0000      -0.175075        -4.7640
  35   0.0000      -0.094238        -2.5643
  36   0.0000      -0.072990        -1.9862
  37   0.0000      -0.029866        -0.8127

MULLIKEN ATOMIC CHARGES
-----------------------
   0 N :   -0.644779
   1 N :   -0.725502
   2 C :   -0.127572
   3 C :    0.583912
   4 C :    0.032770
   5 C :    0.838129
   6 C :   -0.682156
   7 O :   -0.283200
   8 O :   -0.515132
   9 H :    0.445031
  10 H :    0.432078
  11 H :    0.326426
  12 H :    0.283111
  13 H :    0.283111
  14 H :    0.254765
  15 H :    0.499007
Sum of atomic charges:    1.0000000

LOEWDIN ATOMIC CHARGES
----------------------
   0 N :   -0.114892
   1 N :   -0.160954
   2 C :   -0.090517
   3 C :    0.145625
   4 C :   -0.018966
   5 C :    0.228452
   6 C :   -0.329989
   7 O :   -0.134005
   8 O :   -0.197470
   9 H :    0.315808
  10 H :    0.307819
  11 H :    0.177766
  12 H :    0.170406
  13 H :    0.170406
  14 H :    0.153443
  15 H :    0.377067

  Mayer bond orders larger than 0.100000
B(  0-N ,  4-C ) :   0.9697 B(  0-N ,  5-C ) :   1.2644 B(  0-N ,  9-H ) :   0.7713
B(  1-N ,  3-C ) :   0.8470 B(  1-N ,  5-C ) :   1.2728 B(  1-N , 10-H ) :   0.7720
B(  2-C ,  3-C ) :   1.0103 B(  2-C ,  4-C ) :   1.6789 B(  2-C ,  6-C ) :   0.9843
B(  3-C ,  7-O ) :   2.1528 B(  4-C , 11-H ) :   0.8743 B(  5-C ,  8-O ) :   1.2865
B(  6-C , 12-H ) :   0.8894 B(  6-C , 13-H ) :   0.8894 B(  6-C , 14-H ) :   0.9124
B(  8-O , 15-H ) :   0.7133

Dispersion correction           -0.008540991
FINAL SINGLE POINT ENERGY      -453.501555146094

DIPOLE MOMENT
-------------
                                X             Y             Z
Electronic contribution:      4.82577       4.47827      -0.00000
Nuclear contribution   :     -4.83177      -2.15990       0.00000
                        -----------------------------------------
Total Dipole Moment    :     -0.00600       2.31836      -0.00000
                        -----------------------------------------
Magnitude (a.u.)       :      2.31837
Magnitude (Debye)      :      5.89283

Rotational constants in cm-1:     0.107303     0.045857     0.032318
Rotational constants in MHz :  3216.871990  1374.759040   968.878428

                             ****ORCA TERMINATED NORMALLY****
TOTAL RUN TIME: 0 days 0 hours 1 minutes 45 seconds 299 msec
