                         Program Version 5.0.3 -  RELEASE  -
|  1> ! PBEh-3c def2/J TightSCF DefGrid3
|  2>
|  3> %maxcore 60000
|  4>
|  5> %pal
|  6> nprocs 4
|  7> end
|  8>
|  9> *xyzfile 0 1 H_x+g-x+.xyz
| 10>
| 11>                          ****END OF INPUT****

CARTESIAN COORDINATES (ANGSTROEM)
---------------------------------
  C     -0.068237    1.752413   -1.074007
  C      0.823552    1.387344    0.109128
  C      0.068237    0.762076    1.288078
  C     -0.068237   -0.762076    1.288078
  C     -0.823552   -1.387344    0.109128
  C      0.068237   -1.752413   -1.074007
  H     -0.811694    2.488953   -0.768953
  H     -0.603606    0.891079   -1.466481
  H      0.511921    2.184269   -1.888884
  H      1.316256    2.298796    0.451468
  H      1.623776    0.715855   -0.209372
  H     -0.929225    1.208343    1.343329
  H      0.573188    1.038849    2.215695
  H     -0.573188   -1.038849    2.215695
  H      0.929225   -1.208343    1.343329
  H     -1.623776   -0.715855   -0.209372
  H     -1.316256   -2.298796    0.451468
  H     -0.511921   -2.184269   -1.888884
  H      0.811694   -2.488953   -0.768953
  H      0.603606   -0.891079   -1.466481

 Total Charge           Charge          ....    0
 Multiplicity           Mult            ....    1
 Number of Electrons    NEL             ....   50
 Basis Dimension        Dim             ....  118

ORBITAL ENERGIES
----------------

  NO   OCC          E(Eh)            E(eV)
   0   2.0000     -10.426927      -283.7311
   1   2.0000     -10.426898      -283.7303
   2   2.0000     -10.425542      -283.6934
   3   2.0000     -10.425327      -283.6876
   4   2.0000     -10.418063      -283.4899
   5   2.0000     -10.418045      -283.4894
   6   2.0000      -0.896444       -24.3935
   7   2.0000      -0.847938       -23.0736
   8   2.0000      -0.793738       -21.5987
   9   2.0000      -0.721037       -19.6204
  10   2.0000      -0.662980       -18.0406
  11   2.0000      -0.628082       -17.0910
  12   2.0000      -0.533463       -14.5163
  13   2.0000      -0.500215       -13.6115
  14   2.0000      -0.498122       -13.5546
  15   2.0000      -0.471066       -12.8184
  16   2.0000      -0.462475       -12.5846
  17   2.0000      -0.442487       -12.0407
  18   2.0000      -0.422018       -11.4837
  19   2.0000      -0.399802       -10.8792
  20   2.0000      -0.392226       -10.6730
  21   2.0000      -0.386682       -10.5222
  22   2.0000      -0.365559        -9.9474
  23   2.0000      -0.353569        -9.6211
  24   2.0000      -0.348330        -9.4785
  25   0.0000       0.132935         3.6173
  26   0.0000       0.159528         4.3410
  27   0.0000       0.159639         4.3440
  28   0.0000       0.172390         4.6910
  29   0.0000       0.185099         5.0368

MULLIKEN ATOMIC CHARGES
-----------------------
   0 C :   -0.654811
   1 C :   -0.427612
   2 C :   -0.416115
   3 C :   -0.416115
   4 C :   -0.427612
   5 C :   -0.654811
   6 H :    0.212869
   7 H :    0.222127
   8 H :    0.217817
   9 H :    0.218016
  10 H :    0.208389
  11 H :    0.203625
  12 H :    0.215696
  13 H :    0.215696
  14 H :    0.203625
  15 H :    0.208389
  16 H :    0.218016
  17 H :    0.217817
  18 H :    0.212869
  19 H :    0.222127
Sum of atomic charges:   -0.0000000

LOEWDIN ATOMIC CHARGES
----------------------
   0 C :   -0.366512
   1 C :   -0.250337
   2 C :   -0.240752
   3 C :   -0.240752
   4 C :   -0.250337
   5 C :   -0.366512
   6 H :    0.123358
   7 H :    0.124563
   8 H :    0.125347
   9 H :    0.123198
  10 H :    0.118828
  11 H :    0.118619
  12 H :    0.123688
  13 H :    0.123688
  14 H :    0.118619
  15 H :    0.118828
  16 H :    0.123198
  17 H :    0.125347
  18 H :    0.123358
  19 H :    0.124563

  Mayer bond orders larger than 0.100000
B(  0-C ,  1-C ) :   0.9924 B(  0-C ,  6-H ) :   0.9281 B(  0-C ,  7-H ) :   0.9178
B(  0-C ,  8-H ) :   0.9311 B(  1-C ,  2-C ) :   0.9633 B(  1-C ,  9-H ) :   0.9269
B(  1-C , 10-H ) :   0.9206 B(  2-C ,  3-C ) :   1.0012 B(  2-C , 11-H ) :   0.9208
B(  2-C , 12-H ) :   0.9277 B(  3-C ,  4-C ) :   0.9633 B(  3-C , 13-H ) :   0.9277
B(  3-C , 14-H ) :   0.9208 B(  4-C ,  5-C ) :   0.9924 B(  4-C , 15-H ) :   0.9206
B(  4-C , 16-H ) :   0.9269 B(  5-C , 17-H ) :   0.9311 B(  5-C , 18-H ) :   0.9281
B(  5-C , 19-H ) :   0.9178

Dispersion correction           -0.009534060
FINAL SINGLE POINT ENERGY      -236.553924368471

DIPOLE MOMENT
-------------
                                X             Y             Z
Electronic contribution:      0.00000       0.00000       1.74272
Nuclear contribution   :      0.00000      -0.00000      -1.69043
                        -----------------------------------------
Total Dipole Moment    :      0.00000       0.00000       0.05229
                        -----------------------------------------
Magnitude (a.u.)       :      0.05229
Magnitude (Debye)      :      0.13291

Rotational constants in cm-1:     0.142586     0.082317     0.061390
Rotational constants in MHz :  4274.624099  2467.797778  1840.420225

                             ****ORCA TERMINATED NORMALLY****
TOTAL RUN TIME: 0 days 0 hours 1 minutes 42 seconds 735 msec
