                         Program Version 5.0.3 -  RELEASE  -
|  1> ! PBEh-3c def2/J TightSCF DefGrid3
|  2>
|  3> %maxcore 60000
|  4>
|  5> %pal
|  6> nprocs 4
|  7> end
|  8>
|  9> *xyzfile 1 1 sugar0.xyz
| 10>
| 11>                          ****END OF INPUT****

CARTESIAN COORDINATES (ANGSTROEM)
---------------------------------
  C     -2.831736   -1.039575   -0.077261
  C     -1.458911   -0.794250    0.584783
  C     -0.311869   -0.633221   -0.402139
  C      1.068353   -0.354045    0.230080
  C      1.175917    1.166793    0.049927
  O      0.403666    1.739963    1.115012
  C      0.501753    1.346304   -1.296267
  O     -3.437083    0.214606   -0.316264
  O      2.010979   -1.025755   -0.529650
  O     -1.681374    0.441414    1.343572
  O     -0.599359    0.452654   -1.256282
  C      3.293977   -1.129312    0.050090
  H     -2.720533   -1.635644   -0.985945
  H     -3.483541   -1.587642    0.604571
  H     -1.230230   -1.581915    1.305690
  H     -0.246889   -1.575580   -0.963414
  H      1.120206   -0.641392    1.293612
  H      2.199949    1.544592    0.090565
  H     -0.858786    1.088198    1.321079
  H      0.130215    2.357016   -1.480975
  H      1.198789    1.087929   -2.100538
  H     -3.227077    0.532154   -1.200922
  H     -2.466990    0.846266    0.856873
  H      3.791221   -0.158681    0.153456
  H      3.252731   -1.605558    1.035944
  H      3.894439   -1.749639   -0.610798
  H      0.512184    2.694319    1.185201

 Total Charge           Charge          ....    1
 Multiplicity           Mult            ....    1
 Number of Electrons    NEL             ....   96
 Basis Dimension        Dim             ....  210

ORBITAL ENERGIES
----------------

  NO   OCC          E(Eh)            E(eV)
   0   2.0000     -19.756060      -537.5897
   1   2.0000     -19.708876      -536.3058
   2   2.0000     -19.680746      -535.5403
   3   2.0000     -19.663610      -535.0740
   4   2.0000     -19.645253      -534.5745
   5   2.0000     -10.685916      -290.7785
   6   2.0000     -10.665444      -290.2215
   7   2.0000     -10.659890      -290.0704
   8   2.0000     -10.658429      -290.0306
   9   2.0000     -10.656987      -289.9913
  10   2.0000     -10.638834      -289.4974
  11   2.0000     -10.602979      -288.5217
  12   2.0000      -1.405902       -38.2565
  13   2.0000      -1.346302       -36.6347
  14   2.0000      -1.320191       -35.9242
  15   2.0000      -1.311099       -35.6768
  16   2.0000      -1.295519       -35.2529
  17   2.0000      -1.054110       -28.6838
  18   2.0000      -1.028231       -27.9796
  19   2.0000      -0.979158       -26.6443
  20   2.0000      -0.910767       -24.7832
  21   2.0000      -0.885877       -24.1059
  22   2.0000      -0.869629       -23.6638
  23   2.0000      -0.841674       -22.9031
  24   2.0000      -0.822752       -22.3882
  25   2.0000      -0.782291       -21.2872
  26   2.0000      -0.771564       -20.9953
  27   2.0000      -0.747699       -20.3459
  28   2.0000      -0.740510       -20.1503
  29   2.0000      -0.722187       -19.6517
  30   2.0000      -0.707123       -19.2418
  31   2.0000      -0.690869       -18.7995
  32   2.0000      -0.674804       -18.3623
  33   2.0000      -0.655847       -17.8465
  34   2.0000      -0.647441       -17.6178
  35   2.0000      -0.632758       -17.2182
  36   2.0000      -0.623047       -16.9540
  37   2.0000      -0.612333       -16.6624
  38   2.0000      -0.603838       -16.4313
  39   2.0000      -0.589943       -16.0532
  40   2.0000      -0.574696       -15.6383
  41   2.0000      -0.564333       -15.3563
  42   2.0000      -0.554390       -15.0857
  43   2.0000      -0.533028       -14.5044
  44   2.0000      -0.521853       -14.2003
  45   2.0000      -0.507035       -13.7971
  46   2.0000      -0.475012       -12.9257
  47   2.0000      -0.458206       -12.4684
  48   0.0000      -0.074438        -2.0255
  49   0.0000      -0.052432        -1.4268
  50   0.0000      -0.017230        -0.4689
  51   0.0000      -0.005653        -0.1538
  52   0.0000       0.003119         0.0849

MULLIKEN ATOMIC CHARGES
-----------------------
   0 C :   -0.206836
   1 C :   -0.043999
   2 C :   -0.022391
   3 C :   -0.011690
   4 C :   -0.047297
   5 O :   -0.689105
   6 C :   -0.168813
   7 O :   -0.635310
   8 O :   -0.457949
   9 O :   -0.682503
  10 O :   -0.487354
  11 C :   -0.403456
  12 H :    0.268813
  13 H :    0.285775
  14 H :    0.303222
  15 H :    0.291596
  16 H :    0.252468
  17 H :    0.286774
  18 H :    0.522465
  19 H :    0.247796
  20 H :    0.259438
  21 H :    0.469072
  22 H :    0.507337
  23 H :    0.202539
  24 H :    0.214858
  25 H :    0.265715
  26 H :    0.478835
Sum of atomic charges:    1.0000000

LOEWDIN ATOMIC CHARGES
----------------------
   0 C :   -0.090423
   1 C :   -0.024333
   2 C :   -0.032444
   3 C :   -0.030736
   4 C :   -0.039279
   5 O :   -0.364114
   6 C :   -0.088932
   7 O :   -0.372604
   8 O :   -0.222989
   9 O :   -0.273589
  10 O :   -0.249085
  11 C :   -0.184803
  12 H :    0.148215
  13 H :    0.152860
  14 H :    0.159763
  15 H :    0.158584
  16 H :    0.128715
  17 H :    0.149036
  18 H :    0.362070
  19 H :    0.137508
  20 H :    0.143772
  21 H :    0.342767
  22 H :    0.365254
  23 H :    0.109035
  24 H :    0.117955
  25 H :    0.147070
  26 H :    0.350731

  Mayer bond orders larger than 0.100000
B(  0-C ,  1-C ) :   0.9189 B(  0-C ,  7-O ) :   0.9701 B(  0-C , 12-H ) :   0.8976
B(  0-C , 13-H ) :   0.8872 B(  1-C ,  2-C ) :   0.9155 B(  1-C ,  9-O ) :   0.7893
B(  1-C , 14-H ) :   0.8792 B(  2-C ,  3-C ) :   0.9391 B(  2-C , 10-O ) :   0.9661
B(  2-C , 15-H ) :   0.8626 B(  3-C ,  4-C ) :   0.9172 B(  3-C ,  8-O ) :   0.9849
B(  3-C , 16-H ) :   0.8802 B(  4-C ,  5-O ) :   0.8388 B(  4-C ,  6-C ) :   0.9388
B(  4-C , 17-H ) :   0.8866 B(  5-O , 18-H ) :   0.2404 B(  5-O , 26-H ) :   0.7397
B(  6-C , 10-O ) :   0.9465 B(  6-C , 19-H ) :   0.9066 B(  6-C , 20-H ) :   0.8774
B(  7-O , 21-H ) :   0.7433 B(  7-O , 22-H ) :   0.1705 B(  8-O , 11-C ) :   0.9308
B(  9-O , 18-H ) :   0.4937 B(  9-O , 22-H ) :   0.5885 B( 11-C , 23-H ) :   0.9087
B( 11-C , 24-H ) :   0.9092 B( 11-C , 25-H ) :   0.9146

Dispersion correction           -0.015652066
FINAL SINGLE POINT ENERGY      -650.204676315096

DIPOLE MOMENT
-------------
                                X             Y             Z
Electronic contribution:     -4.43906       2.08447      -0.25371
Nuclear contribution   :      4.36209      -1.24362       0.80443
                        -----------------------------------------
Total Dipole Moment    :     -0.07698       0.84085       0.55071
                        -----------------------------------------
Magnitude (a.u.)       :      1.00809
Magnitude (Debye)      :      2.56236

Rotational constants in cm-1:     0.054146     0.021093     0.019481
Rotational constants in MHz :  1623.259600   632.348272   584.032456

                             ****ORCA TERMINATED NORMALLY****
TOTAL RUN TIME: 0 days 0 hours 2 minutes 43 seconds 863 msec
