                         Program Version 5.0.3 -  RELEASE  -
|  1> ! PBEh-3c def2/J TightSCF DefGrid3
|  2>
|  3> %maxcore 60000
|  4>
|  5> %pal
|  6> nprocs 4
|  7> end
|  8>
|  9> *xyzfile 1 1 glyp.xyz
| 10>
| 11>                          ****END OF INPUT****

CARTESIAN COORDINATES (ANGSTROEM)
---------------------------------
  N      0.526007   -1.314187    0.076664
  H      1.026878   -1.243163    0.963111
  C     -0.529934   -0.298211   -0.061285
  C      0.065439    1.086228   -0.009157
  H     -1.040467   -0.460419   -1.010271
  H     -1.253324   -0.441585    0.740594
  O      1.242453    1.298613    0.092968
  O     -0.877126    1.996555   -0.094405
  H     -0.509497    2.892479   -0.071152
  H      0.127714   -2.253214    0.041261
  H      1.221858   -1.263098   -0.668326

 Total Charge           Charge          ....    1
 Multiplicity           Mult            ....    1
 Number of Electrons    NEL             ....   40
 Basis Dimension        Dim             ....   87

ORBITAL ENERGIES
----------------

  NO   OCC          E(Eh)            E(eV)
   0   2.0000     -19.720629      -536.6256
   1   2.0000     -19.673760      -535.3502
   2   2.0000     -14.984892      -407.7596
   3   2.0000     -10.776222      -293.2359
   4   2.0000     -10.718205      -291.6572
   5   2.0000      -1.413588       -38.4657
   6   2.0000      -1.339556       -36.4512
   7   2.0000      -1.313697       -35.7475
   8   2.0000      -1.060253       -28.8510
   9   2.0000      -0.907158       -24.6850
  10   2.0000      -0.881923       -23.9983
  11   2.0000      -0.876151       -23.8413
  12   2.0000      -0.777864       -21.1667
  13   2.0000      -0.750031       -20.4094
  14   2.0000      -0.731874       -19.9153
  15   2.0000      -0.726473       -19.7683
  16   2.0000      -0.657922       -17.9030
  17   2.0000      -0.635604       -17.2957
  18   2.0000      -0.558016       -15.1844
  19   2.0000      -0.529506       -14.4086
  20   0.0000      -0.140942        -3.8352
  21   0.0000      -0.126751        -3.4491
  22   0.0000      -0.066122        -1.7993
  23   0.0000      -0.059517        -1.6195
  24   0.0000      -0.041052        -1.1171

MULLIKEN ATOMIC CHARGES
-----------------------
   0 N :   -0.778503
   1 H :    0.469865
   2 C :   -0.451849
   3 C :    0.547128
   4 H :    0.346522
   5 H :    0.346072
   6 O :   -0.359291
   7 O :   -0.545503
   8 H :    0.490047
   9 H :    0.465140
  10 H :    0.470370
Sum of atomic charges:    1.0000000

LOEWDIN ATOMIC CHARGES
----------------------
   0 N :   -0.191154
   1 H :    0.318729
   2 C :   -0.184551
   3 C :    0.111211
   4 H :    0.191407
   5 H :    0.190884
   6 O :   -0.198006
   7 O :   -0.239348
   8 H :    0.367450
   9 H :    0.314320
  10 H :    0.319060

  Mayer bond orders larger than 0.100000
B(  0-N ,  1-H ) :   0.7577 B(  0-N ,  2-C ) :   0.8489 B(  0-N ,  9-H ) :   0.7673
B(  0-N , 10-H ) :   0.7566 B(  2-C ,  3-C ) :   0.8946 B(  2-C ,  4-H ) :   0.8565
B(  2-C ,  5-H ) :   0.8566 B(  3-C ,  6-O ) :   2.0684 B(  3-C ,  7-O ) :   1.2323
B(  6-O ,  7-O ) :   0.1002 B(  7-O ,  8-H ) :   0.7212

Dispersion correction           -0.004028705
FINAL SINGLE POINT ENERGY      -284.180901290145

DIPOLE MOMENT
-------------
                                X             Y             Z
Electronic contribution:      0.76129       2.86389       0.04947
Nuclear contribution   :     -0.92847      -5.60786      -0.01897
                        -----------------------------------------
Total Dipole Moment    :     -0.16719      -2.74397       0.03050
                        -----------------------------------------
Magnitude (a.u.)       :      2.74923
Magnitude (Debye)      :      6.98798

Rotational constants in cm-1:     0.344406     0.127949     0.096427
Rotational constants in MHz : 10325.019468  3835.829316  2890.805650

                             ****ORCA TERMINATED NORMALLY****
TOTAL RUN TIME: 0 days 0 hours 1 minutes 2 seconds 709 msec
