                         Program Version 5.0.3 -  RELEASE  -
|  1> ! PBEh-3c def2/J TightSCF DefGrid3
|  2>
|  3> %maxcore 60000
|  4>
|  5> %pal
|  6> nprocs 4
|  7> end
|  8>
|  9> *xyzfile 0 1 reac4.xyz
| 10>
| 11>                          ****END OF INPUT****

CARTESIAN COORDINATES (ANGSTROEM)
---------------------------------
  C     -0.122877    0.390310   -0.000787
  H     -0.118122    1.483913   -0.004726
  N     -1.171301   -0.329866    0.010781
  H     -2.008655    0.241760    0.002981
  H      1.213885   -1.140955    0.095493
  N      1.132820   -0.147882   -0.053220
  H      1.919523    0.417657    0.208046

 Total Charge           Charge          ....    0
 Multiplicity           Mult            ....    1
 Number of Electrons    NEL             ....   24
 Basis Dimension        Dim             ....   53

ORBITAL ENERGIES
----------------

  NO   OCC          E(Eh)            E(eV)
   0   2.0000     -14.641283      -398.4096
   1   2.0000     -14.587312      -396.9410
   2   2.0000     -10.506907      -285.9075
   3   2.0000      -1.036813       -28.2131
   4   2.0000      -0.936740       -25.4900
   5   2.0000      -0.679478       -18.4895
   6   2.0000      -0.615872       -16.7587
   7   2.0000      -0.513907       -13.9841
   8   2.0000      -0.506800       -13.7907
   9   2.0000      -0.421518       -11.4701
  10   2.0000      -0.306834        -8.3494
  11   2.0000      -0.279156        -7.5962
  12   0.0000       0.077829         2.1178
  13   0.0000       0.134231         3.6526
  14   0.0000       0.166243         4.5237
  15   0.0000       0.204730         5.5710
  16   0.0000       0.236215         6.4277

MULLIKEN ATOMIC CHARGES
-----------------------
   0 C :    0.113479
   1 H :    0.174614
   2 N :   -0.549725
   3 H :    0.300741
   4 H :    0.363274
   5 N :   -0.754733
   6 H :    0.352350
Sum of atomic charges:   -0.0000000

LOEWDIN ATOMIC CHARGES
----------------------
   0 C :   -0.015138
   1 H :    0.086802
   2 N :   -0.398757
   3 H :    0.222956
   4 H :    0.253171
   5 N :   -0.394647
   6 H :    0.245613

  Mayer bond orders larger than 0.100000
B(  0-C ,  1-H ) :   0.8849 B(  0-C ,  2-N ) :   2.0058 B(  0-C ,  5-N ) :   1.1342
B(  2-N ,  3-H ) :   0.8539 B(  4-H ,  5-N ) :   0.8288 B(  5-N ,  6-H ) :   0.8422

Dispersion correction           -0.001880887
FINAL SINGLE POINT ENERGY      -149.670521172701

DIPOLE MOMENT
-------------
                                X             Y             Z
Electronic contribution:     -0.27099      -0.29064      -0.03573
Nuclear contribution   :      1.02963       1.02264       0.30850
                        -----------------------------------------
Total Dipole Moment    :      0.75864       0.73200       0.27277
                        -----------------------------------------
Magnitude (a.u.)       :      1.08893
Magnitude (Debye)      :      2.76784

Rotational constants in cm-1:     2.261734     0.360513     0.311942
Rotational constants in MHz : 67805.089502 10807.901677  9351.779235

                             ****ORCA TERMINATED NORMALLY****
TOTAL RUN TIME: 0 days 0 hours 0 minutes 59 seconds 743 msec
