                         Program Version 5.0.3 -  RELEASE  -
|  1> ! PBEh-3c def2/J TightSCF DefGrid3
|  2>
|  3> %maxcore 60000
|  4>
|  5> %pal
|  6> nprocs 4
|  7> end
|  8>
|  9> *xyzfile 0 1 sio.xyz
| 10>
| 11>                          ****END OF INPUT****

CARTESIAN COORDINATES (ANGSTROEM)
---------------------------------
  Si     0.550568    0.000000    0.000000
  O     -0.966473    0.000000    0.000000

 Total Charge           Charge          ....    0
 Multiplicity           Mult            ....    1
 Number of Electrons    NEL             ....   22
 Basis Dimension        Dim             ....   33

ORBITAL ENERGIES
----------------

  NO   OCC          E(Eh)            E(eV)
   0   2.0000     -66.779642     -1817.1664
   1   2.0000     -19.482582      -530.1480
   2   2.0000      -5.557648      -151.2313
   3   2.0000      -3.848061      -104.7111
   4   2.0000      -3.848061      -104.7111
   5   2.0000      -3.843722      -104.5930
   6   2.0000      -1.041996       -28.3541
   7   2.0000      -0.494720       -13.4620
   8   2.0000      -0.381976       -10.3941
   9   2.0000      -0.381976       -10.3941
  10   2.0000      -0.355912        -9.6849
  11   0.0000      -0.044044        -1.1985
  12   0.0000      -0.044044        -1.1985
  13   0.0000       0.089421         2.4333
  14   0.0000       0.208612         5.6766
  15   0.0000       0.433111        11.7855

MULLIKEN ATOMIC CHARGES
-----------------------
   0 Si:    0.540693
   1 O :   -0.540693
Sum of atomic charges:   -0.0000000

LOEWDIN ATOMIC CHARGES
----------------------
   0 Si:    0.344668
   1 O :   -0.344668

  Mayer bond orders larger than 0.100000
B(  0-Si,  1-O ) :   2.2154

Dispersion correction           -0.000292825
FINAL SINGLE POINT ENERGY      -364.190239015052

DIPOLE MOMENT
-------------
                                X             Y             Z
Electronic contribution:      1.15877       0.00000      -0.00000
Nuclear contribution   :     -0.04565       0.00000       0.00000
                        -----------------------------------------
Total Dipole Moment    :      1.11312       0.00000      -0.00000
                        -----------------------------------------
Magnitude (a.u.)       :      1.11312
Magnitude (Debye)      :      2.82933

Rotational constants in cm-1:     0.000000     0.718638     0.718638
Rotational constants in MHz :     0.000000 21544.238084 21544.238084

                             ****ORCA TERMINATED NORMALLY****
TOTAL RUN TIME: 0 days 0 hours 0 minutes 25 seconds 324 msec
