                         Program Version 5.0.3 -  RELEASE  -
|  1> ! PBEh-3c def2/J TightSCF DefGrid3
|  2>
|  3> %maxcore 60000
|  4>
|  5> %pal
|  6> nprocs 4
|  7> end
|  8>
|  9> *xyzfile 0 1 teh2_hi.xyz
| 10>
| 11>                          ****END OF INPUT****

CARTESIAN COORDINATES (ANGSTROEM)
---------------------------------
  Te     0.038663    2.162151    0.000000
  H     -0.104533    0.533394    0.000000
  H     -1.588035    2.307955    0.000000
  H      1.615241   -2.397603    0.000000
  I      0.038663   -2.605898    0.000000

 Total Charge           Charge          ....    0
 Multiplicity           Mult            ....    1
 Number of Electrons    NEL             ....   52
 Basis Dimension        Dim             ....   58

ORBITAL ENERGIES
----------------

  NO   OCC          E(Eh)            E(eV)
   0   2.0000      -7.112131      -193.5309
   1   2.0000      -6.503201      -176.9611
   2   2.0000      -5.095704      -138.6611
   3   2.0000      -5.079341      -138.2159
   4   2.0000      -5.078792      -138.2010
   5   2.0000      -4.596945      -125.0892
   6   2.0000      -4.592745      -124.9749
   7   2.0000      -4.581476      -124.6683
   8   2.0000      -2.050819       -55.8056
   9   2.0000      -2.044473       -55.6330
  10   2.0000      -2.044039       -55.6211
  11   2.0000      -2.029886       -55.2360
  12   2.0000      -2.029880       -55.2358
  13   2.0000      -1.707870       -46.4735
  14   2.0000      -1.704809       -46.3902
  15   2.0000      -1.694401       -46.1070
  16   2.0000      -1.690731       -46.0071
  17   2.0000      -1.689453       -45.9724
  18   2.0000      -0.798051       -21.7161
  19   2.0000      -0.716675       -19.5017
  20   2.0000      -0.470043       -12.7905
  21   2.0000      -0.439361       -11.9556
  22   2.0000      -0.379188       -10.3182
  23   2.0000      -0.327766        -8.9190
  24   2.0000      -0.326243        -8.8775
  25   2.0000      -0.264124        -7.1872
  26   0.0000      -0.000465        -0.0127
  27   0.0000       0.009547         0.2598
  28   0.0000       0.068087         1.8528
  29   0.0000       0.252261         6.8644
  30   0.0000       0.275492         7.4965

MULLIKEN ATOMIC CHARGES
-----------------------
   0 Te:   -0.195182
   1 H :    0.097242
   2 H :    0.091053
   3 H :    0.151893
   4 I :   -0.145006
Sum of atomic charges:    0.0000000

LOEWDIN ATOMIC CHARGES
----------------------
   0 Te:   -0.127786
   1 H :    0.061452
   2 H :    0.057945
   3 H :    0.101334
   4 I :   -0.092945

  Mayer bond orders larger than 0.100000
B(  0-Te,  1-H ) :   0.9615 B(  0-Te,  2-H ) :   0.9726 B(  3-H ,  4-I ) :   0.9568

Dispersion correction           -0.001313249
FINAL SINGLE POINT ENERGY      -567.559652984318

DIPOLE MOMENT
-------------
                                X             Y             Z
Electronic contribution:      0.41845       3.28460      -0.00000
Nuclear contribution   :     -0.29096      -3.47224       0.00000
                        -----------------------------------------
Total Dipole Moment    :      0.12749      -0.18764      -0.00000
                        -----------------------------------------
Magnitude (a.u.)       :      0.22685
Magnitude (Debye)      :      0.57662

Rotational constants in cm-1:     3.271816     0.011560     0.011519
Rotational constants in MHz : 98086.579319   346.559148   345.338998

                             ****ORCA TERMINATED NORMALLY****
TOTAL RUN TIME: 0 days 0 hours 1 minutes 8 seconds 964 msec
