                         Program Version 5.0.3 -  RELEASE  -
|  1> ! PBEh-3c def2/J TightSCF DefGrid3
|  2>
|  3> %maxcore 60000
|  4>
|  5> %pal
|  6> nprocs 4
|  7> end
|  8>
|  9> *xyzfile 0 1 46.xyz
| 10>
| 11>                          ****END OF INPUT****

CARTESIAN COORDINATES (ANGSTROEM)
---------------------------------
  C      1.412857    0.861260   -2.018846
  H      0.992842    1.862833   -1.956553
  H      1.988088    0.775299   -2.938953
  H      2.092368    0.700608   -1.186718
  C      0.367403   -0.228864   -2.001472
  O      0.659487   -1.403698   -1.818389
  N     -0.909363    0.193670   -2.215755
  H     -1.064005    1.170809   -2.383558
  C     -2.019188   -0.728586   -2.309517
  H     -1.628690   -1.718013   -2.092486
  H     -2.793925   -0.482597   -1.586009
  H     -2.450304   -0.730141   -3.309609
  C      2.701332    0.311529    1.863676
  H      2.818171    1.065944    1.084931
  H      2.615221    0.836415    2.815332
  H      3.613423   -0.282713    1.890484
  C      1.473059   -0.551859    1.606124
  H      1.378490   -1.297313    2.399175
  H      1.589479   -1.105323    0.672281
  C      0.190522    0.266755    1.540823
  H      0.078951    0.844490    2.463907
  H      0.269756    0.999570    0.731170
  C     -1.053835   -0.583580    1.323943
  H     -1.144637   -1.298067    2.145360
  H     -0.926028   -1.172518    0.413729
  C     -2.320673    0.256711    1.233828
  H     -2.253760    0.963762    0.406059
  H     -3.206015   -0.359306    1.079995
  H     -2.471029    0.832922    2.147048

 Total Charge           Charge          ....    0
 Multiplicity           Mult            ....    1
 Number of Electrons    NEL             ....   82
 Basis Dimension        Dim             ....  188

ORBITAL ENERGIES
----------------

  NO   OCC          E(Eh)            E(eV)
   0   2.0000     -19.452724      -529.3355
   1   2.0000     -14.664723      -399.0474
   2   2.0000     -10.547283      -287.0062
   3   2.0000     -10.465191      -284.7723
   4   2.0000     -10.442109      -284.1442
   5   2.0000     -10.420102      -283.5454
   6   2.0000     -10.419427      -283.5270
   7   2.0000     -10.418380      -283.4985
   8   2.0000     -10.416708      -283.4530
   9   2.0000     -10.414811      -283.4014
  10   2.0000      -1.138963       -30.9928
  11   2.0000      -1.021465       -27.7955
  12   2.0000      -0.887250       -24.1433
  13   2.0000      -0.843316       -22.9478
  14   2.0000      -0.831842       -22.6356
  15   2.0000      -0.770685       -20.9714
  16   2.0000      -0.750951       -20.4344
  17   2.0000      -0.665617       -18.1124
  18   2.0000      -0.657164       -17.8823
  19   2.0000      -0.637829       -17.3562
  20   2.0000      -0.571682       -15.5563
  21   2.0000      -0.540600       -14.7105
  22   2.0000      -0.532833       -14.4991
  23   2.0000      -0.514138       -13.9904
  24   2.0000      -0.492817       -13.4102
  25   2.0000      -0.490378       -13.3439
  26   2.0000      -0.475934       -12.9508
  27   2.0000      -0.464782       -12.6474
  28   2.0000      -0.454712       -12.3733
  29   2.0000      -0.452781       -12.3208
  30   2.0000      -0.444436       -12.0937
  31   2.0000      -0.443442       -12.0667
  32   2.0000      -0.425545       -11.5797
  33   2.0000      -0.407973       -11.1015
  34   2.0000      -0.397096       -10.8055
  35   2.0000      -0.376516       -10.2455
  36   2.0000      -0.366688        -9.9781
  37   2.0000      -0.359041        -9.7700
  38   2.0000      -0.356157        -9.6915
  39   2.0000      -0.307388        -8.3644
  40   2.0000      -0.301760        -8.2113
  41   0.0000       0.063321         1.7230
  42   0.0000       0.100749         2.7415
  43   0.0000       0.131244         3.5713
  44   0.0000       0.147488         4.0133
  45   0.0000       0.178192         4.8489

MULLIKEN ATOMIC CHARGES
-----------------------
   0 C :   -0.761330
   1 H :    0.208358
   2 H :    0.260093
   3 H :    0.270933
   4 C :    0.534060
   5 O :   -0.438761
   6 N :   -0.624840
   7 H :    0.352679
   8 C :   -0.506442
   9 H :    0.268031
  10 H :    0.226900
  11 H :    0.224905
  12 C :   -0.642719
  13 H :    0.198389
  14 H :    0.207874
  15 H :    0.220664
  16 C :   -0.433645
  17 H :    0.205331
  18 H :    0.242299
  19 C :   -0.394376
  20 H :    0.198901
  21 H :    0.188912
  22 C :   -0.424931
  23 H :    0.206028
  24 H :    0.235757
  25 C :   -0.644522
  26 H :    0.195023
  27 H :    0.213442
  28 H :    0.212986
Sum of atomic charges:   -0.0000000

LOEWDIN ATOMIC CHARGES
----------------------
   0 C :   -0.390491
   1 H :    0.125928
   2 H :    0.156327
   3 H :    0.156922
   4 C :    0.103665
   5 O :   -0.285380
   6 N :   -0.247718
   7 H :    0.250939
   8 C :   -0.263065
   9 H :    0.155685
  10 H :    0.124068
  11 H :    0.121409
  12 C :   -0.361732
  13 H :    0.116037
  14 H :    0.121713
  15 H :    0.126650
  16 C :   -0.252882
  17 H :    0.119580
  18 H :    0.134125
  19 C :   -0.238798
  20 H :    0.115554
  21 H :    0.111215
  22 C :   -0.247998
  23 H :    0.119174
  24 H :    0.130071
  25 C :   -0.362824
  26 H :    0.115948
  27 H :    0.122865
  28 H :    0.123013

  Mayer bond orders larger than 0.100000
B(  0-C ,  1-H ) :   0.9219 B(  0-C ,  2-H ) :   0.9057 B(  0-C ,  3-H ) :   0.9003
B(  0-C ,  4-C ) :   0.9273 B(  4-C ,  5-O ) :   1.9530 B(  4-C ,  6-N ) :   1.1383
B(  6-N ,  7-H ) :   0.8298 B(  6-N ,  8-C ) :   0.9476 B(  8-C ,  9-H ) :   0.8953
B(  8-C , 10-H ) :   0.9134 B(  8-C , 11-H ) :   0.9190 B( 12-C , 13-H ) :   0.9285
B( 12-C , 14-H ) :   0.9298 B( 12-C , 15-H ) :   0.9323 B( 12-C , 16-C ) :   0.9934
B( 16-C , 17-H ) :   0.9209 B( 16-C , 18-H ) :   0.8967 B( 16-C , 19-C ) :   0.9903
B( 19-C , 20-H ) :   0.9198 B( 19-C , 21-H ) :   0.9163 B( 19-C , 22-C ) :   0.9924
B( 22-C , 23-H ) :   0.9197 B( 22-C , 24-H ) :   0.8994 B( 22-C , 25-C ) :   0.9930
B( 25-C , 26-H ) :   0.9299 B( 25-C , 27-H ) :   0.9334 B( 25-C , 28-H ) :   0.9285

Dispersion correction           -0.015353790
FINAL SINGLE POINT ENERGY      -445.328838620493

DIPOLE MOMENT
-------------
                                X             Y             Z
Electronic contribution:      0.59378      -3.14551      -8.20959
Nuclear contribution   :     -1.24408       4.29995       7.79733
                        -----------------------------------------
Total Dipole Moment    :     -0.65031       1.15444      -0.41226
                        -----------------------------------------
Magnitude (a.u.)       :      1.38765
Magnitude (Debye)      :      3.52714

Rotational constants in cm-1:     0.042273     0.027918     0.019671
Rotational constants in MHz :  1267.303759   836.969991   589.724205

                             ****ORCA TERMINATED NORMALLY****
TOTAL RUN TIME: 0 days 0 hours 2 minutes 29 seconds 5 msec
