                         Program Version 5.0.3 -  RELEASE  -
|  1> ! PBEh-3c def2/J TightSCF DefGrid3
|  2>
|  3> %maxcore 60000
|  4>
|  5> %pal
|  6> nprocs 4
|  7> end
|  8>
|  9> *xyzfile 0 1 214.xyz
| 10>
| 11>                          ****END OF INPUT****

CARTESIAN COORDINATES (ANGSTROEM)
---------------------------------
  C     -0.648620   -1.247290   -0.618880
  N      0.091350   -0.093690   -0.016270
  C     -0.517070    1.286450   -0.271730
  C     -1.686840    1.563410    0.668530
  H      0.154670   -0.192680    1.007580
  H      1.061190   -0.061390   -0.361530
  H     -0.661100   -1.146240   -1.708760
  H     -0.141510   -2.174390   -0.333900
  H     -1.671640   -1.260050   -0.235120
  H     -2.078290    2.567160    0.463770
  H     -2.512570    0.852210    0.534330
  H     -1.345990    1.536860    1.709900
  H     -0.802140    1.324600   -1.330170
  H      0.295380    1.995100   -0.082530
  O      2.596390    0.512110    1.059730
  Cl     1.950960    0.926710    2.349490
  O      2.892330    0.830170    3.455330
  O      1.404160    2.291180    2.200060
  O      0.783070   -0.023370    2.593360

 Total Charge           Charge          ....    0
 Multiplicity           Mult            ....    1
 Number of Electrons    NEL             ....   84
 Basis Dimension        Dim             ....  158

ORBITAL ENERGIES
----------------

  NO   OCC          E(Eh)            E(eV)
   0   2.0000    -102.665965     -2793.6829
   1   2.0000     -19.488230      -530.3017
   2   2.0000     -19.485221      -530.2198
   3   2.0000     -19.484148      -530.1906
   4   2.0000     -19.483452      -530.1717
   5   2.0000     -14.771764      -401.9601
   6   2.0000     -10.539196      -286.7861
   7   2.0000     -10.532314      -286.5988
   8   2.0000     -10.469283      -284.8837
   9   2.0000     -10.076836      -274.2047
  10   2.0000      -7.764258      -211.2762
  11   2.0000      -7.764115      -211.2723
  12   2.0000      -7.763985      -211.2688
  13   2.0000      -1.363779       -37.1103
  14   2.0000      -1.132402       -30.8142
  15   2.0000      -1.123579       -30.5741
  16   2.0000      -1.110524       -30.2189
  17   2.0000      -1.101723       -29.9794
  18   2.0000      -0.896697       -24.4004
  19   2.0000      -0.838561       -22.8184
  20   2.0000      -0.749036       -20.3823
  21   2.0000      -0.713031       -19.4026
  22   2.0000      -0.676756       -18.4155
  23   2.0000      -0.629794       -17.1376
  24   2.0000      -0.595952       -16.2167
  25   2.0000      -0.586646       -15.9634
  26   2.0000      -0.584417       -15.9028
  27   2.0000      -0.576765       -15.6946
  28   2.0000      -0.538760       -14.6604
  29   2.0000      -0.519396       -14.1335
  30   2.0000      -0.513013       -13.9598
  31   2.0000      -0.473946       -12.8967
  32   2.0000      -0.465004       -12.6534
  33   2.0000      -0.447582       -12.1793
  34   2.0000      -0.414688       -11.2842
  35   2.0000      -0.412436       -11.2230
  36   2.0000      -0.393401       -10.7050
  37   2.0000      -0.387609       -10.5474
  38   2.0000      -0.382617       -10.4115
  39   2.0000      -0.322447        -8.7742
  40   2.0000      -0.317498        -8.6396
  41   2.0000      -0.315880        -8.5955
  42   0.0000       0.063800         1.7361
  43   0.0000       0.105847         2.8802
  44   0.0000       0.111775         3.0416
  45   0.0000       0.122897         3.3442
  46   0.0000       0.123655         3.3648

MULLIKEN ATOMIC CHARGES
-----------------------
   0 C :   -0.520986
   1 N :   -0.679358
   2 C :   -0.333152
   3 C :   -0.666228
   4 H :    0.461644
   5 H :    0.441615
   6 H :    0.255229
   7 H :    0.281895
   8 H :    0.265924
   9 H :    0.254380
  10 H :    0.212999
  11 H :    0.283838
  12 H :    0.242584
  13 H :    0.310060
  14 O :   -0.663865
  15 Cl:    1.692927
  16 O :   -0.564937
  17 O :   -0.614649
  18 O :   -0.659920
Sum of atomic charges:    0.0000000

LOEWDIN ATOMIC CHARGES
----------------------
   0 C :   -0.250831
   1 N :   -0.168823
   2 C :   -0.149239
   3 C :   -0.374647
   4 H :    0.284293
   5 H :    0.293981
   6 H :    0.143295
   7 H :    0.156209
   8 H :    0.148859
   9 H :    0.152269
  10 H :    0.126158
  11 H :    0.161898
  12 H :    0.131581
  13 H :    0.164488
  14 O :   -0.659108
  15 Cl:    1.687107
  16 O :   -0.566709
  17 O :   -0.619330
  18 O :   -0.661451

  Mayer bond orders larger than 0.100000
B(  0-C ,  1-N ) :   0.9110 B(  0-C ,  6-H ) :   0.9105 B(  0-C ,  7-H ) :   0.9031
B(  0-C ,  8-H ) :   0.9040 B(  1-N ,  2-C ) :   0.8543 B(  1-N ,  4-H ) :   0.6061
B(  1-N ,  5-H ) :   0.7475 B(  2-C ,  3-C ) :   0.9874 B(  2-C , 12-H ) :   0.9044
B(  2-C , 13-H ) :   0.8688 B(  3-C ,  9-H ) :   0.9122 B(  3-C , 10-H ) :   0.9218
B(  3-C , 11-H ) :   0.8875 B(  4-H , 18-O ) :   0.2016 B( 14-O , 15-Cl) :   1.3559
B( 15-Cl, 16-O ) :   1.5305 B( 15-Cl, 17-O ) :   1.4390 B( 15-Cl, 18-O ) :   1.2414
B( 16-O , 17-O ) :   0.1002

Dispersion correction           -0.010316511
FINAL SINGLE POINT ENERGY      -934.315070965786

DIPOLE MOMENT
-------------
                                X             Y             Z
Electronic contribution:     14.69721       2.52114      11.75507
Nuclear contribution   :    -17.41105      -3.65169     -14.96146
                        -----------------------------------------
Total Dipole Moment    :     -2.71385      -1.13054      -3.20640
                        -----------------------------------------
Magnitude (a.u.)       :      4.35018
Magnitude (Debye)      :     11.05728

Rotational constants in cm-1:     0.078854     0.027561     0.024357
Rotational constants in MHz :  2363.977349   826.244845   730.210884

                             ****ORCA TERMINATED NORMALLY****
TOTAL RUN TIME: 0 days 0 hours 1 minutes 41 seconds 121 msec
