                         Program Version 5.0.3 -  RELEASE  -
|  1> ! PBEh-3c def2/J TightSCF DefGrid3
|  2>
|  3> %maxcore 60000
|  4>
|  5> %pal
|  6> nprocs 4
|  7> end
|  8>
|  9> *xyzfile 0 1 6.xyz
| 10>
| 11>                          ****END OF INPUT****

CARTESIAN COORDINATES (ANGSTROEM)
---------------------------------
  C      0.000000    0.000000    0.467528
  H     -0.860672    0.000000   -0.233764
  H      0.860672    0.000000   -0.233764

 Total Charge           Charge          ....    0
 Multiplicity           Mult            ....    1
 Number of Electrons    NEL             ....    8
 Basis Dimension        Dim             ....   19

ORBITAL ENERGIES
----------------

  NO   OCC          E(Eh)            E(eV)
   0   2.0000     -10.507205      -285.9156
   1   2.0000      -0.746634       -20.3169
   2   2.0000      -0.463499       -12.6124
   3   2.0000      -0.296321        -8.0633
   4   0.0000      -0.087911        -2.3922
   5   0.0000       0.170160         4.6303
   6   0.0000       0.207524         5.6470
   7   0.0000       0.509235        13.8570
   8   0.0000       0.546700        14.8765

MULLIKEN ATOMIC CHARGES
-----------------------
   0 C :   -0.365092
   1 H :    0.182546
   2 H :    0.182546
Sum of atomic charges:    0.0000000

LOEWDIN ATOMIC CHARGES
----------------------
   0 C :   -0.204863
   1 H :    0.102431
   2 H :    0.102431

  Mayer bond orders larger than 0.100000
B(  0-C ,  1-H ) :   0.9187 B(  0-C ,  2-H ) :   0.9187

Dispersion correction           -0.000284555
FINAL SINGLE POINT ENERGY       -39.031591428188

DIPOLE MOMENT
-------------
                                X             Y             Z
Electronic contribution:     -0.00000      -0.00000       0.31002
Nuclear contribution   :      0.00000       0.00000      -1.12675
                        -----------------------------------------
Total Dipole Moment    :     -0.00000      -0.00000      -0.81673
                        -----------------------------------------
Magnitude (a.u.)       :      0.81673
Magnitude (Debye)      :      2.07596

Rotational constants in cm-1:    19.856136    11.288351     7.196877
Rotational constants in MHz : 595271.968781 338416.260923 215756.938449

                             ****ORCA TERMINATED NORMALLY****
TOTAL RUN TIME: 0 days 0 hours 0 minutes 9 seconds 297 msec
