                         Program Version 5.0.3 -  RELEASE  -
|  1> ! PBEh-3c def2/J TightSCF DefGrid3
|  2>
|  3> %maxcore 60000
|  4>
|  5> %pal
|  6> nprocs 4
|  7> end
|  8>
|  9> *xyzfile 0 1 butadiene_strans.xyz
| 10>
| 11>                          ****END OF INPUT****

CARTESIAN COORDINATES (ANGSTROEM)
---------------------------------
  C      1.171844    1.411186    0.000000
  C      0.035752    0.722755    0.000000
  C     -0.035752   -0.722755    0.000000
  C     -1.171844   -1.411186    0.000000
  H     -0.909513    1.250796    0.000000
  H      1.181744    2.488907    0.000000
  H      2.129312    0.911103    0.000000
  H      0.909513   -1.250796    0.000000
  H     -1.181744   -2.488907    0.000000
  H     -2.129312   -0.911103    0.000000

 Total Charge           Charge          ....    0
 Multiplicity           Mult            ....    1
 Number of Electrons    NEL             ....   30
 Basis Dimension        Dim             ....   72

ORBITAL ENERGIES
----------------

  NO   OCC          E(Eh)            E(eV)
   0   2.0000     -10.449127      -284.3352
   1   2.0000     -10.448780      -284.3258
   2   2.0000     -10.439213      -284.0654
   3   2.0000     -10.439197      -284.0650
   4   2.0000      -0.904474       -24.6120
   5   2.0000      -0.825207       -22.4550
   6   2.0000      -0.682277       -18.5657
   7   2.0000      -0.624877       -17.0038
   8   2.0000      -0.532855       -14.4997
   9   2.0000      -0.527830       -14.3630
  10   2.0000      -0.453396       -12.3375
  11   2.0000      -0.443647       -12.0722
  12   2.0000      -0.399257       -10.8643
  13   2.0000      -0.377467       -10.2714
  14   2.0000      -0.275090        -7.4856
  15   0.0000      -0.001758        -0.0478
  16   0.0000       0.109799         2.9878
  17   0.0000       0.170457         4.6384
  18   0.0000       0.176282         4.7969
  19   0.0000       0.176836         4.8120

MULLIKEN ATOMIC CHARGES
-----------------------
   0 C :   -0.497123
   1 C :   -0.157042
   2 C :   -0.157042
   3 C :   -0.497123
   4 H :    0.215525
   5 H :    0.221862
   6 H :    0.216778
   7 H :    0.215524
   8 H :    0.221862
   9 H :    0.216778
Sum of atomic charges:    0.0000000

LOEWDIN ATOMIC CHARGES
----------------------
   0 C :   -0.258457
   1 C :   -0.140102
   2 C :   -0.140102
   3 C :   -0.258457
   4 H :    0.132791
   5 H :    0.134806
   6 H :    0.130963
   7 H :    0.132791
   8 H :    0.134806
   9 H :    0.130963

  Mayer bond orders larger than 0.100000
B(  0-C ,  1-C ) :   1.8428 B(  0-C ,  3-C ) :   0.1176 B(  0-C ,  5-H ) :   0.9285
B(  0-C ,  6-H ) :   0.9297 B(  1-C ,  2-C ) :   1.1000 B(  1-C ,  4-H ) :   0.9200
B(  2-C ,  3-C ) :   1.8428 B(  2-C ,  7-H ) :   0.9200 B(  3-C ,  8-H ) :   0.9285
B(  3-C ,  9-H ) :   0.9297

Dispersion correction           -0.003534845
FINAL SINGLE POINT ENERGY      -155.634146420210

DIPOLE MOMENT
-------------
                                X             Y             Z
Electronic contribution:     -0.00000       0.00000      -0.00000
Nuclear contribution   :      0.00000       0.00000       0.00000
                        -----------------------------------------
Total Dipole Moment    :     -0.00000       0.00000      -0.00000
                        -----------------------------------------
Magnitude (a.u.)       :      0.00000
Magnitude (Debye)      :      0.00000

Rotational constants in cm-1:     1.425685     0.149819     0.135572
Rotational constants in MHz : 42740.969260  4491.448195  4064.345201

                             ****ORCA TERMINATED NORMALLY****
TOTAL RUN TIME: 0 days 0 hours 1 minutes 4 seconds 690 msec
