                         Program Version 5.0.3 -  RELEASE  -
|  1> ! PBEh-3c def2/J TightSCF DefGrid3
|  2>
|  3> %maxcore 60000
|  4>
|  5> %pal
|  6> nprocs 4
|  7> end
|  8>
|  9> *xyzfile 0 1 59B.xyz
| 10>
| 11>                          ****END OF INPUT****

CARTESIAN COORDINATES (ANGSTROEM)
---------------------------------
  O      0.000000    0.000000   -0.394047
  H     -0.755496    0.000000    0.197050
  H      0.755496    0.000000    0.197050

 Total Charge           Charge          ....    0
 Multiplicity           Mult            ....    1
 Number of Electrons    NEL             ....   10
 Basis Dimension        Dim             ....   19

ORBITAL ENERGIES
----------------

  NO   OCC          E(Eh)            E(eV)
   0   2.0000     -19.474342      -529.9238
   1   2.0000      -1.103504       -30.0279
   2   2.0000      -0.581365       -15.8197
   3   2.0000      -0.435654       -11.8547
   4   2.0000      -0.356762        -9.7080
   5   0.0000       0.131722         3.5843
   6   0.0000       0.209663         5.7052
   7   0.0000       0.872128        23.7318
   8   0.0000       0.983461        26.7613
   9   0.0000       0.991491        26.9799

MULLIKEN ATOMIC CHARGES
-----------------------
   0 O :   -0.816282
   1 H :    0.408141
   2 H :    0.408141
Sum of atomic charges:   -0.0000000

LOEWDIN ATOMIC CHARGES
----------------------
   0 O :   -0.596792
   1 H :    0.298396
   2 H :    0.298396

  Mayer bond orders larger than 0.100000
B(  0-O ,  1-H ) :   0.8160 B(  0-O ,  2-H ) :   0.8160

Dispersion correction           -0.000209584
FINAL SINGLE POINT ENERGY       -76.258019405061

DIPOLE MOMENT
-------------
                                X             Y             Z
Electronic contribution:     -0.00000      -0.00000      -0.13124
Nuclear contribution   :      0.00000       0.00000       0.98401
                        -----------------------------------------
Total Dipole Moment    :     -0.00000      -0.00000       0.85277
                        -----------------------------------------
Magnitude (a.u.)       :      0.85277
Magnitude (Debye)      :      2.16757

Rotational constants in cm-1:    26.948178    14.650164     9.490648
Rotational constants in MHz : 807886.055768 439200.875807 284522.477352

                             ****ORCA TERMINATED NORMALLY****
TOTAL RUN TIME: 0 days 0 hours 0 minutes 44 seconds 0 msec
