                         Program Version 5.0.3 -  RELEASE  -
|  1> ! PBEh-3c def2/J TightSCF DefGrid3
|  2>
|  3> %maxcore 60000
|  4>
|  5> %pal
|  6> nprocs 4
|  7> end
|  8>
|  9> *xyzfile 0 2 07.xyz
| 10>
| 11>                          ****END OF INPUT****

CARTESIAN COORDINATES (ANGSTROEM)
---------------------------------
  C     -1.984966   -3.076153   -0.648281
  H     -0.768506   -1.597474    1.263268
  B     -1.055303   -1.867752   -0.689527
  H     -2.295311   -3.523987    0.296232
  H     -2.391002   -3.558180   -1.534780
  Cl    -0.664949   -1.266794   -2.427682
  F     -0.078658    2.328724    0.718187
  N     -0.485056   -1.178375    0.376365
  C      0.969887    2.836716    1.704457
  H      0.352000    3.339007    2.448532
  S      1.951085    1.481472    2.229615
  H      0.896285    0.005452   -1.983464
  H      1.776935    1.336242   -1.831368
  O      1.477458    0.538489   -1.371858
  F      1.615890    3.784952    0.963971
  Mg     0.684211    0.417661    0.486332

 Total Charge           Charge          ....    0
 Multiplicity           Mult            ....    2
 Number of Electrons    NEL             ....  101
 Basis Dimension        Dim             ....  171

ORBITAL ENERGIES
----------------
                 SPIN UP ORBITALS
  NO   OCC          E(Eh)            E(eV)
   0   1.0000    -102.283956     -2783.2880
   1   1.0000     -89.558908     -2437.0218
   2   1.0000     -47.361187     -1288.7634
   3   1.0000     -25.135775      -683.9792
   4   1.0000     -25.125075      -683.6880
   5   1.0000     -19.566304      -532.4262
   6   1.0000     -14.601196      -397.3187
   7   1.0000     -10.646808      -289.7144
   8   1.0000     -10.444374      -284.2059
   9   1.0000      -9.750529      -265.3254
  10   1.0000      -8.199164      -223.1106
  11   1.0000      -7.435644      -202.3341
  12   1.0000      -7.431816      -202.2300
  13   1.0000      -7.431243      -202.2144
  14   1.0000      -6.987301      -190.1341
  15   1.0000      -6.090861      -165.7408
  16   1.0000      -6.085124      -165.5846
  17   1.0000      -6.082974      -165.5261
  18   1.0000      -3.310823       -90.0921
  19   1.0000      -1.995514       -54.3007
  20   1.0000      -1.994994       -54.2866
  21   1.0000      -1.992960       -54.2312
  22   1.0000      -1.379580       -37.5403
  23   1.0000      -1.326530       -36.0967
  24   1.0000      -1.182512       -32.1778
  25   1.0000      -0.923136       -25.1198
  26   1.0000      -0.886463       -24.1219
  27   1.0000      -0.865838       -23.5607
  28   1.0000      -0.766877       -20.8678
  29   1.0000      -0.726338       -19.7647
  30   1.0000      -0.668061       -18.1789
  31   1.0000      -0.629424       -17.1275
  32   1.0000      -0.620442       -16.8831
  33   1.0000      -0.566361       -15.4115
  34   1.0000      -0.556697       -15.1485
  35   1.0000      -0.545914       -14.8551
  36   1.0000      -0.530150       -14.4261
  37   1.0000      -0.506127       -13.7724
  38   1.0000      -0.490717       -13.3531
  39   1.0000      -0.487217       -13.2578
  40   1.0000      -0.484009       -13.1705
  41   1.0000      -0.455862       -12.4046
  42   1.0000      -0.417709       -11.3664
  43   1.0000      -0.412183       -11.2161
  44   1.0000      -0.395930       -10.7738
  45   1.0000      -0.376541       -10.2462
  46   1.0000      -0.363306        -9.8861
  47   1.0000      -0.333184        -9.0664
  48   1.0000      -0.324469        -8.8292
  49   1.0000      -0.291784        -7.9398
  50   1.0000      -0.275829        -7.5057
  51   0.0000       0.015893         0.4325
  52   0.0000       0.038769         1.0550
  53   0.0000       0.063758         1.7349
  54   0.0000       0.074159         2.0180
  55   0.0000       0.102197         2.7809

                 SPIN DOWN ORBITALS
  NO   OCC          E(Eh)            E(eV)
   0   1.0000    -102.283914     -2783.2868
   1   1.0000     -89.558910     -2437.0218
   2   1.0000     -47.361197     -1288.7637
   3   1.0000     -25.135772      -683.9791
   4   1.0000     -25.125074      -683.6880
   5   1.0000     -19.566303      -532.4262
   6   1.0000     -14.597881      -397.2285
   7   1.0000     -10.646807      -289.7143
   8   1.0000     -10.430683      -283.8333
   9   1.0000      -9.750493      -265.3244
  10   1.0000      -8.199166      -223.1106
  11   1.0000      -7.435643      -202.3341
  12   1.0000      -7.431790      -202.2293
  13   1.0000      -7.431062      -202.2095
  14   1.0000      -6.988330      -190.1621
  15   1.0000      -6.090863      -165.7408
  16   1.0000      -6.085130      -165.5848
  17   1.0000      -6.082975      -165.5262
  18   1.0000      -3.310844       -90.0926
  19   1.0000      -1.995469       -54.2995
  20   1.0000      -1.995006       -54.2869
  21   1.0000      -1.993006       -54.2325
  22   1.0000      -1.379577       -37.5402
  23   1.0000      -1.326524       -36.0965
  24   1.0000      -1.182513       -32.1778
  25   1.0000      -0.917861       -24.9763
  26   1.0000      -0.882687       -24.0191
  27   1.0000      -0.865838       -23.5607
  28   1.0000      -0.726367       -19.7655
  29   1.0000      -0.720628       -19.6093
  30   1.0000      -0.667850       -18.1731
  31   1.0000      -0.629422       -17.1274
  32   1.0000      -0.620439       -16.8830
  33   1.0000      -0.566345       -15.4110
  34   1.0000      -0.556194       -15.1348
  35   1.0000      -0.544231       -14.8093
  36   1.0000      -0.530127       -14.4255
  37   1.0000      -0.506092       -13.7715
  38   1.0000      -0.487201       -13.2574
  39   1.0000      -0.483012       -13.1434
  40   1.0000      -0.474910       -12.9230
  41   1.0000      -0.455415       -12.3925
  42   1.0000      -0.415351       -11.3023
  43   1.0000      -0.411562       -11.1992
  44   1.0000      -0.385841       -10.4993
  45   1.0000      -0.371402       -10.1064
  46   1.0000      -0.359764        -9.7897
  47   1.0000      -0.324218        -8.8224
  48   1.0000      -0.306743        -8.3469
  49   1.0000      -0.291768        -7.9394
  50   0.0000      -0.061312        -1.6684
  51   0.0000       0.016515         0.4494
  52   0.0000       0.040931         1.1138
  53   0.0000       0.064890         1.7657
  54   0.0000       0.074898         2.0381

MULLIKEN ATOMIC CHARGES AND SPIN POPULATIONS
--------------------------------------------
   0 C :   -0.625310    1.013839
   1 H :    0.350040   -0.006050
   2 B :    0.500849   -0.051866
   3 H :    0.208942   -0.056326
   4 H :    0.227487   -0.055607
   5 Cl:   -0.354590    0.004984
   6 F :   -0.392937    0.000008
   7 N :   -0.824369    0.144845
   8 C :    0.371616    0.000120
   9 H :    0.237856   -0.000004
  10 S :   -0.327133   -0.000176
  11 H :    0.479079   -0.000138
  12 H :    0.484556    0.000018
  13 O :   -0.849792    0.000016
  14 F :   -0.299195    0.000007
  15 Mg:    0.812902    0.006330
Sum of atomic charges         :    0.0000000

LOEWDIN ATOMIC CHARGES AND SPIN POPULATIONS
-------------------------------------------
   0 C :   -0.293131    0.909776
   1 H :    0.280630   -0.003600
   2 B :   -0.069070   -0.004476
   3 H :    0.141858   -0.025903
   4 H :    0.148921   -0.026123
   5 Cl:   -0.034382    0.005847
   6 F :   -0.153448    0.000050
   7 N :   -0.359987    0.134206
   8 C :    0.221393    0.000105
   9 H :    0.138888   -0.000003
  10 S :    0.110874   -0.000170
  11 H :    0.343616   -0.000079
  12 H :    0.366462    0.000011
  13 O :   -0.381360   -0.000006
  14 F :   -0.173191    0.000011
  15 Mg:   -0.288073    0.010351

  Mayer bond orders larger than 0.100000
B(  0-C ,  2-B ) :   1.0685 B(  0-C ,  3-H ) :   0.9238 B(  0-C ,  4-H ) :   0.9232
B(  1-H ,  7-N ) :   0.8134 B(  2-B ,  5-Cl) :   0.8264 B(  2-B ,  7-N ) :   1.4411
B(  5-Cl, 11-H ) :   0.1586 B(  6-F ,  8-C ) :   0.6400 B(  6-F , 15-Mg) :   0.3215
B(  7-N , 15-Mg) :   0.6105 B(  8-C ,  9-H ) :   0.8717 B(  8-C , 10-S ) :   1.1855
B(  8-C , 14-F ) :   0.9760 B( 10-S , 15-Mg) :   0.6667 B( 11-H , 13-O ) :   0.6193
B( 12-H , 13-O ) :   0.7387 B( 13-O , 15-Mg) :   0.3675

Dispersion correction           -0.008244998
FINAL SINGLE POINT ENERGY     -1490.852780716842

DIPOLE MOMENT
-------------
                                X             Y             Z
Electronic contribution:      2.55979       7.43033      -0.95639
Nuclear contribution   :     -2.76164      -7.11285       0.63530
                        -----------------------------------------
Total Dipole Moment    :     -0.20184       0.31748      -0.32109
                        -----------------------------------------
Magnitude (a.u.)       :      0.49460
Magnitude (Debye)      :      1.25718

Rotational constants in cm-1:     0.055387     0.012499     0.011405
Rotational constants in MHz :  1660.456247   374.704228   341.919720

                             ****ORCA TERMINATED NORMALLY****
TOTAL RUN TIME: 0 days 0 hours 3 minutes 49 seconds 353 msec
