                         Program Version 5.0.3 -  RELEASE  -
|  1> ! PBEh-3c def2/J TightSCF DefGrid3
|  2>
|  3> %maxcore 60000
|  4>
|  5> %pal
|  6> nprocs 4
|  7> end
|  8>
|  9> *xyzfile 1 1 27.xyz
| 10>
| 11>                          ****END OF INPUT****

CARTESIAN COORDINATES (ANGSTROEM)
---------------------------------
  K      0.154714    0.312155    2.173467
  C      0.126082    1.509524   -0.769515
  C     -1.111108    0.843145   -0.693732
  C     -1.149486   -0.559886   -0.591416
  C      0.049333   -1.296482   -0.564843
  C      1.286525   -0.630152   -0.641011
  C      1.324883    0.772890   -0.743202
  H      2.213698   -1.202604   -0.651772
  H      2.281760    1.286482   -0.833114
  H      0.155108    2.593266   -0.879642
  H     -2.039677    1.411081   -0.745398
  H     -2.107753   -1.077981   -0.563848
  H      0.018915   -2.384698   -0.516535

 Total Charge           Charge          ....    1
 Multiplicity           Mult            ....    1
 Number of Electrons    NEL             ....   60
 Basis Dimension        Dim             ....  126

ORBITAL ENERGIES
----------------

  NO   OCC          E(Eh)            E(eV)
   0   2.0000    -130.873531     -3561.2498
   1   2.0000     -13.753567      -374.2536
   2   2.0000     -11.012316      -299.6604
   3   2.0000     -11.012316      -299.6603
   4   2.0000     -11.012268      -299.6591
   5   2.0000     -10.610903      -288.7373
   6   2.0000     -10.610666      -288.7309
   7   2.0000     -10.610665      -288.7309
   8   2.0000     -10.610081      -288.7150
   9   2.0000     -10.610079      -288.7149
  10   2.0000     -10.609872      -288.7093
  11   2.0000      -1.681739       -45.7624
  12   2.0000      -1.108807       -30.1722
  13   2.0000      -1.004900       -27.3447
  14   2.0000      -1.004899       -27.3447
  15   2.0000      -1.001836       -27.2614
  16   2.0000      -0.989067       -26.9139
  17   2.0000      -0.989063       -26.9138
  18   2.0000      -0.831404       -22.6237
  19   2.0000      -0.831399       -22.6235
  20   2.0000      -0.740697       -20.1554
  21   2.0000      -0.675458       -18.3801
  22   2.0000      -0.661958       -18.0128
  23   2.0000      -0.633079       -17.2270
  24   2.0000      -0.633068       -17.2267
  25   2.0000      -0.580843       -15.8055
  26   2.0000      -0.550458       -14.9787
  27   2.0000      -0.550451       -14.9785
  28   2.0000      -0.455298       -12.3893
  29   2.0000      -0.455298       -12.3893
  30   0.0000      -0.156680        -4.2635
  31   0.0000      -0.148964        -4.0535
  32   0.0000      -0.148961        -4.0534
  33   0.0000      -0.092824        -2.5259
  34   0.0000      -0.092812        -2.5255

MULLIKEN ATOMIC CHARGES
-----------------------
   0 K :    0.888235
   1 C :   -0.260771
   2 C :   -0.260697
   3 C :   -0.260510
   4 C :   -0.260891
   5 C :   -0.260711
   6 C :   -0.261059
   7 H :    0.279388
   8 H :    0.279422
   9 H :    0.279405
  10 H :    0.279420
  11 H :    0.279394
  12 H :    0.279376
Sum of atomic charges:    1.0000000

LOEWDIN ATOMIC CHARGES
----------------------
   0 K :    0.629684
   1 C :   -0.105792
   2 C :   -0.105740
   3 C :   -0.105715
   4 C :   -0.105805
   5 C :   -0.105798
   6 C :   -0.105847
   7 H :    0.167513
   8 H :    0.167514
   9 H :    0.167501
  10 H :    0.167496
  11 H :    0.167495
  12 H :    0.167495

  Mayer bond orders larger than 0.100000
B(  1-C ,  2-C ) :   1.3940 B(  1-C ,  6-C ) :   1.3939 B(  1-C ,  9-H ) :   0.8993
B(  2-C ,  3-C ) :   1.3940 B(  2-C , 10-H ) :   0.8993 B(  3-C ,  4-C ) :   1.3939
B(  3-C , 11-H ) :   0.8993 B(  4-C ,  5-C ) :   1.3940 B(  4-C , 12-H ) :   0.8994
B(  5-C ,  6-C ) :   1.3939 B(  5-C ,  7-H ) :   0.8993 B(  6-C ,  8-H ) :   0.8993

Dispersion correction           -0.006060903
FINAL SINGLE POINT ENERGY      -831.020961128894

DIPOLE MOMENT
-------------
                                X             Y             Z
Electronic contribution:      0.23669       0.72902      10.07145
Nuclear contribution   :     -0.17448      -0.53608      -7.40538
                        -----------------------------------------
Total Dipole Moment    :      0.06221       0.19294       2.66607
                        -----------------------------------------
Magnitude (a.u.)       :      2.67377
Magnitude (Debye)      :      6.79618

Rotational constants in cm-1:     0.093437     0.055807     0.055807
Rotational constants in MHz :  2801.160224  1673.065010  1673.044006

                             ****ORCA TERMINATED NORMALLY****
TOTAL RUN TIME: 0 days 0 hours 0 minutes 59 seconds 311 msec
