                         Program Version 5.0.3 -  RELEASE  -
|  1> ! PBEh-3c def2/J TightSCF DefGrid3
|  2>
|  3> %maxcore 60000
|  4>
|  5> %pal
|  6> nprocs 4
|  7> end
|  8>
|  9> *xyzfile 0 1 23.xyz
| 10>
| 11>                          ****END OF INPUT****

CARTESIAN COORDINATES (ANGSTROEM)
---------------------------------
  C      0.588587   -0.184307    1.584715
  B     -1.431822    0.207456    0.031237
  B     -0.884849   -0.136175    1.696521
  H      0.508940    1.255016   -1.438986
  Si     0.710131   -1.807358   -1.293338
  F      3.419433    1.571382   -0.150400
  H      2.105045   -1.113589   -1.296524
  B      0.054525   -0.710205    0.252806
  H     -0.049388   -0.621991   -2.234474
  H     -1.498186    1.023586    1.002781
  H     -2.515741   -0.239943   -0.366265
  B     -0.245776    0.308010   -1.299028
  Si    -2.016609    1.218320   -1.593445
  Mg     1.985407    0.537415   -0.072413
  H      1.325290   -0.533897    2.302980
  Cl    -2.054986   -0.773722    2.873835

 Total Charge           Charge          ....    0
 Multiplicity           Mult            ....    1
 Number of Electrons    NEL             ....   98
 Basis Dimension        Dim             ....  174

ORBITAL ENERGIES
----------------

  NO   OCC          E(Eh)            E(eV)
   0   2.0000    -102.302155     -2783.7832
   1   2.0000     -66.799315     -1817.7018
   2   2.0000     -66.761759     -1816.6798
   3   2.0000     -47.387364     -1289.4757
   4   2.0000     -24.991106      -680.0426
   5   2.0000     -10.460051      -284.6324
   6   2.0000      -9.768985      -265.8276
   7   2.0000      -7.455053      -202.8623
   8   2.0000      -7.449664      -202.7157
   9   2.0000      -7.448993      -202.6974
  10   2.0000      -7.041793      -191.6169
  11   2.0000      -7.005661      -190.6337
  12   2.0000      -7.001626      -190.5239
  13   2.0000      -6.995582      -190.3595
  14   2.0000      -5.572258      -151.6289
  15   2.0000      -5.537670      -150.6877
  16   2.0000      -3.864731      -105.1647
  17   2.0000      -3.860583      -105.0518
  18   2.0000      -3.857908      -104.9790
  19   2.0000      -3.829412      -104.2036
  20   2.0000      -3.826438      -104.1227
  21   2.0000      -3.825243      -104.0901
  22   2.0000      -3.337267       -90.8116
  23   2.0000      -2.022645       -55.0390
  24   2.0000      -2.021433       -55.0060
  25   2.0000      -2.018929       -54.9379
  26   2.0000      -1.175040       -31.9745
  27   2.0000      -0.927800       -25.2467
  28   2.0000      -0.857226       -23.3263
  29   2.0000      -0.762015       -20.7355
  30   2.0000      -0.693383       -18.8679
  31   2.0000      -0.630718       -17.1627
  32   2.0000      -0.567846       -15.4519
  33   2.0000      -0.548909       -14.9366
  34   2.0000      -0.519055       -14.1242
  35   2.0000      -0.497867       -13.5476
  36   2.0000      -0.479372       -13.0444
  37   2.0000      -0.443853       -12.0778
  38   2.0000      -0.426537       -11.6067
  39   2.0000      -0.421164       -11.4604
  40   2.0000      -0.411063       -11.1856
  41   2.0000      -0.400036       -10.8855
  42   2.0000      -0.399146       -10.8613
  43   2.0000      -0.379976       -10.3397
  44   2.0000      -0.371578       -10.1112
  45   2.0000      -0.343388        -9.3441
  46   2.0000      -0.332219        -9.0401
  47   2.0000      -0.295271        -8.0347
  48   2.0000      -0.266196        -7.2436
  49   0.0000      -0.112521        -3.0619
  50   0.0000      -0.063224        -1.7204
  51   0.0000      -0.025487        -0.6935
  52   0.0000      -0.011247        -0.3061
  53   0.0000       0.012260         0.3336

MULLIKEN ATOMIC CHARGES
-----------------------
   0 C :   -0.665471
   1 B :   -0.339394
   2 B :    0.050686
   3 H :    0.083886
   4 Si:    0.257015
   5 F :   -0.509647
   6 H :   -0.073755
   7 B :    0.128371
   8 H :    0.103880
   9 H :    0.155190
  10 H :    0.101437
  11 B :   -0.479202
  12 Si:    0.367340
  13 Mg:    0.721227
  14 H :    0.276384
  15 Cl:   -0.177946
Sum of atomic charges:    0.0000000

LOEWDIN ATOMIC CHARGES
----------------------
   0 C :   -0.251408
   1 B :   -0.405319
   2 B :   -0.115201
   3 H :    0.131527
   4 Si:    0.215685
   5 F :   -0.287533
   6 H :    0.064810
   7 B :   -0.154816
   8 H :    0.145314
   9 H :    0.193503
  10 H :    0.127178
  11 B :   -0.355373
  12 Si:    0.417599
  13 Mg:   -0.013853
  14 H :    0.212231
  15 Cl:    0.075655

  Mayer bond orders larger than 0.100000
B(  0-C ,  2-B ) :   1.2772 B(  0-C ,  7-B ) :   0.9243 B(  0-C , 13-Mg) :   0.4111
B(  0-C , 14-H ) :   0.8675 B(  1-B ,  2-B ) :   0.5743 B(  1-B ,  7-B ) :   0.4327
B(  1-B ,  9-H ) :   0.6065 B(  1-B , 10-H ) :   0.7616 B(  1-B , 11-B ) :   0.4285
B(  1-B , 12-Si) :   0.6599 B(  2-B ,  7-B ) :   0.2515 B(  2-B ,  9-H ) :   0.3198
B(  2-B , 15-Cl) :   1.2035 B(  3-H , 11-B ) :   0.8285 B(  3-H , 13-Mg) :   0.1064
B(  4-Si,  6-H ) :   0.7218 B(  4-Si,  7-B ) :   0.7652 B(  4-Si,  8-H ) :   0.3968
B(  4-Si, 11-B ) :   0.2689 B(  4-Si, 13-Mg) :   0.1735 B(  5-F , 13-Mg) :   0.9276
B(  6-H , 13-Mg) :   0.2104 B(  7-B , 11-B ) :   0.3921 B(  7-B , 13-Mg) :   0.2005
B(  8-H , 11-B ) :   0.5373 B( 10-H , 12-Si) :   0.1678 B( 11-B , 12-Si) :   0.8776
B( 11-B , 13-Mg) :   0.1735

Dispersion correction           -0.011986517
FINAL SINGLE POINT ENERGY     -1478.218643220424

DIPOLE MOMENT
-------------
                                X             Y             Z
Electronic contribution:     -1.82722       0.22568       5.45502
Nuclear contribution   :      0.90982      -0.49546      -5.94513
                        -----------------------------------------
Total Dipole Moment    :     -0.91739      -0.26978      -0.49010
                        -----------------------------------------
Magnitude (a.u.)       :      1.07452
Magnitude (Debye)      :      2.73121

Rotational constants in cm-1:     0.028157     0.017531     0.014422
Rotational constants in MHz :   844.138286   525.566185   432.361382

                             ****ORCA TERMINATED NORMALLY****
TOTAL RUN TIME: 0 days 0 hours 3 minutes 21 seconds 852 msec
