                         Program Version 5.0.3 -  RELEASE  -
|  1> ! PBEh-3c def2/J TightSCF DefGrid3
|  2>
|  3> %maxcore 60000
|  4>
|  5> %pal
|  6> nprocs 4
|  7> end
|  8>
|  9> *xyzfile 0 1 COCl2.xyz
| 10>
| 11>                          ****END OF INPUT****

CARTESIAN COORDINATES (ANGSTROEM)
---------------------------------
  C      0.099696    0.172781    0.000000
  Cl     0.864460   -1.413928    0.000000
  Cl    -1.656729    0.042672    0.000000
  O      0.692573    1.198475    0.000000

 Total Charge           Charge          ....    0
 Multiplicity           Mult            ....    1
 Number of Electrons    NEL             ....   48
 Basis Dimension        Dim             ....   66

ORBITAL ENERGIES
----------------

  NO   OCC          E(Eh)            E(eV)
   0   2.0000    -102.348702     -2785.0498
   1   2.0000    -102.348596     -2785.0469
   2   2.0000     -19.566910      -532.4427
   3   2.0000     -10.670714      -290.3649
   4   2.0000      -9.816644      -267.1245
   5   2.0000      -9.816567      -267.1224
   6   2.0000      -7.504399      -204.2051
   7   2.0000      -7.504331      -204.2032
   8   2.0000      -7.496147      -203.9805
   9   2.0000      -7.496085      -203.9788
  10   2.0000      -7.495065      -203.9511
  11   2.0000      -7.495004      -203.9494
  12   2.0000      -1.245105       -33.8810
  13   2.0000      -1.008580       -27.4449
  14   2.0000      -0.954004       -25.9598
  15   2.0000      -0.674402       -18.3514
  16   2.0000      -0.589666       -16.0456
  17   2.0000      -0.574631       -15.6365
  18   2.0000      -0.547616       -14.9014
  19   2.0000      -0.432695       -11.7742
  20   2.0000      -0.411093       -11.1864
  21   2.0000      -0.408886       -11.1264
  22   2.0000      -0.403261       -10.9733
  23   2.0000      -0.380494       -10.3538
  24   0.0000      -0.033162        -0.9024
  25   0.0000      -0.009178        -0.2497
  26   0.0000       0.133407         3.6302
  27   0.0000       0.253394         6.8952
  28   0.0000       0.427694        11.6382

MULLIKEN ATOMIC CHARGES
-----------------------
   0 C :    0.286477
   1 Cl:   -0.031103
   2 Cl:   -0.030969
   3 O :   -0.224404
Sum of atomic charges:   -0.0000000

LOEWDIN ATOMIC CHARGES
----------------------
   0 C :   -0.080124
   1 Cl:    0.097688
   2 Cl:    0.097879
   3 O :   -0.115443

  Mayer bond orders larger than 0.100000
B(  0-C ,  1-Cl) :   1.0079 B(  0-C ,  2-Cl) :   1.0081 B(  0-C ,  3-O ) :   2.1545

Dispersion correction           -0.001622018
FINAL SINGLE POINT ENERGY     -1032.486896986485

DIPOLE MOMENT
-------------
                                X             Y             Z
Electronic contribution:     -0.88005      -1.52203      -0.00000
Nuclear contribution   :      0.64693       1.11967       0.00000
                        -----------------------------------------
Total Dipole Moment    :     -0.23313      -0.40236      -0.00000
                        -----------------------------------------
Magnitude (a.u.)       :      0.46502
Magnitude (Debye)      :      1.18198

Rotational constants in cm-1:     0.257397     0.112170     0.078124
Rotational constants in MHz :  7716.562870  3362.771171  2342.111454

                             ****ORCA TERMINATED NORMALLY****
TOTAL RUN TIME: 0 days 0 hours 1 minutes 4 seconds 326 msec
