                         Program Version 5.0.3 -  RELEASE  -
|  1> ! PBEh-3c def2/J TightSCF DefGrid3
|  2>
|  3> %maxcore 60000
|  4>
|  5> %pal
|  6> nprocs 4
|  7> end
|  8>
|  9> *xyzfile 0 2 EA_22n.xyz
| 10>
| 11>                          ****END OF INPUT****

CARTESIAN COORDINATES (ANGSTROEM)
---------------------------------
  C      0.000000    0.000000    0.581036
  N      0.000000    0.000000   -0.581036

 Total Charge           Charge          ....    0
 Multiplicity           Mult            ....    2
 Number of Electrons    NEL             ....   13
 Basis Dimension        Dim             ....   30

ORBITAL ENERGIES
----------------
                 SPIN UP ORBITALS
  NO   OCC          E(Eh)            E(eV)
   0   1.0000     -14.705677      -400.1618
   1   1.0000     -10.571937      -287.6770
   2   1.0000      -1.061113       -28.8744
   3   1.0000      -0.573007       -15.5923
   4   1.0000      -0.465536       -12.6679
   5   1.0000      -0.441192       -12.0054
   6   1.0000      -0.441192       -12.0054
   7   0.0000       0.028324         0.7707
   8   0.0000       0.028324         0.7707
   9   0.0000       0.283533         7.7153
  10   0.0000       0.492293        13.3960
  11   0.0000       0.492293        13.3960

                 SPIN DOWN ORBITALS
  NO   OCC          E(Eh)            E(eV)
   0   1.0000     -14.704036      -400.1171
   1   1.0000     -10.550873      -287.1039
   2   1.0000      -1.037364       -28.2281
   3   1.0000      -0.482707       -13.1351
   4   1.0000      -0.432250       -11.7621
   5   1.0000      -0.432250       -11.7621
   6   0.0000      -0.200659        -5.4602
   7   0.0000       0.056259         1.5309
   8   0.0000       0.056259         1.5309
   9   0.0000       0.305594         8.3156
  10   0.0000       0.515732        14.0338

MULLIKEN ATOMIC CHARGES AND SPIN POPULATIONS
--------------------------------------------
   0 C :    0.151078    1.030963
   1 N :   -0.151078   -0.030963
Sum of atomic charges         :    0.0000000

LOEWDIN ATOMIC CHARGES AND SPIN POPULATIONS
-------------------------------------------
   0 C :    0.057437    0.975242
   1 N :   -0.057437    0.024758

  Mayer bond orders larger than 0.100000
B(  0-C ,  1-N ) :   3.0928

Dispersion correction           -0.000272039
FINAL SINGLE POINT ENERGY       -92.491363992836

DIPOLE MOMENT
-------------
                                X             Y             Z
Electronic contribution:      0.00000      -0.00000       0.63217
Nuclear contribution   :      0.00000       0.00000      -0.00295
                        -----------------------------------------
Total Dipole Moment    :      0.00000      -0.00000       0.62922
                        -----------------------------------------
Magnitude (a.u.)       :      0.62922
Magnitude (Debye)      :      1.59934

Rotational constants in cm-1:     0.000000     1.930545     1.930545
Rotational constants in MHz :     0.000000 57876.291473 57876.291473

                             ****ORCA TERMINATED NORMALLY****
TOTAL RUN TIME: 0 days 0 hours 0 minutes 30 seconds 852 msec
