                         Program Version 5.0.3 -  RELEASE  -
|  1> ! PBEh-3c def2/J TightSCF DefGrid3
|  2>
|  3> %maxcore 60000
|  4>
|  5> %pal
|  6> nprocs 4
|  7> end
|  8>
|  9> *xyzfile 0 1 19B.xyz
| 10>
| 11>                          ****END OF INPUT****

CARTESIAN COORDINATES (ANGSTROEM)
---------------------------------
  N      0.000000    0.000000   -1.604451
  C      1.145257    0.000000   -0.908575
  H      2.055762    0.000000   -1.494241
  C      1.195060    0.000000    0.481912
  H      2.149251    0.000000    0.988791
  C      0.000000    0.000000    1.193711
  H      0.000000    0.000000    2.274707
  C     -1.195060    0.000000    0.481912
  H     -2.149251    0.000000    0.988791
  C     -1.145257    0.000000   -0.908575
  H     -2.055762    0.000000   -1.494241

 Total Charge           Charge          ....    0
 Multiplicity           Mult            ....    1
 Number of Electrons    NEL             ....   42
 Basis Dimension        Dim             ....  100

ORBITAL ENERGIES
----------------

  NO   OCC          E(Eh)            E(eV)
   0   2.0000     -14.639704      -398.3666
   1   2.0000     -10.483066      -285.2587
   2   2.0000     -10.483035      -285.2579
   3   2.0000     -10.470849      -284.9263
   4   2.0000     -10.459136      -284.6076
   5   2.0000     -10.459125      -284.6073
   6   2.0000      -1.046085       -28.4654
   7   2.0000      -0.901552       -24.5325
   8   2.0000      -0.855438       -23.2776
   9   2.0000      -0.709864       -19.3164
  10   2.0000      -0.709790       -19.3144
  11   2.0000      -0.601401       -16.3649
  12   2.0000      -0.547233       -14.8910
  13   2.0000      -0.537637       -14.6299
  14   2.0000      -0.493078       -13.4173
  15   2.0000      -0.467816       -12.7299
  16   2.0000      -0.456181       -12.4133
  17   2.0000      -0.422500       -11.4968
  18   2.0000      -0.333147        -9.0654
  19   2.0000      -0.312700        -8.5090
  20   2.0000      -0.306523        -8.3409
  21   0.0000      -0.004397        -0.1196
  22   0.0000       0.008888         0.2419
  23   0.0000       0.145198         3.9510
  24   0.0000       0.182423         4.9640
  25   0.0000       0.195998         5.3334

MULLIKEN ATOMIC CHARGES
-----------------------
   0 N :   -0.361499
   1 C :   -0.036898
   2 H :    0.233868
   3 C :   -0.298845
   4 H :    0.231793
   5 C :   -0.133198
   6 H :    0.234861
   7 C :   -0.298845
   8 H :    0.231793
   9 C :   -0.036898
  10 H :    0.233868
Sum of atomic charges:    0.0000000

LOEWDIN ATOMIC CHARGES
----------------------
   0 N :   -0.140100
   1 C :   -0.056835
   2 H :    0.130567
   3 C :   -0.164029
   4 H :    0.141837
   5 C :   -0.104000
   6 H :    0.141020
   7 C :   -0.164029
   8 H :    0.141837
   9 C :   -0.056835
  10 H :    0.130567

  Mayer bond orders larger than 0.100000
B(  0-N ,  1-C ) :   1.4974 B(  0-N ,  9-C ) :   1.4974 B(  1-C ,  2-H ) :   0.9169
B(  1-C ,  3-C ) :   1.3821 B(  3-C ,  4-H ) :   0.9129 B(  3-C ,  5-C ) :   1.4140
B(  5-C ,  6-H ) :   0.9184 B(  5-C ,  7-C ) :   1.4140 B(  7-C ,  8-H ) :   0.9129
B(  7-C ,  9-C ) :   1.3821 B(  9-C , 10-H ) :   0.9169

Dispersion correction           -0.005323112
FINAL SINGLE POINT ENERGY      -247.729366760034

DIPOLE MOMENT
-------------
                                X             Y             Z
Electronic contribution:      0.00000       0.00000      -1.32403
Nuclear contribution   :      0.00000       0.00000       2.19276
                        -----------------------------------------
Total Dipole Moment    :      0.00000       0.00000       0.86873
                        -----------------------------------------
Magnitude (a.u.)       :      0.86873
Magnitude (Debye)      :      2.20813

Rotational constants in cm-1:     0.201532     0.194732     0.099037
Rotational constants in MHz :  6041.780883  5837.916924  2969.049840

                             ****ORCA TERMINATED NORMALLY****
TOTAL RUN TIME: 0 days 0 hours 1 minutes 26 seconds 246 msec
