                         Program Version 5.0.3 -  RELEASE  -
|  1> ! PBEh-3c def2/J TightSCF DefGrid3
|  2>
|  3> %maxcore 60000
|  4>
|  5> %pal
|  6> nprocs 4
|  7> end
|  8>
|  9> *xyzfile 1 2 nh32+_1.5.xyz
| 10>
| 11>                          ****END OF INPUT****

CARTESIAN COORDINATES (ANGSTROEM)
---------------------------------
  N     -1.624883    0.000000    0.000000
  N      1.624883    0.000000   -0.000000
  H     -1.900557   -0.842594   -0.487347
  H     -1.900557   -0.000758    0.973381
  H     -1.900557    0.843352   -0.486034
  H      1.900557   -0.843352    0.486034
  H      1.900557    0.000758   -0.973381
  H      1.900557    0.842594    0.487347

 Total Charge           Charge          ....    1
 Multiplicity           Mult            ....    2
 Number of Electrons    NEL             ....   19
 Basis Dimension        Dim             ....   42

ORBITAL ENERGIES
----------------
                 SPIN UP ORBITALS
  NO   OCC          E(Eh)            E(eV)
   0   1.0000     -14.899598      -405.4387
   1   1.0000     -14.899589      -405.4384
   2   1.0000      -1.211261       -32.9601
   3   1.0000      -1.209156       -32.9028
   4   1.0000      -0.787847       -21.4384
   5   1.0000      -0.787847       -21.4384
   6   1.0000      -0.786161       -21.3925
   7   1.0000      -0.786161       -21.3925
   8   1.0000      -0.623459       -16.9652
   9   1.0000      -0.596282       -16.2257
  10   0.0000      -0.074517        -2.0277
  11   0.0000      -0.056636        -1.5412
  12   0.0000       0.012908         0.3512
  13   0.0000       0.012909         0.3513
  14   0.0000       0.014001         0.3810

                 SPIN DOWN ORBITALS
  NO   OCC          E(Eh)            E(eV)
   0   1.0000     -14.885508      -405.0553
   1   1.0000     -14.885503      -405.0551
   2   1.0000      -1.177228       -32.0340
   3   1.0000      -1.173647       -31.9365
   4   1.0000      -0.777088       -21.1456
   5   1.0000      -0.777088       -21.1456
   6   1.0000      -0.775257       -21.0958
   7   1.0000      -0.775257       -21.0958
   8   1.0000      -0.490866       -13.3571
   9   0.0000      -0.374683       -10.1956
  10   0.0000      -0.067923        -1.8483
  11   0.0000      -0.049180        -1.3383
  12   0.0000       0.019076         0.5191
  13   0.0000       0.019078         0.5191

MULLIKEN ATOMIC CHARGES AND SPIN POPULATIONS
--------------------------------------------
   0 N :   -0.762496    0.549662
   1 N :   -0.762496    0.549662
   2 H :    0.420833   -0.016554
   3 H :    0.420830   -0.016554
   4 H :    0.420833   -0.016554
   5 H :    0.420833   -0.016554
   6 H :    0.420830   -0.016554
   7 H :    0.420833   -0.016554
Sum of atomic charges         :    1.0000000

LOEWDIN ATOMIC CHARGES AND SPIN POPULATIONS
-------------------------------------------
   0 N :   -0.345135    0.533107
   1 N :   -0.345135    0.533107
   2 H :    0.281712   -0.011036
   3 H :    0.281711   -0.011036
   4 H :    0.281712   -0.011036
   5 H :    0.281712   -0.011036
   6 H :    0.281711   -0.011036
   7 H :    0.281712   -0.011036

  Mayer bond orders larger than 0.100000
B(  0-N ,  1-N ) :   0.4878 B(  0-N ,  2-H ) :   0.8034 B(  0-N ,  3-H ) :   0.8034
B(  0-N ,  4-H ) :   0.8034 B(  1-N ,  5-H ) :   0.8034 B(  1-N ,  6-H ) :   0.8034
B(  1-N ,  7-H ) :   0.8034

Dispersion correction           -0.001323940
FINAL SINGLE POINT ENERGY      -112.532267151558

DIPOLE MOMENT
-------------
                                X             Y             Z
Electronic contribution:      0.00000       0.00000      -0.00000
Nuclear contribution   :     -0.00000       0.00000       0.00000
                        -----------------------------------------
Total Dipole Moment    :      0.00000       0.00000      -0.00000
                        -----------------------------------------
Magnitude (a.u.)       :      0.00000
Magnitude (Debye)      :      0.00000

Rotational constants in cm-1:     2.941841     0.170840     0.170840
Rotational constants in MHz : 88194.160366  5121.654666  5121.654633

                             ****ORCA TERMINATED NORMALLY****
TOTAL RUN TIME: 0 days 0 hours 1 minutes 3 seconds 612 msec
