                         Program Version 5.0.3 -  RELEASE  -
|  1> ! PBEh-3c def2/J TightSCF DefGrid3
|  2>
|  3> %maxcore 60000
|  4>
|  5> %pal
|  6> nprocs 4
|  7> end
|  8>
|  9> *xyzfile 0 1 i5p.xyz
| 10>
| 11>                          ****END OF INPUT****

CARTESIAN COORDINATES (ANGSTROEM)
---------------------------------
  C     -3.057164    0.239431    0.833010
  C     -3.746717   -0.962478    0.660972
  C     -3.104489   -2.046186    0.053301
  C     -1.778358   -1.921219   -0.367698
  C     -1.071503   -0.718821   -0.213751
  C     -1.734004    0.370831    0.387600
  C      0.393065   -0.654056   -0.579311
  C      1.293486   -0.966492    0.649097
  C      2.762650   -0.863312    0.300888
  C      3.385106    0.460691    0.205444
  C      2.810981    1.633209    0.524234
  C     -1.044963    1.699586    0.599184
  C     -0.799640    2.572675   -0.578652
  C     -1.257346    2.317267   -1.812634
  O     -0.723321    2.071174    1.723631
  C      3.490682   -1.968869    0.043333
  H     -4.776987   -1.051918    0.999327
  H     -3.632799   -2.987352   -0.086871
  H     -1.271342   -2.770356   -0.824963
  H     -3.544736    1.088366    1.308652
  H      0.658520    0.333437   -0.969700
  H      0.612381   -1.387561   -1.365412
  H      1.065431   -1.979296    1.003195
  H      1.038730   -0.272885    1.460244
  H      4.540635   -1.900977   -0.239977
  H      3.054034   -2.963654    0.119411
  H      4.418438    0.463373   -0.149092
  H      3.365014    2.565310    0.432785
  H      1.794088    1.701332    0.903446
  H     -0.239610    3.481796   -0.358525
  H     -1.825327    1.412523   -2.024008
  H     -1.074934    3.004429   -2.637158

 Total Charge           Charge          ....    0
 Multiplicity           Mult            ....    1
 Number of Electrons    NEL             ....  114
 Basis Dimension        Dim             ....  272

ORBITAL ENERGIES
----------------

  NO   OCC          E(Eh)            E(eV)
   0   2.0000     -19.496861      -530.5366
   1   2.0000     -10.548704      -287.0448
   2   2.0000     -10.473960      -285.0109
   3   2.0000     -10.471510      -284.9443
   4   2.0000     -10.467349      -284.8310
   5   2.0000     -10.467211      -284.8273
   6   2.0000     -10.462035      -284.6865
   7   2.0000     -10.460010      -284.6314
   8   2.0000     -10.459257      -284.6109
   9   2.0000     -10.457779      -284.5706
  10   2.0000     -10.457477      -284.5624
  11   2.0000     -10.449693      -284.3506
  12   2.0000     -10.448652      -284.3223
  13   2.0000     -10.444517      -284.2098
  14   2.0000     -10.438977      -284.0590
  15   2.0000     -10.438484      -284.0456
  16   2.0000      -1.154394       -31.4127
  17   2.0000      -0.969287       -26.3756
  18   2.0000      -0.922014       -25.0893
  19   2.0000      -0.896996       -24.4085
  20   2.0000      -0.875338       -23.8192
  21   2.0000      -0.849469       -23.1152
  22   2.0000      -0.828556       -22.5462
  23   2.0000      -0.802689       -21.8423
  24   2.0000      -0.738173       -20.0867
  25   2.0000      -0.720257       -19.5992
  26   2.0000      -0.692088       -18.8327
  27   2.0000      -0.674272       -18.3479
  28   2.0000      -0.666932       -18.1482
  29   2.0000      -0.618376       -16.8269
  30   2.0000      -0.589332       -16.0365
  31   2.0000      -0.571272       -15.5451
  32   2.0000      -0.556262       -15.1367
  33   2.0000      -0.544384       -14.8134
  34   2.0000      -0.538005       -14.6399
  35   2.0000      -0.530000       -14.4220
  36   2.0000      -0.520996       -14.1770
  37   2.0000      -0.506094       -13.7715
  38   2.0000      -0.486187       -13.2298
  39   2.0000      -0.482709       -13.1352
  40   2.0000      -0.472584       -12.8597
  41   2.0000      -0.454171       -12.3586
  42   2.0000      -0.451889       -12.2965
  43   2.0000      -0.448410       -12.2019
  44   2.0000      -0.441713       -12.0196
  45   2.0000      -0.437163       -11.8958
  46   2.0000      -0.418822       -11.3967
  47   2.0000      -0.415826       -11.3152
  48   2.0000      -0.406511       -11.0617
  49   2.0000      -0.393100       -10.6968
  50   2.0000      -0.379178       -10.3179
  51   2.0000      -0.354259        -9.6399
  52   2.0000      -0.333896        -9.0858
  53   2.0000      -0.319232        -8.6867
  54   2.0000      -0.298082        -8.1112
  55   2.0000      -0.292139        -7.9495
  56   2.0000      -0.267064        -7.2672
  57   0.0000      -0.043991        -1.1971
  58   0.0000      -0.005891        -0.1603
  59   0.0000       0.005594         0.1522
  60   0.0000       0.009951         0.2708
  61   0.0000       0.085788         2.3344

MULLIKEN ATOMIC CHARGES
-----------------------
   0 C :   -0.228841
   1 C :   -0.231750
   2 C :   -0.208550
   3 C :   -0.277426
   4 C :    0.138994
   5 C :   -0.068908
   6 C :   -0.525348
   7 C :   -0.516696
   8 C :    0.186523
   9 C :   -0.185324
  10 C :   -0.520160
  11 C :    0.317734
  12 C :   -0.266351
  13 C :   -0.458887
  14 O :   -0.344325
  15 C :   -0.552268
  16 H :    0.224599
  17 H :    0.223357
  18 H :    0.215361
  19 H :    0.233768
  20 H :    0.255706
  21 H :    0.239300
  22 H :    0.239117
  23 H :    0.255030
  24 H :    0.218294
  25 H :    0.215252
  26 H :    0.211626
  27 H :    0.220275
  28 H :    0.241651
  29 H :    0.252437
  30 H :    0.254481
  31 H :    0.241331
Sum of atomic charges:   -0.0000000

LOEWDIN ATOMIC CHARGES
----------------------
   0 C :   -0.110689
   1 C :   -0.137148
   2 C :   -0.126473
   3 C :   -0.133404
   4 C :   -0.033433
   5 C :   -0.077991
   6 C :   -0.224183
   7 C :   -0.218739
   8 C :   -0.054401
   9 C :   -0.134424
  10 C :   -0.265622
  11 C :    0.114809
  12 C :   -0.179980
  13 C :   -0.198712
  14 O :   -0.185744
  15 C :   -0.264388
  16 H :    0.139476
  17 H :    0.138867
  18 H :    0.136959
  19 H :    0.145421
  20 H :    0.142192
  21 H :    0.135778
  22 H :    0.135260
  23 H :    0.141995
  24 H :    0.132036
  25 H :    0.131189
  26 H :    0.133159
  27 H :    0.135746
  28 H :    0.137888
  29 H :    0.149894
  30 H :    0.150370
  31 H :    0.144296

  Mayer bond orders larger than 0.100000
B(  0-C ,  1-C ) :   1.4264 B(  0-C ,  5-C ) :   1.3891 B(  0-C , 19-H ) :   0.9175
B(  1-C ,  2-C ) :   1.4149 B(  1-C , 16-H ) :   0.9172 B(  2-C ,  3-C ) :   1.4241
B(  2-C , 17-H ) :   0.9187 B(  3-C ,  4-C ) :   1.3938 B(  3-C , 18-H ) :   0.9212
B(  4-C ,  5-C ) :   1.3767 B(  4-C ,  6-C ) :   0.9658 B(  5-C , 11-C ) :   0.9021
B(  6-C ,  7-C ) :   0.9239 B(  6-C , 20-H ) :   0.9009 B(  6-C , 21-H ) :   0.9195
B(  7-C ,  8-C ) :   0.9646 B(  7-C , 22-H ) :   0.9200 B(  7-C , 23-H ) :   0.9002
B(  8-C ,  9-C ) :   1.0766 B(  8-C , 15-C ) :   1.7787 B(  9-C , 10-C ) :   1.8398
B(  9-C , 26-H ) :   0.9213 B( 10-C , 15-C ) :   0.1121 B( 10-C , 27-H ) :   0.9298
B( 10-C , 28-H ) :   0.9024 B( 11-C , 12-C ) :   1.0156 B( 11-C , 14-O ) :   2.0500
B( 12-C , 13-C ) :   1.8291 B( 12-C , 29-H ) :   0.9047 B( 13-C , 30-H ) :   0.9100
B( 13-C , 31-H ) :   0.9221 B( 15-C , 24-H ) :   0.9285 B( 15-C , 25-H ) :   0.9305

Dispersion correction           -0.022787002
FINAL SINGLE POINT ENERGY      -654.940761373555

DIPOLE MOMENT
-------------
                                X             Y             Z
Electronic contribution:     -7.76063       2.37378       3.42092
Nuclear contribution   :      7.37295      -2.72323      -4.63088
                        -----------------------------------------
Total Dipole Moment    :     -0.38768      -0.34945      -1.20997
                        -----------------------------------------
Magnitude (a.u.)       :      1.31774
Magnitude (Debye)      :      3.34943

Rotational constants in cm-1:     0.024795     0.013169     0.010075
Rotational constants in MHz :   743.339335   394.802521   302.053968

                             ****ORCA TERMINATED NORMALLY****
TOTAL RUN TIME: 0 days 0 hours 4 minutes 6 seconds 488 msec
