                         Program Version 5.0.3 -  RELEASE  -
|  1> ! PBEh-3c def2/J TightSCF DefGrid3
|  2>
|  3> %maxcore 60000
|  4>
|  5> %pal
|  6> nprocs 4
|  7> end
|  8>
|  9> *xyzfile 0 1 i17p.xyz
| 10>
| 11>                          ****END OF INPUT****

CARTESIAN COORDINATES (ANGSTROEM)
---------------------------------
  C      4.234983   -0.881485    2.260352
  C      4.206657   -0.214902    3.493057
  C      3.137727    0.637664    3.790317
  C      2.115265    0.826499    2.859793
  C      2.143623    0.187865    1.599761
  C      3.219683   -0.686576    1.326303
  C      1.028660    0.412562    0.682473
  C      0.981173    0.305902   -0.680329
  C     -0.282733    0.407519   -1.405600
  C     -1.520971    0.011712   -0.990065
  C     -1.827030   -0.754219    0.191885
  C     -3.057377   -0.992414    0.724025
  C     -6.779798   -0.622855    0.287049
  C     -5.525713   -1.129877    0.625082
  C     -4.343902   -0.401670    0.358447
  C     -4.477359    0.881219   -0.219039
  C     -5.733564    1.389568   -0.552036
  C     -6.890138    0.638847   -0.310323
  C      4.429664    0.873276   -2.176677
  C      3.305198    1.001591   -1.361191
  C      2.193712    0.156912   -1.533046
  C      2.229856   -0.803759   -2.558569
  C      3.359593   -0.938922   -3.371377
  C      4.463935   -0.102116   -3.181622
  H      5.051465   -1.563711    2.030280
  H      5.003147   -0.369754    4.218304
  H      3.097712    1.149923    4.749928
  H      1.279220    1.483244    3.097413
  H      3.248477   -1.218128    0.380538
  H      0.103957    0.719080    1.170856
  H     -0.207957    0.820908   -2.412223
  H     -2.354611    0.225139   -1.658765
  H     -0.979661   -1.248642    0.668394
  H     -3.108588   -1.734369    1.522597
  H     -7.673693   -1.208805    0.493329
  H     -5.444334   -2.110936    1.091428
  H     -3.592780    1.493113   -0.369449
  H     -5.812130    2.383510   -0.989156
  H     -7.868166    1.039560   -0.569355
  H      5.280305    1.536822   -2.031877
  H      3.278597    1.753995   -0.576940
  H      1.369352   -1.454146   -2.704598
  H      3.376175   -1.696189   -4.153160
  H      5.342366   -0.202954   -3.816217

 Total Charge           Charge          ....    0
 Multiplicity           Mult            ....    1
 Number of Electrons    NEL             ....  164
 Basis Dimension        Dim             ....  400

ORBITAL ENERGIES
----------------

  NO   OCC          E(Eh)            E(eV)
   0   2.0000     -10.467881      -284.8455
   1   2.0000     -10.464417      -284.7513
   2   2.0000     -10.463923      -284.7378
   3   2.0000     -10.463271      -284.7201
   4   2.0000     -10.457793      -284.5710
   5   2.0000     -10.455622      -284.5119
   6   2.0000     -10.454900      -284.4923
   7   2.0000     -10.454843      -284.4908
   8   2.0000     -10.453843      -284.4635
   9   2.0000     -10.453511      -284.4545
  10   2.0000     -10.453379      -284.4509
  11   2.0000     -10.453298      -284.4487
  12   2.0000     -10.452990      -284.4403
  13   2.0000     -10.452954      -284.4393
  14   2.0000     -10.452888      -284.4375
  15   2.0000     -10.452650      -284.4311
  16   2.0000     -10.452603      -284.4298
  17   2.0000     -10.452559      -284.4286
  18   2.0000     -10.452369      -284.4234
  19   2.0000     -10.452262      -284.4205
  20   2.0000     -10.451771      -284.4072
  21   2.0000     -10.451292      -284.3941
  22   2.0000     -10.450774      -284.3800
  23   2.0000     -10.449668      -284.3499
  24   2.0000      -0.967411       -26.3246
  25   2.0000      -0.958618       -26.0853
  26   2.0000      -0.953402       -25.9434
  27   2.0000      -0.922244       -25.0955
  28   2.0000      -0.893647       -24.3174
  29   2.0000      -0.860348       -23.4113
  30   2.0000      -0.847671       -23.0663
  31   2.0000      -0.837339       -22.7852
  32   2.0000      -0.836586       -22.7647
  33   2.0000      -0.834339       -22.7035
  34   2.0000      -0.814419       -22.1615
  35   2.0000      -0.788732       -21.4625
  36   2.0000      -0.731600       -19.9078
  37   2.0000      -0.701213       -19.0810
  38   2.0000      -0.686219       -18.6730
  39   2.0000      -0.682677       -18.5766
  40   2.0000      -0.678836       -18.4721
  41   2.0000      -0.673216       -18.3191
  42   2.0000      -0.658439       -17.9170
  43   2.0000      -0.626669       -17.0525
  44   2.0000      -0.606801       -16.5119
  45   2.0000      -0.591510       -16.0958
  46   2.0000      -0.571090       -15.5402
  47   2.0000      -0.561546       -15.2804
  48   2.0000      -0.548497       -14.9254
  49   2.0000      -0.538971       -14.6661
  50   2.0000      -0.528144       -14.3715
  51   2.0000      -0.523728       -14.2514
  52   2.0000      -0.515685       -14.0325
  53   2.0000      -0.510266       -13.8851
  54   2.0000      -0.502162       -13.6645
  55   2.0000      -0.494032       -13.4433
  56   2.0000      -0.484621       -13.1872
  57   2.0000      -0.481623       -13.1056
  58   2.0000      -0.480893       -13.0858
  59   2.0000      -0.480377       -13.0717
  60   2.0000      -0.464965       -12.6523
  61   2.0000      -0.455196       -12.3865
  62   2.0000      -0.443793       -12.0762
  63   2.0000      -0.431150       -11.7322
  64   2.0000      -0.426514       -11.6060
  65   2.0000      -0.423564       -11.5258
  66   2.0000      -0.417885       -11.3712
  67   2.0000      -0.407652       -11.0928
  68   2.0000      -0.400403       -10.8955
  69   2.0000      -0.398150       -10.8342
  70   2.0000      -0.395332       -10.7575
  71   2.0000      -0.390922       -10.6375
  72   2.0000      -0.386484       -10.5168
  73   2.0000      -0.372256       -10.1296
  74   2.0000      -0.347842        -9.4653
  75   2.0000      -0.313879        -8.5411
  76   2.0000      -0.302394        -8.2286
  77   2.0000      -0.296356        -8.0642
  78   2.0000      -0.294860        -8.0236
  79   2.0000      -0.289540        -7.8788
  80   2.0000      -0.268291        -7.3006
  81   2.0000      -0.227971        -6.2034
  82   0.0000      -0.053832        -1.4649
  83   0.0000      -0.016187        -0.4405
  84   0.0000       0.008723         0.2374
  85   0.0000       0.015391         0.4188
  86   0.0000       0.019102         0.5198

MULLIKEN ATOMIC CHARGES
-----------------------
   0 C :   -0.205491
   1 C :   -0.234452
   2 C :   -0.208502
   3 C :   -0.280459
   4 C :    0.121855
   5 C :   -0.278100
   6 C :   -0.328712
   7 C :    0.089993
   8 C :   -0.241295
   9 C :   -0.246974
  10 C :   -0.240384
  11 C :   -0.255884
  12 C :   -0.205964
  13 C :   -0.277126
  14 C :    0.135233
  15 C :   -0.306784
  16 C :   -0.204689
  17 C :   -0.234593
  18 C :   -0.207307
  19 C :   -0.255250
  20 C :   -0.006235
  21 C :   -0.267833
  22 C :   -0.208124
  23 C :   -0.232277
  24 H :    0.222208
  25 H :    0.221142
  26 H :    0.220154
  27 H :    0.217529
  28 H :    0.250167
  29 H :    0.244697
  30 H :    0.232058
  31 H :    0.243681
  32 H :    0.248584
  33 H :    0.219659
  34 H :    0.220842
  35 H :    0.216563
  36 H :    0.243940
  37 H :    0.221640
  38 H :    0.221771
  39 H :    0.222373
  40 H :    0.239845
  41 H :    0.229649
  42 H :    0.221453
  43 H :    0.221398
Sum of atomic charges:   -0.0000000

LOEWDIN ATOMIC CHARGES
----------------------
   0 C :   -0.134185
   1 C :   -0.134003
   2 C :   -0.136614
   3 C :   -0.124688
   4 C :   -0.056368
   5 C :   -0.115301
   6 C :   -0.118145
   7 C :   -0.045709
   8 C :   -0.133568
   9 C :   -0.141238
  10 C :   -0.146505
  11 C :   -0.133702
  12 C :   -0.133470
  13 C :   -0.124099
  14 C :   -0.049136
  15 C :   -0.130246
  16 C :   -0.133404
  17 C :   -0.135712
  18 C :   -0.134191
  19 C :   -0.114135
  20 C :   -0.050049
  21 C :   -0.127860
  22 C :   -0.135510
  23 C :   -0.134704
  24 H :    0.137916
  25 H :    0.136810
  26 H :    0.137309
  27 H :    0.137411
  28 H :    0.150018
  29 H :    0.148952
  30 H :    0.143143
  31 H :    0.146045
  32 H :    0.148805
  33 H :    0.139601
  34 H :    0.137566
  35 H :    0.136948
  36 H :    0.143984
  37 H :    0.137563
  38 H :    0.137138
  39 H :    0.138244
  40 H :    0.147267
  41 H :    0.143316
  42 H :    0.137535
  43 H :    0.136971

  Mayer bond orders larger than 0.100000
B(  0-C ,  1-C ) :   1.4018 B(  0-C ,  5-C ) :   1.4482 B(  0-C , 24-H ) :   0.9196
B(  1-C ,  2-C ) :   1.4189 B(  1-C , 25-H ) :   0.9189 B(  2-C ,  3-C ) :   1.4298
B(  2-C , 26-H ) :   0.9198 B(  3-C ,  4-C ) :   1.3470 B(  3-C , 27-H ) :   0.9226
B(  4-C ,  5-C ) :   1.3520 B(  4-C ,  6-C ) :   1.0604 B(  5-C , 28-H ) :   0.9055
B(  6-C ,  7-C ) :   1.6552 B(  6-C , 29-H ) :   0.9067 B(  7-C ,  8-C ) :   1.0887
B(  7-C , 20-C ) :   1.0150 B(  8-C ,  9-C ) :   1.7076 B(  8-C , 30-H ) :   0.9085
B(  9-C , 10-C ) :   1.1294 B(  9-C , 31-H ) :   0.9037 B( 10-C , 11-C ) :   1.7302
B( 10-C , 32-H ) :   0.8988 B( 11-C , 14-C ) :   1.0534 B( 11-C , 33-H ) :   0.9176
B( 12-C , 13-C ) :   1.4402 B( 12-C , 17-C ) :   1.4114 B( 12-C , 34-H ) :   0.9194
B( 13-C , 14-C ) :   1.3424 B( 13-C , 35-H ) :   0.9223 B( 14-C , 15-C ) :   1.3486
B( 15-C , 16-C ) :   1.4382 B( 15-C , 36-H ) :   0.9080 B( 16-C , 17-C ) :   1.4144
B( 16-C , 37-H ) :   0.9196 B( 17-C , 38-H ) :   0.9186 B( 18-C , 19-C ) :   1.4342
B( 18-C , 23-C ) :   1.4092 B( 18-C , 39-H ) :   0.9191 B( 19-C , 20-C ) :   1.3881
B( 19-C , 40-H ) :   0.9124 B( 20-C , 21-C ) :   1.3847 B( 21-C , 22-C ) :   1.4188
B( 21-C , 41-H ) :   0.9160 B( 22-C , 23-C ) :   1.4252 B( 22-C , 42-H ) :   0.9196
B( 23-C , 43-H ) :   0.9191

Dispersion correction           -0.033254464
FINAL SINGLE POINT ENERGY      -924.491019431305

DIPOLE MOMENT
-------------
                                X             Y             Z
Electronic contribution:      1.13585       0.30280      -0.22239
Nuclear contribution   :     -0.98246      -0.32528       0.22720
                        -----------------------------------------
Total Dipole Moment    :      0.15340      -0.02247       0.00481
                        -----------------------------------------
Magnitude (a.u.)       :      0.15511
Magnitude (Debye)      :      0.39426

Rotational constants in cm-1:     0.012522     0.003545     0.002947
Rotational constants in MHz :   375.389103   106.264319    88.359611

                             ****ORCA TERMINATED NORMALLY****
TOTAL RUN TIME: 0 days 0 hours 6 minutes 17 seconds 790 msec
