                         Program Version 5.0.3 -  RELEASE  -
|  1> ! PBEh-3c def2/J TightSCF DefGrid3
|  2>
|  3> %maxcore 60000
|  4>
|  5> %pal
|  6> nprocs 4
|  7> end
|  8>
|  9> *xyzfile 0 1 6.xyz
| 10>
| 11>                          ****END OF INPUT****

CARTESIAN COORDINATES (ANGSTROEM)
---------------------------------
  P     -0.017200    1.940565    0.000000
  H      0.803910    1.567187    1.081384
  H      0.803910    1.567187   -1.081384
  B      0.017200    3.805403    0.000000
  H     -0.048814    4.392872    1.033706
  H     -0.048814    4.392872   -1.033706
  P      0.017200   -1.940565    0.000000
  H     -0.803910   -1.567187    1.081384
  H     -0.803910   -1.567187   -1.081384
  B     -0.017200   -3.805403    0.000000
  H      0.048814   -4.392872    1.033706
  H      0.048814   -4.392872   -1.033706

 Total Charge           Charge          ....    0
 Multiplicity           Mult            ....    1
 Number of Electrons    NEL             ....   48
 Basis Dimension        Dim             ....   82

ORBITAL ENERGIES
----------------

  NO   OCC          E(Eh)            E(eV)
   0   2.0000     -77.728990     -2115.1133
   1   2.0000     -77.728950     -2115.1122
   2   2.0000      -6.981490      -189.9760
   3   2.0000      -6.981488      -189.9760
   4   2.0000      -6.809540      -185.2970
   5   2.0000      -6.809511      -185.2962
   6   2.0000      -4.900322      -133.3445
   7   2.0000      -4.900316      -133.3444
   8   2.0000      -4.899400      -133.3195
   9   2.0000      -4.899363      -133.3184
  10   2.0000      -4.898730      -133.3012
  11   2.0000      -4.898721      -133.3010
  12   2.0000      -0.729082       -19.8393
  13   2.0000      -0.724843       -19.7240
  14   2.0000      -0.557829       -15.1793
  15   2.0000      -0.554156       -15.0793
  16   2.0000      -0.468416       -12.7463
  17   2.0000      -0.464303       -12.6343
  18   2.0000      -0.398441       -10.8421
  19   2.0000      -0.396826       -10.7982
  20   2.0000      -0.394937       -10.7468
  21   2.0000      -0.394901       -10.7458
  22   2.0000      -0.309248        -8.4151
  23   2.0000      -0.299581        -8.1520
  24   0.0000      -0.042248        -1.1496
  25   0.0000      -0.041725        -1.1354
  26   0.0000       0.069544         1.8924
  27   0.0000       0.080269         2.1842
  28   0.0000       0.099376         2.7042

MULLIKEN ATOMIC CHARGES
-----------------------
   0 P :   -0.228631
   1 H :    0.109958
   2 H :    0.109958
   3 B :   -0.117251
   4 H :    0.062983
   5 H :    0.062983
   6 P :   -0.228631
   7 H :    0.109958
   8 H :    0.109958
   9 B :   -0.117251
  10 H :    0.062983
  11 H :    0.062983
Sum of atomic charges:    0.0000000

LOEWDIN ATOMIC CHARGES
----------------------
   0 P :    0.046834
   1 H :    0.059082
   2 H :    0.059082
   3 B :   -0.221055
   4 H :    0.028029
   5 H :    0.028029
   6 P :    0.046834
   7 H :    0.059082
   8 H :    0.059082
   9 B :   -0.221055
  10 H :    0.028029
  11 H :    0.028029

  Mayer bond orders larger than 0.100000
B(  0-P ,  1-H ) :   0.9389 B(  0-P ,  2-H ) :   0.9389 B(  0-P ,  3-B ) :   1.2583
B(  3-B ,  4-H ) :   0.9798 B(  3-B ,  5-H ) :   0.9798 B(  6-P ,  7-H ) :   0.9389
B(  6-P ,  8-H ) :   0.9389 B(  6-P ,  9-B ) :   1.2583 B(  9-B , 10-H ) :   0.9798
B(  9-B , 11-H ) :   0.9798

Dispersion correction           -0.004109283
FINAL SINGLE POINT ENERGY      -736.213462012903

DIPOLE MOMENT
-------------
                                X             Y             Z
Electronic contribution:      0.00000      -0.00000      -0.00000
Nuclear contribution   :      0.00000      -0.00000       0.00000
                        -----------------------------------------
Total Dipole Moment    :      0.00000      -0.00000      -0.00000
                        -----------------------------------------
Magnitude (a.u.)       :      0.00000
Magnitude (Debye)      :      0.00000

Rotational constants in cm-1:     1.447832     0.026476     0.026212
Rotational constants in MHz : 43404.923204   793.730341   785.827349

                             ****ORCA TERMINATED NORMALLY****
TOTAL RUN TIME: 0 days 0 hours 1 minutes 15 seconds 29 msec
