                         Program Version 5.0.3 -  RELEASE  -
|  1> ! PBEh-3c def2/J TightSCF DefGrid3
|  2>
|  3> %maxcore 60000
|  4>
|  5> %pal
|  6> nprocs 4
|  7> end
|  8>
|  9> *xyzfile 0 2 nh2.xyz
| 10>
| 11>                          ****END OF INPUT****

CARTESIAN COORDINATES (ANGSTROEM)
---------------------------------
  N      0.000000    0.080526    0.000000
  H     -0.800646   -0.559530    0.000000
  H      0.800646   -0.559530    0.000000

 Total Charge           Charge          ....    0
 Multiplicity           Mult            ....    2
 Number of Electrons    NEL             ....    9
 Basis Dimension        Dim             ....   19

ORBITAL ENERGIES
----------------
                 SPIN UP ORBITALS
  NO   OCC          E(Eh)            E(eV)
   0   1.0000     -14.653614      -398.7451
   1   1.0000      -0.947028       -25.7699
   2   1.0000      -0.527498       -14.3540
   3   1.0000      -0.377393       -10.2694
   4   1.0000      -0.371868       -10.1190
   5   0.0000       0.136170         3.7054
   6   0.0000       0.207036         5.6337
   7   0.0000       0.744615        20.2620
   8   0.0000       0.758705        20.6454
   9   0.0000       0.812443        22.1077

                 SPIN DOWN ORBITALS
  NO   OCC          E(Eh)            E(eV)
   0   1.0000     -14.631797      -398.1514
   1   1.0000      -0.877308       -23.8728
   2   1.0000      -0.510231       -13.8841
   3   1.0000      -0.346947        -9.4409
   4   0.0000      -0.037722        -1.0265
   5   0.0000       0.149412         4.0657
   6   0.0000       0.214802         5.8451
   7   0.0000       0.764429        20.8012
   8   0.0000       0.831109        22.6156

MULLIKEN ATOMIC CHARGES AND SPIN POPULATIONS
--------------------------------------------
   0 N :   -0.614418    1.085630
   1 H :    0.307209   -0.042815
   2 H :    0.307209   -0.042815
Sum of atomic charges         :   -0.0000000

LOEWDIN ATOMIC CHARGES AND SPIN POPULATIONS
-------------------------------------------
   0 N :   -0.408465    1.054687
   1 H :    0.204232   -0.027343
   2 H :    0.204232   -0.027343

  Mayer bond orders larger than 0.100000
B(  0-N ,  1-H ) :   0.8715 B(  0-N ,  2-H ) :   0.8715

Dispersion correction           -0.000266118
FINAL SINGLE POINT ENERGY       -55.750954718712

DIPOLE MOMENT
-------------
                                X             Y             Z
Electronic contribution:     -0.00000       0.22819       0.00000
Nuclear contribution   :      0.00000      -1.04942       0.00000
                        -----------------------------------------
Total Dipole Moment    :     -0.00000      -0.82124       0.00000
                        -----------------------------------------
Magnitude (a.u.)       :      0.82124
Magnitude (Debye)      :      2.08742

Rotational constants in cm-1:    23.349053    13.044439     8.368949
Rotational constants in MHz : 699986.992379 391062.442191 250894.793644

                             ****ORCA TERMINATED NORMALLY****
TOTAL RUN TIME: 0 days 0 hours 0 minutes 47 seconds 932 msec
