                         Program Version 5.0.3 -  RELEASE  -
|  1> ! PBEh-3c def2/J TightSCF DefGrid3
|  2>
|  3> %maxcore 60000
|  4>
|  5> %pal
|  6> nprocs 4
|  7> end
|  8>
|  9> *xyzfile 0 1 09a.xyz
| 10>
| 11>                          ****END OF INPUT****

CARTESIAN COORDINATES (ANGSTROEM)
---------------------------------
  C      0.000000    0.667403    0.000000
  C      0.000000   -0.667403    0.000000
  H      0.923390    1.233791    0.000000
  H      0.923390   -1.233791    0.000000
  H     -0.923390    1.233791    0.000000
  H     -0.923390   -1.233791    0.000000

 Total Charge           Charge          ....    0
 Multiplicity           Mult            ....    1
 Number of Electrons    NEL             ....   16
 Basis Dimension        Dim             ....   38

ORBITAL ENERGIES
----------------

  NO   OCC          E(Eh)            E(eV)
   0   2.0000     -10.441736      -284.1341
   1   2.0000     -10.440806      -284.1088
   2   2.0000      -0.848243       -23.0819
   3   2.0000      -0.652000       -17.7418
   4   2.0000      -0.530655       -14.4399
   5   2.0000      -0.477279       -12.9874
   6   2.0000      -0.409212       -11.1352
   7   2.0000      -0.315693        -8.5904
   8   0.0000       0.038918         1.0590
   9   0.0000       0.169138         4.6025
  10   0.0000       0.196304         5.3417
  11   0.0000       0.209520         5.7013
  12   0.0000       0.317561         8.6413

MULLIKEN ATOMIC CHARGES
-----------------------
   0 C :   -0.430465
   1 C :   -0.430465
   2 H :    0.215232
   3 H :    0.215232
   4 H :    0.215232
   5 H :    0.215232
Sum of atomic charges:    0.0000000

LOEWDIN ATOMIC CHARGES
----------------------
   0 C :   -0.260691
   1 C :   -0.260691
   2 H :    0.130345
   3 H :    0.130345
   4 H :    0.130345
   5 H :    0.130345

  Mayer bond orders larger than 0.100000
B(  0-C ,  1-C ) :   1.9822 B(  0-C ,  2-H ) :   0.9298 B(  0-C ,  4-H ) :   0.9298
B(  1-C ,  3-H ) :   0.9298 B(  1-C ,  5-H ) :   0.9298

Dispersion correction           -0.001301132
FINAL SINGLE POINT ENERGY       -78.405271033070

DIPOLE MOMENT
-------------
                                X             Y             Z
Electronic contribution:     -0.00000      -0.00000      -0.00000
Nuclear contribution   :      0.00000       0.00000       0.00000
                        -----------------------------------------
Total Dipole Moment    :     -0.00000      -0.00000      -0.00000
                        -----------------------------------------
Magnitude (a.u.)       :      0.00000
Magnitude (Debye)      :      0.00000

Rotational constants in cm-1:     4.903500     1.001184     0.831425
Rotational constants in MHz : 147003.217583 30014.730385 24925.506098

                             ****ORCA TERMINATED NORMALLY****
TOTAL RUN TIME: 0 days 0 hours 0 minutes 54 seconds 440 msec
