                         Program Version 5.0.3 -  RELEASE  -
|  1> ! PBEh-3c def2/J TightSCF DefGrid3
|  2>
|  3> %maxcore 60000
|  4>
|  5> %pal
|  6> nprocs 4
|  7> end
|  8>
|  9> *xyzfile 0 1 P16.xyz
| 10>
| 11>                          ****END OF INPUT****

CARTESIAN COORDINATES (ANGSTROEM)
---------------------------------
  C     -0.096462   -0.246470   -0.741314
  C     -0.096462   -0.246470    0.741314
  N     -0.189597    1.020396    0.000000
  H     -0.993956   -0.525488   -1.280889
  H      0.831718   -0.486835   -1.249780
  H     -0.993956   -0.525488    1.280889
  H      0.831718   -0.486835    1.249780
  H      0.706998    1.497190    0.000000

 Total Charge           Charge          ....    0
 Multiplicity           Mult            ....    1
 Number of Electrons    NEL             ....   24
 Basis Dimension        Dim             ....   55

ORBITAL ENERGIES
----------------

  NO   OCC          E(Eh)            E(eV)
   0   2.0000     -14.627756      -398.0415
   1   2.0000     -10.464260      -284.7470
   2   2.0000     -10.463989      -284.7396
   3   2.0000      -1.050963       -28.5982
   4   2.0000      -0.735288       -20.0082
   5   2.0000      -0.689256       -18.7556
   6   2.0000      -0.582140       -15.8408
   7   2.0000      -0.527836       -14.3632
   8   2.0000      -0.427906       -11.6439
   9   2.0000      -0.392300       -10.6750
  10   2.0000      -0.385112       -10.4794
  11   2.0000      -0.297594        -8.0979
  12   0.0000       0.130259         3.5445
  13   0.0000       0.160548         4.3687
  14   0.0000       0.174823         4.7572
  15   0.0000       0.194097         5.2816
  16   0.0000       0.208073         5.6620

MULLIKEN ATOMIC CHARGES
-----------------------
   0 C :   -0.344326
   1 C :   -0.344326
   2 N :   -0.529477
   3 H :    0.231894
   4 H :    0.216484
   5 H :    0.231894
   6 H :    0.216484
   7 H :    0.321372
Sum of atomic charges:   -0.0000000

LOEWDIN ATOMIC CHARGES
----------------------
   0 C :   -0.188770
   1 C :   -0.188770
   2 N :   -0.343431
   3 H :    0.128558
   4 H :    0.118393
   5 H :    0.128558
   6 H :    0.118393
   7 H :    0.227068

  Mayer bond orders larger than 0.100000
B(  0-C ,  1-C ) :   0.9556 B(  0-C ,  2-N ) :   0.9799 B(  0-C ,  3-H ) :   0.9169
B(  0-C ,  4-H ) :   0.9183 B(  1-C ,  2-N ) :   0.9799 B(  1-C ,  5-H ) :   0.9169
B(  1-C ,  6-H ) :   0.9183 B(  2-N ,  7-H ) :   0.8496

Dispersion correction           -0.002188093
FINAL SINGLE POINT ENERGY      -133.623288090236

DIPOLE MOMENT
-------------
                                X             Y             Z
Electronic contribution:     -0.26535       0.93842      -0.00000
Nuclear contribution   :      0.85805      -1.34416       0.00000
                        -----------------------------------------
Total Dipole Moment    :      0.59270      -0.40574      -0.00000
                        -----------------------------------------
Magnitude (a.u.)       :      0.71827
Magnitude (Debye)      :      1.82570

Rotational constants in cm-1:     0.764908     0.708713     0.448724
Rotational constants in MHz : 22931.352823 21246.692295 13452.414210

                             ****ORCA TERMINATED NORMALLY****
TOTAL RUN TIME: 0 days 0 hours 0 minutes 50 seconds 767 msec
