                         Program Version 5.0.3 -  RELEASE  -
|  1> ! PBEh-3c def2/J TightSCF DefGrid3
|  2>
|  3> %maxcore 60000
|  4>
|  5> %pal
|  6> nprocs 4
|  7> end
|  8>
|  9> *xyzfile 0 1 4.xyz
| 10>
| 11>                          ****END OF INPUT****

CARTESIAN COORDINATES (ANGSTROEM)
---------------------------------
  C      3.695520    0.583486    0.442564
  C      3.134311    1.684519   -0.245567
  C      2.938230    1.255813   -1.633906
  C      3.695520   -0.583486   -0.442564
  C      3.247979   -0.177132   -1.717439
  C      3.134311   -1.684519    0.245567
  C      3.247979    0.177132    1.717439
  C      2.938230   -1.255813    1.633906
  C      2.392443    1.040664    2.416269
  C      2.169935    2.529876    0.406209
  C      1.896767    2.238789    1.783354
  C      1.105969    3.144157   -0.406209
  C      1.882930    1.763023   -2.361543
  C      0.990464    2.762043   -1.783354
  C      1.103979    0.895416   -3.242367
  C      2.392443   -1.040664   -2.416269
  C      1.336756   -0.484703   -3.249562
  C      2.169935   -2.529876   -0.406209
  C      1.896767   -2.238789   -1.783354
  C      1.105969   -3.144157    0.406209
  C      1.882930   -1.763023    2.361543
  C      0.990464   -2.762043    1.783354
  C      1.336756    0.484703    3.249562
  C      1.103979   -0.895416    3.242367
  C      0.585358    2.512176    2.361543
  C      0.223464    1.403782    3.242367
  C     -0.108320    3.556653    0.245567
  C     -0.381549    3.172488    1.633906
  C     -1.342446    3.492158   -0.442564
  C     -0.294980    2.592248   -2.416269
  C     -0.248612    1.400016   -3.249562
  C     -1.470589    2.901398   -1.717439
  C     -1.327443    0.508366   -3.242367
  C      0.223464   -1.403782   -3.242367
  C      0.585358   -2.512176   -2.361543
  C     -1.088143   -0.915313   -3.249562
  C     -0.108320   -3.556653   -0.245567
  C     -0.381549   -3.172488   -1.633906
  C     -1.342446   -3.492158    0.442564
  C     -0.294980   -2.592248    2.416269
  C     -0.248612   -1.400016    3.249562
  C     -1.470589   -2.901398    1.717439
  C     -1.088143    0.915313    3.249562
  C     -1.327443   -0.508366    3.242367
  C     -1.777390    2.724267    1.717439
  C     -2.353074    2.908672    0.442564
  C     -2.097463    1.551584    2.416269
  C     -2.556681    1.916675   -1.633906
  C     -2.468287    0.749154   -2.361543
  C     -3.025992    1.872134   -0.245567
  C     -2.097463   -1.551584   -2.416269
  C     -1.777390   -2.724267   -1.717439
  C     -2.353074   -2.908672   -0.442564
  C     -2.887232   -0.523254   -1.783354
  C     -2.556681   -1.916675    1.633906
  C     -2.468287   -0.749154    2.361543
  C     -2.887232    0.523254    1.783354
  C     -3.275905    0.614281    0.406209
  C     -3.025992   -1.872134    0.245567
  C     -3.275905   -0.614281   -0.406209

 Total Charge           Charge          ....    0
 Multiplicity           Mult            ....    1
 Number of Electrons    NEL             ....  360
 Basis Dimension        Dim             ....  900

ORBITAL ENERGIES
----------------

  NO   OCC          E(Eh)            E(eV)
   0   2.0000     -10.527519      -286.4684
   1   2.0000     -10.527518      -286.4683
   2   2.0000     -10.527507      -286.4680
   3   2.0000     -10.527204      -286.4598
   4   2.0000     -10.527203      -286.4598
   5   2.0000     -10.527199      -286.4597
   6   2.0000     -10.520096      -286.2664
   7   2.0000     -10.520096      -286.2664
   8   2.0000     -10.520082      -286.2660
   9   2.0000     -10.520081      -286.2660
  10   2.0000     -10.520080      -286.2659
  11   2.0000     -10.520073      -286.2657
  12   2.0000     -10.517439      -286.1941
  13   2.0000     -10.517438      -286.1941
  14   2.0000     -10.517429      -286.1938
  15   2.0000     -10.517427      -286.1937
  16   2.0000     -10.517427      -286.1937
  17   2.0000     -10.517423      -286.1936
  18   2.0000     -10.517028      -286.1829
  19   2.0000     -10.517025      -286.1828
  20   2.0000     -10.517020      -286.1827
  21   2.0000     -10.517014      -286.1825
  22   2.0000     -10.517005      -286.1822
  23   2.0000     -10.517002      -286.1822
  24   2.0000     -10.516699      -286.1739
  25   2.0000     -10.516698      -286.1739
  26   2.0000     -10.516693      -286.1738
  27   2.0000     -10.516688      -286.1736
  28   2.0000     -10.516679      -286.1734
  29   2.0000     -10.516678      -286.1733
  30   2.0000     -10.516434      -286.1667
  31   2.0000     -10.516430      -286.1666
  32   2.0000     -10.516376      -286.1651
  33   2.0000     -10.516376      -286.1651
  34   2.0000     -10.516375      -286.1651
  35   2.0000     -10.516375      -286.1651
  36   2.0000     -10.515394      -286.1384
  37   2.0000     -10.515393      -286.1384
  38   2.0000     -10.515391      -286.1383
  39   2.0000     -10.515390      -286.1383
  40   2.0000     -10.515227      -286.1339
  41   2.0000     -10.515226      -286.1338
  42   2.0000     -10.513951      -286.0991
  43   2.0000     -10.513950      -286.0991
  44   2.0000     -10.513944      -286.0990
  45   2.0000     -10.513943      -286.0989
  46   2.0000     -10.513925      -286.0984
  47   2.0000     -10.513923      -286.0984
  48   2.0000     -10.511344      -286.0282
  49   2.0000     -10.511343      -286.0282
  50   2.0000     -10.511342      -286.0281
  51   2.0000     -10.511338      -286.0281
  52   2.0000     -10.511329      -286.0278
  53   2.0000     -10.511329      -286.0278
  54   2.0000     -10.506100      -285.8855
  55   2.0000     -10.506100      -285.8855
  56   2.0000     -10.506098      -285.8855
  57   2.0000     -10.505735      -285.8756
  58   2.0000     -10.505735      -285.8756
  59   2.0000     -10.505733      -285.8755
  60   2.0000      -1.097623       -29.8678
  61   2.0000      -1.078231       -29.3402
  62   2.0000      -1.078231       -29.3401
  63   2.0000      -1.076668       -29.2976
  64   2.0000      -1.039786       -28.2940
  65   2.0000      -1.035314       -28.1723
  66   2.0000      -1.035314       -28.1723
  67   2.0000      -1.033098       -28.1120
  68   2.0000      -1.033097       -28.1120
  69   2.0000      -0.983169       -26.7534
  70   2.0000      -0.983168       -26.7534
  71   2.0000      -0.973627       -26.4937
  72   2.0000      -0.970616       -26.4118
  73   2.0000      -0.966599       -26.3025
  74   2.0000      -0.966599       -26.3025
  75   2.0000      -0.958325       -26.0774
  76   2.0000      -0.903200       -24.5773
  77   2.0000      -0.903200       -24.5773
  78   2.0000      -0.895622       -24.3711
  79   2.0000      -0.895622       -24.3711
  80   2.0000      -0.895448       -24.3664
  81   2.0000      -0.890703       -24.2373
  82   2.0000      -0.890701       -24.2372
  83   2.0000      -0.890620       -24.2350
  84   2.0000      -0.887924       -24.1616
  85   2.0000      -0.824976       -22.4487
  86   2.0000      -0.824975       -22.4487
  87   2.0000      -0.823668       -22.4131
  88   2.0000      -0.823668       -22.4131
  89   2.0000      -0.822213       -22.3736
  90   2.0000      -0.805944       -21.9309
  91   2.0000      -0.800011       -21.7694
  92   2.0000      -0.800010       -21.7694
  93   2.0000      -0.770749       -20.9731
  94   2.0000      -0.770748       -20.9731
  95   2.0000      -0.766977       -20.8705
  96   2.0000      -0.724613       -19.7177
  97   2.0000      -0.724612       -19.7177
  98   2.0000      -0.719781       -19.5862
  99   2.0000      -0.718888       -19.5619
 100   2.0000      -0.718888       -19.5619
 101   2.0000      -0.705731       -19.2039
 102   2.0000      -0.702803       -19.1242
 103   2.0000      -0.702803       -19.1242
 104   2.0000      -0.679482       -18.4896
 105   2.0000      -0.665319       -18.1042
 106   2.0000      -0.665318       -18.1042
 107   2.0000      -0.662276       -18.0214
 108   2.0000      -0.654305       -17.8045
 109   2.0000      -0.623065       -16.9545
 110   2.0000      -0.623065       -16.9545
 111   2.0000      -0.610706       -16.6182
 112   2.0000      -0.603459       -16.4209
 113   2.0000      -0.603458       -16.4209
 114   2.0000      -0.599647       -16.3172
 115   2.0000      -0.595640       -16.2082
 116   2.0000      -0.595639       -16.2082
 117   2.0000      -0.577356       -15.7107
 118   2.0000      -0.577356       -15.7107
 119   2.0000      -0.572442       -15.5769
 120   2.0000      -0.569012       -15.4836
 121   2.0000      -0.569012       -15.4836
 122   2.0000      -0.561418       -15.2770
 123   2.0000      -0.558465       -15.1966
 124   2.0000      -0.544565       -14.8184
 125   2.0000      -0.539211       -14.6727
 126   2.0000      -0.537680       -14.6310
 127   2.0000      -0.537680       -14.6310
 128   2.0000      -0.526530       -14.3276
 129   2.0000      -0.526530       -14.3276
 130   2.0000      -0.523427       -14.2432
 131   2.0000      -0.521543       -14.1919
 132   2.0000      -0.508339       -13.8326
 133   2.0000      -0.508339       -13.8326
 134   2.0000      -0.506472       -13.7818
 135   2.0000      -0.506472       -13.7818
 136   2.0000      -0.505085       -13.7441
 137   2.0000      -0.503995       -13.7144
 138   2.0000      -0.503995       -13.7144
 139   2.0000      -0.502052       -13.6615
 140   2.0000      -0.489847       -13.3294
 141   2.0000      -0.489392       -13.3170
 142   2.0000      -0.489391       -13.3170
 143   2.0000      -0.486740       -13.2449
 144   2.0000      -0.486739       -13.2448
 145   2.0000      -0.486115       -13.2279
 146   2.0000      -0.482356       -13.1256
 147   2.0000      -0.482355       -13.1256
 148   2.0000      -0.459125       -12.4934
 149   2.0000      -0.440833       -11.9957
 150   2.0000      -0.440833       -11.9957
 151   2.0000      -0.437771       -11.9124
 152   2.0000      -0.434649       -11.8274
 153   2.0000      -0.434221       -11.8158
 154   2.0000      -0.434220       -11.8157
 155   2.0000      -0.422382       -11.4936
 156   2.0000      -0.422381       -11.4936
 157   2.0000      -0.419526       -11.4159
 158   2.0000      -0.419525       -11.4159
 159   2.0000      -0.417839       -11.3700
 160   2.0000      -0.417839       -11.3700
 161   2.0000      -0.414040       -11.2666
 162   2.0000      -0.412241       -11.2176
 163   2.0000      -0.408749       -11.1226
 164   2.0000      -0.408748       -11.1226
 165   2.0000      -0.407943       -11.1007
 166   2.0000      -0.331325        -9.0158
 167   2.0000      -0.330408        -8.9909
 168   2.0000      -0.330408        -8.9909
 169   2.0000      -0.328396        -8.9361
 170   2.0000      -0.327589        -8.9142
 171   2.0000      -0.327586        -8.9141
 172   2.0000      -0.324335        -8.8256
 173   2.0000      -0.324334        -8.8256
 174   2.0000      -0.323385        -8.7998
 175   2.0000      -0.273012        -7.4290
 176   2.0000      -0.273010        -7.4290
 177   2.0000      -0.267123        -7.2688
 178   2.0000      -0.267122        -7.2687
 179   2.0000      -0.258066        -7.0223
 180   0.0000      -0.148066        -4.0291
 181   0.0000      -0.130546        -3.5523
 182   0.0000      -0.130544        -3.5523
 183   0.0000      -0.083770        -2.2795
 184   0.0000      -0.083770        -2.2795

MULLIKEN ATOMIC CHARGES
-----------------------
   0 C :   -0.018799
   1 C :    0.004196
   2 C :   -0.017617
   3 C :   -0.018797
   4 C :    0.000222
   5 C :    0.004192
   6 C :    0.000221
   7 C :   -0.017612
   8 C :   -0.009587
   9 C :    0.030160
  10 C :    0.002349
  11 C :    0.030163
  12 C :   -0.004827
  13 C :    0.002330
  14 C :    0.005504
  15 C :   -0.009585
  16 C :    0.008398
  17 C :    0.030155
  18 C :    0.002344
  19 C :    0.030164
  20 C :   -0.004829
  21 C :    0.002333
  22 C :    0.008399
  23 C :    0.005505
  24 C :   -0.004862
  25 C :    0.005517
  26 C :    0.004161
  27 C :   -0.017576
  28 C :   -0.018774
  29 C :   -0.009564
  30 C :    0.008433
  31 C :    0.000207
  32 C :    0.005481
  33 C :    0.005514
  34 C :   -0.004861
  35 C :    0.008407
  36 C :    0.004165
  37 C :   -0.017576
  38 C :   -0.018779
  39 C :   -0.009565
  40 C :    0.008435
  41 C :    0.000206
  42 C :    0.008405
  43 C :    0.005478
  44 C :    0.000218
  45 C :   -0.018794
  46 C :   -0.009582
  47 C :   -0.017610
  48 C :   -0.004851
  49 C :    0.004164
  50 C :   -0.009580
  51 C :    0.000219
  52 C :   -0.018795
  53 C :    0.002357
  54 C :   -0.017608
  55 C :   -0.004847
  56 C :    0.002358
  57 C :    0.030177
  58 C :    0.004160
  59 C :    0.030177
Sum of atomic charges:   -0.0000000

LOEWDIN ATOMIC CHARGES
----------------------
   0 C :    0.001026
   1 C :   -0.000898
   2 C :    0.003971
   3 C :    0.001026
   4 C :   -0.007063
   5 C :   -0.000898
   6 C :   -0.007063
   7 C :    0.003971
   8 C :   -0.004699
   9 C :   -0.003465
  10 C :    0.005160
  11 C :   -0.003462
  12 C :    0.004542
  13 C :    0.005165
  14 C :   -0.003562
  15 C :   -0.004699
  16 C :    0.004981
  17 C :   -0.003465
  18 C :    0.005160
  19 C :   -0.003462
  20 C :    0.004542
  21 C :    0.005165
  22 C :    0.004981
  23 C :   -0.003562
  24 C :    0.004542
  25 C :   -0.003557
  26 C :   -0.000900
  27 C :    0.003981
  28 C :    0.001025
  29 C :   -0.004689
  30 C :    0.004981
  31 C :   -0.007071
  32 C :   -0.003562
  33 C :   -0.003557
  34 C :    0.004542
  35 C :    0.004979
  36 C :   -0.000900
  37 C :    0.003981
  38 C :    0.001025
  39 C :   -0.004689
  40 C :    0.004981
  41 C :   -0.007072
  42 C :    0.004979
  43 C :   -0.003562
  44 C :   -0.007066
  45 C :    0.001026
  46 C :   -0.004697
  47 C :    0.003980
  48 C :    0.004532
  49 C :   -0.000900
  50 C :   -0.004697
  51 C :   -0.007066
  52 C :    0.001026
  53 C :    0.005158
  54 C :    0.003980
  55 C :    0.004532
  56 C :    0.005158
  57 C :   -0.003457
  58 C :   -0.000900
  59 C :   -0.003457

  Mayer bond orders larger than 0.100000
B(  0-C ,  1-C ) :   1.3272 B(  0-C ,  3-C ) :   1.1075 B(  0-C ,  6-C ) :   1.2571
B(  1-C ,  2-C ) :   1.1231 B(  1-C ,  9-C ) :   1.2335 B(  2-C ,  4-C ) :   1.1371
B(  2-C , 12-C ) :   1.4311 B(  3-C ,  4-C ) :   1.2571 B(  3-C ,  5-C ) :   1.3272
B(  4-C , 15-C ) :   1.3085 B(  5-C ,  7-C ) :   1.1231 B(  5-C , 17-C ) :   1.2335
B(  6-C ,  7-C ) :   1.1371 B(  6-C ,  8-C ) :   1.3085 B(  7-C , 20-C ) :   1.4311
B(  8-C , 10-C ) :   1.2528 B(  8-C , 22-C ) :   1.1428 B(  9-C , 10-C ) :   1.3006
B(  9-C , 11-C ) :   1.1367 B( 10-C , 24-C ) :   1.1244 B( 11-C , 13-C ) :   1.3006
B( 11-C , 26-C ) :   1.2335 B( 12-C , 13-C ) :   1.1244 B( 12-C , 14-C ) :   1.1391
B( 13-C , 29-C ) :   1.2528 B( 14-C , 16-C ) :   1.3754 B( 14-C , 30-C ) :   1.1783
B( 15-C , 16-C ) :   1.1428 B( 15-C , 18-C ) :   1.2528 B( 16-C , 33-C ) :   1.1783
B( 17-C , 18-C ) :   1.3006 B( 17-C , 19-C ) :   1.1367 B( 18-C , 34-C ) :   1.1244
B( 19-C , 21-C ) :   1.3006 B( 19-C , 36-C ) :   1.2335 B( 20-C , 21-C ) :   1.1244
B( 20-C , 23-C ) :   1.1391 B( 21-C , 39-C ) :   1.2528 B( 22-C , 23-C ) :   1.3754
B( 22-C , 25-C ) :   1.1783 B( 23-C , 40-C ) :   1.1783 B( 24-C , 25-C ) :   1.1391
B( 24-C , 27-C ) :   1.4311 B( 25-C , 42-C ) :   1.3754 B( 26-C , 27-C ) :   1.1231
B( 26-C , 28-C ) :   1.3272 B( 27-C , 44-C ) :   1.1371 B( 28-C , 31-C ) :   1.2571
B( 28-C , 45-C ) :   1.1075 B( 29-C , 30-C ) :   1.1428 B( 29-C , 31-C ) :   1.3085
B( 30-C , 32-C ) :   1.3754 B( 31-C , 47-C ) :   1.1371 B( 32-C , 35-C ) :   1.1783
B( 32-C , 48-C ) :   1.1391 B( 33-C , 34-C ) :   1.1391 B( 33-C , 35-C ) :   1.3754
B( 34-C , 37-C ) :   1.4311 B( 35-C , 50-C ) :   1.1428 B( 36-C , 37-C ) :   1.1231
B( 36-C , 38-C ) :   1.3272 B( 37-C , 51-C ) :   1.1371 B( 38-C , 41-C ) :   1.2571
B( 38-C , 52-C ) :   1.1075 B( 39-C , 40-C ) :   1.1428 B( 39-C , 41-C ) :   1.3085
B( 40-C , 43-C ) :   1.3754 B( 41-C , 54-C ) :   1.1371 B( 42-C , 43-C ) :   1.1783
B( 42-C , 46-C ) :   1.1428 B( 43-C , 55-C ) :   1.1391 B( 44-C , 45-C ) :   1.2571
B( 44-C , 46-C ) :   1.3085 B( 45-C , 49-C ) :   1.3272 B( 46-C , 56-C ) :   1.2528
B( 47-C , 48-C ) :   1.4311 B( 47-C , 49-C ) :   1.1231 B( 48-C , 53-C ) :   1.1244
B( 49-C , 57-C ) :   1.2335 B( 50-C , 51-C ) :   1.3085 B( 50-C , 53-C ) :   1.2528
B( 51-C , 52-C ) :   1.2571 B( 52-C , 58-C ) :   1.3272 B( 53-C , 59-C ) :   1.3006
B( 54-C , 55-C ) :   1.4311 B( 54-C , 58-C ) :   1.1231 B( 55-C , 56-C ) :   1.1244
B( 56-C , 57-C ) :   1.3006 B( 57-C , 59-C ) :   1.1367 B( 58-C , 59-C ) :   1.2335

Dispersion correction           -0.096813601
FINAL SINGLE POINT ENERGY     -2281.127546359911

DIPOLE MOMENT
-------------
                                X             Y             Z
Electronic contribution:      0.00001      -0.00000      -0.00000
Nuclear contribution   :      0.00000       0.00000      -0.00000
                        -----------------------------------------
Total Dipole Moment    :      0.00001      -0.00000      -0.00000
                        -----------------------------------------
Magnitude (a.u.)       :      0.00001
Magnitude (Debye)      :      0.00003

Rotational constants in cm-1:     0.002783     0.002783     0.002763
Rotational constants in MHz :    83.440852    83.440851    82.822837

                             ****ORCA TERMINATED NORMALLY****
TOTAL RUN TIME: 0 days 0 hours 49 minutes 58 seconds 68 msec
