                         Program Version 5.0.3 -  RELEASE  -
|  1> ! PBEh-3c def2/J TightSCF DefGrid3
|  2>
|  3> %maxcore 60000
|  4>
|  5> %pal
|  6> nprocs 4
|  7> end
|  8>
|  9> *xyzfile 0 1 52A.xyz
| 10>
| 11>                          ****END OF INPUT****

CARTESIAN COORDINATES (ANGSTROEM)
---------------------------------
  C      1.207585    0.000000    0.696868
  H      2.143467    0.000000    1.238402
  C      1.207585    0.000000   -0.696868
  H      2.143467    0.000000   -1.238402
  C      0.000000    0.000000   -1.394752
  H      0.000000    0.000000   -2.475895
  C     -1.207585    0.000000   -0.696868
  H     -2.143467    0.000000   -1.238402
  C     -1.207585    0.000000    0.696868
  H     -2.143467    0.000000    1.238402
  C      0.000000    0.000000    1.394752
  H      0.000000    0.000000    2.475895

 Total Charge           Charge          ....    0
 Multiplicity           Mult            ....    1
 Number of Electrons    NEL             ....   42
 Basis Dimension        Dim             ....  102

ORBITAL ENERGIES
----------------

  NO   OCC          E(Eh)            E(eV)
   0   2.0000     -10.448857      -284.3278
   1   2.0000     -10.448661      -284.3225
   2   2.0000     -10.448614      -284.3212
   3   2.0000     -10.448050      -284.3059
   4   2.0000     -10.448000      -284.3045
   5   2.0000     -10.447796      -284.2990
   6   2.0000      -0.951815       -25.9002
   7   2.0000      -0.835441       -22.7335
   8   2.0000      -0.835279       -22.7291
   9   2.0000      -0.679044       -18.4777
  10   2.0000      -0.678914       -18.4742
  11   2.0000      -0.591935       -16.1074
  12   2.0000      -0.526173       -14.3179
  13   2.0000      -0.508286       -13.8312
  14   2.0000      -0.481814       -13.1108
  15   2.0000      -0.481759       -13.1093
  16   2.0000      -0.420666       -11.4469
  17   2.0000      -0.398678       -10.8486
  18   2.0000      -0.398080       -10.8323
  19   2.0000      -0.292495        -7.9592
  20   2.0000      -0.292279        -7.9533
  21   0.0000       0.018908         0.5145
  22   0.0000       0.019210         0.5227
  23   0.0000       0.140937         3.8351
  24   0.0000       0.195958         5.3323
  25   0.0000       0.201888         5.4936

MULLIKEN ATOMIC CHARGES
-----------------------
   0 C :   -0.219905
   1 H :    0.219851
   2 C :   -0.219904
   3 H :    0.219852
   4 C :   -0.219944
   5 H :    0.220050
   6 C :   -0.219905
   7 H :    0.219852
   8 C :   -0.219905
   9 H :    0.219852
  10 C :   -0.219943
  11 H :    0.220050
Sum of atomic charges:    0.0000000

LOEWDIN ATOMIC CHARGES
----------------------
   0 C :   -0.135710
   1 H :    0.135678
   2 C :   -0.135710
   3 H :    0.135678
   4 C :   -0.135650
   5 H :    0.135714
   6 C :   -0.135710
   7 H :    0.135678
   8 C :   -0.135710
   9 H :    0.135678
  10 C :   -0.135650
  11 H :    0.135714

  Mayer bond orders larger than 0.100000
B(  0-C ,  1-H ) :   0.9200 B(  0-C ,  2-C ) :   1.4266 B(  0-C , 10-C ) :   1.4264
B(  2-C ,  3-H ) :   0.9200 B(  2-C ,  4-C ) :   1.4264 B(  4-C ,  5-H ) :   0.9199
B(  4-C ,  6-C ) :   1.4264 B(  6-C ,  7-H ) :   0.9200 B(  6-C ,  8-C ) :   1.4266
B(  8-C ,  9-H ) :   0.9200 B(  8-C , 10-C ) :   1.4264 B( 10-C , 11-H ) :   0.9199

Dispersion correction           -0.005879998
FINAL SINGLE POINT ENERGY      -231.725754003508

DIPOLE MOMENT
-------------
                                X             Y             Z
Electronic contribution:     -0.00000       0.00000      -0.00000
Nuclear contribution   :      0.00000       0.00000       0.00000
                        -----------------------------------------
Total Dipole Moment    :     -0.00000       0.00000      -0.00000
                        -----------------------------------------
Magnitude (a.u.)       :      0.00000
Magnitude (Debye)      :      0.00000

Rotational constants in cm-1:     0.190298     0.190258     0.095139
Rotational constants in MHz :  5704.986199  5703.799593  2852.196417

                             ****ORCA TERMINATED NORMALLY****
TOTAL RUN TIME: 0 days 0 hours 1 minutes 16 seconds 587 msec
