                         Program Version 5.0.3 -  RELEASE  -
|  1> ! PBEh-3c def2/J TightSCF DefGrid3
|  2>
|  3> %maxcore 60000
|  4>
|  5> %pal
|  6> nprocs 4
|  7> end
|  8>
|  9> *xyzfile 0 1 THR_xab.xyz
| 10>
| 11>                          ****END OF INPUT****

CARTESIAN COORDINATES (ANGSTROEM)
---------------------------------
  N     -0.796998   -0.423381    0.348302
  C      0.067269    0.428494   -0.437299
  C      1.549572    0.053100   -0.369320
  O      2.393920    0.788093   -0.867778
  C     -0.104926    1.880478   -0.010020
  O      0.086194    1.861622    1.410534
  C     -1.466997    2.433991   -0.375279
  H     -0.912318   -0.154184    1.313404
  H     -0.232804    0.314540   -1.479555
  H      0.691276    2.449061   -0.491467
  H      0.063819    2.770711    1.723104
  H     -1.573538    3.455265   -0.009711
  H     -2.257150    1.829030    0.066951
  H     -1.598481    2.446166   -1.456390
  N      1.819509   -1.122837    0.235762
  H      1.033893   -1.644646    0.583329
  C      3.161306   -1.651621    0.325693
  H      3.434416   -1.843204    1.361514
  H      3.260932   -2.572961   -0.245838
  H      3.830295   -0.903465   -0.088245
  C     -1.767313   -1.195114   -0.238850
  O     -1.825624   -1.378502   -1.445065
  C     -2.752436   -1.815005    0.723317
  H     -2.874889   -2.864130    0.469281
  H     -3.716893   -1.328261    0.590081
  H     -2.449184   -1.722939    1.763432

 Total Charge           Charge          ....    0
 Multiplicity           Mult            ....    1
 Number of Electrons    NEL             ....   94
 Basis Dimension        Dim             ....  208

ORBITAL ENERGIES
----------------

  NO   OCC          E(Eh)            E(eV)
   0   2.0000     -19.502918      -530.7014
   1   2.0000     -19.463869      -529.6388
   2   2.0000     -19.448516      -529.2210
   3   2.0000     -14.669818      -399.1861
   4   2.0000     -14.656366      -398.8200
   5   2.0000     -10.557062      -287.2723
   6   2.0000     -10.538935      -286.7790
   7   2.0000     -10.499294      -285.7003
   8   2.0000     -10.484532      -285.2986
   9   2.0000     -10.461715      -284.6777
  10   2.0000     -10.449527      -284.3461
  11   2.0000     -10.434505      -283.9373
  12   2.0000      -1.153140       -31.3785
  13   2.0000      -1.141750       -31.0686
  14   2.0000      -1.131929       -30.8014
  15   2.0000      -1.036790       -28.2125
  16   2.0000      -1.012051       -27.5393
  17   2.0000      -0.881460       -23.9858
  18   2.0000      -0.837423       -22.7874
  19   2.0000      -0.808009       -21.9870
  20   2.0000      -0.769850       -20.9487
  21   2.0000      -0.686453       -18.6793
  22   2.0000      -0.671510       -18.2727
  23   2.0000      -0.647990       -17.6327
  24   2.0000      -0.605488       -16.4762
  25   2.0000      -0.581322       -15.8186
  26   2.0000      -0.564598       -15.3635
  27   2.0000      -0.543059       -14.7774
  28   2.0000      -0.519864       -14.1462
  29   2.0000      -0.514567       -14.0021
  30   2.0000      -0.509711       -13.8699
  31   2.0000      -0.499991       -13.6054
  32   2.0000      -0.486304       -13.2330
  33   2.0000      -0.469998       -12.7893
  34   2.0000      -0.465057       -12.6548
  35   2.0000      -0.459811       -12.5121
  36   2.0000      -0.444275       -12.0893
  37   2.0000      -0.439292       -11.9537
  38   2.0000      -0.438461       -11.9311
  39   2.0000      -0.418469       -11.3871
  40   2.0000      -0.407690       -11.0938
  41   2.0000      -0.393526       -10.7084
  42   2.0000      -0.343283        -9.3412
  43   2.0000      -0.333190        -9.0666
  44   2.0000      -0.317063        -8.6277
  45   2.0000      -0.296974        -8.0811
  46   2.0000      -0.289943        -7.8897
  47   0.0000       0.051559         1.4030
  48   0.0000       0.069196         1.8829
  49   0.0000       0.110250         3.0000
  50   0.0000       0.130989         3.5644
  51   0.0000       0.152846         4.1591

MULLIKEN ATOMIC CHARGES
-----------------------
   0 N :   -0.664826
   1 C :   -0.208949
   2 C :    0.570232
   3 O :   -0.442860
   4 C :    0.009081
   5 O :   -0.650773
   6 C :   -0.656625
   7 H :    0.376821
   8 H :    0.303880
   9 H :    0.249853
  10 H :    0.424859
  11 H :    0.214184
  12 H :    0.216592
  13 H :    0.231918
  14 N :   -0.634511
  15 H :    0.369668
  16 C :   -0.492507
  17 H :    0.216945
  18 H :    0.220815
  19 H :    0.265813
  20 C :    0.511246
  21 O :   -0.411568
  22 C :   -0.758667
  23 H :    0.264347
  24 H :    0.258384
  25 H :    0.216646
Sum of atomic charges:    0.0000000

LOEWDIN ATOMIC CHARGES
----------------------
   0 N :   -0.241152
   1 C :   -0.100258
   2 C :    0.111678
   3 O :   -0.288222
   4 C :   -0.026730
   5 O :   -0.410808
   6 C :   -0.371491
   7 H :    0.261747
   8 H :    0.171787
   9 H :    0.132341
  10 H :    0.315152
  11 H :    0.126508
  12 H :    0.129496
  13 H :    0.139636
  14 N :   -0.238012
  15 H :    0.256648
  16 C :   -0.256490
  17 H :    0.121393
  18 H :    0.122463
  19 H :    0.154397
  20 C :    0.103300
  21 O :   -0.267742
  22 C :   -0.391724
  23 H :    0.158667
  24 H :    0.158048
  25 H :    0.129370

  Mayer bond orders larger than 0.100000
B(  0-N ,  1-C ) :   0.8990 B(  0-N ,  7-H ) :   0.7962 B(  0-N , 20-C ) :   1.1068
B(  1-C ,  2-C ) :   0.9105 B(  1-C ,  4-C ) :   0.9416 B(  1-C ,  8-H ) :   0.8646
B(  2-C ,  3-O ) :   1.9592 B(  2-C , 14-N ) :   1.1656 B(  3-O , 14-N ) :   0.1005
B(  4-C ,  5-O ) :   0.9812 B(  4-C ,  6-C ) :   0.9760 B(  4-C ,  9-H ) :   0.8730
B(  5-O , 10-H ) :   0.7870 B(  6-C , 11-H ) :   0.9304 B(  6-C , 12-H ) :   0.9194
B(  6-C , 13-H ) :   0.9146 B( 14-N , 15-H ) :   0.7993 B( 14-N , 16-C ) :   0.9542
B( 16-C , 17-H ) :   0.9228 B( 16-C , 18-H ) :   0.9206 B( 16-C , 19-H ) :   0.8981
B( 20-C , 21-O ) :   2.0126 B( 20-C , 22-C ) :   0.9269 B( 22-C , 23-H ) :   0.9098
B( 22-C , 24-H ) :   0.9076 B( 22-C , 25-H ) :   0.9201

Dispersion correction           -0.014723094
FINAL SINGLE POINT ENERGY      -609.081171229854

DIPOLE MOMENT
-------------
                                X             Y             Z
Electronic contribution:      2.77212      -0.13797      -2.68028
Nuclear contribution   :     -3.51207       0.18713       4.34418
                        -----------------------------------------
Total Dipole Moment    :     -0.73994       0.04916       1.66390
                        -----------------------------------------
Magnitude (a.u.)       :      1.82167
Magnitude (Debye)      :      4.63032

Rotational constants in cm-1:     0.034330     0.024406     0.017446
Rotational constants in MHz :  1029.184287   731.675393   523.003358

                             ****ORCA TERMINATED NORMALLY****
TOTAL RUN TIME: 0 days 0 hours 2 minutes 51 seconds 32 msec
