                         Program Version 5.0.3 -  RELEASE  -
|  1> ! PBEh-3c def2/J TightSCF DefGrid3
|  2>
|  3> %maxcore 60000
|  4>
|  5> %pal
|  6> nprocs 4
|  7> end
|  8>
|  9> *xyzfile 0 2 ch.xyz
| 10>
| 11>                          ****END OF INPUT****

CARTESIAN COORDINATES (ANGSTROEM)
---------------------------------
  C      0.086729    0.000000    0.000000
  H     -1.033539    0.000000    0.000000

 Total Charge           Charge          ....    0
 Multiplicity           Mult            ....    2
 Number of Electrons    NEL             ....    7
 Basis Dimension        Dim             ....   17

ORBITAL ENERGIES
----------------
                 SPIN UP ORBITALS
  NO   OCC          E(Eh)            E(eV)
   0   1.0000     -10.542762      -286.8831
   1   1.0000      -0.724232       -19.7073
   2   1.0000      -0.368986       -10.0406
   3   1.0000      -0.306930        -8.3520
   4   0.0000      -0.100236        -2.7275
   5   0.0000       0.176011         4.7895
   6   0.0000       0.504944        13.7402
   7   0.0000       0.526112        14.3162
   8   0.0000       0.542970        14.7750

                 SPIN DOWN ORBITALS
  NO   OCC          E(Eh)            E(eV)
   0   1.0000     -10.526365      -286.4370
   1   1.0000      -0.669760       -18.2251
   2   1.0000      -0.342436        -9.3182
   3   0.0000      -0.078706        -2.1417
   4   0.0000      -0.027604        -0.7511
   5   0.0000       0.188482         5.1289
   6   0.0000       0.538748        14.6601
   7   0.0000       0.557897        15.1812

MULLIKEN ATOMIC CHARGES AND SPIN POPULATIONS
--------------------------------------------
   0 C :   -0.160556    1.044811
   1 H :    0.160556   -0.044811
Sum of atomic charges         :    0.0000000

LOEWDIN ATOMIC CHARGES AND SPIN POPULATIONS
-------------------------------------------
   0 C :   -0.087922    1.024535
   1 H :    0.087922   -0.024535

  Mayer bond orders larger than 0.100000
B(  0-C ,  1-H ) :   0.9078

Dispersion correction           -0.000138920
FINAL SINGLE POINT ENERGY       -38.382712698626

DIPOLE MOMENT
-------------
                                X             Y             Z
Electronic contribution:      0.35297      -0.00000       0.00000
Nuclear contribution   :     -0.96963       0.00000       0.00000
                        -----------------------------------------
Total Dipole Moment    :     -0.61666      -0.00000       0.00000
                        -----------------------------------------
Magnitude (a.u.)       :      0.61666
Magnitude (Debye)      :      1.56744

Rotational constants in cm-1:     0.000000    14.444119    14.444119
Rotational constants in MHz :     0.000000 433023.781202 433023.781202

                             ****ORCA TERMINATED NORMALLY****
TOTAL RUN TIME: 0 days 0 hours 0 minutes 24 seconds 126 msec
