                         Program Version 5.0.3 -  RELEASE  -
|  1> ! PBEh-3c def2/J TightSCF DefGrid3
|  2>
|  3> %maxcore 60000
|  4>
|  5> %pal
|  6> nprocs 4
|  7> end
|  8>
|  9> *xyzfile 0 1 4.xyz
| 10>
| 11>                          ****END OF INPUT****

CARTESIAN COORDINATES (ANGSTROEM)
---------------------------------
  P      0.134083    1.477467    0.000000
  P     -0.134083   -1.477467    0.000000
  H      1.098446    1.417328    1.034272
  H      1.098446    1.417328   -1.034272
  Cl    -0.134083    3.541032    0.000000
  H     -1.098446   -1.417328   -1.034272
  H     -1.098446   -1.417328    1.034272
  Cl     0.134083   -3.541032    0.000000

 Total Charge           Charge          ....    0
 Multiplicity           Mult            ....    1
 Number of Electrons    NEL             ....   68
 Basis Dimension        Dim             ....   80

ORBITAL ENERGIES
----------------

  NO   OCC          E(Eh)            E(eV)
   0   2.0000    -102.299545     -2783.7121
   1   2.0000    -102.299540     -2783.7120
   2   2.0000     -77.796855     -2116.9600
   3   2.0000     -77.796815     -2116.9590
   4   2.0000      -9.767092      -265.7761
   5   2.0000      -9.767089      -265.7760
   6   2.0000      -7.454474      -202.8466
   7   2.0000      -7.454472      -202.8465
   8   2.0000      -7.446646      -202.6335
   9   2.0000      -7.446645      -202.6335
  10   2.0000      -7.446302      -202.6242
  11   2.0000      -7.446301      -202.6242
  12   2.0000      -6.871209      -186.9751
  13   2.0000      -6.871196      -186.9747
  14   2.0000      -4.962405      -135.0339
  15   2.0000      -4.962403      -135.0339
  16   2.0000      -4.960629      -134.9856
  17   2.0000      -4.960617      -134.9853
  18   2.0000      -4.959091      -134.9437
  19   2.0000      -4.959075      -134.9433
  20   2.0000      -0.928433       -25.2639
  21   2.0000      -0.927603       -25.2414
  22   2.0000      -0.729612       -19.8538
  23   2.0000      -0.705256       -19.1910
  24   2.0000      -0.490174       -13.3383
  25   2.0000      -0.478579       -13.0228
  26   2.0000      -0.474163       -12.9026
  27   2.0000      -0.471765       -12.8374
  28   2.0000      -0.421546       -11.4708
  29   2.0000      -0.397368       -10.8129
  30   2.0000      -0.369369       -10.0510
  31   2.0000      -0.366735        -9.9794
  32   2.0000      -0.336032        -9.1439
  33   2.0000      -0.304802        -8.2941
  34   0.0000      -0.043624        -1.1871
  35   0.0000       0.042458         1.1554
  36   0.0000       0.047884         1.3030
  37   0.0000       0.059143         1.6094
  38   0.0000       0.099196         2.6993

MULLIKEN ATOMIC CHARGES
-----------------------
   0 P :    0.019405
   1 P :    0.019405
   2 H :    0.120415
   3 H :    0.120415
   4 Cl:   -0.260235
   5 H :    0.120415
   6 H :    0.120415
   7 Cl:   -0.260234
Sum of atomic charges:   -0.0000000

LOEWDIN ATOMIC CHARGES
----------------------
   0 P :    0.067823
   1 P :    0.067823
   2 H :    0.043759
   3 H :    0.043759
   4 Cl:   -0.155340
   5 H :    0.043759
   6 H :    0.043759
   7 Cl:   -0.155340

  Mayer bond orders larger than 0.100000
B(  0-P ,  1-P ) :   0.1643 B(  0-P ,  2-H ) :   0.9357 B(  0-P ,  3-H ) :   0.9357
B(  0-P ,  4-Cl) :   0.9616 B(  1-P ,  5-H ) :   0.9357 B(  1-P ,  6-H ) :   0.9357
B(  1-P ,  7-Cl) :   0.9616

Dispersion correction           -0.003743763
FINAL SINGLE POINT ENERGY     -1603.716915871222

DIPOLE MOMENT
-------------
                                X             Y             Z
Electronic contribution:      0.00000       0.00000       0.00000
Nuclear contribution   :      0.00000       0.00000       0.00000
                        -----------------------------------------
Total Dipole Moment    :      0.00000       0.00000       0.00000
                        -----------------------------------------
Magnitude (a.u.)       :      0.00000
Magnitude (Debye)      :      0.00000

Rotational constants in cm-1:     1.486082     0.016257     0.016215
Rotational constants in MHz : 44551.605684   487.372939   486.099042

                             ****ORCA TERMINATED NORMALLY****
TOTAL RUN TIME: 0 days 0 hours 1 minutes 10 seconds 240 msec
