                         Program Version 5.0.3 -  RELEASE  -
|  1> ! PBEh-3c def2/J TightSCF DefGrid3
|  2>
|  3> %maxcore 60000
|  4>
|  5> %pal
|  6> nprocs 4
|  7> end
|  8>
|  9> *xyzfile 0 1 B10.xyz
| 10>
| 11>                          ****END OF INPUT****

CARTESIAN COORDINATES (ANGSTROEM)
---------------------------------
  C      1.833671    0.635683   -0.200126
  H      2.348759    1.494411    0.240634
  O      2.570705   -0.564781    0.033830
  C      0.401742    0.562104    0.311646
  H      0.417215    0.400538    1.395558
  H     -0.086134    1.523984    0.145695
  C     -0.405661   -0.546097   -0.359615
  H      0.097560   -1.503729   -0.217930
  H     -0.453074   -0.362155   -1.435776
  H      2.645898   -0.670328    0.986193
  H      1.837254    0.768275   -1.281931
  C     -1.821261   -0.649090    0.175121
  H     -2.339515   -1.485738   -0.302445
  H     -1.797743   -0.835960    1.254528
  O     -2.488133    0.581808   -0.107000
  H     -3.381738    0.518889    0.238680

 Total Charge           Charge          ....    0
 Multiplicity           Mult            ....    1
 Number of Electrons    NEL             ....   50
 Basis Dimension        Dim             ....  110

ORBITAL ENERGIES
----------------

  NO   OCC          E(Eh)            E(eV)
   0   2.0000     -19.483085      -530.1617
   1   2.0000     -19.480828      -530.1003
   2   2.0000     -10.479441      -285.1601
   3   2.0000     -10.475195      -285.0445
   4   2.0000     -10.427314      -283.7417
   5   2.0000     -10.426318      -283.7145
   6   2.0000      -1.119233       -30.4559
   7   2.0000      -1.116451       -30.3802
   8   2.0000      -0.877217       -23.8703
   9   2.0000      -0.795637       -21.6504
  10   2.0000      -0.701872       -19.0989
  11   2.0000      -0.650929       -17.7127
  12   2.0000      -0.581500       -15.8234
  13   2.0000      -0.554995       -15.1022
  14   2.0000      -0.519490       -14.1360
  15   2.0000      -0.508955       -13.8494
  16   2.0000      -0.492940       -13.4136
  17   2.0000      -0.449196       -12.2233
  18   2.0000      -0.433883       -11.8066
  19   2.0000      -0.412508       -11.2249
  20   2.0000      -0.386275       -10.5111
  21   2.0000      -0.375047       -10.2055
  22   2.0000      -0.368029       -10.0146
  23   2.0000      -0.323757        -8.8099
  24   2.0000      -0.319330        -8.6894
  25   0.0000       0.127920         3.4809
  26   0.0000       0.134219         3.6523
  27   0.0000       0.168775         4.5926
  28   0.0000       0.183236         4.9861
  29   0.0000       0.192013         5.2249

MULLIKEN ATOMIC CHARGES
-----------------------
   0 C :   -0.162704
   1 H :    0.191096
   2 O :   -0.624510
   3 C :   -0.453809
   4 H :    0.188563
   5 H :    0.238864
   6 C :   -0.430608
   7 H :    0.224242
   8 H :    0.221488
   9 H :    0.407186
  10 H :    0.208727
  11 C :   -0.154340
  12 H :    0.190396
  13 H :    0.172632
  14 O :   -0.633785
  15 H :    0.416563
Sum of atomic charges:    0.0000000

LOEWDIN ATOMIC CHARGES
----------------------
   0 C :   -0.095146
   1 H :    0.100233
   2 O :   -0.415500
   3 C :   -0.265543
   4 H :    0.113523
   5 H :    0.138946
   6 C :   -0.252997
   7 H :    0.132481
   8 H :    0.130206
   9 H :    0.304180
  10 H :    0.119257
  11 C :   -0.090800
  12 H :    0.100451
  13 H :    0.094471
  14 O :   -0.421615
  15 H :    0.307854

  Mayer bond orders larger than 0.100000
B(  0-C ,  1-H ) :   0.9164 B(  0-C ,  2-O ) :   1.0093 B(  0-C ,  3-C ) :   0.9712
B(  0-C , 10-H ) :   0.9156 B(  2-O ,  9-H ) :   0.7972 B(  3-C ,  4-H ) :   0.9229
B(  3-C ,  5-H ) :   0.9001 B(  3-C ,  6-C ) :   0.9726 B(  6-C ,  7-H ) :   0.9098
B(  6-C ,  8-H ) :   0.9130 B(  6-C , 11-C ) :   0.9900 B( 11-C , 12-H ) :   0.9114
B( 11-C , 13-H ) :   0.9070 B( 11-C , 14-O ) :   1.0040 B( 14-O , 15-H ) :   0.7939

Dispersion correction           -0.006493836
FINAL SINGLE POINT ENERGY      -308.207417496642

DIPOLE MOMENT
-------------
                                X             Y             Z
Electronic contribution:      0.15781       0.06984      -0.28633
Nuclear contribution   :     -0.74002      -0.15790       1.06494
                        -----------------------------------------
Total Dipole Moment    :     -0.58221      -0.08807       0.77861
                        -----------------------------------------
Magnitude (a.u.)       :      0.97619
Magnitude (Debye)      :      2.48128

Rotational constants in cm-1:     0.328071     0.049864     0.046203
Rotational constants in MHz :  9835.311263  1494.877729  1385.137569

                             ****ORCA TERMINATED NORMALLY****
TOTAL RUN TIME: 0 days 0 hours 1 minutes 9 seconds 287 msec
