                         Program Version 5.0.3 -  RELEASE  -
|  1> ! PBEh-3c def2/J TightSCF DefGrid3
|  2>
|  3> %maxcore 60000
|  4>
|  5> %pal
|  6> nprocs 4
|  7> end
|  8>
|  9> *xyzfile 0 1 H2O8s4.xyz
| 10>
| 11>                          ****END OF INPUT****

CARTESIAN COORDINATES (ANGSTROEM)
---------------------------------
  O      1.990591   -0.108400   -1.465229
  H      1.330293   -0.846787   -1.530452
  H      2.703540   -0.310345   -2.076240
  O     -0.108400   -1.990591    1.465229
  H     -0.310345   -2.703540    2.076240
  H     -0.846787   -1.330293    1.530452
  O     -1.938753   -0.025576    1.401609
  H     -2.172467    0.026361    0.458369
  H     -1.398824    0.767044    1.564465
  O      0.025576   -1.938753   -1.401609
  H     -0.026361   -2.172467   -0.458369
  H     -0.767044   -1.398824   -1.564465
  O     -0.025576    1.938753   -1.401609
  H      0.767044    1.398824   -1.564465
  H      0.026361    2.172467   -0.458369
  O      0.108400    1.990591    1.465229
  H      0.846787    1.330293    1.530452
  H      0.310345    2.703540    2.076240
  O     -1.990591    0.108400   -1.465229
  H     -1.330293    0.846787   -1.530452
  H     -2.703540    0.310345   -2.076240
  O      1.938753    0.025576    1.401609
  H      2.172467   -0.026361    0.458369
  H      1.398824   -0.767044    1.564465

 Total Charge           Charge          ....    0
 Multiplicity           Mult            ....    1
 Number of Electrons    NEL             ....   80
 Basis Dimension        Dim             ....  152

ORBITAL ENERGIES
----------------

  NO   OCC          E(Eh)            E(eV)
   0   2.0000     -19.491524      -530.3913
   1   2.0000     -19.491524      -530.3913
   2   2.0000     -19.491517      -530.3911
   3   2.0000     -19.491485      -530.3903
   4   2.0000     -19.471542      -529.8476
   5   2.0000     -19.471542      -529.8476
   6   2.0000     -19.471539      -529.8475
   7   2.0000     -19.471506      -529.8466
   8   2.0000      -1.123420       -30.5698
   9   2.0000      -1.115016       -30.3411
  10   2.0000      -1.113498       -30.2998
  11   2.0000      -1.113498       -30.2998
  12   2.0000      -1.092430       -29.7265
  13   2.0000      -1.092430       -29.7265
  14   2.0000      -1.090893       -29.6847
  15   2.0000      -1.083208       -29.4756
  16   2.0000      -0.604206       -16.4413
  17   2.0000      -0.601427       -16.3657
  18   2.0000      -0.601427       -16.3657
  19   2.0000      -0.600552       -16.3418
  20   2.0000      -0.576461       -15.6863
  21   2.0000      -0.575747       -15.6669
  22   2.0000      -0.573262       -15.5992
  23   2.0000      -0.573262       -15.5992
  24   2.0000      -0.495568       -13.4851
  25   2.0000      -0.467030       -12.7085
  26   2.0000      -0.464122       -12.6294
  27   2.0000      -0.464122       -12.6294
  28   2.0000      -0.436628       -11.8812
  29   2.0000      -0.436628       -11.8812
  30   2.0000      -0.433453       -11.7949
  31   2.0000      -0.406182       -11.0528
  32   2.0000      -0.376151       -10.2356
  33   2.0000      -0.376151       -10.2356
  34   2.0000      -0.375365       -10.2142
  35   2.0000      -0.374444       -10.1891
  36   2.0000      -0.360471        -9.8089
  37   2.0000      -0.356277        -9.6948
  38   2.0000      -0.356083        -9.6895
  39   2.0000      -0.356083        -9.6895
  40   0.0000       0.091851         2.4994
  41   0.0000       0.137096         3.7306
  42   0.0000       0.137096         3.7306
  43   0.0000       0.137456         3.7404
  44   0.0000       0.209959         5.7133

MULLIKEN ATOMIC CHARGES
-----------------------
   0 O :   -0.882913
   1 H :    0.458317
   2 H :    0.428646
   3 O :   -0.882913
   4 H :    0.428646
   5 H :    0.458317
   6 O :   -0.890474
   7 H :    0.443445
   8 H :    0.442979
   9 O :   -0.890474
  10 H :    0.443445
  11 H :    0.442979
  12 O :   -0.890474
  13 H :    0.442979
  14 H :    0.443445
  15 O :   -0.882913
  16 H :    0.458317
  17 H :    0.428646
  18 O :   -0.882913
  19 H :    0.458317
  20 H :    0.428646
  21 O :   -0.890474
  22 H :    0.443445
  23 H :    0.442979
Sum of atomic charges:    0.0000000

LOEWDIN ATOMIC CHARGES
----------------------
   0 O :   -0.609710
   1 H :    0.305223
   2 H :    0.310272
   3 O :   -0.609710
   4 H :    0.310272
   5 H :    0.305223
   6 O :   -0.608044
   7 H :    0.300917
   8 H :    0.301342
   9 O :   -0.608044
  10 H :    0.300917
  11 H :    0.301342
  12 O :   -0.608044
  13 H :    0.301342
  14 H :    0.300917
  15 O :   -0.609710
  16 H :    0.305223
  17 H :    0.310272
  18 O :   -0.609710
  19 H :    0.305223
  20 H :    0.310272
  21 O :   -0.608044
  22 H :    0.300917
  23 H :    0.301342

  Mayer bond orders larger than 0.100000
B(  0-O ,  1-H ) :   0.6326 B(  0-O ,  2-H ) :   0.7952 B(  0-O , 13-H ) :   0.1020
B(  0-O , 22-H ) :   0.1051 B(  1-H ,  9-O ) :   0.1801 B(  3-O ,  4-H ) :   0.7952
B(  3-O ,  5-H ) :   0.6326 B(  3-O , 10-H ) :   0.1051 B(  3-O , 23-H ) :   0.1020
B(  5-H ,  6-O ) :   0.1801 B(  6-O ,  7-H ) :   0.7152 B(  6-O ,  8-H ) :   0.7177
B(  7-H , 18-O ) :   0.1051 B(  8-H , 15-O ) :   0.1020 B(  9-O , 10-H ) :   0.7152
B(  9-O , 11-H ) :   0.7177 B( 11-H , 18-O ) :   0.1020 B( 12-O , 13-H ) :   0.7177
B( 12-O , 14-H ) :   0.7152 B( 12-O , 19-H ) :   0.1801 B( 14-H , 15-O ) :   0.1051
B( 15-O , 16-H ) :   0.6326 B( 15-O , 17-H ) :   0.7952 B( 16-H , 21-O ) :   0.1801
B( 18-O , 19-H ) :   0.6326 B( 18-O , 20-H ) :   0.7952 B( 21-O , 22-H ) :   0.7152
B( 21-O , 23-H ) :   0.7177

Dispersion correction           -0.009305472
FINAL SINGLE POINT ENERGY      -610.206137847361

DIPOLE MOMENT
-------------
                                X             Y             Z
Electronic contribution:     -0.00000       0.00000       0.00000
Nuclear contribution   :      0.00000      -0.00000       0.00000
                        -----------------------------------------
Total Dipole Moment    :     -0.00000       0.00000       0.00000
                        -----------------------------------------
Magnitude (a.u.)       :      0.00000
Magnitude (Debye)      :      0.00000

Rotational constants in cm-1:     0.029884     0.028930     0.028930
Rotational constants in MHz :   895.903990   867.300145   867.300145

                             ****ORCA TERMINATED NORMALLY****
TOTAL RUN TIME: 0 days 0 hours 1 minutes 51 seconds 687 msec
