                         Program Version 5.0.3 -  RELEASE  -
|  1> ! PBEh-3c def2/J TightSCF DefGrid3
|  2>
|  3> %maxcore 60000
|  4>
|  5> %pal
|  6> nprocs 4
|  7> end
|  8>
|  9> *xyzfile 0 1 ch.xyz
| 10>
| 11>                          ****END OF INPUT****

CARTESIAN COORDINATES (ANGSTROEM)
---------------------------------
  B     -1.354273    0.781890    0.240253
  N      0.000000    1.476345   -0.194339
  B      1.354273    0.781890    0.240253
  N      1.278552   -0.738172   -0.194339
  B      0.000000   -1.563780    0.240253
  N     -1.278552   -0.738172   -0.194339
  H     -2.282445    1.317770   -0.332305
  H     -1.441255    0.832109    1.442151
  H      0.000000    1.671040   -1.191240
  H      0.000000    2.392848    0.240502
  H      1.441255    0.832109    1.442151
  H      2.282445    1.317770   -0.332305
  H      1.447163   -0.835520   -1.191240
  H      2.072267   -1.196424    0.240502
  H      0.000000   -1.664218    1.442151
  H      0.000000   -2.635541   -0.332305
  H     -1.447163   -0.835520   -1.191240
  H     -2.072267   -1.196424    0.240502

 Total Charge           Charge          ....    0
 Multiplicity           Mult            ....    1
 Number of Electrons    NEL             ....   48
 Basis Dimension        Dim             ....  114

ORBITAL ENERGIES
----------------

  NO   OCC          E(Eh)            E(eV)
   0   2.0000     -14.663185      -399.0055
   1   2.0000     -14.663185      -399.0055
   2   2.0000     -14.663160      -399.0049
   3   2.0000      -6.927634      -188.5105
   4   2.0000      -6.927620      -188.5101
   5   2.0000      -6.927619      -188.5101
   6   2.0000      -1.023464       -27.8499
   7   2.0000      -0.986082       -26.8326
   8   2.0000      -0.986081       -26.8326
   9   2.0000      -0.612609       -16.6699
  10   2.0000      -0.604003       -16.4357
  11   2.0000      -0.597919       -16.2702
  12   2.0000      -0.597919       -16.2702
  13   2.0000      -0.571870       -15.5614
  14   2.0000      -0.571868       -15.5613
  15   2.0000      -0.465821       -12.6756
  16   2.0000      -0.465821       -12.6756
  17   2.0000      -0.457617       -12.4524
  18   2.0000      -0.436856       -11.8875
  19   2.0000      -0.363324        -9.8865
  20   2.0000      -0.363323        -9.8865
  21   2.0000      -0.333553        -9.0764
  22   2.0000      -0.321779        -8.7561
  23   2.0000      -0.321779        -8.7561
  24   0.0000       0.093684         2.5493
  25   0.0000       0.106026         2.8851
  26   0.0000       0.106032         2.8853
  27   0.0000       0.136264         3.7079
  28   0.0000       0.171870         4.6768

MULLIKEN ATOMIC CHARGES
-----------------------
   0 B :   -0.055252
   1 N :   -0.749798
   2 B :   -0.055253
   3 N :   -0.749792
   4 B :   -0.055229
   5 N :   -0.749792
   6 H :    0.009000
   7 H :    0.037687
   8 H :    0.361885
   9 H :    0.396491
  10 H :    0.037687
  11 H :    0.009000
  12 H :    0.361876
  13 H :    0.396477
  14 H :    0.037655
  15 H :    0.009003
  16 H :    0.361876
  17 H :    0.396477
Sum of atomic charges:   -0.0000000

LOEWDIN ATOMIC CHARGES
----------------------
   0 B :   -0.227920
   1 N :   -0.282572
   2 B :   -0.227920
   3 N :   -0.282568
   4 B :   -0.227921
   5 N :   -0.282568
   6 H :   -0.028926
   7 H :   -0.005094
   8 H :    0.257784
   9 H :    0.286734
  10 H :   -0.005094
  11 H :   -0.028926
  12 H :    0.257780
  13 H :    0.286729
  14 H :   -0.005100
  15 H :   -0.028925
  16 H :    0.257780
  17 H :    0.286729

  Mayer bond orders larger than 0.100000
B(  0-B ,  1-N ) :   0.7542 B(  0-B ,  5-N ) :   0.7542 B(  0-B ,  6-H ) :   0.9821
B(  0-B ,  7-H ) :   0.9939 B(  1-N ,  2-B ) :   0.7542 B(  1-N ,  8-H ) :   0.8290
B(  1-N ,  9-H ) :   0.8225 B(  2-B ,  3-N ) :   0.7542 B(  2-B , 10-H ) :   0.9939
B(  2-B , 11-H ) :   0.9821 B(  3-N ,  4-B ) :   0.7542 B(  3-N , 12-H ) :   0.8290
B(  3-N , 13-H ) :   0.8225 B(  4-B ,  5-N ) :   0.7542 B(  4-B , 14-H ) :   0.9939
B(  4-B , 15-H ) :   0.9821 B(  5-N , 16-H ) :   0.8290 B(  5-N , 17-H ) :   0.8225

Dispersion correction           -0.009023893
FINAL SINGLE POINT ENERGY      -245.632005120491

DIPOLE MOMENT
-------------
                                X             Y             Z
Electronic contribution:      0.00000       0.00003      -1.40935
Nuclear contribution   :      0.00000      -0.00000      -0.11133
                        -----------------------------------------
Total Dipole Moment    :      0.00000       0.00003      -1.52069
                        -----------------------------------------
Magnitude (a.u.)       :      1.52069
Magnitude (Debye)      :      3.86528

Rotational constants in cm-1:     0.132150     0.132150     0.074581
Rotational constants in MHz :  3961.763154  3961.762773  2235.873662

                             ****ORCA TERMINATED NORMALLY****
TOTAL RUN TIME: 0 days 0 hours 1 minutes 9 seconds 899 msec
