                         Program Version 5.0.3 -  RELEASE  -
|  1> ! PBEh-3c def2/J TightSCF DefGrid3
|  2>
|  3> %maxcore 60000
|  4>
|  5> %pal
|  6> nprocs 4
|  7> end
|  8>
|  9> *xyzfile 0 1 152.xyz
| 10>
| 11>                          ****END OF INPUT****

CARTESIAN COORDINATES (ANGSTROEM)
---------------------------------
  C      1.291370    0.239580   -0.372580
  N      0.064410   -0.211030    0.110860
  C      0.127910   -0.334170    1.447690
  N      1.374490    0.017810    1.815270
  C      2.121750    0.389250    0.702220
  C     -1.142520   -0.486230   -0.696570
  H      1.692190    0.017810    2.781600
  H     -0.695970   -0.655580    2.117270
  H      3.144630    0.728600    0.770210
  H      1.458320    0.422260   -1.424410
  H     -1.065640   -1.487040   -1.133860
  H     -2.013110   -0.399770   -0.041220
  H     -1.211920    0.267940   -1.486220
  O     -2.116220   -0.991480    3.111860
  Cl    -3.049850    0.185360    2.890800
  O     -2.516830    0.956040    1.714730
  O     -4.392020   -0.321440    2.591700
  O     -3.042390    1.040170    4.081080

 Total Charge           Charge          ....    0
 Multiplicity           Mult            ....    1
 Number of Electrons    NEL             ....   94
 Basis Dimension        Dim             ....  182

ORBITAL ENERGIES
----------------

  NO   OCC          E(Eh)            E(eV)
   0   2.0000    -102.641723     -2793.0233
   1   2.0000     -19.463106      -529.6181
   2   2.0000     -19.460753      -529.5540
   3   2.0000     -19.457606      -529.4684
   4   2.0000     -19.457415      -529.4632
   5   2.0000     -14.782275      -402.2461
   6   2.0000     -14.780749      -402.2046
   7   2.0000     -10.585792      -288.0541
   8   2.0000     -10.558293      -287.3057
   9   2.0000     -10.553898      -287.1862
  10   2.0000     -10.519017      -286.2370
  11   2.0000     -10.052373      -273.5390
  12   2.0000      -7.739803      -210.6108
  13   2.0000      -7.739721      -210.6085
  14   2.0000      -7.739521      -210.6031
  15   2.0000      -1.339206       -36.4416
  16   2.0000      -1.222161       -33.2567
  17   2.0000      -1.098235       -29.8845
  18   2.0000      -1.090740       -29.6806
  19   2.0000      -1.088507       -29.6198
  20   2.0000      -1.078809       -29.3559
  21   2.0000      -0.930854       -25.3298
  22   2.0000      -0.871266       -23.7084
  23   2.0000      -0.777162       -21.1477
  24   2.0000      -0.738510       -20.0959
  25   2.0000      -0.708984       -19.2924
  26   2.0000      -0.686180       -18.6719
  27   2.0000      -0.603290       -16.4163
  28   2.0000      -0.601266       -16.3613
  29   2.0000      -0.581891       -15.8341
  30   2.0000      -0.581423       -15.8213
  31   2.0000      -0.562255       -15.2997
  32   2.0000      -0.557877       -15.1806
  33   2.0000      -0.555935       -15.1278
  34   2.0000      -0.552095       -15.0233
  35   2.0000      -0.526514       -14.3272
  36   2.0000      -0.498336       -13.5604
  37   2.0000      -0.416572       -11.3355
  38   2.0000      -0.390190       -10.6176
  39   2.0000      -0.389669       -10.6034
  40   2.0000      -0.369329       -10.0500
  41   2.0000      -0.364849        -9.9280
  42   2.0000      -0.359207        -9.7745
  43   2.0000      -0.354830        -9.6554
  44   2.0000      -0.298416        -8.1203
  45   2.0000      -0.292921        -7.9708
  46   2.0000      -0.290855        -7.9146
  47   0.0000      -0.025295        -0.6883
  48   0.0000      -0.008722        -0.2373
  49   0.0000       0.062345         1.6965
  50   0.0000       0.110120         2.9965
  51   0.0000       0.124854         3.3975

MULLIKEN ATOMIC CHARGES
-----------------------
   0 C :   -0.056348
   1 N :   -0.418060
   2 C :    0.255391
   3 N :   -0.596692
   4 C :   -0.054966
   5 C :   -0.513326
   6 H :    0.416870
   7 H :    0.397655
   8 H :    0.290071
   9 H :    0.288902
  10 H :    0.254450
  11 H :    0.321814
  12 H :    0.251178
  13 O :   -0.666265
  14 Cl:    1.697581
  15 O :   -0.666593
  16 O :   -0.599578
  17 O :   -0.602086
Sum of atomic charges:   -0.0000000

LOEWDIN ATOMIC CHARGES
----------------------
   0 C :   -0.080822
   1 N :    0.003683
   2 C :    0.056837
   3 N :   -0.099179
   4 C :   -0.087515
   5 C :   -0.239455
   6 H :    0.296057
   7 H :    0.203661
   8 H :    0.164070
   9 H :    0.163667
  10 H :    0.142906
  11 H :    0.181304
  12 H :    0.147382
  13 O :   -0.671799
  14 Cl:    1.685135
  15 O :   -0.664357
  16 O :   -0.599567
  17 O :   -0.602006

  Mayer bond orders larger than 0.100000
B(  0-C ,  1-N ) :   1.1395 B(  0-C ,  4-C ) :   1.6672 B(  0-C ,  9-H ) :   0.8878
B(  1-N ,  2-C ) :   1.3013 B(  1-N ,  5-C ) :   0.8702 B(  2-C ,  3-N ) :   1.2489
B(  2-C ,  7-H ) :   0.6897 B(  3-N ,  4-C ) :   1.1052 B(  3-N ,  6-H ) :   0.7949
B(  4-C ,  8-H ) :   0.8900 B(  5-C , 10-H ) :   0.8999 B(  5-C , 11-H ) :   0.8485
B(  5-C , 12-H ) :   0.9118 B(  7-H , 13-O ) :   0.1778 B( 13-O , 14-Cl) :   1.2677
B( 14-Cl, 15-O ) :   1.3396 B( 14-Cl, 16-O ) :   1.4961 B( 14-Cl, 17-O ) :   1.4944
B( 16-O , 17-O ) :   0.1024

Dispersion correction           -0.009958384
FINAL SINGLE POINT ENERGY     -1025.146882414599

DIPOLE MOMENT
-------------
                                X             Y             Z
Electronic contribution:     -7.33337       1.24232       8.87824
Nuclear contribution   :     12.42822      -1.60729     -11.72811
                        -----------------------------------------
Total Dipole Moment    :      5.09484      -0.36496      -2.84987
                        -----------------------------------------
Magnitude (a.u.)       :      5.84914
Magnitude (Debye)      :     14.86733

Rotational constants in cm-1:     0.072211     0.016472     0.014740
Rotational constants in MHz :  2164.817411   493.812688   441.898182

                             ****ORCA TERMINATED NORMALLY****
TOTAL RUN TIME: 0 days 0 hours 1 minutes 53 seconds 610 msec
