                         Program Version 5.0.3 -  RELEASE  -
|  1> ! PBEh-3c def2/J TightSCF DefGrid3
|  2>
|  3> %maxcore 60000
|  4>
|  5> %pal
|  6> nprocs 4
|  7> end
|  8>
|  9> *xyzfile 0 1 ts9h2o.xyz
| 10>
| 11>                          ****END OF INPUT****

CARTESIAN COORDINATES (ANGSTROEM)
---------------------------------
  C      0.496618    0.945321    0.283069
  H      0.990576    1.521822    1.062808
  C     -0.703278    1.432791   -0.206670
  H     -1.004563    1.171620   -1.217763
  H     -1.466338    0.133892    0.129021
  H     -1.067559    2.386580    0.152986
  H     -0.579551   -1.156303   -0.163639
  O     -1.636542   -1.004890    0.023220
  H     -1.827118   -1.390481    0.889546
  S      1.205428   -0.556043   -0.093570

 Total Charge           Charge          ....    0
 Multiplicity           Mult            ....    1
 Number of Electrons    NEL             ....   42
 Basis Dimension        Dim             ....   75

ORBITAL ENERGIES
----------------

  NO   OCC          E(Eh)            E(eV)
   0   2.0000     -89.536038     -2436.3995
   1   2.0000     -19.580542      -532.8136
   2   2.0000     -10.501093      -285.7493
   3   2.0000     -10.429600      -283.8039
   4   2.0000      -8.176203      -222.4858
   5   2.0000      -6.066920      -165.0893
   6   2.0000      -6.062973      -164.9819
   7   2.0000      -6.060296      -164.9090
   8   2.0000      -1.202592       -32.7242
   9   2.0000      -0.893322       -24.3085
  10   2.0000      -0.761187       -20.7130
  11   2.0000      -0.681488       -18.5442
  12   2.0000      -0.610685       -16.6176
  13   2.0000      -0.595057       -16.1923
  14   2.0000      -0.521899       -14.2016
  15   2.0000      -0.503257       -13.6943
  16   2.0000      -0.463746       -12.6192
  17   2.0000      -0.394604       -10.7377
  18   2.0000      -0.363402        -9.8887
  19   2.0000      -0.273243        -7.4353
  20   2.0000      -0.251112        -6.8331
  21   0.0000      -0.017818        -0.4849
  22   0.0000       0.091978         2.5028
  23   0.0000       0.145611         3.9623
  24   0.0000       0.168654         4.5893
  25   0.0000       0.197502         5.3743

MULLIKEN ATOMIC CHARGES
-----------------------
   0 C :   -0.232055
   1 H :    0.254100
   2 C :   -0.773181
   3 H :    0.294655
   4 H :    0.437321
   5 H :    0.233353
   6 H :    0.410711
   7 O :   -0.778409
   8 H :    0.460966
   9 S :   -0.307461
Sum of atomic charges:   -0.0000000

LOEWDIN ATOMIC CHARGES
----------------------
   0 C :   -0.196914
   1 H :    0.134357
   2 C :   -0.504655
   3 H :    0.158099
   4 H :    0.343032
   5 H :    0.136548
   6 H :    0.293402
   7 O :   -0.499801
   8 H :    0.339749
   9 S :   -0.203818

  Mayer bond orders larger than 0.100000
B(  0-C ,  1-H ) :   0.8979 B(  0-C ,  2-C ) :   1.3746 B(  0-C ,  9-S ) :   1.4190
B(  2-C ,  3-H ) :   0.8805 B(  2-C ,  4-H ) :   0.3143 B(  2-C ,  5-H ) :   0.9285
B(  4-H ,  7-O ) :   0.4312 B(  6-H ,  7-O ) :   0.4941 B(  6-H ,  9-S ) :   0.3663
B(  7-O ,  8-H ) :   0.7644

Dispersion correction           -0.004156865
FINAL SINGLE POINT ENERGY      -552.367500405945

DIPOLE MOMENT
-------------
                                X             Y             Z
Electronic contribution:      3.73786      -2.73980      -0.06446
Nuclear contribution   :     -5.06572       2.69407       0.86443
                        -----------------------------------------
Total Dipole Moment    :     -1.32786      -0.04573       0.79997
                        -----------------------------------------
Magnitude (a.u.)       :      1.55089
Magnitude (Debye)      :      3.94205

Rotational constants in cm-1:     0.212360     0.150099     0.093037
Rotational constants in MHz :  6366.407117  4499.859003  2789.186059

                             ****ORCA TERMINATED NORMALLY****
TOTAL RUN TIME: 0 days 0 hours 1 minutes 26 seconds 952 msec
