                         Program Version 5.0.3 -  RELEASE  -
|  1> ! PBEh-3c def2/J TightSCF DefGrid3
|  2>
|  3> %maxcore 60000
|  4>
|  5> %pal
|  6> nprocs 4
|  7> end
|  8>
|  9> *xyzfile 0 2 RKT08.xyz
| 10>
| 11>                          ****END OF INPUT****

CARTESIAN COORDINATES (ANGSTROEM)
---------------------------------
  C     -0.595118    0.055532    0.071833
  H     -0.946143   -0.876912   -0.349960
  H     -0.794841    0.948246   -0.505885
  H     -0.669637    0.153536    1.146743
  H      0.785476   -0.073161   -0.094685
  Cl     2.220263   -0.207241   -0.268046

 Total Charge           Charge          ....    0
 Multiplicity           Mult            ....    2
 Number of Electrons    NEL             ....   27
 Basis Dimension        Dim             ....   41

ORBITAL ENERGIES
----------------
                 SPIN UP ORBITALS
  NO   OCC          E(Eh)            E(eV)
   0   1.0000    -102.276067     -2783.0733
   1   1.0000     -10.488673      -285.4113
   2   1.0000      -9.743182      -265.1255
   3   1.0000      -7.435821      -202.3390
   4   1.0000      -7.421647      -201.9533
   5   1.0000      -7.421646      -201.9533
   6   1.0000      -0.902916       -24.5696
   7   1.0000      -0.817822       -22.2541
   8   1.0000      -0.528010       -14.3679
   9   1.0000      -0.511304       -13.9133
  10   1.0000      -0.511303       -13.9133
  11   1.0000      -0.354034        -9.6338
  12   1.0000      -0.354034        -9.6337
  13   1.0000      -0.322997        -8.7892
  14   0.0000       0.140085         3.8119
  15   0.0000       0.189865         5.1665
  16   0.0000       0.189866         5.1665
  17   0.0000       0.190767         5.1910
  18   0.0000       0.456474        12.4213

                 SPIN DOWN ORBITALS
  NO   OCC          E(Eh)            E(eV)
   0   1.0000    -102.272226     -2782.9687
   1   1.0000     -10.476426      -285.0780
   2   1.0000      -9.739438      -265.0236
   3   1.0000      -7.422317      -201.9715
   4   1.0000      -7.419399      -201.8921
   5   1.0000      -7.419399      -201.8921
   6   1.0000      -0.873720       -23.7751
   7   1.0000      -0.779865       -21.2212
   8   1.0000      -0.502029       -13.6609
   9   1.0000      -0.502028       -13.6609
  10   1.0000      -0.475226       -12.9316
  11   1.0000      -0.346006        -9.4153
  12   1.0000      -0.346006        -9.4153
  13   0.0000      -0.122048        -3.3211
  14   0.0000       0.152491         4.1495
  15   0.0000       0.196409         5.3446
  16   0.0000       0.196411         5.3446
  17   0.0000       0.221707         6.0330

MULLIKEN ATOMIC CHARGES AND SPIN POPULATIONS
--------------------------------------------
   0 C :   -0.756503    0.743109
   1 H :    0.268053   -0.026325
   2 H :    0.268044   -0.026321
   3 H :    0.268038   -0.026321
   4 H :    0.221629   -0.094627
   5 Cl:   -0.269260    0.430484
Sum of atomic charges         :   -0.0000000

LOEWDIN ATOMIC CHARGES AND SPIN POPULATIONS
-------------------------------------------
   0 C :   -0.407095    0.667062
   1 H :    0.152888   -0.014603
   2 H :    0.152885   -0.014601
   3 H :    0.152883   -0.014600
   4 H :    0.172841   -0.043513
   5 Cl:   -0.224403    0.420255

  Mayer bond orders larger than 0.100000
B(  0-C ,  1-H ) :   0.9036 B(  0-C ,  2-H ) :   0.9036 B(  0-C ,  3-H ) :   0.9037
B(  0-C ,  4-H ) :   0.3640 B(  0-C ,  5-Cl) :   0.1524 B(  4-H ,  5-Cl) :   0.5560

Dispersion correction           -0.001421862
FINAL SINGLE POINT ENERGY      -500.048182474626

DIPOLE MOMENT
-------------
                                X             Y             Z
Electronic contribution:      6.67083      -0.62268      -0.80536
Nuclear contribution   :     -7.77806       0.72603       0.93904
                        -----------------------------------------
Total Dipole Moment    :     -1.10722       0.10336       0.13368
                        -----------------------------------------
Magnitude (a.u.)       :      1.12004
Magnitude (Debye)      :      2.84693

Rotational constants in cm-1:     4.950216     0.186568     0.186568
Rotational constants in MHz : 148403.751417  5593.167814  5593.167042

                             ****ORCA TERMINATED NORMALLY****
TOTAL RUN TIME: 0 days 0 hours 1 minutes 21 seconds 539 msec
