                         Program Version 5.0.3 -  RELEASE  -
|  1> ! PBEh-3c def2/J TightSCF DefGrid3
|  2>
|  3> %maxcore 60000
|  4>
|  5> %pal
|  6> nprocs 4
|  7> end
|  8>
|  9> *xyzfile 0 1 R28.xyz
| 10>
| 11>                          ****END OF INPUT****

CARTESIAN COORDINATES (ANGSTROEM)
---------------------------------
  C      0.000000    0.185069    0.000000
  C     -1.375639   -0.425052    0.000000
  C     -0.038773   -1.111016    0.000000
  C      0.711211    1.425145    0.000000
  C      0.615790   -2.428679    0.000000
  C      0.107594    2.616183    0.000000
  H     -1.973131   -0.406438    0.911869
  H     -1.973131   -0.406438   -0.911869
  H      1.794625    1.366737    0.000000
  H      0.313451   -3.006442   -0.877524
  H      1.701923   -2.338927    0.000000
  H     -0.971736    2.691254    0.000000
  H      0.673454    3.536786    0.000000
  H      0.313451   -3.006442    0.877524

 Total Charge           Charge          ....    0
 Multiplicity           Mult            ....    1
 Number of Electrons    NEL             ....   44
 Basis Dimension        Dim             ....  106

ORBITAL ENERGIES
----------------

  NO   OCC          E(Eh)            E(eV)
   0   2.0000     -10.459655      -284.6217
   1   2.0000     -10.455373      -284.5052
   2   2.0000     -10.451283      -284.3939
   3   2.0000     -10.446060      -284.2518
   4   2.0000     -10.442381      -284.1516
   5   2.0000     -10.439645      -284.0772
   6   2.0000      -0.972088       -26.4519
   7   2.0000      -0.867193       -23.5975
   8   2.0000      -0.817171       -22.2364
   9   2.0000      -0.701948       -19.1010
  10   2.0000      -0.641388       -17.4531
  11   2.0000      -0.574718       -15.6389
  12   2.0000      -0.528765       -14.3884
  13   2.0000      -0.507589       -13.8122
  14   2.0000      -0.505414       -13.7530
  15   2.0000      -0.481478       -13.1017
  16   2.0000      -0.460728       -12.5371
  17   2.0000      -0.433050       -11.7839
  18   2.0000      -0.373342       -10.1592
  19   2.0000      -0.354567        -9.6482
  20   2.0000      -0.329005        -8.9527
  21   2.0000      -0.256225        -6.9722
  22   0.0000      -0.003223        -0.0877
  23   0.0000       0.127365         3.4658
  24   0.0000       0.157499         4.2858
  25   0.0000       0.169362         4.6086
  26   0.0000       0.174486         4.7480

MULLIKEN ATOMIC CHARGES
-----------------------
   0 C :    0.131675
   1 C :   -0.476093
   2 C :    0.095906
   3 C :   -0.291345
   4 C :   -0.767383
   5 C :   -0.481011
   6 H :    0.203046
   7 H :    0.203046
   8 H :    0.221646
   9 H :    0.238031
  10 H :    0.233335
  11 H :    0.229545
  12 H :    0.221570
  13 H :    0.238031
Sum of atomic charges:   -0.0000000

LOEWDIN ATOMIC CHARGES
----------------------
   0 C :   -0.048850
   1 C :   -0.246460
   2 C :   -0.029407
   3 C :   -0.147557
   4 C :   -0.355622
   5 C :   -0.239818
   6 H :    0.110175
   7 H :    0.110175
   8 H :    0.139065
   9 H :    0.147002
  10 H :    0.141616
  11 H :    0.138596
  12 H :    0.134082
  13 H :    0.147002

  Mayer bond orders larger than 0.100000
B(  0-C ,  1-C ) :   0.9198 B(  0-C ,  2-C ) :   1.6317 B(  0-C ,  3-C ) :   1.1109
B(  1-C ,  2-C ) :   0.9458 B(  1-C ,  6-H ) :   0.9125 B(  1-C ,  7-H ) :   0.9125
B(  2-C ,  4-C ) :   0.9914 B(  2-C ,  5-C ) :   0.1136 B(  3-C ,  5-C ) :   1.8424
B(  3-C ,  8-H ) :   0.9200 B(  4-C ,  9-H ) :   0.9141 B(  4-C , 10-H ) :   0.9235
B(  4-C , 13-H ) :   0.9141 B(  5-C , 11-H ) :   0.9255 B(  5-C , 12-H ) :   0.9268

Dispersion correction           -0.005769979
FINAL SINGLE POINT ENERGY      -232.828283188807

DIPOLE MOMENT
-------------
                                X             Y             Z
Electronic contribution:      0.38102       1.43249      -0.00000
Nuclear contribution   :     -0.12488      -1.61899       0.00000
                        -----------------------------------------
Total Dipole Moment    :      0.25614      -0.18651      -0.00000
                        -----------------------------------------
Magnitude (a.u.)       :      0.31684
Magnitude (Debye)      :      0.80535

Rotational constants in cm-1:     0.322216     0.069098     0.058165
Rotational constants in MHz :  9659.803922  2071.511469  1743.728967

                             ****ORCA TERMINATED NORMALLY****
TOTAL RUN TIME: 0 days 0 hours 1 minutes 6 seconds 944 msec
