                         Program Version 5.0.3 -  RELEASE  -
|  1> ! PBEh-3c def2/J TightSCF DefGrid3
|  2>
|  3> %maxcore 60000
|  4>
|  5> %pal
|  6> nprocs 4
|  7> end
|  8>
|  9> *xyzfile 0 1 17.xyz
| 10>
| 11>                          ****END OF INPUT****

CARTESIAN COORDINATES (ANGSTROEM)
---------------------------------
  Mg     1.420634   -0.774942    0.888257
  B     -0.095533   -2.100537   -0.426842
  H     -0.312132   -3.168231   -0.908826
  C      0.570025   -0.932956   -1.179804
  Si     0.129231    0.936049   -2.256609
  B     -0.870972   -0.479361   -1.296832
  F      0.376134    0.468212    1.928941
  F      3.058560   -1.209986    1.414626
  H     -1.852185   -0.699958   -0.661122
  H     -0.278519   -1.995482    0.778270
  F     -0.145718    2.207938   -1.104902
  H     -0.830144    2.295040    0.280426
  H     -0.948989    3.013704    1.705724
  O     -1.097446    2.171641    1.245325
  H     -0.338737    1.283891    1.654378
  H      1.215793   -1.015019   -2.061008

 Total Charge           Charge          ....    0
 Multiplicity           Mult            ....    1
 Number of Electrons    NEL             ....   84
 Basis Dimension        Dim             ....  155

ORBITAL ENERGIES
----------------

  NO   OCC          E(Eh)            E(eV)
   0   2.0000     -66.782720     -1817.2502
   1   2.0000     -47.364109     -1288.8429
   2   2.0000     -25.107032      -683.1971
   3   2.0000     -25.098357      -682.9610
   4   2.0000     -24.970662      -679.4863
   5   2.0000     -19.595956      -533.2331
   6   2.0000     -10.463194      -284.7180
   7   2.0000      -6.984190      -190.0495
   8   2.0000      -6.983423      -190.0286
   9   2.0000      -5.548900      -150.9932
  10   2.0000      -3.841103      -104.5217
  11   2.0000      -3.839099      -104.4672
  12   2.0000      -3.834373      -104.3386
  13   2.0000      -3.314125       -90.1819
  14   2.0000      -1.999913       -54.4204
  15   2.0000      -1.998110       -54.3713
  16   2.0000      -1.996000       -54.3139
  17   2.0000      -1.319027       -35.8925
  18   2.0000      -1.303989       -35.4833
  19   2.0000      -1.215203       -33.0674
  20   2.0000      -1.154867       -31.4255
  21   2.0000      -0.842197       -22.9173
  22   2.0000      -0.701068       -19.0770
  23   2.0000      -0.684303       -18.6208
  24   2.0000      -0.628640       -17.1062
  25   2.0000      -0.600010       -16.3271
  26   2.0000      -0.561226       -15.2717
  27   2.0000      -0.533104       -14.5065
  28   2.0000      -0.528041       -14.3687
  29   2.0000      -0.513762       -13.9802
  30   2.0000      -0.510858       -13.9011
  31   2.0000      -0.504433       -13.7263
  32   2.0000      -0.478915       -13.0319
  33   2.0000      -0.476205       -12.9582
  34   2.0000      -0.456099       -12.4111
  35   2.0000      -0.442531       -12.0419
  36   2.0000      -0.405742       -11.0408
  37   2.0000      -0.380518       -10.3544
  38   2.0000      -0.379808       -10.3351
  39   2.0000      -0.339115        -9.2278
  40   2.0000      -0.322191        -8.7673
  41   2.0000      -0.262107        -7.1323
  42   0.0000      -0.040007        -1.0886
  43   0.0000      -0.030127        -0.8198
  44   0.0000       0.008943         0.2433
  45   0.0000       0.018838         0.5126
  46   0.0000       0.054140         1.4732

MULLIKEN ATOMIC CHARGES
-----------------------
   0 Mg:    0.851023
   1 B :   -0.076927
   2 H :    0.080865
   3 C :   -0.880672
   4 Si:    0.515372
   5 B :   -0.109277
   6 F :   -0.536859
   7 F :   -0.532326
   8 H :    0.121997
   9 H :    0.042921
  10 F :   -0.500184
  11 H :    0.502386
  12 H :    0.471230
  13 O :   -0.846054
  14 H :    0.573456
  15 H :    0.323049
Sum of atomic charges:   -0.0000000

LOEWDIN ATOMIC CHARGES
----------------------
   0 Mg:    0.042010
   1 B :   -0.059840
   2 H :    0.042228
   3 C :   -0.355671
   4 Si:    0.353728
   5 B :   -0.172778
   6 F :   -0.263142
   7 F :   -0.301182
   8 H :    0.100290
   9 H :    0.094370
  10 F :   -0.330837
  11 H :    0.346318
  12 H :    0.345703
  13 O :   -0.489468
  14 H :    0.420826
  15 H :    0.227445

  Mayer bond orders larger than 0.100000
B(  0-Mg,  1-B ) :   0.2064 B(  0-Mg,  3-C ) :   0.3056 B(  0-Mg,  6-F ) :   0.4601
B(  0-Mg,  7-F ) :   0.8853 B(  0-Mg,  9-H ) :   0.1360 B(  1-B ,  2-H ) :   0.9837
B(  1-B ,  3-C ) :   0.9411 B(  1-B ,  4-Si) :   0.1087 B(  1-B ,  5-B ) :   0.2837
B(  1-B ,  9-H ) :   0.8434 B(  3-C ,  4-Si) :   0.4031 B(  3-C ,  5-B ) :   1.0661
B(  3-C , 15-H ) :   0.8295 B(  4-Si,  5-B ) :   0.8639 B(  4-Si, 10-F ) :   0.6520
B(  5-B ,  8-H ) :   0.9151 B(  6-F , 14-H ) :   0.3250 B( 10-F , 11-H ) :   0.1586
B( 11-H , 13-O ) :   0.5991 B( 12-H , 13-O ) :   0.7596 B( 13-O , 14-H ) :   0.3388

Dispersion correction           -0.008017663
FINAL SINGLE POINT ENERGY      -954.865660992545

DIPOLE MOMENT
-------------
                                X             Y             Z
Electronic contribution:      5.05772       1.45398       0.36373
Nuclear contribution   :     -6.75910       0.14622       0.01198
                        -----------------------------------------
Total Dipole Moment    :     -1.70138       1.60020       0.37572
                        -----------------------------------------
Magnitude (a.u.)       :      2.36569
Magnitude (Debye)      :      6.01312

Rotational constants in cm-1:     0.040976     0.027049     0.020588
Rotational constants in MHz :  1228.436315   810.920202   617.208783

                             ****ORCA TERMINATED NORMALLY****
TOTAL RUN TIME: 0 days 0 hours 2 minutes 52 seconds 268 msec
