                         Program Version 5.0.3 -  RELEASE  -
|  1> ! PBEh-3c def2/J TightSCF DefGrid3
|  2>
|  3> %maxcore 60000
|  4>
|  5> %pal
|  6> nprocs 4
|  7> end
|  8>
|  9> *xyzfile 0 1 12B.xyz
| 10>
| 11>                          ****END OF INPUT****

CARTESIAN COORDINATES (ANGSTROEM)
---------------------------------
  O      0.083626   -0.387642    0.000000
  H     -0.786848    0.044651    0.000000
  H      0.703222    0.342991    0.000000

 Total Charge           Charge          ....    0
 Multiplicity           Mult            ....    1
 Number of Electrons    NEL             ....   10
 Basis Dimension        Dim             ....   19

ORBITAL ENERGIES
----------------

  NO   OCC          E(Eh)            E(eV)
   0   2.0000     -19.475333      -529.9508
   1   2.0000      -1.100922       -29.9576
   2   2.0000      -0.578842       -15.7511
   3   2.0000      -0.435065       -11.8387
   4   2.0000      -0.356267        -9.6945
   5   0.0000       0.129714         3.5297
   6   0.0000       0.207508         5.6466
   7   0.0000       0.870260        23.6810
   8   0.0000       0.977981        26.6122
   9   0.0000       0.991580        26.9823

MULLIKEN ATOMIC CHARGES
-----------------------
   0 O :   -0.814908
   1 H :    0.406357
   2 H :    0.408551
Sum of atomic charges:   -0.0000000

LOEWDIN ATOMIC CHARGES
----------------------
   0 O :   -0.597450
   1 H :    0.299663
   2 H :    0.297786

  Mayer bond orders larger than 0.100000
B(  0-O ,  1-H ) :   0.8176 B(  0-O ,  2-H ) :   0.8152

Dispersion correction           -0.000209585
FINAL SINGLE POINT ENERGY       -76.257828848537

DIPOLE MOMENT
-------------
                                X             Y             Z
Electronic contribution:      0.03325      -0.13178       0.00000
Nuclear contribution   :     -0.20882       0.96797       0.00000
                        -----------------------------------------
Total Dipole Moment    :     -0.17557       0.83619       0.00000
                        -----------------------------------------
Magnitude (a.u.)       :      0.85442
Magnitude (Debye)      :      2.17177

Rotational constants in cm-1:    26.623144    14.479988     9.378916
Rotational constants in MHz : 798141.768857 434099.124724 281172.816997

                             ****ORCA TERMINATED NORMALLY****
TOTAL RUN TIME: 0 days 0 hours 0 minutes 55 seconds 851 msec
