                         Program Version 5.0.3 -  RELEASE  -
|  1> ! PBEh-3c def2/J TightSCF DefGrid3
|  2>
|  3> %maxcore 60000
|  4>
|  5> %pal
|  6> nprocs 4
|  7> end
|  8>
|  9> *xyzfile 0 1 H_gtt.xyz
| 10>
| 11>                          ****END OF INPUT****

CARTESIAN COORDINATES (ANGSTROEM)
---------------------------------
  C      2.545310    0.854070   -0.215732
  C      2.060645   -0.472287    0.358375
  C      0.695029   -0.900078   -0.172947
  C     -0.440237    0.044454    0.202599
  C     -1.803397   -0.458848   -0.254746
  C     -2.932110    0.494290    0.115553
  H      1.898812    1.679011    0.077902
  H      2.563894    0.817270   -1.305508
  H      3.552160    1.087419    0.127058
  H      2.014754   -0.405263    1.447989
  H      2.790931   -1.249897    0.127970
  H      0.459062   -1.897731    0.205754
  H      0.744132   -0.987278   -1.262454
  H     -0.266121    1.032159   -0.230020
  H     -0.451659    0.179927    1.288649
  H     -1.989298   -1.440656    0.186474
  H     -1.784941   -0.606200   -1.337047
  H     -3.899992    0.121028   -0.215434
  H     -2.777334    1.472434   -0.339595
  H     -2.979637    0.636171    1.195153

 Total Charge           Charge          ....    0
 Multiplicity           Mult            ....    1
 Number of Electrons    NEL             ....   50
 Basis Dimension        Dim             ....  118

ORBITAL ENERGIES
----------------

  NO   OCC          E(Eh)            E(eV)
   0   2.0000     -10.427001      -283.7331
   1   2.0000     -10.426619      -283.7227
   2   2.0000     -10.424968      -283.6778
   3   2.0000     -10.424233      -283.6578
   4   2.0000     -10.418619      -283.5050
   5   2.0000     -10.418177      -283.4930
   6   2.0000      -0.898354       -24.4455
   7   2.0000      -0.854592       -23.2546
   8   2.0000      -0.787797       -21.4370
   9   2.0000      -0.720720       -19.6118
  10   2.0000      -0.658063       -17.9068
  11   2.0000      -0.633814       -17.2470
  12   2.0000      -0.534562       -14.5462
  13   2.0000      -0.509890       -13.8748
  14   2.0000      -0.494509       -13.4563
  15   2.0000      -0.469429       -12.7738
  16   2.0000      -0.461398       -12.5553
  17   2.0000      -0.438800       -11.9404
  18   2.0000      -0.418966       -11.4006
  19   2.0000      -0.406961       -11.0740
  20   2.0000      -0.389870       -10.6089
  21   2.0000      -0.378089       -10.2883
  22   2.0000      -0.365694        -9.9510
  23   2.0000      -0.363234        -9.8841
  24   2.0000      -0.354130        -9.6364
  25   0.0000       0.136913         3.7256
  26   0.0000       0.150027         4.0824
  27   0.0000       0.174334         4.7439
  28   0.0000       0.185426         5.0457
  29   0.0000       0.192941         5.2502

MULLIKEN ATOMIC CHARGES
-----------------------
   0 C :   -0.646238
   1 C :   -0.416767
   2 C :   -0.406259
   3 C :   -0.402763
   4 C :   -0.407877
   5 C :   -0.638689
   6 H :    0.214202
   7 H :    0.207685
   8 H :    0.220165
   9 H :    0.204417
  10 H :    0.213933
  11 H :    0.208828
  12 H :    0.200028
  13 H :    0.205694
  14 H :    0.198857
  15 H :    0.204313
  16 H :    0.204907
  17 H :    0.218371
  18 H :    0.208492
  19 H :    0.208699
Sum of atomic charges:   -0.0000000

LOEWDIN ATOMIC CHARGES
----------------------
   0 C :   -0.364988
   1 C :   -0.245748
   2 C :   -0.240780
   3 C :   -0.242158
   4 C :   -0.245002
   5 C :   -0.362078
   6 H :    0.123488
   7 H :    0.122879
   8 H :    0.126415
   9 H :    0.119022
  10 H :    0.121850
  11 H :    0.121059
  12 H :    0.118333
  13 H :    0.119220
  14 H :    0.117987
  15 H :    0.118839
  16 H :    0.119490
  17 H :    0.125747
  18 H :    0.123158
  19 H :    0.123268

  Mayer bond orders larger than 0.100000
B(  0-C ,  1-C ) :   0.9902 B(  0-C ,  6-H ) :   0.9269 B(  0-C ,  7-H ) :   0.9296
B(  0-C ,  8-H ) :   0.9312 B(  1-C ,  2-C ) :   0.9943 B(  1-C ,  9-H ) :   0.9205
B(  1-C , 10-H ) :   0.9255 B(  2-C ,  3-C ) :   0.9860 B(  2-C , 11-H ) :   0.9235
B(  2-C , 12-H ) :   0.9185 B(  3-C ,  4-C ) :   0.9914 B(  3-C , 13-H ) :   0.9160
B(  3-C , 14-H ) :   0.9186 B(  4-C ,  5-C ) :   0.9988 B(  4-C , 15-H ) :   0.9206
B(  4-C , 16-H ) :   0.9204 B(  5-C , 17-H ) :   0.9325 B(  5-C , 18-H ) :   0.9297
B(  5-C , 19-H ) :   0.9297

Dispersion correction           -0.008751636
FINAL SINGLE POINT ENERGY      -236.560895885934

DIPOLE MOMENT
-------------
                                X             Y             Z
Electronic contribution:      0.33743      -1.17374       0.08945
Nuclear contribution   :     -0.32752       1.14648      -0.08657
                        -----------------------------------------
Total Dipole Moment    :      0.00991      -0.02726       0.00288
                        -----------------------------------------
Magnitude (a.u.)       :      0.02915
Magnitude (Debye)      :      0.07409

Rotational constants in cm-1:     0.289638     0.045678     0.042345
Rotational constants in MHz :  8683.130657  1369.389973  1269.473224

                             ****ORCA TERMINATED NORMALLY****
TOTAL RUN TIME: 0 days 0 hours 1 minutes 29 seconds 805 msec
