                         Program Version 5.0.3 -  RELEASE  -
|  1> ! PBEh-3c def2/J TightSCF DefGrid3
|  2>
|  3> %maxcore 60000
|  4>
|  5> %pal
|  6> nprocs 4
|  7> end
|  8>
|  9> *xyzfile 0 1 al2me5.xyz
| 10>
| 11>                          ****END OF INPUT****

CARTESIAN COORDINATES (ANGSTROEM)
---------------------------------
  C     -0.393901   -1.696442    2.278861
  Al    -0.243799    0.009944    1.311369
  C     -0.243799    1.795607    2.140280
  C      1.456596   -0.217148    0.000000
  Al    -0.243799    0.009944   -1.311369
  C     -0.393901   -1.696442   -2.278861
  H     -1.371873    0.030338    0.000000
  C     -0.243799    1.795607   -2.140280
  H     -1.186992    1.998350   -2.652572
  H     -0.094745    2.592703   -1.409135
  H      0.547929    1.887647   -2.888354
  H     -1.299544   -1.733648   -2.888208
  H      0.451004   -1.842336   -2.956675
  H     -0.420114   -2.552724   -1.602241
  H     -1.186992    1.998350    2.652572
  H      0.547929    1.887647    2.888354
  H     -0.094745    2.592703    1.409135
  H     -1.299544   -1.733648    2.888208
  H     -0.420114   -2.552724    1.602241
  H      0.451004   -1.842336    2.956675
  H      1.962828    0.266582    0.845424
  H      1.757547   -1.264555    0.000000
  H      1.962828    0.266582   -0.845424

 Total Charge           Charge          ....    0
 Multiplicity           Mult            ....    1
 Number of Electrons    NEL             ....   72
 Basis Dimension        Dim             ....  143

ORBITAL ENERGIES
----------------

  NO   OCC          E(Eh)            E(eV)
   0   2.0000     -56.589050     -1539.8663
   1   2.0000     -56.589011     -1539.8653
   2   2.0000     -10.439982      -284.0863
   3   2.0000     -10.399266      -282.9784
   4   2.0000     -10.399247      -282.9779
   5   2.0000     -10.398589      -282.9600
   6   2.0000     -10.398570      -282.9595
   7   2.0000      -4.324895      -117.6864
   8   2.0000      -4.324850      -117.6852
   9   2.0000      -2.816759       -76.6479
  10   2.0000      -2.816659       -76.6452
  11   2.0000      -2.814262       -76.5800
  12   2.0000      -2.813637       -76.5630
  13   2.0000      -2.810331       -76.4730
  14   2.0000      -2.810289       -76.4719
  15   2.0000      -0.800683       -21.7877
  16   2.0000      -0.750416       -20.4199
  17   2.0000      -0.749386       -20.3918
  18   2.0000      -0.743581       -20.2339
  19   2.0000      -0.741898       -20.1881
  20   2.0000      -0.513996       -13.9865
  21   2.0000      -0.500795       -13.6273
  22   2.0000      -0.482139       -13.1197
  23   2.0000      -0.443338       -12.0638
  24   2.0000      -0.440001       -11.9730
  25   2.0000      -0.436631       -11.8813
  26   2.0000      -0.435691       -11.8557
  27   2.0000      -0.435528       -11.8513
  28   2.0000      -0.432172       -11.7600
  29   2.0000      -0.429637       -11.6910
  30   2.0000      -0.427575       -11.6349
  31   2.0000      -0.374725       -10.1968
  32   2.0000      -0.350141        -9.5278
  33   2.0000      -0.335220        -9.1218
  34   2.0000      -0.316526        -8.6131
  35   2.0000      -0.311360        -8.4725
  36   0.0000       0.047316         1.2875
  37   0.0000       0.057950         1.5769
  38   0.0000       0.070255         1.9117
  39   0.0000       0.073948         2.0122
  40   0.0000       0.090534         2.4636

MULLIKEN ATOMIC CHARGES
-----------------------
   0 C :   -1.036129
   1 Al:    0.941237
   2 C :   -1.040669
   3 C :   -1.187040
   4 Al:    0.941237
   5 C :   -1.036129
   6 H :   -0.188589
   7 C :   -1.040669
   8 H :    0.235877
   9 H :    0.232183
  10 H :    0.229034
  11 H :    0.233645
  12 H :    0.231494
  13 H :    0.230397
  14 H :    0.235877
  15 H :    0.229034
  16 H :    0.232183
  17 H :    0.233646
  18 H :    0.230397
  19 H :    0.231495
  20 H :    0.284447
  21 H :    0.292597
  22 H :    0.284447
Sum of atomic charges:    0.0000000

LOEWDIN ATOMIC CHARGES
----------------------
   0 C :   -0.630620
   1 Al:    0.434090
   2 C :   -0.633510
   3 C :   -0.601013
   4 Al:    0.434090
   5 C :   -0.630620
   6 H :   -0.022090
   7 C :   -0.633510
   8 H :    0.147552
   9 H :    0.144178
  10 H :    0.143470
  11 H :    0.146788
  12 H :    0.145106
  13 H :    0.144308
  14 H :    0.147552
  15 H :    0.143470
  16 H :    0.144178
  17 H :    0.146788
  18 H :    0.144308
  19 H :    0.145106
  20 H :    0.185229
  21 H :    0.169924
  22 H :    0.185229

  Mayer bond orders larger than 0.100000
B(  0-C ,  1-Al) :   0.8778 B(  0-C , 17-H ) :   0.9098 B(  0-C , 18-H ) :   0.9105
B(  0-C , 19-H ) :   0.9056 B(  1-Al,  2-C ) :   0.8780 B(  1-Al,  3-C ) :   0.4503
B(  1-Al,  4-Al) :   0.2076 B(  1-Al,  6-H ) :   0.4513 B(  2-C , 14-H ) :   0.9091
B(  2-C , 15-H ) :   0.9066 B(  2-C , 16-H ) :   0.9093 B(  3-C ,  4-Al) :   0.4503
B(  3-C , 20-H ) :   0.8501 B(  3-C , 21-H ) :   0.8802 B(  3-C , 22-H ) :   0.8501
B(  4-Al,  5-C ) :   0.8778 B(  4-Al,  6-H ) :   0.4513 B(  4-Al,  7-C ) :   0.8780
B(  5-C , 11-H ) :   0.9098 B(  5-C , 12-H ) :   0.9056 B(  5-C , 13-H ) :   0.9105
B(  7-C ,  8-H ) :   0.9091 B(  7-C ,  9-H ) :   0.9093 B(  7-C , 10-H ) :   0.9066

Dispersion correction           -0.010591158
FINAL SINGLE POINT ENERGY      -683.995325176900

DIPOLE MOMENT
-------------
                                X             Y             Z
Electronic contribution:     -1.38736       0.02091       0.00000
Nuclear contribution   :      1.81096      -0.05039      -0.00000
                        -----------------------------------------
Total Dipole Moment    :      0.42360      -0.02947       0.00000
                        -----------------------------------------
Magnitude (a.u.)       :      0.42463
Magnitude (Debye)      :      1.07931

Rotational constants in cm-1:     0.065563     0.036887     0.027753
Rotational constants in MHz :  1965.537487  1105.849235   832.001019

                             ****ORCA TERMINATED NORMALLY****
TOTAL RUN TIME: 0 days 0 hours 1 minutes 42 seconds 628 msec
