                         Program Version 5.0.3 -  RELEASE  -
|  1> ! PBEh-3c def2/J TightSCF DefGrid3
|  2>
|  3> %maxcore 60000
|  4>
|  5> %pal
|  6> nprocs 4
|  7> end
|  8>
|  9> *xyzfile 0 1 E31.xyz
| 10>
| 11>                          ****END OF INPUT****

CARTESIAN COORDINATES (ANGSTROEM)
---------------------------------
  C      0.222593    1.427998    0.027232
  C     -0.974361    0.497517   -0.130402
  C     -0.416802   -0.873834    0.254089
  C      1.068823   -0.721588   -0.095526
  O      1.364539    0.682606    0.077495
  O      0.233352    2.622704    0.095771
  H     -1.290938    0.536928   -1.177031
  H     -1.804531    0.848232    0.479617
  H     -0.534878   -1.044963    1.325940
  H     -0.881928   -1.704727   -0.275738
  H      1.274952   -0.989513   -1.135531
  H      1.739179   -1.281360    0.554085

 Total Charge           Charge          ....    0
 Multiplicity           Mult            ....    1
 Number of Electrons    NEL             ....   46
 Basis Dimension        Dim             ....  102

ORBITAL ENERGIES
----------------

  NO   OCC          E(Eh)            E(eV)
   0   2.0000     -19.539505      -531.6970
   1   2.0000     -19.480108      -530.0807
   2   2.0000     -10.577081      -287.8170
   3   2.0000     -10.511841      -286.0417
   4   2.0000     -10.466564      -284.8097
   5   2.0000     -10.466015      -284.7948
   6   2.0000      -1.214348       -33.0441
   7   2.0000      -1.132181       -30.8082
   8   2.0000      -0.906243       -24.6601
   9   2.0000      -0.821622       -22.3575
  10   2.0000      -0.709905       -19.3175
  11   2.0000      -0.636440       -17.3184
  12   2.0000      -0.590782       -16.0760
  13   2.0000      -0.570179       -15.5154
  14   2.0000      -0.522800       -14.2261
  15   2.0000      -0.502692       -13.6789
  16   2.0000      -0.485809       -13.2195
  17   2.0000      -0.469149       -12.7662
  18   2.0000      -0.437124       -11.8948
  19   2.0000      -0.417871       -11.3709
  20   2.0000      -0.406784       -11.0692
  21   2.0000      -0.351874        -9.5750
  22   2.0000      -0.326642        -8.8884
  23   0.0000       0.044953         1.2232
  24   0.0000       0.116759         3.1772
  25   0.0000       0.144796         3.9401
  26   0.0000       0.155045         4.2190
  27   0.0000       0.175998         4.7891

MULLIKEN ATOMIC CHARGES
-----------------------
   0 C :    0.551480
   1 C :   -0.592008
   2 C :   -0.492393
   3 C :   -0.154291
   4 O :   -0.437025
   5 O :   -0.359390
   6 H :    0.264260
   7 H :    0.276074
   8 H :    0.245542
   9 H :    0.244726
  10 H :    0.218148
  11 H :    0.234876
Sum of atomic charges:    0.0000000

LOEWDIN ATOMIC CHARGES
----------------------
   0 C :    0.146482
   1 C :   -0.283065
   2 C :   -0.257993
   3 C :   -0.068584
   4 O :   -0.182638
   5 O :   -0.192487
   6 H :    0.156638
   7 H :    0.157223
   8 H :    0.137467
   9 H :    0.138155
  10 H :    0.118936
  11 H :    0.129866

  Mayer bond orders larger than 0.100000
B(  0-C ,  1-C ) :   0.9254 B(  0-C ,  4-O ) :   1.0890 B(  0-C ,  5-O ) :   2.1122
B(  1-C ,  2-C ) :   0.9587 B(  1-C ,  6-H ) :   0.8977 B(  1-C ,  7-H ) :   0.9065
B(  2-C ,  3-C ) :   0.9535 B(  2-C ,  8-H ) :   0.9136 B(  2-C ,  9-H ) :   0.9175
B(  3-C ,  4-O ) :   0.9289 B(  3-C , 10-H ) :   0.9056 B(  3-C , 11-H ) :   0.9161

Dispersion correction           -0.005035790
FINAL SINGLE POINT ENERGY      -305.842245256970

DIPOLE MOMENT
-------------
                                X             Y             Z
Electronic contribution:      2.27403       5.12218       0.26734
Nuclear contribution   :     -2.88423      -6.85738      -0.42275
                        -----------------------------------------
Total Dipole Moment    :     -0.61020      -1.73520      -0.15540
                        -----------------------------------------
Magnitude (a.u.)       :      1.84592
Magnitude (Debye)      :      4.69195

Rotational constants in cm-1:     0.242806     0.119103     0.084989
Rotational constants in MHz :  7279.144788  3570.604541  2547.899562

                             ****ORCA TERMINATED NORMALLY****
TOTAL RUN TIME: 0 days 0 hours 1 minutes 16 seconds 342 msec
