                         Program Version 5.0.3 -  RELEASE  -
|  1> ! PBEh-3c def2/J TightSCF DefGrid3
|  2>
|  3> %maxcore 60000
|  4>
|  5> %pal
|  6> nprocs 4
|  7> end
|  8>
|  9> *xyzfile 0 1 19A.xyz
| 10>
| 11>                          ****END OF INPUT****

CARTESIAN COORDINATES (ANGSTROEM)
---------------------------------
  O      0.130499    1.091707    0.000000
  H      1.101754    1.126541    0.000000
  C     -0.219782   -0.274315    0.000000
  H     -1.305250   -0.337799    0.000000
  H      0.146389   -0.803067   -0.885013
  H      0.146389   -0.803067    0.885013

 Total Charge           Charge          ....    0
 Multiplicity           Mult            ....    1
 Number of Electrons    NEL             ....   18
 Basis Dimension        Dim             ....   38

ORBITAL ENERGIES
----------------

  NO   OCC          E(Eh)            E(eV)
   0   2.0000     -19.484924      -530.2117
   1   2.0000     -10.472935      -284.9831
   2   2.0000      -1.120199       -30.4822
   3   2.0000      -0.758712       -20.6456
   4   2.0000      -0.567634       -15.4461
   5   2.0000      -0.497404       -13.5351
   6   2.0000      -0.481094       -13.0912
   7   2.0000      -0.388958       -10.5841
   8   2.0000      -0.325175        -8.8485
   9   0.0000       0.128327         3.4920
  10   0.0000       0.193797         5.2735
  11   0.0000       0.219613         5.9760
  12   0.0000       0.233142         6.3441
  13   0.0000       0.240080         6.5329

MULLIKEN ATOMIC CHARGES
-----------------------
   0 O :   -0.620244
   1 H :    0.412003
   2 C :   -0.372404
   3 H :    0.217510
   4 H :    0.181567
   5 H :    0.181567
Sum of atomic charges:   -0.0000000

LOEWDIN ATOMIC CHARGES
----------------------
   0 O :   -0.418467
   1 H :    0.307616
   2 C :   -0.201375
   3 H :    0.121292
   4 H :    0.095467
   5 H :    0.095467

  Mayer bond orders larger than 0.100000
B(  0-O ,  1-H ) :   0.7985 B(  0-O ,  2-C ) :   1.0210 B(  2-C ,  3-H ) :   0.9245
B(  2-C ,  4-H ) :   0.9175 B(  2-C ,  5-H ) :   0.9175

Dispersion correction           -0.001081561
FINAL SINGLE POINT ENERGY      -115.466994475067

DIPOLE MOMENT
-------------
                                X             Y             Z
Electronic contribution:      0.33698       1.80432      -0.00000
Nuclear contribution   :      0.14001      -2.32011       0.00000
                        -----------------------------------------
Total Dipole Moment    :      0.47699      -0.51579      -0.00000
                        -----------------------------------------
Magnitude (a.u.)       :      0.70254
Magnitude (Debye)      :      1.78571

Rotational constants in cm-1:     4.278700     0.836425     0.805189
Rotational constants in MHz : 128272.191913 25075.385544 24138.973098

                             ****ORCA TERMINATED NORMALLY****
TOTAL RUN TIME: 0 days 0 hours 1 minutes 1 seconds 559 msec
