                         Program Version 5.0.3 -  RELEASE  -
|  1> ! PBEh-3c def2/J TightSCF DefGrid3
|  2>
|  3> %maxcore 60000
|  4>
|  5> %pal
|  6> nprocs 4
|  7> end
|  8>
|  9> *xyzfile 0 1 s2o.xyz
| 10>
| 11>                          ****END OF INPUT****

CARTESIAN COORDINATES (ANGSTROEM)
---------------------------------
  S     -1.286529   -0.165117    0.000000
  S      0.504405    0.443349    0.000000
  O      1.567238   -0.557528    0.000000

 Total Charge           Charge          ....    0
 Multiplicity           Mult            ....    1
 Number of Electrons    NEL             ....   40
 Basis Dimension        Dim             ....   51

ORBITAL ENERGIES
----------------

  NO   OCC          E(Eh)            E(eV)
   0   2.0000     -89.761123     -2442.5243
   1   2.0000     -89.617505     -2438.6163
   2   2.0000     -19.545974      -531.8730
   3   2.0000      -8.387228      -228.2281
   4   2.0000      -8.260062      -224.7677
   5   2.0000      -6.276863      -170.8021
   6   2.0000      -6.276530      -170.7931
   7   2.0000      -6.270877      -170.6392
   8   2.0000      -6.149950      -167.3486
   9   2.0000      -6.148146      -167.2996
  10   2.0000      -6.141660      -167.1231
  11   2.0000      -1.205186       -32.7948
  12   2.0000      -0.916114       -24.9287
  13   2.0000      -0.678985       -18.4761
  14   2.0000      -0.525952       -14.3119
  15   2.0000      -0.522261       -14.2114
  16   2.0000      -0.517175       -14.0730
  17   2.0000      -0.362302        -9.8587
  18   2.0000      -0.355907        -9.6847
  19   2.0000      -0.329412        -8.9637
  20   0.0000      -0.128848        -3.5061
  21   0.0000       0.044640         1.2147
  22   0.0000       0.079956         2.1757
  23   0.0000       0.291343         7.9278
  24   0.0000       0.433967        11.8088

MULLIKEN ATOMIC CHARGES
-----------------------
   0 S :   -0.157750
   1 S :    0.658080
   2 O :   -0.500330
Sum of atomic charges:   -0.0000000

LOEWDIN ATOMIC CHARGES
----------------------
   0 S :   -0.168113
   1 S :    0.622904
   2 O :   -0.454791

  Mayer bond orders larger than 0.100000
B(  0-S ,  1-S ) :   1.7561 B(  0-S ,  2-O ) :   0.3462 B(  1-S ,  2-O ) :   1.6675

Dispersion correction           -0.001025839
FINAL SINGLE POINT ENERGY      -870.499710780811

DIPOLE MOMENT
-------------
                                X             Y             Z
Electronic contribution:     -0.27061       0.60404      -0.00000
Nuclear contribution   :      0.04582      -0.01630       0.00000
                        -----------------------------------------
Total Dipole Moment    :     -0.22479       0.58774      -0.00000
                        -----------------------------------------
Magnitude (a.u.)       :      0.62926
Magnitude (Debye)      :      1.59946

Rotational constants in cm-1:     1.387596     0.167707     0.149623
Rotational constants in MHz : 41599.090700  5027.726950  4485.591768

                             ****ORCA TERMINATED NORMALLY****
TOTAL RUN TIME: 0 days 0 hours 0 minutes 42 seconds 861 msec
