                         Program Version 5.0.3 -  RELEASE  -
|  1> ! PBEh-3c def2/J TightSCF DefGrid3
|  2>
|  3> %maxcore 60000
|  4>
|  5> %pal
|  6> nprocs 4
|  7> end
|  8>
|  9> *xyzfile 0 1 147.xyz
| 10>
| 11>                          ****END OF INPUT****

CARTESIAN COORDINATES (ANGSTROEM)
---------------------------------
  C      0.049040   -0.084480    0.021420
  C      0.049040   -0.084480    1.535490
  N      1.446830   -0.084480    2.045840
  H      1.964410    0.730610    1.708030
  H      1.476360   -0.079960    3.067300
  H      1.982830   -0.926590    1.674260
  H     -0.453960    0.791580    1.938980
  H     -0.431130   -0.974810    1.935770
  H      0.553240    0.798050   -0.369050
  H      0.549420   -0.968880   -0.367200
  H     -0.977580   -0.080020   -0.337960
  O      2.804620   -2.052090    0.860510
  C      3.454160   -1.359590    0.028620
  C      4.224170   -2.219880   -1.006950
  F      5.038910   -3.097500   -0.401890
  O      3.534660   -0.128340   -0.073400
  F      4.973100   -1.493340   -1.838140
  F      3.367080   -2.929020   -1.761050

 Total Charge           Charge          ....    0
 Multiplicity           Mult            ....    1
 Number of Electrons    NEL             ....   82
 Basis Dimension        Dim             ....  166

ORBITAL ENERGIES
----------------

  NO   OCC          E(Eh)            E(eV)
   0   2.0000     -25.090947      -682.7594
   1   2.0000     -25.089417      -682.7177
   2   2.0000     -25.089075      -682.7084
   3   2.0000     -19.444244      -529.1048
   4   2.0000     -19.433827      -528.8213
   5   2.0000     -14.761694      -401.6861
   6   2.0000     -10.651074      -289.8304
   7   2.0000     -10.537116      -286.7295
   8   2.0000     -10.531561      -286.5783
   9   2.0000     -10.463945      -284.7384
  10   2.0000      -1.403576       -38.1932
  11   2.0000      -1.309269       -35.6270
  12   2.0000      -1.308293       -35.6005
  13   2.0000      -1.142860       -31.0988
  14   2.0000      -1.117230       -30.4014
  15   2.0000      -1.046594       -28.4793
  16   2.0000      -0.891614       -24.2620
  17   2.0000      -0.774711       -21.0810
  18   2.0000      -0.755835       -20.5673
  19   2.0000      -0.674700       -18.3595
  20   2.0000      -0.668631       -18.1944
  21   2.0000      -0.653352       -17.7786
  22   2.0000      -0.627255       -17.0685
  23   2.0000      -0.624710       -16.9992
  24   2.0000      -0.587085       -15.9754
  25   2.0000      -0.541867       -14.7450
  26   2.0000      -0.527211       -14.3461
  27   2.0000      -0.505800       -13.7635
  28   2.0000      -0.503844       -13.7103
  29   2.0000      -0.482570       -13.1314
  30   2.0000      -0.475536       -12.9400
  31   2.0000      -0.472204       -12.8493
  32   2.0000      -0.467762       -12.7284
  33   2.0000      -0.457872       -12.4593
  34   2.0000      -0.454433       -12.3658
  35   2.0000      -0.446061       -12.1379
  36   2.0000      -0.441283       -12.0079
  37   2.0000      -0.433610       -11.7991
  38   2.0000      -0.306613        -8.3434
  39   2.0000      -0.300884        -8.1875
  40   2.0000      -0.291538        -7.9331
  41   0.0000       0.059863         1.6289
  42   0.0000       0.083624         2.2755
  43   0.0000       0.112823         3.0701
  44   0.0000       0.127499         3.4694
  45   0.0000       0.152051         4.1375

MULLIKEN ATOMIC CHARGES
-----------------------
   0 C :   -0.657434
   1 C :   -0.328764
   2 N :   -0.806886
   3 H :    0.426762
   4 H :    0.405412
   5 H :    0.474090
   6 H :    0.248912
   7 H :    0.267276
   8 H :    0.245080
   9 H :    0.279985
  10 H :    0.242322
  11 O :   -0.589173
  12 C :    0.300643
  13 C :    0.945069
  14 F :   -0.315127
  15 O :   -0.518148
  16 F :   -0.299793
  17 F :   -0.320226
Sum of atomic charges:   -0.0000000

LOEWDIN ATOMIC CHARGES
----------------------
   0 C :   -0.369182
   1 C :   -0.153382
   2 N :   -0.259410
   3 H :    0.291414
   4 H :    0.276977
   5 H :    0.305886
   6 H :    0.132802
   7 H :    0.144020
   8 H :    0.144658
   9 H :    0.159916
  10 H :    0.143803
  11 O :   -0.388073
  12 C :    0.004551
  13 C :    0.307681
  14 F :   -0.135263
  15 O :   -0.342258
  16 F :   -0.123973
  17 F :   -0.140169

  Mayer bond orders larger than 0.100000
B(  0-C ,  1-C ) :   0.9925 B(  0-C ,  8-H ) :   0.9125 B(  0-C ,  9-H ) :   0.8935
B(  0-C , 10-H ) :   0.9134 B(  1-C ,  2-N ) :   0.8930 B(  1-C ,  6-H ) :   0.9074
B(  1-C ,  7-H ) :   0.8999 B(  2-N ,  3-H ) :   0.7740 B(  2-N ,  4-H ) :   0.8115
B(  2-N ,  5-H ) :   0.5118 B(  5-H , 11-O ) :   0.2904 B( 11-O , 12-C ) :   1.5302
B( 11-O , 15-O ) :   0.1398 B( 12-C , 13-C ) :   0.8541 B( 12-C , 15-O ) :   1.8338
B( 13-C , 14-F ) :   1.0048 B( 13-C , 16-F ) :   1.0373 B( 13-C , 17-F ) :   0.9981

Dispersion correction           -0.008105997
FINAL SINGLE POINT ENERGY      -660.648594002336

DIPOLE MOMENT
-------------
                                X             Y             Z
Electronic contribution:     19.22439     -11.23939     -10.57517
Nuclear contribution   :    -22.10152      12.99123      12.96156
                        -----------------------------------------
Total Dipole Moment    :     -2.87712       1.75184       2.38639
                        -----------------------------------------
Magnitude (a.u.)       :      4.12815
Magnitude (Debye)      :     10.49293

Rotational constants in cm-1:     0.083220     0.019787     0.019342
Rotational constants in MHz :  2494.866951   593.207536   579.849805

                             ****ORCA TERMINATED NORMALLY****
TOTAL RUN TIME: 0 days 0 hours 1 minutes 36 seconds 745 msec
