                         Program Version 5.0.3 -  RELEASE  -
|  1> ! PBEh-3c def2/J TightSCF DefGrid3
|  2>
|  3> %maxcore 60000
|  4>
|  5> %pal
|  6> nprocs 4
|  7> end
|  8>
|  9> *xyzfile 0 1 48A.xyz
| 10>
| 11>                          ****END OF INPUT****

CARTESIAN COORDINATES (ANGSTROEM)
---------------------------------
  N      0.000000    0.000000    1.611512
  C     -1.142007    0.000000    0.909678
  H     -2.055749    0.000000    1.491001
  C     -1.194438    0.000000   -0.482175
  H     -2.149499    0.000000   -0.987877
  C      0.000000    0.000000   -1.195732
  H      0.000000    0.000000   -2.276929
  C      1.194438    0.000000   -0.482175
  H      2.149499    0.000000   -0.987877
  C      1.142007    0.000000    0.909678
  H      2.055749    0.000000    1.491001

 Total Charge           Charge          ....    0
 Multiplicity           Mult            ....    1
 Number of Electrons    NEL             ....   42
 Basis Dimension        Dim             ....  100

ORBITAL ENERGIES
----------------

  NO   OCC          E(Eh)            E(eV)
   0   2.0000     -14.640504      -398.3884
   1   2.0000     -10.483294      -285.2649
   2   2.0000     -10.483263      -285.2641
   3   2.0000     -10.471155      -284.9346
   4   2.0000     -10.459398      -284.6147
   5   2.0000     -10.459387      -284.6144
   6   2.0000      -1.046288       -28.4709
   7   2.0000      -0.901984       -24.5442
   8   2.0000      -0.854803       -23.2604
   9   2.0000      -0.709945       -19.3186
  10   2.0000      -0.709644       -19.3104
  11   2.0000      -0.601261       -16.3611
  12   2.0000      -0.547170       -14.8892
  13   2.0000      -0.537645       -14.6301
  14   2.0000      -0.492237       -13.3944
  15   2.0000      -0.468126       -12.7384
  16   2.0000      -0.456139       -12.4122
  17   2.0000      -0.421956       -11.4820
  18   2.0000      -0.333535        -9.0760
  19   2.0000      -0.314087        -8.5467
  20   2.0000      -0.306147        -8.3307
  21   0.0000      -0.004753        -0.1293
  22   0.0000       0.008741         0.2379
  23   0.0000       0.144879         3.9424
  24   0.0000       0.181965         4.9515
  25   0.0000       0.195944         5.3319

MULLIKEN ATOMIC CHARGES
-----------------------
   0 N :   -0.360244
   1 C :   -0.038200
   2 H :    0.233379
   3 C :   -0.297796
   4 H :    0.232158
   5 C :   -0.133840
   6 H :    0.235002
   7 C :   -0.297796
   8 H :    0.232158
   9 C :   -0.038199
  10 H :    0.233379
Sum of atomic charges:   -0.0000000

LOEWDIN ATOMIC CHARGES
----------------------
   0 N :   -0.139906
   1 C :   -0.056424
   2 H :    0.130301
   3 C :   -0.164634
   4 H :    0.142028
   5 C :   -0.103654
   6 H :    0.141019
   7 C :   -0.164634
   8 H :    0.142028
   9 C :   -0.056424
  10 H :    0.130301

  Mayer bond orders larger than 0.100000
B(  0-N ,  1-C ) :   1.4976 B(  0-N ,  9-C ) :   1.4976 B(  1-C ,  2-H ) :   0.9172
B(  1-C ,  3-C ) :   1.3824 B(  3-C ,  4-H ) :   0.9130 B(  3-C ,  5-C ) :   1.4138
B(  5-C ,  6-H ) :   0.9183 B(  5-C ,  7-C ) :   1.4138 B(  7-C ,  8-H ) :   0.9130
B(  7-C ,  9-C ) :   1.3824 B(  9-C , 10-H ) :   0.9172

Dispersion correction           -0.005321861
FINAL SINGLE POINT ENERGY      -247.729326068662

DIPOLE MOMENT
-------------
                                X             Y             Z
Electronic contribution:     -0.00000      -0.00000       1.32949
Nuclear contribution   :     -0.00000       0.00000      -2.20439
                        -----------------------------------------
Total Dipole Moment    :     -0.00000      -0.00000      -0.87490
                        -----------------------------------------
Magnitude (a.u.)       :      0.87490
Magnitude (Debye)      :      2.22381

Rotational constants in cm-1:     0.202045     0.193883     0.098940
Rotational constants in MHz :  6057.149579  5812.451931  2966.139237

                             ****ORCA TERMINATED NORMALLY****
TOTAL RUN TIME: 0 days 0 hours 1 minutes 24 seconds 903 msec
