                         Program Version 5.0.3 -  RELEASE  -
|  1> ! PBEh-3c def2/J TightSCF DefGrid3
|  2>
|  3> %maxcore 60000
|  4>
|  5> %pal
|  6> nprocs 4
|  7> end
|  8>
|  9> *xyzfile 0 1 16.xyz
| 10>
| 11>                          ****END OF INPUT****

CARTESIAN COORDINATES (ANGSTROEM)
---------------------------------
  N      0.054981   -2.125600    0.000000
  P      0.054981    1.199491    0.000000
  H     -0.486227   -2.979761    0.000000
  H     -0.385796    2.549904    0.000000
  H      0.655523   -2.146483    0.813431
  H     -0.824297    0.804827    1.035743
  H      0.655523   -2.146483   -0.813431
  H     -0.824297    0.804827   -1.035743

 Total Charge           Charge          ....    0
 Multiplicity           Mult            ....    1
 Number of Electrons    NEL             ....   28
 Basis Dimension        Dim             ....   45

ORBITAL ENERGIES
----------------

  NO   OCC          E(Eh)            E(eV)
   0   2.0000     -77.710624     -2114.6136
   1   2.0000     -14.602590      -397.3567
   2   2.0000      -6.790399      -184.7761
   3   2.0000      -4.880594      -132.8077
   4   2.0000      -4.880569      -132.8070
   5   2.0000      -4.878736      -132.7572
   6   2.0000      -0.940044       -25.5799
   7   2.0000      -0.698432       -19.0053
   8   2.0000      -0.518224       -14.1016
   9   2.0000      -0.516754       -14.0616
  10   2.0000      -0.417962       -11.3733
  11   2.0000      -0.417800       -11.3689
  12   2.0000      -0.313561        -8.5324
  13   2.0000      -0.295367        -8.0374
  14   0.0000       0.088882         2.4186
  15   0.0000       0.091269         2.4835
  16   0.0000       0.140065         3.8114
  17   0.0000       0.187406         5.0996
  18   0.0000       0.223097         6.0708

MULLIKEN ATOMIC CHARGES
-----------------------
   0 N :   -0.948327
   1 P :   -0.261096
   2 H :    0.320902
   3 H :    0.063121
   4 H :    0.322937
   5 H :    0.089762
   6 H :    0.322937
   7 H :    0.089762
Sum of atomic charges:    0.0000000

LOEWDIN ATOMIC CHARGES
----------------------
   0 N :   -0.644353
   1 P :   -0.098242
   2 H :    0.218498
   3 H :    0.014286
   4 H :    0.220733
   5 H :    0.034173
   6 H :    0.220733
   7 H :    0.034173

  Mayer bond orders larger than 0.100000
B(  0-N ,  2-H ) :   0.8750 B(  0-N ,  4-H ) :   0.8746 B(  0-N ,  6-H ) :   0.8746
B(  1-P ,  3-H ) :   0.9554 B(  1-P ,  5-H ) :   0.9639 B(  1-P ,  7-H ) :   0.9639

Dispersion correction           -0.001892206
FINAL SINGLE POINT ENERGY      -399.163847283770

DIPOLE MOMENT
-------------
                                X             Y             Z
Electronic contribution:      1.32417       3.70387       0.00000
Nuclear contribution   :     -1.30011      -4.39824       0.00000
                        -----------------------------------------
Total Dipole Moment    :      0.02406      -0.69437       0.00000
                        -----------------------------------------
Magnitude (a.u.)       :      0.69478
Magnitude (Debye)      :      1.76600

Rotational constants in cm-1:     2.746552     0.123657     0.122886
Rotational constants in MHz : 82339.545922  3707.133379  3684.015107

                             ****ORCA TERMINATED NORMALLY****
TOTAL RUN TIME: 0 days 0 hours 0 minutes 35 seconds 212 msec
