                         Program Version 5.0.3 -  RELEASE  -
|  1> ! PBEh-3c def2/J TightSCF DefGrid3
|  2>
|  3> %maxcore 60000
|  4>
|  5> %pal
|  6> nprocs 4
|  7> end
|  8>
|  9> *xyzfile 0 1 E26.xyz
| 10>
| 11>                          ****END OF INPUT****

CARTESIAN COORDINATES (ANGSTROEM)
---------------------------------
  C     -0.695117   -1.203977   -0.039900
  N      0.000000    0.000000   -0.465121
  C     -0.695117    1.203977   -0.039900
  C      1.390233    0.000000   -0.039900
  H     -1.714003   -1.202036   -0.432752
  H     -0.752924   -1.304102    1.060445
  H     -0.183992   -2.085388   -0.432752
  H     -1.714003    1.202036   -0.432752
  H     -0.183992    2.085388   -0.432752
  H     -0.752924    1.304102    1.060445
  H      1.897995   -0.883352   -0.432752
  H      1.897995    0.883352   -0.432752
  H      1.505847    0.000000    1.060445

 Total Charge           Charge          ....    0
 Multiplicity           Mult            ....    1
 Number of Electrons    NEL             ....   34
 Basis Dimension        Dim             ....   78

ORBITAL ENERGIES
----------------

  NO   OCC          E(Eh)            E(eV)
   0   2.0000     -14.623023      -397.9127
   1   2.0000     -10.448053      -284.3060
   2   2.0000     -10.448053      -284.3060
   3   2.0000     -10.447978      -284.3039
   4   2.0000      -1.013181       -27.5701
   5   2.0000      -0.782280       -21.2869
   6   2.0000      -0.782279       -21.2869
   7   2.0000      -0.658764       -17.9259
   8   2.0000      -0.522091       -14.2068
   9   2.0000      -0.521557       -14.1923
  10   2.0000      -0.521557       -14.1923
  11   2.0000      -0.442316       -12.0360
  12   2.0000      -0.442315       -12.0360
  13   2.0000      -0.417782       -11.3684
  14   2.0000      -0.408184       -11.1073
  15   2.0000      -0.408184       -11.1073
  16   2.0000      -0.255789        -6.9604
  17   0.0000       0.126531         3.4431
  18   0.0000       0.194721         5.2986
  19   0.0000       0.194722         5.2987
  20   0.0000       0.205771         5.5993
  21   0.0000       0.210026         5.7151

MULLIKEN ATOMIC CHARGES
-----------------------
   0 C :   -0.486392
   1 N :   -0.375683
   2 C :   -0.486393
   3 C :   -0.486364
   4 H :    0.217645
   5 H :    0.176332
   6 H :    0.217639
   7 H :    0.217645
   8 H :    0.217639
   9 H :    0.176332
  10 H :    0.217627
  11 H :    0.217627
  12 H :    0.176345
Sum of atomic charges:   -0.0000000

LOEWDIN ATOMIC CHARGES
----------------------
   0 C :   -0.258061
   1 N :   -0.235042
   2 C :   -0.258061
   3 C :   -0.258055
   4 H :    0.121615
   5 H :    0.093179
   6 H :    0.121614
   7 H :    0.121615
   8 H :    0.121614
   9 H :    0.093179
  10 H :    0.121611
  11 H :    0.121611
  12 H :    0.093183

  Mayer bond orders larger than 0.100000
B(  0-C ,  1-N ) :   0.9985 B(  0-C ,  4-H ) :   0.9279 B(  0-C ,  5-H ) :   0.9057
B(  0-C ,  6-H ) :   0.9279 B(  1-N ,  2-C ) :   0.9985 B(  1-N ,  3-C ) :   0.9985
B(  2-C ,  7-H ) :   0.9279 B(  2-C ,  8-H ) :   0.9279 B(  2-C ,  9-H ) :   0.9057
B(  3-C , 10-H ) :   0.9279 B(  3-C , 11-H ) :   0.9279 B(  3-C , 12-H ) :   0.9057

Dispersion correction           -0.004839123
FINAL SINGLE POINT ENERGY      -174.087276859499

DIPOLE MOMENT
-------------
                                X             Y             Z
Electronic contribution:     -0.00000       0.00000      -1.34087
Nuclear contribution   :     -0.00000       0.00000       1.59855
                        -----------------------------------------
Total Dipole Moment    :     -0.00000       0.00000       0.25768
                        -----------------------------------------
Magnitude (a.u.)       :      0.25768
Magnitude (Debye)      :      0.65497

Rotational constants in cm-1:     0.289616     0.289616     0.163656
Rotational constants in MHz :  8682.466369  8682.466360  4906.290166

                             ****ORCA TERMINATED NORMALLY****
TOTAL RUN TIME: 0 days 0 hours 1 minutes 17 seconds 457 msec
