                         Program Version 5.0.3 -  RELEASE  -
|  1> ! PBEh-3c def2/J TightSCF DefGrid3
|  2>
|  3> %maxcore 60000
|  4>
|  5> %pal
|  6> nprocs 4
|  7> end
|  8>
|  9> *xyzfile 0 1 ts7.xyz
| 10>
| 11>                          ****END OF INPUT****

CARTESIAN COORDINATES (ANGSTROEM)
---------------------------------
  C     -2.102968    0.156162   -0.163745
  Si    -0.237042    0.155549   -0.188821
  C      0.516538    1.852069   -0.198657
  C      0.275700   -1.000849   -1.563518
  B      1.244656   -0.916122    1.720983
  Cl    -0.407258   -0.188670    2.351466
  Cl     1.188225   -2.713785    1.726095
  Cl     2.647717   -0.132042    2.511755
  H      1.329832   -0.894618   -1.822741
  H      0.249499    2.361108   -1.128831
  H     -2.517187    0.885000    0.532018
  H     -2.467355    0.394270   -1.168144
  H     -2.505189   -0.822946    0.100078
  H     -0.323452   -0.825804   -2.460625
  H      0.120740   -2.041828   -1.270264
  H      1.604134    1.823669   -0.132029
  H      0.148000    2.458537    0.628393
  H      1.235411   -0.549699    0.526591

 Total Charge           Charge          ....    0
 Multiplicity           Mult            ....    1
 Number of Electrons    NEL             ....   98
 Basis Dimension        Dim             ....  152

ORBITAL ENERGIES
----------------

  NO   OCC          E(Eh)            E(eV)
   0   2.0000    -102.310198     -2784.0020
   1   2.0000    -102.276768     -2783.0924
   2   2.0000    -102.276684     -2783.0901
   3   2.0000     -66.816298     -1818.1639
   4   2.0000     -10.449163      -284.3362
   5   2.0000     -10.445127      -284.2264
   6   2.0000     -10.444812      -284.2178
   7   2.0000      -9.777120      -266.0490
   8   2.0000      -9.744291      -265.1556
   9   2.0000      -9.744256      -265.1547
  10   2.0000      -7.461884      -203.0482
  11   2.0000      -7.459024      -202.9704
  12   2.0000      -7.456938      -202.9136
  13   2.0000      -7.430295      -202.1886
  14   2.0000      -7.430279      -202.1882
  15   2.0000      -7.424647      -202.0349
  16   2.0000      -7.424627      -202.0344
  17   2.0000      -7.424556      -202.0324
  18   2.0000      -7.424515      -202.0313
  19   2.0000      -7.066929      -192.3009
  20   2.0000      -5.583366      -151.9311
  21   2.0000      -3.879037      -105.5540
  22   2.0000      -3.872262      -105.3696
  23   2.0000      -3.872090      -105.3649
  24   2.0000      -0.950551       -25.8658
  25   2.0000      -0.899948       -24.4888
  26   2.0000      -0.883954       -24.0536
  27   2.0000      -0.835335       -22.7306
  28   2.0000      -0.797956       -21.7135
  29   2.0000      -0.792102       -21.5542
  30   2.0000      -0.631806       -17.1923
  31   2.0000      -0.553166       -15.0524
  32   2.0000      -0.517024       -14.0690
  33   2.0000      -0.499201       -13.5840
  34   2.0000      -0.497169       -13.5287
  35   2.0000      -0.486272       -13.2321
  36   2.0000      -0.477454       -12.9922
  37   2.0000      -0.467883       -12.7317
  38   2.0000      -0.465414       -12.6646
  39   2.0000      -0.461533       -12.5589
  40   2.0000      -0.456976       -12.4349
  41   2.0000      -0.412422       -11.2226
  42   2.0000      -0.400581       -10.9004
  43   2.0000      -0.381768       -10.3884
  44   2.0000      -0.374022       -10.1777
  45   2.0000      -0.352570        -9.5939
  46   2.0000      -0.349144        -9.5007
  47   2.0000      -0.334760        -9.1093
  48   2.0000      -0.330687        -8.9984
  49   0.0000      -0.029451        -0.8014
  50   0.0000       0.081619         2.2210
  51   0.0000       0.086472         2.3530
  52   0.0000       0.104196         2.8353
  53   0.0000       0.106999         2.9116

MULLIKEN ATOMIC CHARGES
-----------------------
   0 C :   -0.926516
   1 Si:    0.918926
   2 C :   -0.940226
   3 C :   -0.943302
   4 B :    0.241191
   5 Cl:   -0.237839
   6 Cl:   -0.211066
   7 Cl:   -0.206773
   8 H :    0.259542
   9 H :    0.246662
  10 H :    0.257216
  11 H :    0.237215
  12 H :    0.266987
  13 H :    0.245221
  14 H :    0.278113
  15 H :    0.271124
  16 H :    0.270988
  17 H :   -0.027465
Sum of atomic charges:    0.0000000

LOEWDIN ATOMIC CHARGES
----------------------
   0 C :   -0.566655
   1 Si:    0.634350
   2 C :   -0.558122
   3 C :   -0.565589
   4 B :   -0.408526
   5 Cl:    0.018557
   6 Cl:   -0.008953
   7 Cl:    0.005984
   8 H :    0.156128
   9 H :    0.158326
  10 H :    0.154675
  11 H :    0.150801
  12 H :    0.162230
  13 H :    0.152516
  14 H :    0.167224
  15 H :    0.164401
  16 H :    0.164754
  17 H :    0.017901

  Mayer bond orders larger than 0.100000
B(  0-C ,  1-Si) :   0.9817 B(  0-C , 10-H ) :   0.9035 B(  0-C , 11-H ) :   0.8941
B(  0-C , 12-H ) :   0.8964 B(  1-Si,  2-C ) :   0.9839 B(  1-Si,  3-C ) :   0.9799
B(  1-Si,  4-B ) :   0.1419 B(  1-Si,  5-Cl) :   0.3627 B(  1-Si, 17-H ) :   0.2888
B(  2-C ,  9-H ) :   0.8967 B(  2-C , 15-H ) :   0.8955 B(  2-C , 16-H ) :   0.8948
B(  3-C ,  8-H ) :   0.8999 B(  3-C , 13-H ) :   0.9004 B(  3-C , 14-H ) :   0.8838
B(  4-B ,  5-Cl) :   0.7412 B(  4-B ,  6-Cl) :   1.1065 B(  4-B ,  7-Cl) :   1.1313
B(  4-B , 17-H ) :   0.6532

Dispersion correction           -0.011648070
FINAL SINGLE POINT ENERGY     -1813.239956123434

DIPOLE MOMENT
-------------
                                X             Y             Z
Electronic contribution:      9.96464      -8.73765      19.34600
Nuclear contribution   :    -11.05987       9.70297     -21.11031
                        -----------------------------------------
Total Dipole Moment    :     -1.09523       0.96532      -1.76431
                        -----------------------------------------
Magnitude (a.u.)       :      2.29001
Magnitude (Debye)      :      5.82075

Rotational constants in cm-1:     0.039243     0.022648     0.020561
Rotational constants in MHz :  1176.472348   678.959524   616.395622

                             ****ORCA TERMINATED NORMALLY****
TOTAL RUN TIME: 0 days 0 hours 1 minutes 44 seconds 537 msec
