                         Program Version 5.0.3 -  RELEASE  -
|  1> ! PBEh-3c def2/J TightSCF DefGrid3
|  2>
|  3> %maxcore 60000
|  4>
|  5> %pal
|  6> nprocs 4
|  7> end
|  8>
|  9> *xyzfile 0 1 59A.xyz
| 10>
| 11>                          ****END OF INPUT****

CARTESIAN COORDINATES (ANGSTROEM)
---------------------------------
  C      0.000000    0.000000    0.604994
  H      0.000000    0.000000    1.671581
  C      0.000000    0.000000   -0.604994
  H      0.000000    0.000000   -1.671581

 Total Charge           Charge          ....    0
 Multiplicity           Mult            ....    1
 Number of Electrons    NEL             ....   14
 Basis Dimension        Dim             ....   34

ORBITAL ENERGIES
----------------

  NO   OCC          E(Eh)            E(eV)
   0   2.0000     -10.458775      -284.5977
   1   2.0000     -10.456379      -284.5326
   2   2.0000      -0.840225       -22.8637
   3   2.0000      -0.637871       -17.3574
   4   2.0000      -0.559066       -15.2130
   5   2.0000      -0.338088        -9.1998
   6   2.0000      -0.338088        -9.1998
   7   0.0000       0.068962         1.8766
   8   0.0000       0.068962         1.8766
   9   0.0000       0.159359         4.3364
  10   0.0000       0.207250         5.6396
  11   0.0000       0.425483        11.5780

MULLIKEN ATOMIC CHARGES
-----------------------
   0 C :   -0.238148
   1 H :    0.238148
   2 C :   -0.238148
   3 H :    0.238148
Sum of atomic charges:   -0.0000000

LOEWDIN ATOMIC CHARGES
----------------------
   0 C :   -0.163820
   1 H :    0.163820
   2 C :   -0.163820
   3 H :    0.163820

  Mayer bond orders larger than 0.100000
B(  0-C ,  1-H ) :   0.9277 B(  0-C ,  2-C ) :   2.8366 B(  2-C ,  3-H ) :   0.9277

Dispersion correction           -0.000697780
FINAL SINGLE POINT ENERGY       -77.142231722126

DIPOLE MOMENT
-------------
                                X             Y             Z
Electronic contribution:      0.00000      -0.00000       0.00000
Nuclear contribution   :      0.00000       0.00000      -0.00000
                        -----------------------------------------
Total Dipole Moment    :      0.00000      -0.00000       0.00000
                        -----------------------------------------
Magnitude (a.u.)       :      0.00000
Magnitude (Debye)      :      0.00000

Rotational constants in cm-1:     0.000000     1.168596     1.168596
Rotational constants in MHz :     0.000000 35033.640557 35033.640557

                             ****ORCA TERMINATED NORMALLY****
TOTAL RUN TIME: 0 days 0 hours 0 minutes 50 seconds 272 msec
