                         Program Version 5.0.3 -  RELEASE  -
|  1> ! PBEh-3c def2/J TightSCF DefGrid3
|  2>
|  3> %maxcore 60000
|  4>
|  5> %pal
|  6> nprocs 4
|  7> end
|  8>
|  9> *xyzfile 0 1 Cis-triscyclopropacyclohexane.xyz
| 10>
| 11>                          ****END OF INPUT****

CARTESIAN COORDINATES (ANGSTROEM)
---------------------------------
  H     -0.329017    0.369177   -2.601728
  C     -0.329017    0.369177   -1.514206
  C      0.882729    0.369177    1.731613
  C     -0.394204    1.732693   -0.869691
  H      1.665627    1.347474   -1.556771
  H     -0.937107    1.841314    0.064922
  H     -0.478906    2.599873   -1.519868
  C      0.913507    0.978587   -0.863270
  C      1.514457    0.336889    0.360955
  H     -0.321588   -2.611500    0.300304
  C     -0.342790   -1.524235    0.310753
  H      1.540514    0.443525    2.593992
  C     -1.719186   -0.906962    0.368519
  H     -1.300494   -1.566220   -1.693872
  H     -1.851318    0.020003    0.919263
  H     -2.574312   -1.574640    0.438311
  C     -0.952580   -0.873098   -0.931480
  H      2.601875    0.347743    0.350506
  H     -0.056046    0.900514    1.859772
  C      0.881722   -0.923657    0.952252
  H      1.586135   -1.675835    1.299725

 Total Charge           Charge          ....    0
 Multiplicity           Mult            ....    1
 Number of Electrons    NEL             ....   66
 Basis Dimension        Dim             ....  159

ORBITAL ENERGIES
----------------

  NO   OCC          E(Eh)            E(eV)
   0   2.0000     -10.444854      -284.2189
   1   2.0000     -10.444854      -284.2189
   2   2.0000     -10.444810      -284.2177
   3   2.0000     -10.444569      -284.2112
   4   2.0000     -10.444569      -284.2112
   5   2.0000     -10.444426      -284.2073
   6   2.0000     -10.434048      -283.9249
   7   2.0000     -10.434048      -283.9249
   8   2.0000     -10.433977      -283.9230
   9   2.0000      -0.985861       -26.8267
  10   2.0000      -0.922008       -25.0891
  11   2.0000      -0.922007       -25.0891
  12   2.0000      -0.722520       -19.6608
  13   2.0000      -0.722520       -19.6608
  14   2.0000      -0.709694       -19.3117
  15   2.0000      -0.629319       -17.1247
  16   2.0000      -0.629319       -17.1246
  17   2.0000      -0.592354       -16.1188
  18   2.0000      -0.549388       -14.9496
  19   2.0000      -0.547384       -14.8951
  20   2.0000      -0.525424       -14.2975
  21   2.0000      -0.525424       -14.2975
  22   2.0000      -0.437121       -11.8947
  23   2.0000      -0.437120       -11.8947
  24   2.0000      -0.430802       -11.7227
  25   2.0000      -0.399458       -10.8698
  26   2.0000      -0.397993       -10.8300
  27   2.0000      -0.397993       -10.8299
  28   2.0000      -0.368027       -10.0145
  29   2.0000      -0.368026       -10.0145
  30   2.0000      -0.300937        -8.1889
  31   2.0000      -0.287110        -7.8127
  32   2.0000      -0.287110        -7.8126
  33   0.0000       0.106899         2.9089
  34   0.0000       0.132621         3.6088
  35   0.0000       0.146074         3.9749
  36   0.0000       0.146074         3.9749
  37   0.0000       0.165885         4.5140

MULLIKEN ATOMIC CHARGES
-----------------------
   0 H :    0.228613
   1 C :   -0.231333
   2 C :   -0.447393
   3 C :   -0.447395
   4 H :    0.228611
   5 H :    0.217930
   6 H :    0.234895
   7 C :   -0.231325
   8 C :   -0.231331
   9 H :    0.228610
  10 C :   -0.231331
  11 H :    0.234895
  12 C :   -0.447399
  13 H :    0.228613
  14 H :    0.217932
  15 H :    0.234897
  16 C :   -0.231320
  17 H :    0.228610
  18 H :    0.217930
  19 C :   -0.231321
  20 H :    0.228613
Sum of atomic charges:   -0.0000000

LOEWDIN ATOMIC CHARGES
----------------------
   0 H :    0.136411
   1 C :   -0.144447
   2 C :   -0.247838
   3 C :   -0.247838
   4 H :    0.136411
   5 H :    0.128895
   6 H :    0.135010
   7 C :   -0.144443
   8 C :   -0.144446
   9 H :    0.136410
  10 C :   -0.144446
  11 H :    0.135010
  12 C :   -0.247838
  13 H :    0.136412
  14 H :    0.128895
  15 H :    0.135010
  16 C :   -0.144443
  17 H :    0.136410
  18 H :    0.128895
  19 C :   -0.144442
  20 H :    0.136411

  Mayer bond orders larger than 0.100000
B(  0-H ,  1-C ) :   0.9195 B(  1-C ,  3-C ) :   0.9282 B(  1-C ,  7-C ) :   0.9121
B(  1-C , 16-C ) :   1.0201 B(  2-C ,  8-C ) :   0.9282 B(  2-C , 11-H ) :   0.9211
B(  2-C , 18-H ) :   0.9210 B(  2-C , 19-C ) :   0.9282 B(  3-C ,  5-H ) :   0.9210
B(  3-C ,  6-H ) :   0.9211 B(  3-C ,  7-C ) :   0.9282 B(  4-H ,  7-C ) :   0.9195
B(  7-C ,  8-C ) :   1.0201 B(  8-C , 17-H ) :   0.9195 B(  8-C , 19-C ) :   0.9121
B(  9-H , 10-C ) :   0.9195 B( 10-C , 12-C ) :   0.9282 B( 10-C , 16-C ) :   0.9121
B( 10-C , 19-C ) :   1.0201 B( 12-C , 14-H ) :   0.9210 B( 12-C , 15-H ) :   0.9211
B( 12-C , 16-C ) :   0.9282 B( 13-H , 16-C ) :   0.9195 B( 19-C , 20-H ) :   0.9195

Dispersion correction           -0.011999258
FINAL SINGLE POINT ENERGY      -349.324130820214

DIPOLE MOMENT
-------------
                                X             Y             Z
Electronic contribution:      0.99281      -0.96398      -0.99263
Nuclear contribution   :     -0.89508       0.86908       0.89492
                        -----------------------------------------
Total Dipole Moment    :      0.09773      -0.09491      -0.09772
                        -----------------------------------------
Magnitude (a.u.)       :      0.16765
Magnitude (Debye)      :      0.42613

Rotational constants in cm-1:     0.073536     0.073536     0.047488
Rotational constants in MHz :  2204.568381  2204.567356  1423.654149

                             ****ORCA TERMINATED NORMALLY****
TOTAL RUN TIME: 0 days 0 hours 2 minutes 3 seconds 191 msec
