                         Program Version 5.0.3 -  RELEASE  -
|  1> ! PBEh-3c def2/J TightSCF DefGrid3
|  2>
|  3> %maxcore 60000
|  4>
|  5> %pal
|  6> nprocs 4
|  7> end
|  8>
|  9> *xyzfile 0 2 n2ohts.xyz
| 10>
| 11>                          ****END OF INPUT****

CARTESIAN COORDINATES (ANGSTROEM)
---------------------------------
  H     -0.269045   -1.539187    0.000000
  O     -0.826769   -0.229998    0.000000
  N      0.034240    0.648553    0.000000
  N      1.061574    1.120632    0.000000

 Total Charge           Charge          ....    0
 Multiplicity           Mult            ....    2
 Number of Electrons    NEL             ....   23
 Basis Dimension        Dim             ....   47

ORBITAL ENERGIES
----------------
                 SPIN UP ORBITALS
  NO   OCC          E(Eh)            E(eV)
   0   1.0000     -19.621532      -533.9290
   1   1.0000     -14.848405      -404.0456
   2   1.0000     -14.741562      -401.1383
   3   1.0000      -1.344962       -36.5983
   4   1.0000      -1.183635       -32.2083
   5   1.0000      -0.724088       -19.7034
   6   1.0000      -0.630034       -17.1441
   7   1.0000      -0.617338       -16.7986
   8   1.0000      -0.552252       -15.0275
   9   1.0000      -0.447313       -12.1720
  10   1.0000      -0.407190       -11.0802
  11   1.0000      -0.250622        -6.8198
  12   0.0000      -0.015540        -0.4229
  13   0.0000       0.013761         0.3744
  14   0.0000       0.218743         5.9523
  15   0.0000       0.482641        13.1333
  16   0.0000       0.667143        18.1539

                 SPIN DOWN ORBITALS
  NO   OCC          E(Eh)            E(eV)
   0   1.0000     -19.621897      -533.9390
   1   1.0000     -14.846293      -403.9882
   2   1.0000     -14.732867      -400.9017
   3   1.0000      -1.337899       -36.4061
   4   1.0000      -1.173368       -31.9290
   5   1.0000      -0.712177       -19.3793
   6   1.0000      -0.614897       -16.7322
   7   1.0000      -0.614555       -16.7229
   8   1.0000      -0.532912       -14.5013
   9   1.0000      -0.421146       -11.4600
  10   1.0000      -0.403905       -10.9908
  11   0.0000      -0.043735        -1.1901
  12   0.0000       0.021717         0.5909
  13   0.0000       0.055514         1.5106
  14   0.0000       0.226268         6.1571
  15   0.0000       0.489426        13.3179

MULLIKEN ATOMIC CHARGES AND SPIN POPULATIONS
--------------------------------------------
   0 H :    0.073148    0.701468
   1 O :   -0.359037   -0.132641
   2 N :    0.374997    0.055542
   3 N :   -0.089109    0.375632
Sum of atomic charges         :   -0.0000000

LOEWDIN ATOMIC CHARGES AND SPIN POPULATIONS
-------------------------------------------
   0 H :    0.066278    0.634939
   1 O :   -0.181042   -0.059432
   2 N :    0.182213    0.091661
   3 N :   -0.067450    0.332833

  Mayer bond orders larger than 0.100000
B(  0-H ,  1-O ) :   0.2851 B(  0-H ,  3-N ) :   0.1020 B(  1-O ,  2-N ) :   1.4848
B(  1-O ,  3-N ) :   0.2847 B(  2-N ,  3-N ) :   2.3833

Dispersion correction           -0.000933618
FINAL SINGLE POINT ENERGY      -184.732774173049

DIPOLE MOMENT
-------------
                                X             Y             Z
Electronic contribution:      0.26312       1.76092      -0.00000
Nuclear contribution   :     -0.29823      -1.85628       0.00000
                        -----------------------------------------
Total Dipole Moment    :     -0.03511      -0.09537      -0.00000
                        -----------------------------------------
Magnitude (a.u.)       :      0.10162
Magnitude (Debye)      :      0.25831

Rotational constants in cm-1:     7.039543     0.396028     0.374935
Rotational constants in MHz : 211040.180489 11872.634971 11240.282538

                             ****ORCA TERMINATED NORMALLY****
TOTAL RUN TIME: 0 days 0 hours 1 minutes 7 seconds 757 msec
