                         Program Version 5.0.3 -  RELEASE  -
|  1> ! PBEh-3c def2/J TightSCF DefGrid3
|  2>
|  3> %maxcore 60000
|  4>
|  5> %pal
|  6> nprocs 4
|  7> end
|  8>
|  9> *xyzfile 0 1 methylcyclohexane.xyz
| 10>
| 11>                          ****END OF INPUT****

CARTESIAN COORDINATES (ANGSTROEM)
---------------------------------
  C     -1.008576   -1.177081   -0.973502
  C      0.526181   -1.201719   -0.961164
  C      1.108013    0.218778   -0.902522
  C      0.567826    1.043617    0.285752
  C     -0.975950    1.030162    0.275631
  C     -1.563490   -0.388237    0.220765
  H      2.208582    0.179054   -0.860761
  H      0.874339   -1.786794   -0.092883
  H      0.906851   -1.723888   -1.853187
  H     -1.354582   -0.705009   -1.910639
  H     -1.409224   -2.203103   -0.975015
  H     -1.360344    1.569291    1.156805
  H     -1.326824    1.590039   -0.609214
  H     -1.330582   -0.928860    1.154126
  H     -2.662087   -0.334157    0.165921
  H      0.851293    0.743229   -1.839980
  C      1.148683    0.582514    1.631452
  H      2.247257    0.644197    1.625787
  H      0.782297    1.215200    2.453790
  H      0.879331   -0.455892    1.871358
  H      0.891005    2.088658    0.137479

 Total Charge           Charge          ....    0
 Multiplicity           Mult            ....    1
 Number of Electrons    NEL             ....   56
 Basis Dimension        Dim             ....  133

ORBITAL ENERGIES
----------------

  NO   OCC          E(Eh)            E(eV)
   0   2.0000     -10.438148      -284.0365
   1   2.0000     -10.428721      -283.7799
   2   2.0000     -10.428554      -283.7754
   3   2.0000     -10.428417      -283.7717
   4   2.0000     -10.428082      -283.7625
   5   2.0000     -10.428015      -283.7607
   6   2.0000     -10.421356      -283.5795
   7   2.0000      -0.920925       -25.0596
   8   2.0000      -0.840968       -22.8839
   9   2.0000      -0.818944       -22.2846
  10   2.0000      -0.751832       -20.4584
  11   2.0000      -0.675418       -18.3791
  12   2.0000      -0.661470       -17.9995
  13   2.0000      -0.589862       -16.0510
  14   2.0000      -0.539262       -14.6741
  15   2.0000      -0.500490       -13.6190
  16   2.0000      -0.499171       -13.5831
  17   2.0000      -0.476977       -12.9792
  18   2.0000      -0.451139       -12.2761
  19   2.0000      -0.448654       -12.2085
  20   2.0000      -0.423065       -11.5122
  21   2.0000      -0.405123       -11.0240
  22   2.0000      -0.401196       -10.9171
  23   2.0000      -0.382397       -10.4055
  24   2.0000      -0.378266       -10.2932
  25   2.0000      -0.350387        -9.5345
  26   2.0000      -0.336232        -9.1493
  27   2.0000      -0.335776        -9.1369
  28   0.0000       0.123798         3.3687
  29   0.0000       0.150043         4.0829
  30   0.0000       0.172713         4.6998
  31   0.0000       0.172852         4.7035
  32   0.0000       0.185953         5.0600

MULLIKEN ATOMIC CHARGES
-----------------------
   0 C :   -0.414525
   1 C :   -0.421136
   2 C :   -0.407949
   3 C :   -0.230801
   4 C :   -0.407910
   5 C :   -0.421165
   6 H :    0.212160
   7 H :    0.202911
   8 H :    0.217421
   9 H :    0.197796
  10 H :    0.215756
  11 H :    0.212106
  12 H :    0.205234
  13 H :    0.202857
  14 H :    0.217481
  15 H :    0.205195
  16 C :   -0.635950
  17 H :    0.214247
  18 H :    0.214225
  19 H :    0.208504
  20 H :    0.213542
Sum of atomic charges:    0.0000000

LOEWDIN ATOMIC CHARGES
----------------------
   0 C :   -0.239238
   1 C :   -0.240609
   2 C :   -0.233217
   3 C :   -0.155851
   4 C :   -0.233198
   5 C :   -0.240617
   6 H :    0.121797
   7 H :    0.117843
   8 H :    0.123879
   9 H :    0.117087
  10 H :    0.122646
  11 H :    0.121781
  12 H :    0.119753
  13 H :    0.117818
  14 H :    0.123884
  15 H :    0.119734
  16 C :   -0.356870
  17 H :    0.125402
  18 H :    0.125401
  19 H :    0.121389
  20 H :    0.121187

  Mayer bond orders larger than 0.100000
B(  0-C ,  1-C ) :   0.9820 B(  0-C ,  5-C ) :   0.9820 B(  0-C ,  9-H ) :   0.9194
B(  0-C , 10-H ) :   0.9271 B(  1-C ,  2-C ) :   0.9787 B(  1-C ,  7-H ) :   0.9175
B(  1-C ,  8-H ) :   0.9257 B(  2-C ,  3-C ) :   0.9731 B(  2-C ,  6-H ) :   0.9263
B(  2-C , 15-H ) :   0.9220 B(  3-C ,  4-C ) :   0.9731 B(  3-C , 16-C ) :   0.9813
B(  3-C , 20-H ) :   0.9183 B(  4-C ,  5-C ) :   0.9787 B(  4-C , 11-H ) :   0.9263
B(  4-C , 12-H ) :   0.9220 B(  5-C , 13-H ) :   0.9175 B(  5-C , 14-H ) :   0.9257
B( 16-C , 17-H ) :   0.9302 B( 16-C , 18-H ) :   0.9302 B( 16-C , 19-H ) :   0.9243

Dispersion correction           -0.011210533
FINAL SINGLE POINT ENERGY      -274.591955251365

DIPOLE MOMENT
-------------
                                X             Y             Z
Electronic contribution:     -0.47781       0.27945      -1.03804
Nuclear contribution   :      0.47553      -0.26036       1.02085
                        -----------------------------------------
Total Dipole Moment    :     -0.00228       0.01909      -0.01719
                        -----------------------------------------
Magnitude (a.u.)       :      0.02579
Magnitude (Debye)      :      0.06555

Rotational constants in cm-1:     0.116171     0.083342     0.063306
Rotational constants in MHz :  3482.724492  2498.542248  1897.869400

                             ****ORCA TERMINATED NORMALLY****
TOTAL RUN TIME: 0 days 0 hours 1 minutes 49 seconds 27 msec
