                         Program Version 5.0.3 -  RELEASE  -
|  1> ! PBEh-3c def2/J TightSCF DefGrid3
|  2>
|  3> %maxcore 60000
|  4>
|  5> %pal
|  6> nprocs 4
|  7> end
|  8>
|  9> *xyzfile 0 1 41B.xyz
| 10>
| 11>                          ****END OF INPUT****

CARTESIAN COORDINATES (ANGSTROEM)
---------------------------------
  C      1.048939    2.324307    0.040374
  H      0.618091    2.635355   -0.912408
  H      0.414705    2.729740    0.828622
  H      2.031819    2.784754    0.133495
  C      1.121956    0.805436    0.129892
  H      1.552339    0.515873    1.091183
  H      1.796545    0.414275   -0.635226
  C     -0.242829    0.147269   -0.024924
  H     -0.914074    0.516145    0.756695
  H     -0.690300    0.457534   -0.974824
  C     -0.186540   -1.373417    0.034711
  H      0.237065   -1.675848    0.995347
  H      0.504981   -1.735296   -0.729791
  C     -1.555823   -2.015290   -0.149062
  H     -1.994202   -1.741833   -1.109248
  H     -1.498885   -3.102059   -0.105005
  H     -2.243786   -1.686945    0.630170

 Total Charge           Charge          ....    0
 Multiplicity           Mult            ....    1
 Number of Electrons    NEL             ....   42
 Basis Dimension        Dim             ....   99

ORBITAL ENERGIES
----------------

  NO   OCC          E(Eh)            E(eV)
   0   2.0000     -10.426870      -283.7296
   1   2.0000     -10.426801      -283.7277
   2   2.0000     -10.424742      -283.6716
   3   2.0000     -10.418988      -283.5151
   4   2.0000     -10.418969      -283.5145
   5   2.0000      -0.893016       -24.3002
   6   2.0000      -0.836700       -22.7678
   7   2.0000      -0.754457       -20.5298
   8   2.0000      -0.670737       -18.2517
   9   2.0000      -0.644546       -17.5390
  10   2.0000      -0.535522       -14.5723
  11   2.0000      -0.494956       -13.4684
  12   2.0000      -0.487559       -13.2672
  13   2.0000      -0.457965       -12.4619
  14   2.0000      -0.447189       -12.1686
  15   2.0000      -0.427269       -11.6266
  16   2.0000      -0.402863       -10.9625
  17   2.0000      -0.381936       -10.3930
  18   2.0000      -0.373821       -10.1722
  19   2.0000      -0.365909        -9.9569
  20   2.0000      -0.361281        -9.8310
  21   0.0000       0.137646         3.7456
  22   0.0000       0.155215         4.2236
  23   0.0000       0.184771         5.0279
  24   0.0000       0.186376         5.0716
  25   0.0000       0.202797         5.5184

MULLIKEN ATOMIC CHARGES
-----------------------
   0 C :   -0.639056
   1 H :    0.208469
   2 H :    0.209138
   3 H :    0.218395
   4 C :   -0.409976
   5 H :    0.204741
   6 H :    0.204522
   7 C :   -0.391469
   8 H :    0.199774
   9 H :    0.199025
  10 C :   -0.409844
  11 H :    0.204709
  12 H :    0.204466
  13 C :   -0.639269
  14 H :    0.209080
  15 H :    0.218357
  16 H :    0.208936
Sum of atomic charges:   -0.0000000

LOEWDIN ATOMIC CHARGES
----------------------
   0 C :   -0.361958
   1 H :    0.123112
   2 H :    0.123430
   3 H :    0.125752
   4 C :   -0.246244
   5 H :    0.119447
   6 H :    0.119127
   7 C :   -0.241593
   8 H :    0.118222
   9 H :    0.117682
  10 C :   -0.246143
  11 H :    0.119534
  12 H :    0.119117
  13 C :   -0.362001
  14 H :    0.123302
  15 H :    0.125753
  16 H :    0.123462

  Mayer bond orders larger than 0.100000
B(  0-C ,  1-H ) :   0.9297 B(  0-C ,  2-H ) :   0.9294 B(  0-C ,  3-H ) :   0.9325
B(  0-C ,  4-C ) :   0.9984 B(  4-C ,  5-H ) :   0.9201 B(  4-C ,  6-H ) :   0.9204
B(  4-C ,  7-C ) :   0.9922 B(  7-C ,  8-H ) :   0.9180 B(  7-C ,  9-H ) :   0.9182
B(  7-C , 10-C ) :   0.9923 B( 10-C , 11-H ) :   0.9202 B( 10-C , 12-H ) :   0.9204
B( 10-C , 13-C ) :   0.9985 B( 13-C , 14-H ) :   0.9296 B( 13-C , 15-H ) :   0.9325
B( 13-C , 16-H ) :   0.9295

Dispersion correction           -0.006815718
FINAL SINGLE POINT ENERGY      -197.333861707355

DIPOLE MOMENT
-------------
                                X             Y             Z
Electronic contribution:      0.50772      -0.30709       0.08906
Nuclear contribution   :     -0.49304       0.29656      -0.08228
                        -----------------------------------------
Total Dipole Moment    :      0.01467      -0.01053       0.00678
                        -----------------------------------------
Magnitude (a.u.)       :      0.01929
Magnitude (Debye)      :      0.04903

Rotational constants in cm-1:     0.568217     0.065488     0.062064
Rotational constants in MHz : 17034.711405  1963.294493  1860.617260

                             ****ORCA TERMINATED NORMALLY****
TOTAL RUN TIME: 0 days 0 hours 1 minutes 0 seconds 547 msec
