                         Program Version 5.0.3 -  RELEASE  -
|  1> ! PBEh-3c def2/J TightSCF DefGrid3
|  2>
|  3> %maxcore 60000
|  4>
|  5> %pal
|  6> nprocs 4
|  7> end
|  8>
|  9> *xyzfile 0 1 08a.xyz
| 10>
| 11>                          ****END OF INPUT****

CARTESIAN COORDINATES (ANGSTROEM)
---------------------------------
  C      0.000000    0.000000    0.000000
  H     -0.628552    0.628552    0.628552
  H      0.628552   -0.628552    0.628552
  H      0.628552    0.628552   -0.628552
  H     -0.628552   -0.628552   -0.628552

 Total Charge           Charge          ....    0
 Multiplicity           Mult            ....    1
 Number of Electrons    NEL             ....   10
 Basis Dimension        Dim             ....   23

ORBITAL ENERGIES
----------------

  NO   OCC          E(Eh)            E(eV)
   0   2.0000     -10.414580      -283.3951
   1   2.0000      -0.774598       -21.0779
   2   2.0000      -0.444995       -12.1089
   3   2.0000      -0.444995       -12.1089
   4   2.0000      -0.444995       -12.1089
   5   0.0000       0.174408         4.7459
   6   0.0000       0.218600         5.9484
   7   0.0000       0.218600         5.9484
   8   0.0000       0.218600         5.9484
   9   0.0000       0.507971        13.8226

MULLIKEN ATOMIC CHARGES
-----------------------
   0 C :   -0.879892
   1 H :    0.219973
   2 H :    0.219973
   3 H :    0.219973
   4 H :    0.219973
Sum of atomic charges:    0.0000000

LOEWDIN ATOMIC CHARGES
----------------------
   0 C :   -0.522421
   1 H :    0.130605
   2 H :    0.130605
   3 H :    0.130605
   4 H :    0.130605

  Mayer bond orders larger than 0.100000
B(  0-C ,  1-H ) :   0.9369 B(  0-C ,  2-H ) :   0.9369 B(  0-C ,  3-H ) :   0.9369
B(  0-C ,  4-H ) :   0.9369

Dispersion correction           -0.000682719
FINAL SINGLE POINT ENERGY       -40.426616181295

DIPOLE MOMENT
-------------
                                X             Y             Z
Electronic contribution:     -0.00000       0.00000      -0.00000
Nuclear contribution   :      0.00000       0.00000       0.00000
                        -----------------------------------------
Total Dipole Moment    :     -0.00000       0.00000      -0.00000
                        -----------------------------------------
Magnitude (a.u.)       :      0.00000
Magnitude (Debye)      :      0.00000

Rotational constants in cm-1:     5.291323     5.291323     5.291323
Rotational constants in MHz : 158629.858192 158629.858192 158629.858192

                             ****ORCA TERMINATED NORMALLY****
TOTAL RUN TIME: 0 days 0 hours 0 minutes 38 seconds 724 msec
