                         Program Version 5.0.3 -  RELEASE  -
|  1> ! PBEh-3c def2/J TightSCF DefGrid3
|  2>
|  3> %maxcore 60000
|  4>
|  5> %pal
|  6> nprocs 4
|  7> end
|  8>
|  9> *xyzfile 0 1 PHE_xaw.xyz
| 10>
| 11>                          ****END OF INPUT****

CARTESIAN COORDINATES (ANGSTROEM)
---------------------------------
  N     -2.348345   -0.800223   -0.781892
  C     -1.100374   -0.329520   -0.245943
  C     -1.088237    1.184671   -0.385269
  O     -1.727072    1.745109   -1.273238
  C      0.100473   -0.939994   -1.003970
  C      1.402401   -0.519594   -0.392942
  C      1.795307   -1.047120    0.842675
  C      2.197772    0.465101   -0.985680
  C      2.949545   -0.590783    1.476582
  C      3.355906    0.920009   -0.358511
  C      3.730625    0.397728    0.878592
  H     -2.839208   -0.164965   -1.392141
  H     -1.030706   -0.627398    0.801389
  H      0.039092   -0.625547   -2.046907
  H     -0.021395   -2.022151   -0.956600
  H      1.191664   -1.821083    1.302729
  H      1.900478    0.879480   -1.941548
  H      3.241871   -1.009622    2.430065
  H      3.963233    1.679186   -0.832817
  H      4.627863    0.750610    1.368135
  N     -0.317620    1.836020    0.514396
  H      0.286883    1.274339    1.092463
  C     -0.015568    3.244406    0.362500
  H      0.156643    3.687490    1.339222
  H      0.864942    3.399204   -0.262459
  H     -0.867467    3.723665   -0.108601
  C     -2.812422   -2.040113   -0.486173
  O     -2.198650   -2.806665    0.250675
  C     -4.130255   -2.410617   -1.120804
  H     -3.978266   -3.286015   -1.747917
  H     -4.557812   -1.609382   -1.718041
  H     -4.827197   -2.686298   -0.333233

 Total Charge           Charge          ....    0
 Multiplicity           Mult            ....    1
 Number of Electrons    NEL             ....  118
 Basis Dimension        Dim             ....  272

ORBITAL ENERGIES
----------------

  NO   OCC          E(Eh)            E(eV)
   0   2.0000     -19.467989      -529.7509
   1   2.0000     -19.450780      -529.2826
   2   2.0000     -14.667936      -399.1348
   3   2.0000     -14.657949      -398.8631
   4   2.0000     -10.552982      -287.1612
   5   2.0000     -10.545143      -286.9479
   6   2.0000     -10.493045      -285.5303
   7   2.0000     -10.469291      -284.8839
   8   2.0000     -10.466943      -284.8200
   9   2.0000     -10.459775      -284.6249
  10   2.0000     -10.459355      -284.6135
  11   2.0000     -10.457595      -284.5656
  12   2.0000     -10.456756      -284.5428
  13   2.0000     -10.456568      -284.5377
  14   2.0000     -10.449971      -284.3582
  15   2.0000     -10.438469      -284.0452
  16   2.0000      -1.153785       -31.3961
  17   2.0000      -1.136156       -30.9164
  18   2.0000      -1.029711       -28.0199
  19   2.0000      -1.024434       -27.8763
  20   2.0000      -0.968553       -26.3557
  21   2.0000      -0.895516       -24.3682
  22   2.0000      -0.847366       -23.0580
  23   2.0000      -0.845804       -23.0155
  24   2.0000      -0.814549       -22.1650
  25   2.0000      -0.789776       -21.4909
  26   2.0000      -0.735228       -20.0066
  27   2.0000      -0.694535       -18.8992
  28   2.0000      -0.670216       -18.2375
  29   2.0000      -0.664242       -18.0750
  30   2.0000      -0.649957       -17.6862
  31   2.0000      -0.608564       -16.5599
  32   2.0000      -0.589497       -16.0410
  33   2.0000      -0.554770       -15.0961
  34   2.0000      -0.539330       -14.6759
  35   2.0000      -0.532596       -14.4927
  36   2.0000      -0.526169       -14.3178
  37   2.0000      -0.524385       -14.2693
  38   2.0000      -0.517878       -14.0922
  39   2.0000      -0.508209       -13.8291
  40   2.0000      -0.491269       -13.3681
  41   2.0000      -0.486956       -13.2507
  42   2.0000      -0.478584       -13.0229
  43   2.0000      -0.470320       -12.7980
  44   2.0000      -0.455060       -12.3828
  45   2.0000      -0.453234       -12.3331
  46   2.0000      -0.447793       -12.1851
  47   2.0000      -0.439070       -11.9477
  48   2.0000      -0.428210       -11.6522
  49   2.0000      -0.419254       -11.4085
  50   2.0000      -0.407629       -11.0922
  51   2.0000      -0.401703       -10.9309
  52   2.0000      -0.392921       -10.6919
  53   2.0000      -0.326328        -8.8798
  54   2.0000      -0.316722        -8.6185
  55   2.0000      -0.305095        -8.3021
  56   2.0000      -0.303678        -8.2635
  57   2.0000      -0.301131        -8.1942
  58   2.0000      -0.285848        -7.7783
  59   0.0000       0.003815         0.1038
  60   0.0000       0.006340         0.1725
  61   0.0000       0.049079         1.3355
  62   0.0000       0.068944         1.8761
  63   0.0000       0.130450         3.5497

MULLIKEN ATOMIC CHARGES
-----------------------
   0 N :   -0.644934
   1 C :   -0.167566
   2 C :    0.543385
   3 O :   -0.445243
   4 C :   -0.508720
   5 C :    0.097354
   6 C :   -0.297348
   7 C :   -0.268424
   8 C :   -0.211901
   9 C :   -0.214123
  10 C :   -0.236943
  11 H :    0.381038
  12 H :    0.264703
  13 H :    0.241593
  14 H :    0.283685
  15 H :    0.244519
  16 H :    0.225746
  17 H :    0.226445
  18 H :    0.224282
  19 H :    0.224236
  20 N :   -0.619246
  21 H :    0.380836
  22 C :   -0.495177
  23 H :    0.223664
  24 H :    0.223666
  25 H :    0.260083
  26 C :    0.528582
  27 O :   -0.447282
  28 C :   -0.747994
  29 H :    0.255300
  30 H :    0.218181
  31 H :    0.257605
Sum of atomic charges:    0.0000000

LOEWDIN ATOMIC CHARGES
----------------------
   0 N :   -0.221399
   1 C :   -0.086759
   2 C :    0.112467
   3 O :   -0.290591
   4 C :   -0.218590
   5 C :   -0.059741
   6 C :   -0.146159
   7 C :   -0.136522
   8 C :   -0.133493
   9 C :   -0.133766
  10 C :   -0.142015
  11 H :    0.268279
  12 H :    0.143589
  13 H :    0.139225
  14 H :    0.157366
  15 H :    0.145618
  16 H :    0.139421
  17 H :    0.139104
  18 H :    0.138095
  19 H :    0.137674
  20 N :   -0.228853
  21 H :    0.264348
  22 C :   -0.254124
  23 H :    0.127221
  24 H :    0.122416
  25 H :    0.149591
  26 C :    0.106888
  27 O :   -0.294742
  28 C :   -0.386985
  29 H :    0.155757
  30 H :    0.129976
  31 H :    0.156702

  Mayer bond orders larger than 0.100000
B(  0-N ,  1-C ) :   0.9418 B(  0-N , 11-H ) :   0.7823 B(  0-N , 26-C ) :   1.1524
B(  1-C ,  2-C ) :   0.9048 B(  1-C ,  4-C ) :   0.9361 B(  1-C , 12-H ) :   0.8795
B(  2-C ,  3-O ) :   1.9577 B(  2-C , 20-N ) :   1.1574 B(  4-C ,  5-C ) :   0.9495
B(  4-C , 13-H ) :   0.9127 B(  4-C , 14-H ) :   0.8908 B(  5-C ,  6-C ) :   1.3801
B(  5-C ,  7-C ) :   1.4036 B(  6-C ,  8-C ) :   1.4227 B(  6-C , 15-H ) :   0.9119
B(  7-C ,  9-C ) :   1.4241 B(  7-C , 16-H ) :   0.9171 B(  8-C , 10-C ) :   1.4204
B(  8-C , 17-H ) :   0.9183 B(  9-C , 10-C ) :   1.4225 B(  9-C , 18-H ) :   0.9186
B( 10-C , 19-H ) :   0.9185 B( 20-N , 21-H ) :   0.8047 B( 20-N , 22-C ) :   0.9550
B( 22-C , 23-H ) :   0.9243 B( 22-C , 24-H ) :   0.9149 B( 22-C , 25-H ) :   0.9046
B( 26-C , 27-O ) :   1.9514 B( 26-C , 28-C ) :   0.9290 B( 28-C , 29-H ) :   0.9108
B( 28-C , 30-H ) :   0.9208 B( 28-C , 31-H ) :   0.9105

Dispersion correction           -0.021711855
FINAL SINGLE POINT ENERGY      -725.335552923118

DIPOLE MOMENT
-------------
                                X             Y             Z
Electronic contribution:      0.68370      -2.03696       0.29257
Nuclear contribution   :     -0.07753       2.86637      -0.09146
                        -----------------------------------------
Total Dipole Moment    :      0.60617       0.82941       0.20111
                        -----------------------------------------
Magnitude (a.u.)       :      1.04681
Magnitude (Debye)      :      2.66077

Rotational constants in cm-1:     0.027823     0.011584     0.009150
Rotational constants in MHz :   834.107815   347.273506   274.322572

                             ****ORCA TERMINATED NORMALLY****
TOTAL RUN TIME: 0 days 0 hours 3 minutes 48 seconds 262 msec
