                         Program Version 5.0.3 -  RELEASE  -
|  1> ! PBEh-3c def2/J TightSCF DefGrid3
|  2>
|  3> %maxcore 60000
|  4>
|  5> %pal
|  6> nprocs 4
|  7> end
|  8>
|  9> *xyzfile 0 1 propyne.xyz
| 10>
| 11>                          ****END OF INPUT****

CARTESIAN COORDINATES (ANGSTROEM)
---------------------------------
  H      2.429892    0.000001    0.000000
  H     -1.687883    1.020256   -0.000007
  H     -1.687867   -0.510107    0.883545
  H     -1.687867   -0.510119   -0.883539
  C      1.366981    0.000001    0.000000
  C      0.158841    0.000000    0.000000
  C     -1.304814   -0.000003    0.000000

 Total Charge           Charge          ....    0
 Multiplicity           Mult            ....    1
 Number of Electrons    NEL             ....   22
 Basis Dimension        Dim             ....   53

ORBITAL ENERGIES
----------------

  NO   OCC          E(Eh)            E(eV)
   0   2.0000     -10.459833      -284.6265
   1   2.0000     -10.452425      -284.4249
   2   2.0000     -10.436634      -283.9952
   3   2.0000      -0.870416       -23.6852
   4   2.0000      -0.785914       -21.3858
   5   2.0000      -0.594458       -16.1760
   6   2.0000      -0.512566       -13.9476
   7   2.0000      -0.491645       -13.3783
   8   2.0000      -0.491638       -13.3782
   9   2.0000      -0.314040        -8.5455
  10   2.0000      -0.314040        -8.5455
  11   0.0000       0.083814         2.2807
  12   0.0000       0.083815         2.2807
  13   0.0000       0.160131         4.3574
  14   0.0000       0.189251         5.1498
  15   0.0000       0.229367         6.2414

MULLIKEN ATOMIC CHARGES
-----------------------
   0 H :    0.223439
   1 H :    0.251346
   2 H :    0.251359
   3 H :    0.251359
   4 C :   -0.434212
   5 C :    0.224689
   6 C :   -0.767979
Sum of atomic charges:   -0.0000000

LOEWDIN ATOMIC CHARGES
----------------------
   0 H :    0.160693
   1 H :    0.153470
   2 H :    0.153470
   3 H :    0.153470
   4 C :   -0.212697
   5 C :   -0.048394
   6 C :   -0.360012

  Mayer bond orders larger than 0.100000
B(  0-H ,  4-C ) :   0.9449 B(  1-H ,  6-C ) :   0.9086 B(  2-H ,  6-C ) :   0.9086
B(  3-H ,  6-C ) :   0.9086 B(  4-C ,  5-C ) :   2.7244 B(  5-C ,  6-C ) :   0.9810

Dispersion correction           -0.001824446
FINAL SINGLE POINT ENERGY      -116.384173759583

DIPOLE MOMENT
-------------
                                X             Y             Z
Electronic contribution:      2.16865      -0.00004       0.00000
Nuclear contribution   :     -2.47087       0.00003      -0.00000
                        -----------------------------------------
Total Dipole Moment    :     -0.30222      -0.00001      -0.00000
                        -----------------------------------------
Magnitude (a.u.)       :      0.30222
Magnitude (Debye)      :      0.76819

Rotational constants in cm-1:     5.355668     0.284100     0.284100
Rotational constants in MHz : 160558.901346  8517.107955  8517.099275

                             ****ORCA TERMINATED NORMALLY****
TOTAL RUN TIME: 0 days 0 hours 0 minutes 41 seconds 449 msec
