                         Program Version 5.0.3 -  RELEASE  -
|  1> ! PBEh-3c def2/J TightSCF DefGrid3
|  2>
|  3> %maxcore 60000
|  4>
|  5> %pal
|  6> nprocs 4
|  7> end
|  8>
|  9> *xyzfile 0 1 teh2_h2s.xyz
| 10>
| 11>                          ****END OF INPUT****

CARTESIAN COORDINATES (ANGSTROEM)
---------------------------------
  Te     0.000000    0.000000    1.975168
  H     -1.153221    0.000000    3.133231
  H      1.153221    0.000000    3.133231
  H      0.960255    0.000000   -3.055169
  S      0.000000    0.000000   -2.131293
  H     -0.960255    0.000000   -3.055169

 Total Charge           Charge          ....    0
 Multiplicity           Mult            ....    1
 Number of Electrons    NEL             ....   44
 Basis Dimension        Dim             ....   52

ORBITAL ENERGIES
----------------

  NO   OCC          E(Eh)            E(eV)
   0   2.0000     -89.582597     -2437.6664
   1   2.0000      -8.226162      -223.8453
   2   2.0000      -6.499582      -176.8626
   3   2.0000      -6.116798      -166.4465
   4   2.0000      -6.114050      -166.3718
   5   2.0000      -6.108344      -166.2165
   6   2.0000      -4.593394      -124.9926
   7   2.0000      -4.589174      -124.8778
   8   2.0000      -4.577686      -124.5652
   9   2.0000      -1.704354       -46.3778
  10   2.0000      -1.701290       -46.2945
  11   2.0000      -1.690698       -46.0062
  12   2.0000      -1.687007       -45.9058
  13   2.0000      -1.685690       -45.8700
  14   2.0000      -0.825669       -22.4676
  15   2.0000      -0.712937       -19.4000
  16   2.0000      -0.501840       -13.6558
  17   2.0000      -0.434122       -11.8131
  18   2.0000      -0.417660       -11.3651
  19   2.0000      -0.370478       -10.0812
  20   2.0000      -0.304355        -8.2819
  21   2.0000      -0.259801        -7.0695
  22   0.0000       0.011008         0.2995
  23   0.0000       0.067758         1.8438
  24   0.0000       0.069316         1.8862
  25   0.0000       0.112081         3.0499
  26   0.0000       0.266236         7.2446

MULLIKEN ATOMIC CHARGES
-----------------------
   0 Te:   -0.178245
   1 H :    0.086844
   2 H :    0.086844
   3 H :    0.190627
   4 S :   -0.376696
   5 H :    0.190627
Sum of atomic charges:   -0.0000000

LOEWDIN ATOMIC CHARGES
----------------------
   0 Te:   -0.115025
   1 H :    0.054265
   2 H :    0.054265
   3 H :    0.105734
   4 S :   -0.204973
   5 H :    0.105734

  Mayer bond orders larger than 0.100000
B(  0-Te,  1-H ) :   0.9722 B(  0-Te,  2-H ) :   0.9722 B(  3-H ,  4-S ) :   0.9329
B(  4-S ,  5-H ) :   0.9329

Dispersion correction           -0.001388892
FINAL SINGLE POINT ENERGY      -668.158582521456

DIPOLE MOMENT
-------------
                                X             Y             Z
Electronic contribution:     -0.00000       0.00000      67.46105
Nuclear contribution   :      0.00000       0.00000     -67.95744
                        -----------------------------------------
Total Dipole Moment    :     -0.00000       0.00000      -0.49639
                        -----------------------------------------
Magnitude (a.u.)       :      0.49639
Magnitude (Debye)      :      1.26172

Rotational constants in cm-1:     3.713098     0.035450     0.035115
Rotational constants in MHz : 111315.890058  1062.768267  1052.717636

                             ****ORCA TERMINATED NORMALLY****
TOTAL RUN TIME: 0 days 0 hours 1 minutes 9 seconds 712 msec
