                         Program Version 5.0.3 -  RELEASE  -
|  1> ! PBEh-3c def2/J TightSCF DefGrid3
|  2>
|  3> %maxcore 60000
|  4>
|  5> %pal
|  6> nprocs 4
|  7> end
|  8>
|  9> *xyzfile 0 1 ASP_xad.xyz
| 10>
| 11>                          ****END OF INPUT****

CARTESIAN COORDINATES (ANGSTROEM)
---------------------------------
  N     -1.760208    0.577347    0.092231
  H     -1.998063    1.491433   -0.263854
  C     -0.352666    0.279979    0.135257
  H     -0.085634   -0.088121    1.126818
  C     -0.009138   -0.806858   -0.887806
  C      0.372139    1.595845   -0.158468
  H     -0.031061   -0.413535   -1.904870
  H     -0.773393   -1.582023   -0.821323
  C      1.307642   -1.484347   -0.649680
  O     -0.230229    2.551426   -0.645611
  O      1.537341   -2.441135   -1.567500
  O      2.089071   -1.249575    0.251218
  N      1.683569    1.594090    0.143770
  C      2.541492    2.726121   -0.133317
  H      2.072970    0.729244    0.491646
  H      1.919794    3.522351   -0.529485
  H      3.028135    3.070464    0.776659
  H      3.303266    2.468087   -0.866977
  C     -2.678496   -0.289937    0.583198
  C     -4.110868    0.180253    0.533765
  O     -2.359610   -1.384872    1.039686
  H     -4.478259    0.273693    1.553368
  H     -4.709088   -0.578417    0.035924
  H     -4.229399    1.131678    0.021708
  H      2.387606   -2.840410   -1.328095

 Total Charge           Charge          ....    0
 Multiplicity           Mult            ....    1
 Number of Electrons    NEL             ....  100
 Basis Dimension        Dim             ....  219

ORBITAL ENERGIES
----------------

  NO   OCC          E(Eh)            E(eV)
   0   2.0000     -19.561998      -532.3090
   1   2.0000     -19.512362      -530.9584
   2   2.0000     -19.469672      -529.7967
   3   2.0000     -19.453095      -529.3456
   4   2.0000     -14.665770      -399.0759
   5   2.0000     -14.659274      -398.8991
   6   2.0000     -10.607134      -288.6348
   7   2.0000     -10.556364      -287.2533
   8   2.0000     -10.547065      -287.0002
   9   2.0000     -10.499718      -285.7118
  10   2.0000     -10.469814      -284.8981
  11   2.0000     -10.467957      -284.8476
  12   2.0000     -10.439666      -284.0778
  13   2.0000      -1.243552       -33.8388
  14   2.0000      -1.156506       -31.4701
  15   2.0000      -1.146836       -31.2070
  16   2.0000      -1.138385       -30.9770
  17   2.0000      -1.029786       -28.0219
  18   2.0000      -1.026739       -27.9390
  19   2.0000      -0.898819       -24.4581
  20   2.0000      -0.833755       -22.6876
  21   2.0000      -0.813149       -22.1269
  22   2.0000      -0.761246       -20.7146
  23   2.0000      -0.695557       -18.9271
  24   2.0000      -0.666793       -18.1443
  25   2.0000      -0.647998       -17.6329
  26   2.0000      -0.615015       -16.7354
  27   2.0000      -0.590130       -16.0582
  28   2.0000      -0.579950       -15.7812
  29   2.0000      -0.550633       -14.9835
  30   2.0000      -0.542578       -14.7643
  31   2.0000      -0.531281       -14.4569
  32   2.0000      -0.525488       -14.2992
  33   2.0000      -0.517669       -14.0865
  34   2.0000      -0.510201       -13.8833
  35   2.0000      -0.490814       -13.3557
  36   2.0000      -0.477486       -12.9930
  37   2.0000      -0.475211       -12.9312
  38   2.0000      -0.457304       -12.4439
  39   2.0000      -0.455062       -12.3829
  40   2.0000      -0.446615       -12.1530
  41   2.0000      -0.439295       -11.9538
  42   2.0000      -0.428850       -11.6696
  43   2.0000      -0.402272       -10.9464
  44   2.0000      -0.399040       -10.8584
  45   2.0000      -0.361997        -9.8504
  46   2.0000      -0.326030        -8.8717
  47   2.0000      -0.314698        -8.5634
  48   2.0000      -0.305784        -8.3208
  49   2.0000      -0.300122        -8.1667
  50   0.0000       0.022587         0.6146
  51   0.0000       0.047888         1.3031
  52   0.0000       0.067385         1.8336
  53   0.0000       0.119574         3.2538
  54   0.0000       0.140220         3.8156

MULLIKEN ATOMIC CHARGES
-----------------------
   0 N :   -0.652078
   1 H :    0.387749
   2 C :   -0.162238
   3 H :    0.285924
   4 C :   -0.586789
   5 C :    0.532626
   6 H :    0.277450
   7 H :    0.322572
   8 C :    0.561883
   9 O :   -0.449797
  10 O :   -0.572997
  11 O :   -0.425421
  12 N :   -0.649186
  13 C :   -0.496390
  14 H :    0.404152
  15 H :    0.263969
  16 H :    0.226301
  17 H :    0.221848
  18 C :    0.524118
  19 C :   -0.746032
  20 O :   -0.447102
  21 H :    0.257474
  22 H :    0.256180
  23 H :    0.220010
  24 H :    0.445773
Sum of atomic charges:   -0.0000000

LOEWDIN ATOMIC CHARGES
----------------------
   0 N :   -0.225332
   1 H :    0.270358
   2 C :   -0.087371
   3 H :    0.154399
   4 C :   -0.272729
   5 C :    0.111476
   6 H :    0.162569
   7 H :    0.184183
   8 C :    0.153621
   9 O :   -0.296379
  10 O :   -0.282376
  11 O :   -0.253320
  12 N :   -0.238409
  13 C :   -0.255319
  14 H :    0.266694
  15 H :    0.152913
  16 H :    0.126054
  17 H :    0.123488
  18 C :    0.105544
  19 C :   -0.386398
  20 O :   -0.294529
  21 H :    0.157377
  22 H :    0.155604
  23 H :    0.131069
  24 H :    0.336813

  Mayer bond orders larger than 0.100000
B(  0-N ,  1-H ) :   0.7692 B(  0-N ,  2-C ) :   0.9449 B(  0-N , 18-C ) :   1.1552
B(  2-C ,  3-H ) :   0.8752 B(  2-C ,  4-C ) :   0.9202 B(  2-C ,  5-C ) :   0.9077
B(  4-C ,  6-H ) :   0.8873 B(  4-C ,  7-H ) :   0.8580 B(  4-C ,  8-C ) :   0.9281
B(  5-C ,  9-O ) :   1.9416 B(  5-C , 12-N ) :   1.1919 B(  8-C , 10-O ) :   1.1718
B(  8-C , 11-O ) :   1.9556 B(  9-O , 12-N ) :   0.1041 B( 10-O , 24-H ) :   0.7555
B( 12-N , 13-C ) :   0.9517 B( 12-N , 14-H ) :   0.7475 B( 13-C , 15-H ) :   0.9011
B( 13-C , 16-H ) :   0.9202 B( 13-C , 17-H ) :   0.9208 B( 18-C , 19-C ) :   0.9293
B( 18-C , 20-O ) :   1.9474 B( 19-C , 21-H ) :   0.9091 B( 19-C , 22-H ) :   0.9118
B( 19-C , 23-H ) :   0.9203

Dispersion correction           -0.014331254
FINAL SINGLE POINT ENERGY      -682.977003744881

DIPOLE MOMENT
-------------
                                X             Y             Z
Electronic contribution:      2.72244      -5.15209      -0.17316
Nuclear contribution   :     -1.95333       5.28759      -0.40510
                        -----------------------------------------
Total Dipole Moment    :      0.76912       0.13550      -0.57826
                        -----------------------------------------
Magnitude (a.u.)       :      0.97174
Magnitude (Debye)      :      2.46998

Rotational constants in cm-1:     0.030298     0.019455     0.013057
Rotational constants in MHz :   908.308022   583.253341   391.452229

                             ****ORCA TERMINATED NORMALLY****
TOTAL RUN TIME: 0 days 0 hours 3 minutes 5 seconds 100 msec
