                         Program Version 5.0.3 -  RELEASE  -
|  1> ! PBEh-3c def2/J TightSCF DefGrid3
|  2>
|  3> %maxcore 60000
|  4>
|  5> %pal
|  6> nprocs 4
|  7> end
|  8>
|  9> *xyzfile 0 1 clcn.xyz
| 10>
| 11>                          ****END OF INPUT****

CARTESIAN COORDINATES (ANGSTROEM)
---------------------------------
  Cl     0.957087    0.000000    0.000000
  C     -0.678618    0.000000    0.000000
  N     -1.840600    0.000000    0.000000

 Total Charge           Charge          ....    0
 Multiplicity           Mult            ....    1
 Number of Electrons    NEL             ....   30
 Basis Dimension        Dim             ....   48

ORBITAL ENERGIES
----------------

  NO   OCC          E(Eh)            E(eV)
   0   2.0000    -102.395551     -2786.3246
   1   2.0000     -14.678416      -399.4200
   2   2.0000     -10.557415      -287.2819
   3   2.0000      -9.862445      -268.3708
   4   2.0000      -7.550936      -205.4714
   5   2.0000      -7.541147      -205.2050
   6   2.0000      -7.541147      -205.2050
   7   2.0000      -1.067606       -29.0510
   8   2.0000      -1.004176       -27.3250
   9   2.0000      -0.645022       -17.5519
  10   2.0000      -0.502093       -13.6626
  11   2.0000      -0.502093       -13.6626
  12   2.0000      -0.457515       -12.4496
  13   2.0000      -0.387955       -10.5568
  14   2.0000      -0.387955       -10.5568
  15   0.0000       0.033249         0.9048
  16   0.0000       0.047866         1.3025
  17   0.0000       0.047866         1.3025
  18   0.0000       0.343059         9.3351
  19   0.0000       0.439888        11.9700

MULLIKEN ATOMIC CHARGES
-----------------------
   0 Cl:    0.068443
   1 C :    0.103413
   2 N :   -0.171857
Sum of atomic charges:    0.0000000

LOEWDIN ATOMIC CHARGES
----------------------
   0 Cl:    0.252671
   1 C :   -0.161846
   2 N :   -0.090825

  Mayer bond orders larger than 0.100000
B(  0-Cl,  1-C ) :   1.1447 B(  0-Cl,  2-N ) :   0.1345 B(  1-C ,  2-N ) :   3.0361

Dispersion correction           -0.000829941
FINAL SINGLE POINT ENERGY      -552.301896928388

DIPOLE MOMENT
-------------
                                X             Y             Z
Electronic contribution:      2.39577      -0.00000       0.00000
Nuclear contribution   :     -1.29476       0.00000       0.00000
                        -----------------------------------------
Total Dipole Moment    :      1.10102      -0.00000       0.00000
                        -----------------------------------------
Magnitude (a.u.)       :      1.10102
Magnitude (Debye)      :      2.79856

Rotational constants in cm-1:     0.000000     0.197258     0.197258
Rotational constants in MHz :     0.000000  5913.643225  5913.643225

                             ****ORCA TERMINATED NORMALLY****
TOTAL RUN TIME: 0 days 0 hours 0 minutes 39 seconds 310 msec
