                         Program Version 5.0.3 -  RELEASE  -
|  1> ! PBEh-3c def2/J TightSCF DefGrid3
|  2>
|  3> %maxcore 60000
|  4>
|  5> %pal
|  6> nprocs 4
|  7> end
|  8>
|  9> *xyzfile 0 1 f2s.xyz
| 10>
| 11>                          ****END OF INPUT****

CARTESIAN COORDINATES (ANGSTROEM)
---------------------------------
  S      0.000000    0.000000    0.556634
  F      0.000000    1.212821   -0.494786
  F      0.000000   -1.212821   -0.494786

 Total Charge           Charge          ....    0
 Multiplicity           Mult            ....    1
 Number of Electrons    NEL             ....   34
 Basis Dimension        Dim             ....   48

ORBITAL ENERGIES
----------------

  NO   OCC          E(Eh)            E(eV)
   0   2.0000     -89.735693     -2441.8323
   1   2.0000     -25.136040      -683.9864
   2   2.0000     -25.135994      -683.9852
   3   2.0000      -8.357960      -227.4317
   4   2.0000      -6.253315      -170.1614
   5   2.0000      -6.248385      -170.0272
   6   2.0000      -6.234190      -169.6409
   7   2.0000      -1.380546       -37.5666
   8   2.0000      -1.338972       -36.4353
   9   2.0000      -0.814683       -22.1687
  10   2.0000      -0.625197       -17.0125
  11   2.0000      -0.587707       -15.9923
  12   2.0000      -0.574371       -15.6294
  13   2.0000      -0.526678       -14.3316
  14   2.0000      -0.506476       -13.7819
  15   2.0000      -0.483473       -13.1560
  16   2.0000      -0.299944        -8.1619
  17   0.0000      -0.022354        -0.6083
  18   0.0000       0.025735         0.7003
  19   0.0000       0.332700         9.0532
  20   0.0000       0.546606        14.8739
  21   0.0000       0.587563        15.9884

MULLIKEN ATOMIC CHARGES
-----------------------
   0 S :    0.826784
   1 F :   -0.413392
   2 F :   -0.413392
Sum of atomic charges:    0.0000000

LOEWDIN ATOMIC CHARGES
----------------------
   0 S :    0.702107
   1 F :   -0.351053
   2 F :   -0.351053

  Mayer bond orders larger than 0.100000
B(  0-S ,  1-F ) :   0.8871 B(  0-S ,  2-F ) :   0.8871

Dispersion correction           -0.000498077
FINAL SINGLE POINT ENERGY      -596.989081948112

DIPOLE MOMENT
-------------
                                X             Y             Z
Electronic contribution:     -0.00000       0.00000      -0.36089
Nuclear contribution   :      0.00000       0.00000       0.87512
                        -----------------------------------------
Total Dipole Moment    :     -0.00000       0.00000       0.51423
                        -----------------------------------------
Magnitude (a.u.)       :      0.51423
Magnitude (Debye)      :      1.30708

Rotational constants in cm-1:     0.876977     0.301624     0.224433
Rotational constants in MHz : 26291.119303  9042.455501  6728.339198

                             ****ORCA TERMINATED NORMALLY****
TOTAL RUN TIME: 0 days 0 hours 1 minutes 6 seconds 646 msec
