                         Program Version 5.0.3 -  RELEASE  -
|  1> ! PBEh-3c def2/J TightSCF DefGrid3
|  2>
|  3> %maxcore 60000
|  4>
|  5> %pal
|  6> nprocs 4
|  7> end
|  8>
|  9> *xyzfile -1 2 EA_17.xyz
| 10>
| 11>                          ****END OF INPUT****

CARTESIAN COORDINATES (ANGSTROEM)
---------------------------------
  P      0.000000    0.000000    0.723660
  H      0.000000    0.000000   -0.723660

 Total Charge           Charge          ....   -1
 Multiplicity           Mult            ....    2
 Number of Electrons    NEL             ....   17
 Basis Dimension        Dim             ....   20

ORBITAL ENERGIES
----------------
                 SPIN UP ORBITALS
  NO   OCC          E(Eh)            E(eV)
   0   1.0000     -77.413681     -2106.5334
   1   1.0000      -6.486347      -176.5025
   2   1.0000      -4.583695      -124.7287
   3   1.0000      -4.576601      -124.5356
   4   1.0000      -4.572584      -124.4263
   5   1.0000      -0.355877        -9.6839
   6   1.0000      -0.087635        -2.3847
   7   1.0000       0.009316         0.2535
   8   1.0000       0.053475         1.4551
   9   0.0000       0.359471         9.7817
  10   0.0000       0.536052        14.5867
  11   0.0000       0.812036        22.0966
  12   0.0000       0.866634        23.5823
  13   0.0000       0.894874        24.3508

                 SPIN DOWN ORBITALS
  NO   OCC          E(Eh)            E(eV)
   0   1.0000     -77.409629     -2106.4231
   1   1.0000      -6.481978      -176.3836
   2   1.0000      -4.574180      -124.4698
   3   1.0000      -4.570179      -124.3609
   4   1.0000      -4.567672      -124.2927
   5   1.0000      -0.315920        -8.5966
   6   1.0000      -0.072214        -1.9650
   7   1.0000       0.067432         1.8349
   8   0.0000       0.208838         5.6828
   9   0.0000       0.373209        10.1555
  10   0.0000       0.554852        15.0983
  11   0.0000       0.823368        22.4050
  12   0.0000       0.910431        24.7741

MULLIKEN ATOMIC CHARGES AND SPIN POPULATIONS
--------------------------------------------
   0 P :   -0.907723    1.033472
   1 H :   -0.092277   -0.033472
Sum of atomic charges         :   -1.0000000

LOEWDIN ATOMIC CHARGES AND SPIN POPULATIONS
-------------------------------------------
   0 P :   -0.932263    1.018070
   1 H :   -0.067737   -0.018070

  Mayer bond orders larger than 0.100000
B(  0-P ,  1-H ) :   0.9449

Dispersion correction           -0.000202682
FINAL SINGLE POINT ENERGY      -341.475545630337

DIPOLE MOMENT
-------------
                                X             Y             Z
Electronic contribution:     -0.00000       0.00000       1.20461
Nuclear contribution   :      0.00000       0.00000      -1.35580
                        -----------------------------------------
Total Dipole Moment    :     -0.00000       0.00000      -0.15120
                        -----------------------------------------
Magnitude (a.u.)       :      0.15120
Magnitude (Debye)      :      0.38431

Rotational constants in cm-1:     0.000000     8.243565     8.243565
Rotational constants in MHz :     0.000000 247135.872805 247135.872805

                             ****ORCA TERMINATED NORMALLY****
TOTAL RUN TIME: 0 days 0 hours 0 minutes 35 seconds 120 msec
