                         Program Version 5.0.3 -  RELEASE  -
|  1> ! PBEh-3c def2/J TightSCF DefGrid3
|  2>
|  3> %maxcore 60000
|  4>
|  5> %pal
|  6> nprocs 4
|  7> end
|  8>
|  9> *xyzfile 0 1 MET_xav.xyz
| 10>
| 11>                          ****END OF INPUT****

CARTESIAN COORDINATES (ANGSTROEM)
---------------------------------
  N      2.103902    0.132022    0.133988
  H      2.492499    0.965426    0.547769
  C      0.670176    0.109378   -0.008319
  H      0.426051   -0.326279   -0.977687
  C      0.036364   -0.745204    1.100824
  H      0.375363   -0.349613    2.060353
  H      0.437678   -1.752537    0.988880
  C     -1.485710   -0.784630    1.101554
  H     -1.834680   -1.474168    1.870420
  H     -1.900847    0.202241    1.312957
  S     -2.130801   -1.344542   -0.502681
  C     -3.890879   -1.204066   -0.121034
  H     -4.443125   -1.497433   -1.010043
  H     -4.149865   -0.179277    0.138193
  H     -4.156662   -1.869326    0.697513
  C      0.196337    1.554087    0.069655
  O      0.828546    2.396412    0.704744
  N     -0.954447    1.808147   -0.588398
  H     -1.433509    1.021148   -1.006522
  C      2.874244   -0.901543   -0.288007
  O      2.394896   -1.909182   -0.798311
  C      4.359688   -0.729425   -0.081362
  H      4.860037   -0.882690   -1.034082
  H      4.706205   -1.501484    0.601897
  H      4.626296    0.246981    0.315287
  C     -1.598864    3.102537   -0.526862
  H     -0.847205    3.836815   -0.254933
  H     -2.017307    3.354117   -1.497779
  H     -2.392660    3.125364    0.220311

 Total Charge           Charge          ....    0
 Multiplicity           Mult            ....    1
 Number of Electrons    NEL             ....  110
 Basis Dimension        Dim             ....  230

ORBITAL ENERGIES
----------------

  NO   OCC          E(Eh)            E(eV)
   0   2.0000     -89.590444     -2437.8799
   1   2.0000     -19.465861      -529.6930
   2   2.0000     -19.445587      -529.1413
   3   2.0000     -14.666606      -399.0986
   4   2.0000     -14.653742      -398.7486
   5   2.0000     -10.551537      -287.1219
   6   2.0000     -10.540704      -286.8271
   7   2.0000     -10.488592      -285.4091
   8   2.0000     -10.478366      -285.1308
   9   2.0000     -10.472558      -284.9728
  10   2.0000     -10.471634      -284.9476
  11   2.0000     -10.451497      -284.3997
  12   2.0000     -10.435263      -283.9579
  13   2.0000      -8.228730      -223.9151
  14   2.0000      -6.119765      -166.5273
  15   2.0000      -6.116749      -166.4452
  16   2.0000      -6.111325      -166.2976
  17   2.0000      -1.151561       -31.3356
  18   2.0000      -1.131531       -30.7905
  19   2.0000      -1.028593       -27.9894
  20   2.0000      -1.020359       -27.7654
  21   2.0000      -0.922408       -25.1000
  22   2.0000      -0.871839       -23.7240
  23   2.0000      -0.828734       -22.5510
  24   2.0000      -0.810797       -22.0629
  25   2.0000      -0.771091       -20.9825
  26   2.0000      -0.720995       -19.6193
  27   2.0000      -0.673684       -18.3319
  28   2.0000      -0.662630       -18.0311
  29   2.0000      -0.640073       -17.4173
  30   2.0000      -0.604749       -16.4561
  31   2.0000      -0.556121       -15.1328
  32   2.0000      -0.544109       -14.8060
  33   2.0000      -0.536212       -14.5911
  34   2.0000      -0.518488       -14.1088
  35   2.0000      -0.513552       -13.9745
  36   2.0000      -0.509812       -13.8727
  37   2.0000      -0.501571       -13.6484
  38   2.0000      -0.497708       -13.5433
  39   2.0000      -0.485636       -13.2148
  40   2.0000      -0.469012       -12.7625
  41   2.0000      -0.463463       -12.6115
  42   2.0000      -0.454435       -12.3658
  43   2.0000      -0.450021       -12.2457
  44   2.0000      -0.441361       -12.0100
  45   2.0000      -0.430524       -11.7151
  46   2.0000      -0.416140       -11.3237
  47   2.0000      -0.405929       -11.0459
  48   2.0000      -0.397477       -10.8159
  49   2.0000      -0.365961        -9.9583
  50   2.0000      -0.322811        -8.7841
  51   2.0000      -0.308706        -8.4003
  52   2.0000      -0.299155        -8.1404
  53   2.0000      -0.295662        -8.0454
  54   2.0000      -0.279750        -7.6124
  55   0.0000       0.045861         1.2479
  56   0.0000       0.070578         1.9205
  57   0.0000       0.073443         1.9985
  58   0.0000       0.108774         2.9599
  59   0.0000       0.117099         3.1864

MULLIKEN ATOMIC CHARGES
-----------------------
   0 N :   -0.645349
   1 H :    0.380336
   2 C :   -0.177925
   3 H :    0.277833
   4 C :   -0.427622
   5 H :    0.242298
   6 H :    0.279396
   7 C :   -0.560380
   8 H :    0.265545
   9 H :    0.248033
  10 S :    0.003652
  11 C :   -0.743824
  12 H :    0.263003
  13 H :    0.240694
  14 H :    0.251418
  15 C :    0.532164
  16 O :   -0.447232
  17 N :   -0.636818
  18 H :    0.380741
  19 C :    0.525412
  20 O :   -0.441786
  21 C :   -0.747247
  22 H :    0.257304
  23 H :    0.253699
  24 H :    0.216921
  25 C :   -0.495795
  26 H :    0.264033
  27 H :    0.224896
  28 H :    0.216600
Sum of atomic charges:    0.0000000

LOEWDIN ATOMIC CHARGES
----------------------
   0 N :   -0.222818
   1 H :    0.267212
   2 C :   -0.097358
   3 H :    0.147807
   4 C :   -0.247020
   5 H :    0.140969
   6 H :    0.153698
   7 C :   -0.336389
   8 H :    0.136281
   9 H :    0.126472
  10 S :    0.156201
  11 C :   -0.464726
  12 H :    0.144373
  13 H :    0.128531
  14 H :    0.133906
  15 C :    0.109280
  16 O :   -0.294635
  17 N :   -0.240702
  18 H :    0.250387
  19 C :    0.105255
  20 O :   -0.291587
  21 C :   -0.387512
  22 H :    0.156169
  23 H :    0.154950
  24 H :    0.129194
  25 C :   -0.256381
  26 H :    0.152303
  27 H :    0.127111
  28 H :    0.119031

  Mayer bond orders larger than 0.100000
B(  0-N ,  1-H ) :   0.7823 B(  0-N ,  2-C ) :   0.9422 B(  0-N , 19-C ) :   1.1491
B(  2-C ,  3-H ) :   0.8723 B(  2-C ,  4-C ) :   0.9574 B(  2-C , 15-C ) :   0.9017
B(  4-C ,  5-H ) :   0.9060 B(  4-C ,  6-H ) :   0.8886 B(  4-C ,  7-C ) :   0.9630
B(  7-C ,  8-H ) :   0.8883 B(  7-C ,  9-H ) :   0.8795 B(  7-C , 10-S ) :   1.0022
B( 10-S , 11-C ) :   1.0138 B( 11-C , 12-H ) :   0.9072 B( 11-C , 13-H ) :   0.8982
B( 11-C , 14-H ) :   0.8956 B( 15-C , 16-O ) :   1.9569 B( 15-C , 17-N ) :   1.1618
B( 17-N , 18-H ) :   0.7645 B( 17-N , 25-C ) :   0.9546 B( 19-C , 20-O ) :   1.9612
B( 19-C , 21-C ) :   0.9283 B( 21-C , 22-H ) :   0.9114 B( 21-C , 23-H ) :   0.9112
B( 21-C , 24-H ) :   0.9211 B( 25-C , 26-H ) :   0.9024 B( 25-C , 27-H ) :   0.9228
B( 25-C , 28-H ) :   0.9196

Dispersion correction           -0.017863761
FINAL SINGLE POINT ENERGY      -970.991917773382

DIPOLE MOMENT
-------------
                                X             Y             Z
Electronic contribution:      4.12176      -2.20092      -2.78896
Nuclear contribution   :     -5.40068       2.82313       3.24141
                        -----------------------------------------
Total Dipole Moment    :     -1.27892       0.62221       0.45245
                        -----------------------------------------
Magnitude (a.u.)       :      1.49248
Magnitude (Debye)      :      3.79358

Rotational constants in cm-1:     0.029062     0.014933     0.010920
Rotational constants in MHz :   871.243803   447.684255   327.359393

                             ****ORCA TERMINATED NORMALLY****
TOTAL RUN TIME: 0 days 0 hours 3 minutes 16 seconds 99 msec
