                         Program Version 5.0.3 -  RELEASE  -
|  1> ! PBEh-3c def2/J TightSCF DefGrid3
|  2>
|  3> %maxcore 60000
|  4>
|  5> %pal
|  6> nprocs 4
|  7> end
|  8>
|  9> *xyzfile 0 2 cl.xyz
| 10>
| 11>                          ****END OF INPUT****

CARTESIAN COORDINATES (ANGSTROEM)
---------------------------------
  Cl     0.000000    0.000000    0.000000

 Total Charge           Charge          ....    0
 Multiplicity           Mult            ....    2
 Number of Electrons    NEL             ....   17
 Basis Dimension        Dim             ....   18

ORBITAL ENERGIES
----------------
                 SPIN UP ORBITALS
  NO   OCC          E(Eh)            E(eV)
   0   1.0000    -102.340948     -2784.8388
   1   1.0000      -9.805731      -266.8275
   2   1.0000      -7.505767      -204.2423
   3   1.0000      -7.482269      -203.6029
   4   1.0000      -7.482269      -203.6029
   5   1.0000      -0.926560       -25.2130
   6   1.0000      -0.458114       -12.4659
   7   1.0000      -0.397891       -10.8272
   8   1.0000      -0.397891       -10.8272
   9   0.0000       0.460969        12.5436
  10   0.0000       0.753119        20.4934
  11   0.0000       0.767194        20.8764
  12   0.0000       0.767194        20.8764
  13   0.0000       0.814626        22.1671

                 SPIN DOWN ORBITALS
  NO   OCC          E(Eh)            E(eV)
   0   1.0000    -102.333186     -2784.6276
   1   1.0000      -9.798238      -266.6236
   2   1.0000      -7.477895      -203.4839
   3   1.0000      -7.477895      -203.4839
   4   1.0000      -7.477598      -203.4758
   5   1.0000      -0.855756       -23.2863
   6   1.0000      -0.379461       -10.3257
   7   1.0000      -0.379461       -10.3257
   8   0.0000      -0.189820        -5.1653
   9   0.0000       0.483423        13.1546
  10   0.0000       0.823187        22.4001
  11   0.0000       0.823187        22.4001
  12   0.0000       0.833278        22.6746

MULLIKEN ATOMIC CHARGES AND SPIN POPULATIONS
--------------------------------------------
   0 Cl:    0.000000    1.000000
Sum of atomic charges         :    0.0000000

LOEWDIN ATOMIC CHARGES AND SPIN POPULATIONS
-------------------------------------------
   0 Cl:    0.000000    1.000000

Dispersion correction            0.000000000
FINAL SINGLE POINT ENERGY      -459.639190529918

DIPOLE MOMENT
-------------
                                X             Y             Z
Electronic contribution:      0.00000      -0.00000       0.00000
Nuclear contribution   :      0.00000       0.00000       0.00000
                        -----------------------------------------
Total Dipole Moment    :      0.00000      -0.00000       0.00000
                        -----------------------------------------
Magnitude (a.u.)       :      0.00000
Magnitude (Debye)      :      0.00001

Rotational constants in cm-1:     0.000000     0.000000     0.000000
Rotational constants in MHz :     0.000000     0.000000     0.000000

                             ****ORCA TERMINATED NORMALLY****
TOTAL RUN TIME: 0 days 0 hours 1 minutes 28 seconds 492 msec
