                         Program Version 5.0.3 -  RELEASE  -
|  1> ! PBEh-3c def2/J TightSCF DefGrid3
|  2>
|  3> %maxcore 60000
|  4>
|  5> %pal
|  6> nprocs 4
|  7> end
|  8>
|  9> *xyzfile 0 1 C14.xyz
| 10>
| 11>                          ****END OF INPUT****

CARTESIAN COORDINATES (ANGSTROEM)
---------------------------------
  C      2.457402    0.856772    0.674144
  C      1.733967   -0.478190    0.480440
  C      0.595921   -0.409665   -0.550125
  C     -0.679624    0.288011   -0.036510
  C     -1.792429   -0.757499   -0.249492
  O     -2.767778   -0.653201    0.784993
  C     -1.010994   -2.076584   -0.244854
  O      3.140064    1.264623   -0.501575
  O     -0.854251    1.501260   -0.742955
  O      2.725222   -1.410105    0.047391
  O      0.214671   -1.763577   -0.908664
  C     -1.844620    2.366180   -0.196711
  H      3.156897    0.752897    1.516688
  H      1.743563    1.649563    0.917325
  H      1.323853   -0.799475    1.452818
  H      0.951827    0.078902   -1.460359
  H     -0.617585    0.493553    1.045367
  H     -2.243613   -0.584046   -1.235854
  H     -3.533046   -1.199434    0.563212
  H     -1.493136   -2.886178   -0.800420
  H     -0.843364   -2.404884    0.792594
  H      3.668554    0.505501   -0.791005
  H      2.254749   -2.149376   -0.369345
  H     -2.849073    1.929167   -0.255096
  H     -1.626351    2.601850    0.855022
  H     -1.810828    3.283940   -0.787025

 Total Charge           Charge          ....    0
 Multiplicity           Mult            ....    1
 Number of Electrons    NEL             ....   96
 Basis Dimension        Dim             ....  208

ORBITAL ENERGIES
----------------

  NO   OCC          E(Eh)            E(eV)
   0   2.0000     -19.513024      -530.9764
   1   2.0000     -19.509054      -530.8684
   2   2.0000     -19.503039      -530.7047
   3   2.0000     -19.489715      -530.3421
   4   2.0000     -19.476599      -529.9852
   5   2.0000     -10.505021      -285.8562
   6   2.0000     -10.503340      -285.8104
   7   2.0000     -10.497155      -285.6421
   8   2.0000     -10.495379      -285.5938
   9   2.0000     -10.492684      -285.5205
  10   2.0000     -10.479970      -285.1745
  11   2.0000     -10.479293      -285.1560
  12   2.0000      -1.168163       -31.7873
  13   2.0000      -1.145320       -31.1658
  14   2.0000      -1.137160       -30.9437
  15   2.0000      -1.128287       -30.7023
  16   2.0000      -1.103238       -30.0206
  17   2.0000      -0.878272       -23.8990
  18   2.0000      -0.853199       -23.2167
  19   2.0000      -0.803857       -21.8741
  20   2.0000      -0.758582       -20.6421
  21   2.0000      -0.706913       -19.2361
  22   2.0000      -0.672618       -18.3029
  23   2.0000      -0.660054       -17.9610
  24   2.0000      -0.616369       -16.7723
  25   2.0000      -0.588534       -16.0148
  26   2.0000      -0.580395       -15.7933
  27   2.0000      -0.547518       -14.8987
  28   2.0000      -0.542871       -14.7723
  29   2.0000      -0.536507       -14.5991
  30   2.0000      -0.522155       -14.2085
  31   2.0000      -0.504418       -13.7259
  32   2.0000      -0.493332       -13.4243
  33   2.0000      -0.479346       -13.0437
  34   2.0000      -0.470662       -12.8074
  35   2.0000      -0.467168       -12.7123
  36   2.0000      -0.456884       -12.4324
  37   2.0000      -0.444794       -12.1035
  38   2.0000      -0.408540       -11.1169
  39   2.0000      -0.405949       -11.0464
  40   2.0000      -0.397587       -10.8189
  41   2.0000      -0.380063       -10.3420
  42   2.0000      -0.371627       -10.1125
  43   2.0000      -0.354892        -9.6571
  44   2.0000      -0.343118        -9.3367
  45   2.0000      -0.322954        -8.7880
  46   2.0000      -0.314266        -8.5516
  47   2.0000      -0.303736        -8.2651
  48   0.0000       0.093056         2.5322
  49   0.0000       0.110890         3.0175
  50   0.0000       0.130795         3.5591
  51   0.0000       0.145776         3.9668
  52   0.0000       0.155377         4.2280

MULLIKEN ATOMIC CHARGES
-----------------------
   0 C :   -0.156232
   1 C :   -0.000001
   2 C :   -0.010124
   3 C :    0.018780
   4 C :   -0.021231
   5 O :   -0.631949
   6 C :   -0.178435
   7 O :   -0.626398
   8 O :   -0.470927
   9 O :   -0.659299
  10 O :   -0.499061
  11 C :   -0.374441
  12 H :    0.200647
  13 H :    0.214193
  14 H :    0.182519
  15 H :    0.267100
  16 H :    0.207689
  17 H :    0.221092
  18 H :    0.420062
  19 H :    0.216706
  20 H :    0.204006
  21 H :    0.423409
  22 H :    0.433781
  23 H :    0.203717
  24 H :    0.190516
  25 H :    0.223882
Sum of atomic charges:   -0.0000000

LOEWDIN ATOMIC CHARGES
----------------------
   0 C :   -0.093624
   1 C :   -0.052736
   2 C :   -0.021144
   3 C :   -0.018094
   4 C :   -0.044787
   5 O :   -0.398265
   6 C :   -0.095118
   7 O :   -0.408781
   8 O :   -0.249956
   9 O :   -0.408918
  10 O :   -0.265106
  11 C :   -0.181878
  12 H :    0.109141
  13 H :    0.124046
  14 H :    0.103123
  15 H :    0.146415
  16 H :    0.116341
  17 H :    0.119543
  18 H :    0.314584
  19 H :    0.124190
  20 H :    0.111150
  21 H :    0.312766
  22 H :    0.316274
  23 H :    0.109469
  24 H :    0.105805
  25 H :    0.125562

  Mayer bond orders larger than 0.100000
B(  0-C ,  1-C ) :   0.9380 B(  0-C ,  7-O ) :   1.0341 B(  0-C , 12-H ) :   0.9003
B(  0-C , 13-H ) :   0.9099 B(  1-C ,  2-C ) :   0.9437 B(  1-C ,  9-O ) :   0.9944
B(  1-C , 14-H ) :   0.8930 B(  2-C ,  3-C ) :   0.9350 B(  2-C , 10-O ) :   0.9331
B(  2-C , 15-H ) :   0.8811 B(  3-C ,  4-C ) :   0.9404 B(  3-C ,  8-O ) :   0.9701
B(  3-C , 16-H ) :   0.8830 B(  4-C ,  5-O ) :   1.0120 B(  4-C ,  6-C ) :   0.9288
B(  4-C , 17-H ) :   0.8834 B(  5-O , 18-H ) :   0.7878 B(  6-C , 10-O ) :   0.9736
B(  6-C , 19-H ) :   0.9202 B(  6-C , 20-H ) :   0.8931 B(  7-O , 21-H ) :   0.7694
B(  8-O , 11-C ) :   0.9596 B(  9-O , 22-H ) :   0.7542 B( 11-C , 23-H ) :   0.9080
B( 11-C , 24-H ) :   0.9150 B( 11-C , 25-H ) :   0.9269

Dispersion correction           -0.014351993
FINAL SINGLE POINT ENERGY      -649.845442514609

DIPOLE MOMENT
-------------
                                X             Y             Z
Electronic contribution:      2.53858      -3.26572      -2.56859
Nuclear contribution   :     -4.05328       2.52877       2.90328
                        -----------------------------------------
Total Dipole Moment    :     -1.51470      -0.73696       0.33469
                        -----------------------------------------
Magnitude (a.u.)       :      1.71740
Magnitude (Debye)      :      4.36527

Rotational constants in cm-1:     0.042531     0.022562     0.016505
Rotational constants in MHz :  1275.057893   676.377651   494.821052

                             ****ORCA TERMINATED NORMALLY****
TOTAL RUN TIME: 0 days 0 hours 2 minutes 51 seconds 679 msec
