                         Program Version 5.0.3 -  RELEASE  -
|  1> ! PBEh-3c def2/J TightSCF DefGrid3
|  2>
|  3> %maxcore 60000
|  4>
|  5> %pal
|  6> nprocs 4
|  7> end
|  8>
|  9> *xyzfile 0 1 pbh4_h2o.xyz
| 10>
| 11>                          ****END OF INPUT****

CARTESIAN COORDINATES (ANGSTROEM)
---------------------------------
  Pb    -0.005607   -1.829245    0.000000
  H      0.778731   -2.461283    1.400385
  H     -1.645291   -2.364735    0.000000
  H      0.060841   -0.113588    0.000000
  H      0.778731   -2.461283   -1.400385
  O     -0.005607    2.684580    0.000000
  H      0.774667    3.241026    0.000000
  H     -0.736467    3.304527    0.000000

 Total Charge           Charge          ....    0
 Multiplicity           Mult            ....    1
 Number of Electrons    NEL             ....   36
 Basis Dimension        Dim             ....   53

ORBITAL ENERGIES
----------------

  NO   OCC          E(Eh)            E(eV)
   0   2.0000     -19.478927      -530.0485
   1   2.0000      -5.685729      -154.7165
   2   2.0000      -3.478164       -94.6457
   3   2.0000      -3.478137       -94.6449
   4   2.0000      -3.477976       -94.6406
   5   2.0000      -1.108028       -30.1510
   6   2.0000      -0.921314       -25.0702
   7   2.0000      -0.921281       -25.0693
   8   2.0000      -0.920980       -25.0611
   9   2.0000      -0.909783       -24.7564
  10   2.0000      -0.909782       -24.7564
  11   2.0000      -0.613622       -16.6975
  12   2.0000      -0.586459       -15.9584
  13   2.0000      -0.441370       -12.0103
  14   2.0000      -0.361205        -9.8289
  15   2.0000      -0.350622        -9.5409
  16   2.0000      -0.350501        -9.5376
  17   2.0000      -0.348087        -9.4719
  18   0.0000       0.063863         1.7378
  19   0.0000       0.087446         2.3795
  20   0.0000       0.087973         2.3939
  21   0.0000       0.092530         2.5179
  22   0.0000       0.128059         3.4847

MULLIKEN ATOMIC CHARGES
-----------------------
   0 Pb:   -0.057321
   1 H :   -0.002233
   2 H :   -0.001925
   3 H :    0.057423
   4 H :   -0.002233
   5 O :   -0.815024
   6 H :    0.410582
   7 H :    0.410730
Sum of atomic charges:   -0.0000000

LOEWDIN ATOMIC CHARGES
----------------------
   0 Pb:   -0.077043
   1 H :    0.009407
   2 H :    0.009643
   3 H :    0.043515
   4 H :    0.009407
   5 O :   -0.594474
   6 H :    0.299731
   7 H :    0.299814

  Mayer bond orders larger than 0.100000
B(  0-Pb,  1-H ) :   0.9441 B(  0-Pb,  2-H ) :   0.9446 B(  0-Pb,  3-H ) :   0.9376
B(  0-Pb,  4-H ) :   0.9441 B(  5-O ,  6-H ) :   0.8134 B(  5-O ,  7-H ) :   0.8133

Dispersion correction           -0.001441466
FINAL SINGLE POINT ENERGY      -271.442820461556

DIPOLE MOMENT
-------------
                                X             Y             Z
Electronic contribution:     -0.03371     -61.85208      -0.00000
Nuclear contribution   :      0.07134      62.90555       0.00000
                        -----------------------------------------
Total Dipole Moment    :      0.03763       1.05347      -0.00000
                        -----------------------------------------
Magnitude (a.u.)       :      1.05414
Magnitude (Debye)      :      2.67942

Rotational constants in cm-1:     1.860608     0.047242     0.047090
Rotational constants in MHz : 55779.624208  1416.272311  1411.709970

                             ****ORCA TERMINATED NORMALLY****
TOTAL RUN TIME: 0 days 0 hours 0 minutes 57 seconds 692 msec
