                         Program Version 5.0.3 -  RELEASE  -
|  1> ! PBEh-3c def2/J TightSCF DefGrid3
|  2>
|  3> %maxcore 60000
|  4>
|  5> %pal
|  6> nprocs 4
|  7> end
|  8>
|  9> *xyzfile 0 1 13.xyz
| 10>
| 11>                          ****END OF INPUT****

CARTESIAN COORDINATES (ANGSTROEM)
---------------------------------
  C     -0.964726    0.010959    1.854743
  H      0.068935    0.339410    1.779212
  H     -0.997907   -0.991594    2.275730
  H     -1.506212    0.667336    2.531456
  C     -1.679441   -0.002866    0.522502
  O     -2.864936   -0.301080    0.419788
  N     -0.917063    0.323103   -0.548631
  H      0.045778    0.590818   -0.418260
  C     -1.500759    0.348106   -1.871110
  H     -2.007026   -0.592344   -2.077069
  H     -2.235381    1.146669   -1.967853
  H     -0.710055    0.500028   -2.600101
  O      2.021656    0.602475   -0.183254
  H      2.742511    1.229774   -0.092840
  C      2.540740   -0.702891    0.050627
  H      1.708169   -1.391679   -0.054949
  H      3.306879   -0.971884   -0.676253
  H      2.948837   -0.804340    1.056262

 Total Charge           Charge          ....    0
 Multiplicity           Mult            ....    1
 Number of Electrons    NEL             ....   58
 Basis Dimension        Dim             ....  127

ORBITAL ENERGIES
----------------

  NO   OCC          E(Eh)            E(eV)
   0   2.0000     -19.520938      -531.1917
   1   2.0000     -19.430009      -528.7174
   2   2.0000     -14.636972      -398.2923
   3   2.0000     -10.523612      -286.3621
   4   2.0000     -10.496376      -285.6209
   5   2.0000     -10.450267      -284.3662
   6   2.0000     -10.424815      -283.6736
   7   2.0000      -1.152848       -31.3706
   8   2.0000      -1.116217       -30.3738
   9   2.0000      -0.997081       -27.1320
  10   2.0000      -0.824120       -22.4254
  11   2.0000      -0.787058       -21.4169
  12   2.0000      -0.752351       -20.4725
  13   2.0000      -0.637985       -17.3604
  14   2.0000      -0.596906       -16.2426
  15   2.0000      -0.552270       -15.0280
  16   2.0000      -0.525624       -14.3030
  17   2.0000      -0.514801       -14.0084
  18   2.0000      -0.506607       -13.7855
  19   2.0000      -0.502790       -13.6816
  20   2.0000      -0.465162       -12.6577
  21   2.0000      -0.448511       -12.2046
  22   2.0000      -0.438092       -11.9211
  23   2.0000      -0.431056       -11.7296
  24   2.0000      -0.415332       -11.3018
  25   2.0000      -0.384957       -10.4752
  26   2.0000      -0.360122        -9.7994
  27   2.0000      -0.285556        -7.7704
  28   2.0000      -0.280604        -7.6356
  29   0.0000       0.084300         2.2939
  30   0.0000       0.093841         2.5535
  31   0.0000       0.165299         4.4980
  32   0.0000       0.173932         4.7329
  33   0.0000       0.187360         5.0983

MULLIKEN ATOMIC CHARGES
-----------------------
   0 C :   -0.759351
   1 H :    0.220229
   2 H :    0.245338
   3 H :    0.251253
   4 C :    0.508937
   5 O :   -0.441331
   6 N :   -0.657038
   7 H :    0.403548
   8 C :   -0.484918
   9 H :    0.236542
  10 H :    0.227060
  11 H :    0.208142
  12 O :   -0.644182
  13 H :    0.431609
  14 C :   -0.381894
  15 H :    0.232299
  16 H :    0.203999
  17 H :    0.199757
Sum of atomic charges:   -0.0000000

LOEWDIN ATOMIC CHARGES
----------------------
   0 C :   -0.394944
   1 H :    0.128861
   2 H :    0.150242
   3 H :    0.151810
   4 C :    0.097444
   5 O :   -0.293611
   6 N :   -0.260799
   7 H :    0.257547
   8 C :   -0.253925
   9 H :    0.132398
  10 H :    0.124742
  11 H :    0.121768
  12 O :   -0.420547
  13 H :    0.315602
  14 C :   -0.200404
  15 H :    0.129611
  16 H :    0.107827
  17 H :    0.106377

  Mayer bond orders larger than 0.100000
B(  0-C ,  1-H ) :   0.9130 B(  0-C ,  2-H ) :   0.9150 B(  0-C ,  3-H ) :   0.9142
B(  0-C ,  4-C ) :   0.9299 B(  4-C ,  5-O ) :   1.9815 B(  4-C ,  6-N ) :   1.1652
B(  6-N ,  7-H ) :   0.7428 B(  6-N ,  8-C ) :   0.9655 B(  8-C ,  9-H ) :   0.9143
B(  8-C , 10-H ) :   0.9168 B(  8-C , 11-H ) :   0.9291 B( 12-O , 13-H ) :   0.7818
B( 12-O , 14-C ) :   0.9699 B( 14-C , 15-H ) :   0.9180 B( 14-C , 16-H ) :   0.9169
B( 14-C , 17-H ) :   0.9168

Dispersion correction           -0.007128276
FINAL SINGLE POINT ENERGY      -363.466261654929

DIPOLE MOMENT
-------------
                                X             Y             Z
Electronic contribution:     -4.81220       1.04174       0.35611
Nuclear contribution   :      7.29663      -0.73735      -0.47926
                        -----------------------------------------
Total Dipole Moment    :      2.48443       0.30439      -0.12315
                        -----------------------------------------
Magnitude (a.u.)       :      2.50603
Magnitude (Debye)      :      6.36982

Rotational constants in cm-1:     0.112097     0.041458     0.032848
Rotational constants in MHz :  3360.571338  1242.892790   984.763565

                             ****ORCA TERMINATED NORMALLY****
TOTAL RUN TIME: 0 days 0 hours 1 minutes 42 seconds 556 msec
