                         Program Version 5.0.3 -  RELEASE  -
|  1> ! PBEh-3c def2/J TightSCF DefGrid3
|  2>
|  3> %maxcore 60000
|  4>
|  5> %pal
|  6> nprocs 4
|  7> end
|  8>
|  9> *xyzfile 0 1 47.xyz
| 10>
| 11>                          ****END OF INPUT****

CARTESIAN COORDINATES (ANGSTROEM)
---------------------------------
  Si     0.000000    0.000000   -0.761468
  O      0.000000    0.000000    0.761468

 Total Charge           Charge          ....    0
 Multiplicity           Mult            ....    1
 Number of Electrons    NEL             ....   22
 Basis Dimension        Dim             ....   33

ORBITAL ENERGIES
----------------

  NO   OCC          E(Eh)            E(eV)
   0   2.0000     -66.780891     -1817.2004
   1   2.0000     -19.482939      -530.1577
   2   2.0000      -5.558484      -151.2540
   3   2.0000      -3.848939      -104.7350
   4   2.0000      -3.848939      -104.7350
   5   2.0000      -3.844500      -104.6142
   6   2.0000      -1.040361       -28.3097
   7   2.0000      -0.494837       -13.4652
   8   2.0000      -0.380758       -10.3610
   9   2.0000      -0.380758       -10.3610
  10   2.0000      -0.355896        -9.6844
  11   0.0000      -0.044790        -1.2188
  12   0.0000      -0.044790        -1.2188
  13   0.0000       0.088838         2.4174
  14   0.0000       0.208053         5.6614
  15   0.0000       0.432860        11.7787

MULLIKEN ATOMIC CHARGES
-----------------------
   0 Si:    0.541212
   1 O :   -0.541212
Sum of atomic charges:   -0.0000000

LOEWDIN ATOMIC CHARGES
----------------------
   0 Si:    0.346989
   1 O :   -0.346989

  Mayer bond orders larger than 0.100000
B(  0-Si,  1-O ) :   2.2145

Dispersion correction           -0.000292804
FINAL SINGLE POINT ENERGY      -364.190101247573

DIPOLE MOMENT
-------------
                                X             Y             Z
Electronic contribution:     -0.00000       0.00000      -1.16646
Nuclear contribution   :      0.00000       0.00000       0.04583
                        -----------------------------------------
Total Dipole Moment    :     -0.00000       0.00000      -1.12063
                        -----------------------------------------
Magnitude (a.u.)       :      1.12063
Magnitude (Debye)      :      2.84842

Rotational constants in cm-1:     0.000000     0.713085     0.713085
Rotational constants in MHz :     0.000000 21377.759417 21377.759417

                             ****ORCA TERMINATED NORMALLY****
TOTAL RUN TIME: 0 days 0 hours 0 minutes 11 seconds 215 msec
