                         Program Version 5.0.3 -  RELEASE  -
|  1> ! PBEh-3c def2/J TightSCF DefGrid3
|  2>
|  3> %maxcore 60000
|  4>
|  5> %pal
|  6> nprocs 4
|  7> end
|  8>
|  9> *xyzfile 0 1 7.xyz
| 10>
| 11>                          ****END OF INPUT****

CARTESIAN COORDINATES (ANGSTROEM)
---------------------------------
  C     -0.125400    4.288863    0.397010
  C     -1.397951    3.993787   -0.100538
  C     -1.251682    3.574918   -1.493335
  C      0.845272    4.050811   -0.675867
  C      0.147956    3.518731   -1.815082
  C      1.945656    3.365600   -0.119918
  C      0.360189    3.668939    1.599535
  C      1.703786    3.172612    1.319013
  C     -0.522295    2.856533    2.339191
  C     -2.247211    3.046131    0.562166
  C     -1.844840    2.544780    1.808485
  C     -2.090805    2.461639   -1.711188
  C     -2.740233    2.101987   -0.447596
  C     -1.654527    1.433644   -2.561732
  C      0.666768    2.339905   -2.485980
  C     -0.272149    1.376535   -2.970139
  C      2.555994    2.321630   -0.857870
  C      1.943651    1.825652   -2.055777
  C      3.149687    1.188193   -0.180904
  C      2.158652    2.005274    1.927367
  C      2.949469    1.029996    1.187158
  C     -0.035316    1.640682    2.964005
  C      1.296534    1.247268    2.807215
  C     -2.152295    1.174928    2.138747
  C     -1.070097    0.629253    2.910613
  C     -3.043331    0.759294   -0.147818
  C     -2.867705    0.325811    1.245034
  C     -2.114269    0.100752   -2.361143
  C     -2.861828   -0.251495   -1.213783
  C      0.067730   -0.023896   -3.127327
  C     -1.083041   -0.814334   -2.849215
  C      2.280223    0.418843   -2.183574
  C      3.048612    0.024361   -1.039656
  C      1.378487   -0.512820   -2.782578
  C      2.997023   -1.301412   -0.524975
  C      2.678719   -0.293522    1.712652
  C      1.624472   -0.159799    2.676600
  C      2.812416   -1.469295    0.924154
  C     -0.772250   -0.767395    2.908451
  C      0.640575   -1.183933    2.830434
  C     -2.785893   -1.059233    1.521191
  C     -1.771287   -1.617494    2.376344
  C     -2.865416   -1.642193   -0.868310
  C     -2.999846   -2.011680    0.471769
  C     -0.993079   -2.172958   -2.420024
  C     -1.970251   -2.638586   -1.502916
  C      1.507653   -1.869393   -2.427868
  C      2.415187   -2.283853   -1.391997
  C      0.329992   -2.766839   -2.375781
  C      1.905997   -3.512085   -0.862980
  C      0.608031   -3.817337   -1.496165
  C      2.097574   -2.615864    1.403535
  C      0.968535   -2.448170    2.285005
  C      1.763065   -3.680020    0.503605
  C     -1.429532   -2.954517    1.861924
  C     -2.217282   -3.212613    0.718023
  C     -1.637646   -3.658907   -0.516066
  C     -0.335254   -4.204844   -0.475512
  C     -0.084768   -3.397516    1.869611
  C      0.389575   -4.145351    0.774776

 Total Charge           Charge          ....    0
 Multiplicity           Mult            ....    1
 Number of Electrons    NEL             ....  360
 Basis Dimension        Dim             ....  900

ORBITAL ENERGIES
----------------

  NO   OCC          E(Eh)            E(eV)
   0   2.0000     -10.533115      -286.6206
   1   2.0000     -10.530908      -286.5606
   2   2.0000     -10.529860      -286.5321
   3   2.0000     -10.529110      -286.5116
   4   2.0000     -10.528439      -286.4934
   5   2.0000     -10.528239      -286.4880
   6   2.0000     -10.527606      -286.4707
   7   2.0000     -10.526991      -286.4540
   8   2.0000     -10.526690      -286.4458
   9   2.0000     -10.526143      -286.4309
  10   2.0000     -10.525645      -286.4174
  11   2.0000     -10.525549      -286.4147
  12   2.0000     -10.524899      -286.3971
  13   2.0000     -10.523208      -286.3510
  14   2.0000     -10.522825      -286.3406
  15   2.0000     -10.522664      -286.3362
  16   2.0000     -10.522123      -286.3215
  17   2.0000     -10.521562      -286.3063
  18   2.0000     -10.521377      -286.3012
  19   2.0000     -10.521044      -286.2922
  20   2.0000     -10.520987      -286.2906
  21   2.0000     -10.520558      -286.2789
  22   2.0000     -10.520255      -286.2707
  23   2.0000     -10.520110      -286.2668
  24   2.0000     -10.519445      -286.2486
  25   2.0000     -10.518597      -286.2256
  26   2.0000     -10.518334      -286.2184
  27   2.0000     -10.518228      -286.2155
  28   2.0000     -10.517810      -286.2041
  29   2.0000     -10.517432      -286.1939
  30   2.0000     -10.516694      -286.1738
  31   2.0000     -10.516506      -286.1687
  32   2.0000     -10.516202      -286.1604
  33   2.0000     -10.515891      -286.1519
  34   2.0000     -10.515561      -286.1430
  35   2.0000     -10.515405      -286.1387
  36   2.0000     -10.515375      -286.1379
  37   2.0000     -10.515265      -286.1349
  38   2.0000     -10.515013      -286.1281
  39   2.0000     -10.514708      -286.1198
  40   2.0000     -10.514561      -286.1157
  41   2.0000     -10.514483      -286.1136
  42   2.0000     -10.514371      -286.1106
  43   2.0000     -10.513545      -286.0881
  44   2.0000     -10.513343      -286.0826
  45   2.0000     -10.513113      -286.0764
  46   2.0000     -10.512946      -286.0718
  47   2.0000     -10.512674      -286.0644
  48   2.0000     -10.511752      -286.0393
  49   2.0000     -10.511677      -286.0373
  50   2.0000     -10.511382      -286.0293
  51   2.0000     -10.511104      -286.0217
  52   2.0000     -10.510024      -285.9923
  53   2.0000     -10.509514      -285.9784
  54   2.0000     -10.508999      -285.9644
  55   2.0000     -10.505961      -285.8817
  56   2.0000     -10.504449      -285.8406
  57   2.0000     -10.504008      -285.8286
  58   2.0000     -10.501505      -285.7605
  59   2.0000     -10.497594      -285.6540
  60   2.0000      -1.101549       -29.9747
  61   2.0000      -1.088325       -29.6148
  62   2.0000      -1.075888       -29.2764
  63   2.0000      -1.070812       -29.1383
  64   2.0000      -1.055624       -28.7250
  65   2.0000      -1.043864       -28.4050
  66   2.0000      -1.035677       -28.1822
  67   2.0000      -1.026356       -27.9286
  68   2.0000      -1.016074       -27.6488
  69   2.0000      -0.997931       -27.1551
  70   2.0000      -0.989671       -26.9303
  71   2.0000      -0.982383       -26.7320
  72   2.0000      -0.971879       -26.4462
  73   2.0000      -0.966463       -26.2988
  74   2.0000      -0.946850       -25.7651
  75   2.0000      -0.944724       -25.7073
  76   2.0000      -0.924801       -25.1651
  77   2.0000      -0.921388       -25.0722
  78   2.0000      -0.915993       -24.9254
  79   2.0000      -0.907269       -24.6880
  80   2.0000      -0.897366       -24.4186
  81   2.0000      -0.886848       -24.1324
  82   2.0000      -0.882089       -24.0029
  83   2.0000      -0.867212       -23.5980
  84   2.0000      -0.850899       -23.1541
  85   2.0000      -0.846933       -23.0462
  86   2.0000      -0.841955       -22.9108
  87   2.0000      -0.835591       -22.7376
  88   2.0000      -0.827589       -22.5198
  89   2.0000      -0.822193       -22.3730
  90   2.0000      -0.806188       -21.9375
  91   2.0000      -0.790832       -21.5196
  92   2.0000      -0.780152       -21.2290
  93   2.0000      -0.771546       -20.9948
  94   2.0000      -0.757827       -20.6215
  95   2.0000      -0.753738       -20.5103
  96   2.0000      -0.748768       -20.3750
  97   2.0000      -0.740503       -20.1501
  98   2.0000      -0.726586       -19.7714
  99   2.0000      -0.724635       -19.7183
 100   2.0000      -0.712209       -19.3802
 101   2.0000      -0.707024       -19.2391
 102   2.0000      -0.701885       -19.0993
 103   2.0000      -0.690382       -18.7863
 104   2.0000      -0.681268       -18.5383
 105   2.0000      -0.671042       -18.2600
 106   2.0000      -0.658770       -17.9260
 107   2.0000      -0.648077       -17.6351
 108   2.0000      -0.642871       -17.4934
 109   2.0000      -0.635325       -17.2881
 110   2.0000      -0.630479       -17.1562
 111   2.0000      -0.626491       -17.0477
 112   2.0000      -0.619806       -16.8658
 113   2.0000      -0.610401       -16.6098
 114   2.0000      -0.605706       -16.4821
 115   2.0000      -0.597015       -16.2456
 116   2.0000      -0.592205       -16.1147
 117   2.0000      -0.576714       -15.6932
 118   2.0000      -0.572698       -15.5839
 119   2.0000      -0.570241       -15.5170
 120   2.0000      -0.566116       -15.4048
 121   2.0000      -0.557936       -15.1822
 122   2.0000      -0.553181       -15.0528
 123   2.0000      -0.550906       -14.9909
 124   2.0000      -0.546937       -14.8829
 125   2.0000      -0.543968       -14.8021
 126   2.0000      -0.541199       -14.7268
 127   2.0000      -0.537488       -14.6258
 128   2.0000      -0.535720       -14.5777
 129   2.0000      -0.532636       -14.4938
 130   2.0000      -0.530456       -14.4344
 131   2.0000      -0.523815       -14.2537
 132   2.0000      -0.520487       -14.1632
 133   2.0000      -0.514480       -13.9997
 134   2.0000      -0.512778       -13.9534
 135   2.0000      -0.508116       -13.8266
 136   2.0000      -0.505514       -13.7557
 137   2.0000      -0.503479       -13.7004
 138   2.0000      -0.501779       -13.6541
 139   2.0000      -0.498538       -13.5659
 140   2.0000      -0.495965       -13.4959
 141   2.0000      -0.494127       -13.4459
 142   2.0000      -0.489722       -13.3260
 143   2.0000      -0.482764       -13.1367
 144   2.0000      -0.477194       -12.9851
 145   2.0000      -0.473678       -12.8894
 146   2.0000      -0.470181       -12.7943
 147   2.0000      -0.469413       -12.7734
 148   2.0000      -0.464353       -12.6357
 149   2.0000      -0.449276       -12.2254
 150   2.0000      -0.448494       -12.2041
 151   2.0000      -0.443518       -12.0687
 152   2.0000      -0.440690       -11.9918
 153   2.0000      -0.438161       -11.9230
 154   2.0000      -0.435071       -11.8389
 155   2.0000      -0.430206       -11.7065
 156   2.0000      -0.429256       -11.6806
 157   2.0000      -0.426322       -11.6008
 158   2.0000      -0.425692       -11.5837
 159   2.0000      -0.422118       -11.4864
 160   2.0000      -0.415483       -11.3059
 161   2.0000      -0.414306       -11.2738
 162   2.0000      -0.410675       -11.1750
 163   2.0000      -0.405674       -11.0389
 164   2.0000      -0.384168       -10.4537
 165   2.0000      -0.379846       -10.3361
 166   2.0000      -0.358978        -9.7683
 167   2.0000      -0.357003        -9.7146
 168   2.0000      -0.349986        -9.5236
 169   2.0000      -0.338316        -9.2060
 170   2.0000      -0.331418        -9.0183
 171   2.0000      -0.317132        -8.6296
 172   2.0000      -0.308990        -8.4080
 173   2.0000      -0.295297        -8.0354
 174   2.0000      -0.286511        -7.7964
 175   2.0000      -0.278753        -7.5853
 176   2.0000      -0.273906        -7.4534
 177   2.0000      -0.272117        -7.4047
 178   2.0000      -0.260135        -7.0786
 179   2.0000      -0.246829        -6.7166
 180   0.0000      -0.167827        -4.5668
 181   0.0000      -0.149599        -4.0708
 182   0.0000      -0.118545        -3.2258
 183   0.0000      -0.100527        -2.7355
 184   0.0000      -0.078200        -2.1279

MULLIKEN ATOMIC CHARGES
-----------------------
   0 C :   -0.013753
   1 C :   -0.011505
   2 C :   -0.020859
   3 C :   -0.024003
   4 C :   -0.009935
   5 C :    0.013438
   6 C :    0.011614
   7 C :   -0.010269
   8 C :   -0.015634
   9 C :    0.014696
  10 C :   -0.010394
  11 C :    0.009317
  12 C :   -0.014594
  13 C :   -0.026894
  14 C :    0.044665
  15 C :   -0.011059
  16 C :   -0.016709
  17 C :   -0.002537
  18 C :    0.019242
  19 C :   -0.005922
  20 C :    0.013959
  21 C :    0.010580
  22 C :    0.014196
  23 C :    0.002591
  24 C :   -0.013586
  25 C :    0.021539
  26 C :    0.010164
  27 C :    0.013069
  28 C :    0.021492
  29 C :    0.002829
  30 C :   -0.024952
  31 C :   -0.010799
  32 C :   -0.023738
  33 C :    0.045709
  34 C :    0.016379
  35 C :    0.001837
  36 C :   -0.018397
  37 C :   -0.005994
  38 C :    0.017618
  39 C :    0.046429
  40 C :   -0.010838
  41 C :   -0.012882
  42 C :    0.014335
  43 C :   -0.004560
  44 C :    0.040948
  45 C :   -0.019849
  46 C :   -0.025578
  47 C :   -0.000451
  48 C :   -0.002438
  49 C :   -0.004514
  50 C :   -0.016240
  51 C :    0.004508
  52 C :   -0.024369
  53 C :    0.001368
  54 C :    0.013017
  55 C :   -0.018466
  56 C :   -0.000743
  57 C :    0.005494
  58 C :    0.017427
  59 C :   -0.015997
Sum of atomic charges:   -0.0000000

LOEWDIN ATOMIC CHARGES
----------------------
   0 C :    0.000624
   1 C :   -0.006705
   2 C :   -0.005799
   3 C :   -0.020498
   4 C :   -0.007745
   5 C :    0.018688
   6 C :    0.003470
   7 C :    0.003824
   8 C :   -0.014739
   9 C :    0.002546
  10 C :   -0.012635
  11 C :    0.005168
  12 C :    0.029694
  13 C :   -0.041596
  14 C :    0.013319
  15 C :    0.008653
  16 C :   -0.020259
  17 C :    0.014060
  18 C :   -0.001615
  19 C :   -0.009282
  20 C :    0.024097
  21 C :    0.006810
  22 C :   -0.003775
  23 C :   -0.002073
  24 C :   -0.005337
  25 C :   -0.008402
  26 C :    0.000240
  27 C :   -0.003028
  28 C :    0.017417
  29 C :   -0.002774
  30 C :    0.000285
  31 C :   -0.013854
  32 C :   -0.004068
  33 C :   -0.005319
  34 C :   -0.002336
  35 C :   -0.008154
  36 C :    0.013262
  37 C :   -0.000859
  38 C :    0.005028
  39 C :   -0.015359
  40 C :   -0.012451
  41 C :   -0.007541
  42 C :   -0.005549
  43 C :    0.025074
  44 C :   -0.008739
  45 C :    0.023873
  46 C :    0.007301
  47 C :   -0.002945
  48 C :    0.010609
  49 C :    0.009118
  50 C :   -0.000026
  51 C :   -0.022153
  52 C :    0.023279
  53 C :    0.017401
  54 C :    0.017285
  55 C :    0.002131
  56 C :   -0.031057
  57 C :   -0.004007
  58 C :   -0.010893
  59 C :    0.018315

  Mayer bond orders larger than 0.100000
B(  0-C ,  1-C ) :   1.3839 B(  0-C ,  3-C ) :   1.1224 B(  0-C ,  6-C ) :   1.1853
B(  1-C ,  2-C ) :   1.1130 B(  1-C ,  9-C ) :   1.1956 B(  2-C ,  4-C ) :   1.2634
B(  2-C , 11-C ) :   1.2857 B(  3-C ,  4-C ) :   1.2431 B(  3-C ,  5-C ) :   1.3154
B(  4-C , 14-C ) :   1.1821 B(  5-C ,  7-C ) :   1.1287 B(  5-C , 16-C ) :   1.2304
B(  6-C ,  7-C ) :   1.1684 B(  6-C ,  8-C ) :   1.3507 B(  7-C , 19-C ) :   1.3885
B(  8-C , 10-C ) :   1.1913 B(  8-C , 21-C ) :   1.1662 B(  9-C , 10-C ) :   1.3584
B(  9-C , 12-C ) :   1.1411 B( 10-C , 23-C ) :   1.1532 B( 11-C , 12-C ) :   1.1513
B( 11-C , 13-C ) :   1.2484 B( 12-C , 25-C ) :   1.3522 B( 13-C , 15-C ) :   1.2473
B( 13-C , 27-C ) :   1.2111 B( 14-C , 15-C ) :   1.2595 B( 14-C , 17-C ) :   1.2110
B( 15-C , 29-C ) :   1.1569 B( 16-C , 17-C ) :   1.2956 B( 16-C , 18-C ) :   1.1586
B( 17-C , 31-C ) :   1.1557 B( 18-C , 20-C ) :   1.3963 B( 18-C , 32-C ) :   1.1363
B( 19-C , 20-C ) :   1.1276 B( 19-C , 22-C ) :   1.1793 B( 20-C , 35-C ) :   1.1420
B( 21-C , 22-C ) :   1.3650 B( 21-C , 24-C ) :   1.1572 B( 22-C , 36-C ) :   1.1352
B( 23-C , 24-C ) :   1.2821 B( 23-C , 26-C ) :   1.2573 B( 24-C , 38-C ) :   1.2303
B( 25-C , 26-C ) :   1.1737 B( 25-C , 28-C ) :   1.1517 B( 26-C , 40-C ) :   1.2513
B( 27-C , 28-C ) :   1.3375 B( 27-C , 30-C ) :   1.1334 B( 28-C , 42-C ) :   1.1543
B( 29-C , 30-C ) :   1.3555 B( 29-C , 33-C ) :   1.1501 B( 30-C , 44-C ) :   1.1586
B( 31-C , 32-C ) :   1.3065 B( 31-C , 33-C ) :   1.2212 B( 32-C , 34-C ) :   1.2411
B( 33-C , 46-C ) :   1.2787 B( 34-C , 37-C ) :   1.2020 B( 34-C , 47-C ) :   1.2506
B( 35-C , 36-C ) :   1.2916 B( 35-C , 37-C ) :   1.2512 B( 36-C , 39-C ) :   1.2380
B( 37-C , 51-C ) :   1.2418 B( 38-C , 39-C ) :   1.1335 B( 38-C , 41-C ) :   1.2942
B( 39-C , 52-C ) :   1.2784 B( 40-C , 41-C ) :   1.2836 B( 40-C , 43-C ) :   1.1485
B( 41-C , 54-C ) :   1.0867 B( 42-C , 43-C ) :   1.3930 B( 42-C , 45-C ) :   1.1095
B( 43-C , 55-C ) :   1.1060 B( 44-C , 45-C ) :   1.3374 B( 44-C , 48-C ) :   1.1591
B( 45-C , 56-C ) :   1.2003 B( 46-C , 47-C ) :   1.2755 B( 46-C , 48-C ) :   1.1140
B( 47-C , 49-C ) :   1.1637 B( 48-C , 50-C ) :   1.4130 B( 49-C , 50-C ) :   1.0821
B( 49-C , 53-C ) :   1.4270 B( 50-C , 57-C ) :   1.1795 B( 51-C , 52-C ) :   1.2796
B( 51-C , 53-C ) :   1.1720 B( 52-C , 58-C ) :   1.0957 B( 53-C , 59-C ) :   1.0736
B( 54-C , 55-C ) :   1.3611 B( 54-C , 58-C ) :   1.2265 B( 55-C , 56-C ) :   1.2107
B( 56-C , 57-C ) :   1.3071 B( 57-C , 59-C ) :   1.2191 B( 58-C , 59-C ) :   1.3713

Dispersion correction           -0.097254422
FINAL SINGLE POINT ENERGY     -2281.033083164460

DIPOLE MOMENT
-------------
                                X             Y             Z
Electronic contribution:      0.01117      -0.42760       0.08508
Nuclear contribution   :     -0.00000      -0.00000      -0.00000
                        -----------------------------------------
Total Dipole Moment    :      0.01117      -0.42760       0.08508
                        -----------------------------------------
Magnitude (a.u.)       :      0.43613
Magnitude (Debye)      :      1.10855

Rotational constants in cm-1:     0.003371     0.002526     0.002465
Rotational constants in MHz :   101.063383    75.724763    73.901680

                             ****ORCA TERMINATED NORMALLY****
TOTAL RUN TIME: 0 days 1 hours 7 minutes 2 seconds 898 msec
