                         Program Version 5.0.3 -  RELEASE  -
|  1> ! PBEh-3c def2/J TightSCF DefGrid3
|  2>
|  3> %maxcore 60000
|  4>
|  5> %pal
|  6> nprocs 4
|  7> end
|  8>
|  9> *xyzfile 0 1 66.xyz
| 10>
| 11>                          ****END OF INPUT****

CARTESIAN COORDINATES (ANGSTROEM)
---------------------------------
  N     -2.558303   -0.118383   -0.520577
  H     -1.961690   -0.934077   -0.441875
  H     -3.486913   -0.422668   -0.258439
  C     -2.096043    0.894431    0.426877
  H     -2.737396    1.771454    0.360398
  H     -2.068002    0.575864    1.473932
  H     -1.090813    1.208644    0.150417
  N      0.324607   -1.404759   -0.281429
  C      0.663043   -0.592415   -1.293141
  H      0.120376   -0.736953   -2.218523
  C      1.634372    0.399719   -1.192774
  H      1.859225    1.024059   -2.045625
  C      2.295212    0.569260    0.019490
  H      3.053066    1.331497    0.135874
  C      1.955079   -0.265703    1.078613
  H      2.437668   -0.175240    2.041313
  C      0.971298   -1.230491    0.879429
  H      0.685214   -1.894239    1.686040

 Total Charge           Charge          ....    0
 Multiplicity           Mult            ....    1
 Number of Electrons    NEL             ....   60
 Basis Dimension        Dim             ....  140

ORBITAL ENERGIES
----------------

  NO   OCC          E(Eh)            E(eV)
   0   2.0000     -14.646828      -398.5605
   1   2.0000     -14.586714      -396.9247
   2   2.0000     -10.488233      -285.3993
   3   2.0000     -10.486173      -285.3433
   4   2.0000     -10.474714      -285.0315
   5   2.0000     -10.463002      -284.7128
   6   2.0000     -10.462036      -284.6865
   7   2.0000     -10.432683      -283.8877
   8   2.0000      -1.051573       -28.6148
   9   2.0000      -0.949067       -25.8254
  10   2.0000      -0.905941       -24.6519
  11   2.0000      -0.858587       -23.3633
  12   2.0000      -0.720190       -19.5974
  13   2.0000      -0.713590       -19.4178
  14   2.0000      -0.713314       -19.4103
  15   2.0000      -0.605068       -16.4647
  16   2.0000      -0.551420       -15.0049
  17   2.0000      -0.540435       -14.7060
  18   2.0000      -0.532970       -14.5028
  19   2.0000      -0.495397       -13.4805
  20   2.0000      -0.479653       -13.0520
  21   2.0000      -0.471616       -12.8333
  22   2.0000      -0.459231       -12.4963
  23   2.0000      -0.437172       -11.8960
  24   2.0000      -0.425060       -11.5665
  25   2.0000      -0.401972       -10.9382
  26   2.0000      -0.337835        -9.1930
  27   2.0000      -0.321116        -8.7380
  28   2.0000      -0.309406        -8.4194
  29   2.0000      -0.268678        -7.3111
  30   0.0000      -0.010052        -0.2735
  31   0.0000       0.005408         0.1472
  32   0.0000       0.139419         3.7938
  33   0.0000       0.158163         4.3038
  34   0.0000       0.177103         4.8192

MULLIKEN ATOMIC CHARGES
-----------------------
   0 N :   -0.759141
   1 H :    0.340581
   2 H :    0.306738
   3 C :   -0.503271
   4 H :    0.208915
   5 H :    0.174634
   6 H :    0.216878
   7 N :   -0.385384
   8 C :   -0.032838
   9 H :    0.249906
  10 C :   -0.290674
  11 H :    0.236367
  12 C :   -0.139058
  13 H :    0.237662
  14 C :   -0.293618
  15 H :    0.233735
  16 C :   -0.036502
  17 H :    0.235070
Sum of atomic charges:   -0.0000000

LOEWDIN ATOMIC CHARGES
----------------------
   0 N :   -0.495766
   1 H :    0.223859
   2 H :    0.214232
   3 C :   -0.279602
   4 H :    0.114859
   5 H :    0.088021
   6 H :    0.119341
   7 N :   -0.148164
   8 C :   -0.050446
   9 H :    0.137714
  10 C :   -0.162034
  11 H :    0.144345
  12 C :   -0.101138
  13 H :    0.142159
  14 C :   -0.164345
  15 H :    0.142982
  16 C :   -0.056669
  17 H :    0.130653

  Mayer bond orders larger than 0.100000
B(  0-N ,  1-H ) :   0.8280 B(  0-N ,  2-H ) :   0.8707 B(  0-N ,  3-C ) :   1.0410
B(  3-C ,  4-H ) :   0.9280 B(  3-C ,  5-H ) :   0.9194 B(  3-C ,  6-H ) :   0.9218
B(  7-N ,  8-C ) :   1.4624 B(  7-N , 16-C ) :   1.4871 B(  8-C ,  9-H ) :   0.9094
B(  8-C , 10-C ) :   1.3895 B( 10-C , 11-H ) :   0.9126 B( 10-C , 12-C ) :   1.4117
B( 12-C , 13-H ) :   0.9171 B( 12-C , 14-C ) :   1.4118 B( 14-C , 15-H ) :   0.9131
B( 14-C , 16-C ) :   1.3859 B( 16-C , 17-H ) :   0.9155

Dispersion correction           -0.009121157
FINAL SINGLE POINT ENERGY      -343.378131425162

DIPOLE MOMENT
-------------
                                X             Y             Z
Electronic contribution:      6.34259      -3.20735      -1.22416
Nuclear contribution   :     -5.61632       3.53133       1.78985
                        -----------------------------------------
Total Dipole Moment    :      0.72628       0.32397       0.56570
                        -----------------------------------------
Magnitude (a.u.)       :      0.97594
Magnitude (Debye)      :      2.48063

Rotational constants in cm-1:     0.106559     0.040359     0.038985
Rotational constants in MHz :  3194.556671  1209.941734  1168.753117

                             ****ORCA TERMINATED NORMALLY****
TOTAL RUN TIME: 0 days 0 hours 1 minutes 52 seconds 505 msec
