                         Program Version 5.0.3 -  RELEASE  -
|  1> ! PBEh-3c def2/J TightSCF DefGrid3
|  2>
|  3> %maxcore 60000
|  4>
|  5> %pal
|  6> nprocs 4
|  7> end
|  8>
|  9> *xyzfile 1 1 148A.xyz
| 10>
| 11>                          ****END OF INPUT****

CARTESIAN COORDINATES (ANGSTROEM)
---------------------------------
  C      1.053720   -0.013400   -0.387760
  N     -0.184590   -0.013380    0.251910
  C      0.033260   -0.013370    1.587460
  N      1.347050   -0.013380    1.807940
  C      2.009050   -0.013380    0.598980
  C     -1.505760   -0.013380   -0.396870
  H      1.664740   -0.013380    2.774270
  H     -0.707370   -0.013370    2.377550
  H      3.088250   -0.013370    0.535960
  H      1.137000   -0.013410   -1.466220
  H     -1.365520   -0.013360   -1.480850
  H     -2.065670   -0.909000   -0.106090
  H     -2.065690    0.882220   -0.106070

 Total Charge           Charge          ....    1
 Multiplicity           Mult            ....    1
 Number of Electrons    NEL             ....   44
 Basis Dimension        Dim             ....  104

ORBITAL ENERGIES
----------------

  NO   OCC          E(Eh)            E(eV)
   0   2.0000     -14.925730      -406.1498
   1   2.0000     -14.920849      -406.0169
   2   2.0000     -10.737086      -292.1710
   3   2.0000     -10.685654      -290.7714
   4   2.0000     -10.684095      -290.7290
   5   2.0000     -10.659196      -290.0515
   6   2.0000      -1.363807       -37.1111
   7   2.0000      -1.232533       -33.5389
   8   2.0000      -1.066729       -29.0272
   9   2.0000      -1.009542       -27.4710
  10   2.0000      -0.915698       -24.9174
  11   2.0000      -0.876490       -23.8505
  12   2.0000      -0.845903       -23.0182
  13   2.0000      -0.745091       -20.2750
  14   2.0000      -0.739650       -20.1269
  15   2.0000      -0.713737       -19.4218
  16   2.0000      -0.707801       -19.2602
  17   2.0000      -0.689343       -18.7580
  18   2.0000      -0.662865       -18.0375
  19   2.0000      -0.637201       -17.3391
  20   2.0000      -0.553626       -15.0649
  21   2.0000      -0.487445       -13.2641
  22   0.0000      -0.176090        -4.7917
  23   0.0000      -0.130470        -3.5503
  24   0.0000      -0.068944        -1.8761
  25   0.0000      -0.029843        -0.8121
  26   0.0000      -0.010950        -0.2980

MULLIKEN ATOMIC CHARGES
-----------------------
   0 C :   -0.050812
   1 N :   -0.417215
   2 C :    0.268382
   3 N :   -0.560716
   4 C :   -0.029930
   5 C :   -0.516941
   6 H :    0.437934
   7 H :    0.341390
   8 H :    0.329380
   9 H :    0.329385
  10 H :    0.285790
  11 H :    0.291676
  12 H :    0.291676
Sum of atomic charges:    1.0000000

LOEWDIN ATOMIC CHARGES
----------------------
   0 C :   -0.056436
   1 N :    0.008600
   2 C :    0.052792
   3 N :   -0.068695
   4 C :   -0.059940
   5 C :   -0.232833
   6 H :    0.310670
   7 H :    0.183332
   8 H :    0.183721
   9 H :    0.182993
  10 H :    0.166318
  11 H :    0.164739
  12 H :    0.164739

  Mayer bond orders larger than 0.100000
B(  0-C ,  1-N ) :   1.1409 B(  0-C ,  4-C ) :   1.6370 B(  0-C ,  9-H ) :   0.8660
B(  1-N ,  2-C ) :   1.3100 B(  1-N ,  5-C ) :   0.8621 B(  2-C ,  3-N ) :   1.2997
B(  2-C ,  7-H ) :   0.8610 B(  3-N ,  4-C ) :   1.1200 B(  3-N ,  6-H ) :   0.7776
B(  4-C ,  8-H ) :   0.8701 B(  5-C , 10-H ) :   0.9006 B(  5-C , 11-H ) :   0.8897
B(  5-C , 12-H ) :   0.8897

Dispersion correction           -0.005730606
FINAL SINGLE POINT ENERGY      -265.319473314931

DIPOLE MOMENT
-------------
                                X             Y             Z
Electronic contribution:      2.95978       0.00000       2.05605
Nuclear contribution   :     -3.06385       0.00000      -1.43436
                        -----------------------------------------
Total Dipole Moment    :     -0.10407       0.00001       0.62169
                        -----------------------------------------
Magnitude (a.u.)       :      0.63034
Magnitude (Debye)      :      1.60220

Rotational constants in cm-1:     0.291054     0.116044     0.084308
Rotational constants in MHz :  8725.584092  3478.926000  2527.479257

                             ****ORCA TERMINATED NORMALLY****
TOTAL RUN TIME: 0 days 0 hours 1 minutes 13 seconds 15 msec
