                         Program Version 5.0.3 -  RELEASE  -
|  1> ! PBEh-3c def2/J TightSCF DefGrid3
|  2>
|  3> %maxcore 60000
|  4>
|  5> %pal
|  6> nprocs 4
|  7> end
|  8>
|  9> *xyzfile 0 1 04.xyz
| 10>
| 11>                          ****END OF INPUT****

CARTESIAN COORDINATES (ANGSTROEM)
---------------------------------
  O     -3.259503    0.443860    0.161591
  H     -3.778946    1.242390    0.263168
  H     -2.342581    0.760093    0.176031
  C     -0.669780   -1.416825   -0.144794
  H     -0.019817   -2.277937   -0.277709
  H     -1.350756   -1.339353   -0.988659
  H     -1.282797   -1.555621    0.742215
  C      0.084952   -0.118812   -0.012200
  O     -0.491763    0.956482    0.144389
  N      1.435585   -0.216315   -0.076818
  H      1.836537   -1.126849   -0.206333
  C      2.303827    0.935655    0.032625
  H      1.667333    1.803956    0.167410
  H      2.969417    0.844200    0.888718
  H      2.898293    1.065076   -0.869634

 Total Charge           Charge          ....    0
 Multiplicity           Mult            ....    1
 Number of Electrons    NEL             ....   50
 Basis Dimension        Dim             ....  108

ORBITAL ENERGIES
----------------

  NO   OCC          E(Eh)            E(eV)
   0   2.0000     -19.467372      -529.7341
   1   2.0000     -19.430483      -528.7303
   2   2.0000     -14.673939      -399.2982
   3   2.0000     -10.557965      -287.2968
   4   2.0000     -10.472899      -284.9821
   5   2.0000     -10.440881      -284.1108
   6   2.0000      -1.151694       -31.3392
   7   2.0000      -1.059348       -28.8263
   8   2.0000      -1.031449       -28.0672
   9   2.0000      -0.847768       -23.0690
  10   2.0000      -0.776879       -21.1400
  11   2.0000      -0.668045       -18.1784
  12   2.0000      -0.577724       -15.7207
  13   2.0000      -0.544939       -14.8286
  14   2.0000      -0.542588       -14.7646
  15   2.0000      -0.530033       -14.4229
  16   2.0000      -0.487591       -13.2680
  17   2.0000      -0.472862       -12.8672
  18   2.0000      -0.460536       -12.5318
  19   2.0000      -0.450467       -12.2578
  20   2.0000      -0.414240       -11.2720
  21   2.0000      -0.396528       -10.7901
  22   2.0000      -0.321188        -8.7400
  23   2.0000      -0.318987        -8.6801
  24   2.0000      -0.311980        -8.4894
  25   0.0000       0.057144         1.5550
  26   0.0000       0.112632         3.0649
  27   0.0000       0.169894         4.6230
  28   0.0000       0.179325         4.8797
  29   0.0000       0.183590         4.9957

MULLIKEN ATOMIC CHARGES
-----------------------
   0 O :   -0.877463
   1 H :    0.395988
   2 H :    0.437923
   3 C :   -0.759256
   4 H :    0.207400
   5 H :    0.278493
   6 H :    0.277850
   7 C :    0.547222
   8 O :   -0.466020
   9 N :   -0.620996
  10 H :    0.358879
  11 C :   -0.496985
  12 H :    0.270848
  13 H :    0.223049
  14 H :    0.223066
Sum of atomic charges:   -0.0000000

LOEWDIN ATOMIC CHARGES
----------------------
   0 O :   -0.636205
   1 H :    0.291942
   2 H :    0.291512
   3 C :   -0.391740
   4 H :    0.124949
   5 H :    0.167616
   6 H :    0.167333
   7 C :    0.119912
   8 O :   -0.296103
   9 N :   -0.239053
  10 H :    0.254151
  11 C :   -0.259300
  12 H :    0.156934
  13 H :    0.124034
  14 H :    0.124017

  Mayer bond orders larger than 0.100000
B(  0-O ,  1-H ) :   0.8258 B(  0-O ,  2-H ) :   0.7177 B(  3-C ,  4-H ) :   0.9188
B(  3-C ,  5-H ) :   0.8962 B(  3-C ,  6-H ) :   0.8968 B(  3-C ,  7-C ) :   0.9449
B(  7-C ,  8-O ) :   1.8760 B(  7-C ,  9-N ) :   1.1710 B(  9-N , 10-H ) :   0.8266
B(  9-N , 11-C ) :   0.9445 B( 11-C , 12-H ) :   0.8958 B( 11-C , 13-H ) :   0.9205
B( 11-C , 14-H ) :   0.9205

Dispersion correction           -0.005672084
FINAL SINGLE POINT ENERGY      -324.258448225314

DIPOLE MOMENT
-------------
                                X             Y             Z
Electronic contribution:     -0.65455       1.19011       0.18327
Nuclear contribution   :      2.24871      -1.60596      -0.30080
                        -----------------------------------------
Total Dipole Moment    :      1.59415      -0.41585      -0.11753
                        -----------------------------------------
Magnitude (a.u.)       :      1.65169
Magnitude (Debye)      :      4.19825

Rotational constants in cm-1:     0.228949     0.052879     0.043653
Rotational constants in MHz :  6863.715928  1585.277937  1308.670969

                             ****ORCA TERMINATED NORMALLY****
TOTAL RUN TIME: 0 days 0 hours 1 minutes 19 seconds 642 msec
