                         Program Version 5.0.3 -  RELEASE  -
|  1> ! PBEh-3c def2/J TightSCF DefGrid3
|  2>
|  3> %maxcore 60000
|  4>
|  5> %pal
|  6> nprocs 4
|  7> end
|  8>
|  9> *xyzfile 0 1 51B.xyz
| 10>
| 11>                          ****END OF INPUT****

CARTESIAN COORDINATES (ANGSTROEM)
---------------------------------
  C      0.000000    0.000000   -0.605439
  H      0.000000    0.000000   -1.669277
  C      0.000000    0.000000    0.605439
  H      0.000000    0.000000    1.669277

 Total Charge           Charge          ....    0
 Multiplicity           Mult            ....    1
 Number of Electrons    NEL             ....   14
 Basis Dimension        Dim             ....   34

ORBITAL ENERGIES
----------------

  NO   OCC          E(Eh)            E(eV)
   0   2.0000     -10.458800      -284.5984
   1   2.0000     -10.456421      -284.5337
   2   2.0000      -0.840194       -22.8628
   3   2.0000      -0.638872       -17.3846
   4   2.0000      -0.559782       -15.2325
   5   2.0000      -0.337988        -9.1971
   6   2.0000      -0.337988        -9.1971
   7   0.0000       0.068613         1.8670
   8   0.0000       0.068613         1.8670
   9   0.0000       0.160398         4.3646
  10   0.0000       0.208348         5.6694
  11   0.0000       0.424552        11.5527

MULLIKEN ATOMIC CHARGES
-----------------------
   0 C :   -0.237927
   1 H :    0.237927
   2 C :   -0.237927
   3 H :    0.237927
Sum of atomic charges:   -0.0000000

LOEWDIN ATOMIC CHARGES
----------------------
   0 C :   -0.163382
   1 H :    0.163382
   2 C :   -0.163382
   3 H :    0.163382

  Mayer bond orders larger than 0.100000
B(  0-C ,  1-H ) :   0.9277 B(  0-C ,  2-C ) :   2.8368 B(  2-C ,  3-H ) :   0.9277

Dispersion correction           -0.000697951
FINAL SINGLE POINT ENERGY       -77.142200120747

DIPOLE MOMENT
-------------
                                X             Y             Z
Electronic contribution:      0.00000      -0.00000      -0.00000
Nuclear contribution   :      0.00000       0.00000       0.00000
                        -----------------------------------------
Total Dipole Moment    :      0.00000      -0.00000      -0.00000
                        -----------------------------------------
Magnitude (a.u.)       :      0.00000
Magnitude (Debye)      :      0.00000

Rotational constants in cm-1:     0.000000     1.168805     1.168805
Rotational constants in MHz :     0.000000 35039.884341 35039.884341

                             ****ORCA TERMINATED NORMALLY****
TOTAL RUN TIME: 0 days 0 hours 0 minutes 57 seconds 952 msec
