                         Program Version 5.0.3 -  RELEASE  -
|  1> ! PBEh-3c def2/J TightSCF DefGrid3
|  2>
|  3> %maxcore 60000
|  4>
|  5> %pal
|  6> nprocs 4
|  7> end
|  8>
|  9> *xyzfile -1 1 229B.xyz
| 10>
| 11>                          ****END OF INPUT****

CARTESIAN COORDINATES (ANGSTROEM)
---------------------------------
  O      3.972980   -2.022590    0.293570
  Cl     2.851920   -1.848940   -0.607350
  O      3.116910   -2.404910   -1.930700
  O      1.608690   -2.450770   -0.040850
  O      2.575940   -0.336420   -0.770920

 Total Charge           Charge          ....   -1
 Multiplicity           Mult            ....    1
 Number of Electrons    NEL             ....   50
 Basis Dimension        Dim             ....   78

ORBITAL ENERGIES
----------------

  NO   OCC          E(Eh)            E(eV)
   0   2.0000    -102.486302     -2788.7941
   1   2.0000     -19.314272      -525.5681
   2   2.0000     -19.308958      -525.4235
   3   2.0000     -19.298627      -525.1423
   4   2.0000     -19.281662      -524.6807
   5   2.0000      -9.896877      -269.3077
   6   2.0000      -7.584718      -206.3907
   7   2.0000      -7.584312      -206.3796
   8   2.0000      -7.583591      -206.3600
   9   2.0000      -1.187500       -32.3135
  10   2.0000      -0.960895       -26.1473
  11   2.0000      -0.937050       -25.4984
  12   2.0000      -0.894967       -24.3533
  13   2.0000      -0.531313       -14.4578
  14   2.0000      -0.410103       -11.1595
  15   2.0000      -0.408574       -11.1179
  16   2.0000      -0.408052       -11.1037
  17   2.0000      -0.240944        -6.5564
  18   2.0000      -0.239814        -6.5257
  19   2.0000      -0.215510        -5.8643
  20   2.0000      -0.207492        -5.6461
  21   2.0000      -0.200583        -5.4582
  22   2.0000      -0.144501        -3.9321
  23   2.0000      -0.130751        -3.5579
  24   2.0000      -0.126487        -3.4419
  25   0.0000       0.306955         8.3527
  26   0.0000       0.316072         8.6008
  27   0.0000       0.342322         9.3151
  28   0.0000       0.357451         9.7267
  29   0.0000       0.643403        17.5079

MULLIKEN ATOMIC CHARGES
-----------------------
   0 O :   -0.650191
   1 Cl:    1.683471
   2 O :   -0.658280
   3 O :   -0.675793
   4 O :   -0.699207
Sum of atomic charges:   -1.0000000

LOEWDIN ATOMIC CHARGES
----------------------
   0 O :   -0.639879
   1 Cl:    1.672581
   2 O :   -0.649842
   3 O :   -0.673799
   4 O :   -0.709061

  Mayer bond orders larger than 0.100000
B(  0-O ,  1-Cl) :   1.4750 B(  1-Cl,  2-O ) :   1.4597 B(  1-Cl,  3-O ) :   1.4139
B(  1-Cl,  4-O ) :   1.3406

Dispersion correction           -0.001801413
FINAL SINGLE POINT ENERGY      -759.680596077330

DIPOLE MOMENT
-------------
                                X             Y             Z
Electronic contribution:      0.21154      -0.28958       0.02566
Nuclear contribution   :     -0.02946       0.04005      -0.00431
                        -----------------------------------------
Total Dipole Moment    :      0.18208      -0.24952       0.02134
                        -----------------------------------------
Magnitude (a.u.)       :      0.30963
Magnitude (Debye)      :      0.78702

Rotational constants in cm-1:     0.179986     0.178718     0.177660
Rotational constants in MHz :  5395.834132  5357.834047  5326.104468

                             ****ORCA TERMINATED NORMALLY****
TOTAL RUN TIME: 0 days 0 hours 1 minutes 4 seconds 155 msec
