                         Program Version 5.0.3 -  RELEASE  -
|  1> ! PBEh-3c def2/J TightSCF DefGrid3
|  2>
|  3> %maxcore 60000
|  4>
|  5> %pal
|  6> nprocs 4
|  7> end
|  8>
|  9> *xyzfile 0 1 2-pentyne.xyz
| 10>
| 11>                          ****END OF INPUT****

CARTESIAN COORDINATES (ANGSTROEM)
---------------------------------
  C      0.847201    1.568746   -1.336428
  H      0.144730    2.275587   -0.875027
  H      1.118961    1.949883   -2.330935
  H      1.753625    1.540695   -0.717181
  C      0.217894    0.167564   -1.449151
  H     -0.668368    0.213768   -2.104359
  H      0.926203   -0.514627   -1.948935
  C     -0.166241   -0.397482   -0.158311
  C     -0.474741   -0.839429    0.929690
  C     -0.848226   -1.380051    2.229936
  H     -0.420189   -2.382585    2.384123
  H     -0.489632   -0.736188    3.047620
  H     -1.941216   -1.465880    2.328958

 Total Charge           Charge          ....    0
 Multiplicity           Mult            ....    1
 Number of Electrons    NEL             ....   38
 Basis Dimension        Dim             ....   91

ORBITAL ENERGIES
----------------

  NO   OCC          E(Eh)            E(eV)
   0   2.0000     -10.459885      -284.6279
   1   2.0000     -10.454134      -284.4715
   2   2.0000     -10.437079      -284.0074
   3   2.0000     -10.433556      -283.9115
   4   2.0000     -10.433401      -283.9073
   5   2.0000      -0.885700       -24.1011
   6   2.0000      -0.847215       -23.0539
   7   2.0000      -0.770612       -20.9694
   8   2.0000      -0.704134       -19.1605
   9   2.0000      -0.546751       -14.8779
  10   2.0000      -0.512001       -13.9323
  11   2.0000      -0.504145       -13.7185
  12   2.0000      -0.480062       -13.0631
  13   2.0000      -0.478497       -13.0206
  14   2.0000      -0.447296       -12.1716
  15   2.0000      -0.419746       -11.4219
  16   2.0000      -0.410023       -11.1573
  17   2.0000      -0.291803        -7.9404
  18   2.0000      -0.290468        -7.9040
  19   0.0000       0.086294         2.3482
  20   0.0000       0.090199         2.4544
  21   0.0000       0.155872         4.2415
  22   0.0000       0.165302         4.4981
  23   0.0000       0.199740         5.4352

MULLIKEN ATOMIC CHARGES
-----------------------
   0 C :   -0.635315
   1 H :    0.224671
   2 H :    0.216924
   3 H :    0.224652
   4 C :   -0.587844
   5 H :    0.238980
   6 H :    0.238960
   7 C :    0.137388
   8 C :    0.013686
   9 C :   -0.800463
  10 H :    0.242880
  11 H :    0.242694
  12 H :    0.242789
Sum of atomic charges:    0.0000000

LOEWDIN ATOMIC CHARGES
----------------------
   0 C :   -0.351084
   1 H :    0.132115
   2 H :    0.126234
   3 H :    0.132100
   4 C :   -0.244768
   5 H :    0.143671
   6 H :    0.143652
   7 C :   -0.081073
   8 C :   -0.090131
   9 C :   -0.357448
  10 H :    0.148973
  11 H :    0.148932
  12 H :    0.148827

  Mayer bond orders larger than 0.100000
B(  0-C ,  1-H ) :   0.9263 B(  0-C ,  2-H ) :   0.9254 B(  0-C ,  3-H ) :   0.9263
B(  0-C ,  4-C ) :   0.9907 B(  4-C ,  5-H ) :   0.9086 B(  4-C ,  6-H ) :   0.9086
B(  4-C ,  7-C ) :   0.9581 B(  7-C ,  8-C ) :   2.5792 B(  8-C ,  9-C ) :   0.9905
B(  9-C , 10-H ) :   0.9134 B(  9-C , 11-H ) :   0.9138 B(  9-C , 12-H ) :   0.9135

Dispersion correction           -0.004567182
FINAL SINGLE POINT ENERGY      -194.851057162032

DIPOLE MOMENT
-------------
                                X             Y             Z
Electronic contribution:     -0.90114      -1.86394       0.49657
Nuclear contribution   :      0.91205       1.89384      -0.46394
                        -----------------------------------------
Total Dipole Moment    :      0.01091       0.02990       0.03263
                        -----------------------------------------
Magnitude (a.u.)       :      0.04558
Magnitude (Debye)      :      0.11587

Rotational constants in cm-1:     0.678503     0.068826     0.064764
Rotational constants in MHz : 20341.002981  2063.353732  1941.576624

                             ****ORCA TERMINATED NORMALLY****
TOTAL RUN TIME: 0 days 0 hours 1 minutes 9 seconds 689 msec
