                         Program Version 5.0.3 -  RELEASE  -
|  1> ! PBEh-3c def2/J TightSCF DefGrid3
|  2>
|  3> %maxcore 60000
|  4>
|  5> %pal
|  6> nprocs 4
|  7> end
|  8>
|  9> *xyzfile 0 1 P14.xyz
| 10>
| 11>                          ****END OF INPUT****

CARTESIAN COORDINATES (ANGSTROEM)
---------------------------------
  C      0.000000    0.000000    0.483025
  N      0.000000    0.000000   -0.937250
  C      0.000000    0.000000   -2.103756
  H      0.512955   -0.888465    0.852660
  H      0.512955    0.888465    0.852660
  H     -1.025911    0.000000    0.852660

 Total Charge           Charge          ....    0
 Multiplicity           Mult            ....    1
 Number of Electrons    NEL             ....   22
 Basis Dimension        Dim             ....   51

ORBITAL ENERGIES
----------------

  NO   OCC          E(Eh)            E(eV)
   0   2.0000     -14.674813      -399.3220
   1   2.0000     -10.510758      -286.0123
   2   2.0000     -10.477502      -285.1073
   3   2.0000      -1.056841       -28.7581
   4   2.0000      -0.860030       -23.4026
   5   2.0000      -0.622865       -16.9490
   6   2.0000      -0.538706       -14.6589
   7   2.0000      -0.538706       -14.6589
   8   2.0000      -0.389825       -10.6077
   9   2.0000      -0.389825       -10.6077
  10   2.0000      -0.355040        -9.6611
  11   0.0000       0.067007         1.8233
  12   0.0000       0.067007         1.8234
  13   0.0000       0.142892         3.8883
  14   0.0000       0.186825         5.0838
  15   0.0000       0.209160         5.6915

MULLIKEN ATOMIC CHARGES
-----------------------
   0 C :   -0.502382
   1 N :   -0.205260
   2 C :   -0.059654
   3 H :    0.255767
   4 H :    0.255767
   5 H :    0.255762
Sum of atomic charges:    0.0000000

LOEWDIN ATOMIC CHARGES
----------------------
   0 C :   -0.261628
   1 N :   -0.065912
   2 C :   -0.113165
   3 H :    0.146902
   4 H :    0.146902
   5 H :    0.146900

  Mayer bond orders larger than 0.100000
B(  0-C ,  1-N ) :   0.9031 B(  0-C ,  3-H ) :   0.9015 B(  0-C ,  4-H ) :   0.9015
B(  0-C ,  5-H ) :   0.9015 B(  1-N ,  2-C ) :   2.5235

Dispersion correction           -0.001624431
FINAL SINGLE POINT ENERGY      -132.415052179548

DIPOLE MOMENT
-------------
                                X             Y             Z
Electronic contribution:      0.00000       0.00000      -2.97690
Nuclear contribution   :      0.00000       0.00000       4.45657
                        -----------------------------------------
Total Dipole Moment    :      0.00000       0.00000       1.47967
                        -----------------------------------------
Magnitude (a.u.)       :      1.47967
Magnitude (Debye)      :      3.76102

Rotational constants in cm-1:     5.296585     0.336426     0.336426
Rotational constants in MHz : 158787.613251 10085.789903 10085.789892

                             ****ORCA TERMINATED NORMALLY****
TOTAL RUN TIME: 0 days 0 hours 0 minutes 52 seconds 339 msec
