                         Program Version 5.0.3 -  RELEASE  -
|  1> ! PBEh-3c def2/J TightSCF DefGrid3
|  2>
|  3> %maxcore 60000
|  4>
|  5> %pal
|  6> nprocs 4
|  7> end
|  8>
|  9> *xyzfile 0 2 RKT21.xyz
| 10>
| 11>                          ****END OF INPUT****

CARTESIAN COORDINATES (ANGSTROEM)
---------------------------------
  C     -1.063777   -0.000014   -0.082613
  N      1.510226   -0.000013   -0.231687
  H     -1.387014    0.908531   -0.579649
  H     -1.266700   -0.004581    0.982400
  H     -1.387776   -0.903890   -0.587604
  H      0.240080   -0.000072   -0.246596
  H      1.677430    0.805569    0.372847
  H      1.677531   -0.805532    0.372903

 Total Charge           Charge          ....    0
 Multiplicity           Mult            ....    2
 Number of Electrons    NEL             ....   19
 Basis Dimension        Dim             ....   42

ORBITAL ENERGIES
----------------
                 SPIN UP ORBITALS
  NO   OCC          E(Eh)            E(eV)
   0   1.0000     -14.631738      -398.1498
   1   1.0000     -10.436534      -283.9925
   2   1.0000      -0.949072       -25.8256
   3   1.0000      -0.780252       -21.2317
   4   1.0000      -0.521836       -14.1999
   5   1.0000      -0.509924       -13.8757
   6   1.0000      -0.465494       -12.6667
   7   1.0000      -0.463419       -12.6103
   8   1.0000      -0.353736        -9.6256
   9   1.0000      -0.277054        -7.5390
  10   0.0000       0.138479         3.7682
  11   0.0000       0.185383         5.0445
  12   0.0000       0.204755         5.5717
  13   0.0000       0.215901         5.8750
  14   0.0000       0.225768         6.1435

                 SPIN DOWN ORBITALS
  NO   OCC          E(Eh)            E(eV)
   0   1.0000     -14.616804      -397.7435
   1   1.0000     -10.425932      -283.7040
   2   1.0000      -0.906572       -24.6691
   3   1.0000      -0.751041       -20.4369
   4   1.0000      -0.511125       -13.9084
   5   1.0000      -0.463679       -12.6173
   6   1.0000      -0.455742       -12.4014
   7   1.0000      -0.450715       -12.2646
   8   1.0000      -0.319141        -8.6843
   9   0.0000      -0.052269        -1.4223
  10   0.0000       0.147098         4.0027
  11   0.0000       0.193694         5.2707
  12   0.0000       0.210291         5.7223
  13   0.0000       0.222018         6.0414

MULLIKEN ATOMIC CHARGES AND SPIN POPULATIONS
--------------------------------------------
   0 C :   -0.853542    0.585156
   1 N :   -0.775073    0.644798
   2 H :    0.239386   -0.019516
   3 H :    0.224423   -0.023584
   4 H :    0.239476   -0.019489
   5 H :    0.296185   -0.122680
   6 H :    0.314573   -0.022343
   7 H :    0.314571   -0.022342
Sum of atomic charges         :   -0.0000000

LOEWDIN ATOMIC CHARGES AND SPIN POPULATIONS
-------------------------------------------
   0 C :   -0.497867    0.513576
   1 N :   -0.550683    0.610706
   2 H :    0.138221   -0.011115
   3 H :    0.129962   -0.013275
   4 H :    0.138267   -0.011100
   5 H :    0.213081   -0.058086
   6 H :    0.214510   -0.015354
   7 H :    0.214508   -0.015353

  Mayer bond orders larger than 0.100000
B(  0-C ,  1-N ) :   0.1988 B(  0-C ,  2-H ) :   0.9213 B(  0-C ,  3-H ) :   0.9212
B(  0-C ,  4-H ) :   0.9213 B(  0-C ,  5-H ) :   0.4597 B(  1-N ,  5-H ) :   0.4308
B(  1-N ,  6-H ) :   0.8717 B(  1-N ,  7-H ) :   0.8717

Dispersion correction           -0.001749521
FINAL SINGLE POINT ENERGY       -96.156292919453

DIPOLE MOMENT
-------------
                                X             Y             Z
Electronic contribution:      1.62665      -0.00005      -0.27379
Nuclear contribution   :     -1.80339       0.00008       0.98253
                        -----------------------------------------
Total Dipole Moment    :     -0.17675       0.00003       0.70874
                        -----------------------------------------
Magnitude (a.u.)       :      0.73045
Magnitude (Debye)      :      1.85665

Rotational constants in cm-1:     3.188278     0.294900     0.291634
Rotational constants in MHz : 95582.182411  8840.891302  8742.968624

                             ****ORCA TERMINATED NORMALLY****
TOTAL RUN TIME: 0 days 0 hours 2 minutes 38 seconds 982 msec
