                         Program Version 5.0.3 -  RELEASE  -
|  1> ! PBEh-3c def2/J TightSCF DefGrid3
|  2>
|  3> %maxcore 60000
|  4>
|  5> %pal
|  6> nprocs 4
|  7> end
|  8>
|  9> *xyzfile 0 1 NCH_NBS.xyz
| 10>
| 11>                          ****END OF INPUT****

CARTESIAN COORDINATES (ANGSTROEM)
---------------------------------
  N      0.000000    0.000000    3.729184
  C      0.000000    0.000000    4.870501
  H      0.000000    0.000000    5.938144
  N      0.000000    0.000000   -0.917480
  O      0.000000    2.283413   -1.311833
  O      0.000000   -2.283413   -1.311833
  C      0.000000   -1.151535   -1.703478
  C      0.000000   -0.661645   -3.122613
  C      0.000000    0.661645   -3.122613
  H      0.000000    1.349180   -3.954052
  H      0.000000   -1.349180   -3.954052
  C      0.000000    1.151535   -1.703478
  Br     0.000000    0.000000    0.913356

 Total Charge           Charge          ....    0
 Multiplicity           Mult            ....    1
 Number of Electrons    NEL             ....   98
 Basis Dimension        Dim             ....  173

ORBITAL ENERGIES
----------------

  NO   OCC          E(Eh)            E(eV)
   0   2.0000    -484.556867    -13185.4627
   1   2.0000     -63.217786     -1720.2434
   2   2.0000     -56.923116     -1548.9567
   3   2.0000     -56.919259     -1548.8518
   4   2.0000     -56.919192     -1548.8500
   5   2.0000     -19.504469      -530.7436
   6   2.0000     -19.504454      -530.7432
   7   2.0000     -14.716827      -400.4652
   8   2.0000     -14.688926      -399.7060
   9   2.0000     -10.583130      -287.9816
  10   2.0000     -10.583090      -287.9805
  11   2.0000     -10.522919      -286.3432
  12   2.0000     -10.493009      -285.5293
  13   2.0000     -10.491997      -285.5017
  14   2.0000      -9.046142      -246.1580
  15   2.0000      -6.825116      -185.7208
  16   2.0000      -6.805285      -185.1812
  17   2.0000      -6.805052      -185.1749
  18   2.0000      -2.838286       -77.2337
  19   2.0000      -2.832114       -77.0657
  20   2.0000      -2.832025       -77.0633
  21   2.0000      -2.814953       -76.5988
  22   2.0000      -2.814950       -76.5987
  23   2.0000      -1.199203       -32.6320
  24   2.0000      -1.179937       -32.1077
  25   2.0000      -1.079499       -29.3747
  26   2.0000      -1.049923       -28.5699
  27   2.0000      -0.943137       -25.6641
  28   2.0000      -0.843674       -22.9575
  29   2.0000      -0.769630       -20.9427
  30   2.0000      -0.694365       -18.8946
  31   2.0000      -0.690425       -18.7874
  32   2.0000      -0.646044       -17.5798
  33   2.0000      -0.575937       -15.6720
  34   2.0000      -0.548945       -14.9375
  35   2.0000      -0.534430       -14.5426
  36   2.0000      -0.523631       -14.2487
  37   2.0000      -0.517131       -14.0719
  38   2.0000      -0.495802       -13.4915
  39   2.0000      -0.464469       -12.6388
  40   2.0000      -0.462860       -12.5951
  41   2.0000      -0.438930       -11.9439
  42   2.0000      -0.438790       -11.9401
  43   2.0000      -0.396544       -10.7905
  44   2.0000      -0.364969        -9.9313
  45   2.0000      -0.359972        -9.7953
  46   2.0000      -0.348444        -9.4816
  47   2.0000      -0.331799        -9.0287
  48   2.0000      -0.303771        -8.2660
  49   0.0000      -0.072369        -1.9693
  50   0.0000      -0.002414        -0.0657
  51   0.0000       0.036892         1.0039
  52   0.0000       0.036932         1.0050
  53   0.0000       0.096793         2.6339

MULLIKEN ATOMIC CHARGES
-----------------------
   0 N :   -0.184473
   1 C :   -0.095931
   2 H :    0.314115
   3 N :   -0.712159
   4 O :   -0.329989
   5 O :   -0.329989
   6 C :    0.572958
   7 C :   -0.292139
   8 C :   -0.292138
   9 H :    0.265858
  10 H :    0.265858
  11 C :    0.572959
  12 Br:    0.245070
Sum of atomic charges:   -0.0000000

LOEWDIN ATOMIC CHARGES
----------------------
   0 N :   -0.055696
   1 C :   -0.074982
   2 H :    0.167019
   3 N :   -0.230948
   4 O :   -0.168326
   5 O :   -0.168326
   6 C :    0.119294
   7 C :   -0.128115
   8 C :   -0.128115
   9 H :    0.159812
  10 H :    0.159812
  11 C :    0.119294
  12 Br:    0.229274

  Mayer bond orders larger than 0.100000
B(  0-N ,  1-C ) :   3.1108 B(  1-C ,  2-H ) :   0.8549 B(  3-N ,  6-C ) :   0.9688
B(  3-N , 11-C ) :   0.9688 B(  3-N , 12-Br) :   0.9040 B(  4-O , 11-C ) :   2.0988
B(  5-O ,  6-C ) :   2.0988 B(  6-C ,  7-C ) :   0.9663 B(  7-C ,  8-C ) :   1.7734
B(  7-C , 10-H ) :   0.9118 B(  8-C ,  9-H ) :   0.9118 B(  8-C , 11-C ) :   0.9663

Dispersion correction           -0.006863142
FINAL SINGLE POINT ENERGY     -3024.251043565745

DIPOLE MOMENT
-------------
                                X             Y             Z
Electronic contribution:     -0.00000       0.00000      10.83602
Nuclear contribution   :      0.00000      -0.00000     -10.00464
                        -----------------------------------------
Total Dipole Moment    :     -0.00000       0.00000       0.83138
                        -----------------------------------------
Magnitude (a.u.)       :      0.83138
Magnitude (Debye)      :      2.11320

Rotational constants in cm-1:     0.079190     0.017138     0.014089
Rotational constants in MHz :  2374.048965   513.787517   422.377351

                             ****ORCA TERMINATED NORMALLY****
TOTAL RUN TIME: 0 days 0 hours 2 minutes 29 seconds 447 msec
