                         Program Version 5.0.3 -  RELEASE  -
|  1> ! PBEh-3c def2/J TightSCF DefGrid3
|  2>
|  3> %maxcore 60000
|  4>
|  5> %pal
|  6> nprocs 4
|  7> end
|  8>
|  9> *xyzfile -1 1 EA_16.xyz
| 10>
| 11>                          ****END OF INPUT****

CARTESIAN COORDINATES (ANGSTROEM)
---------------------------------
  Si     0.000000    0.000000   -0.621090
  H      0.654378   -1.133417    0.207030
  H      0.654378    1.133417    0.207030
  H     -1.308757    0.000000    0.207030

 Total Charge           Charge          ....   -1
 Multiplicity           Mult            ....    1
 Number of Electrons    NEL             ....   18
 Basis Dimension        Dim             ....   24

ORBITAL ENERGIES
----------------

  NO   OCC          E(Eh)            E(eV)
   0   2.0000     -66.451724     -1808.2433
   1   2.0000      -5.228717      -142.2806
   2   2.0000      -3.519578       -95.7726
   3   2.0000      -3.519578       -95.7726
   4   2.0000      -3.517729       -95.7223
   5   2.0000      -0.319207        -8.6861
   6   2.0000      -0.120058        -3.2669
   7   2.0000      -0.120055        -3.2669
   8   2.0000       0.005471         0.1489
   9   0.0000       0.303676         8.2634
  10   0.0000       0.303680         8.2636
  11   0.0000       0.396796        10.7974
  12   0.0000       0.500824        13.6281
  13   0.0000       0.670368        18.2416

MULLIKEN ATOMIC CHARGES
-----------------------
   0 Si:   -0.618089
   1 H :   -0.127293
   2 H :   -0.127293
   3 H :   -0.127325
Sum of atomic charges:   -1.0000000

LOEWDIN ATOMIC CHARGES
----------------------
   0 Si:   -0.693605
   1 H :   -0.102127
   2 H :   -0.102127
   3 H :   -0.102142

  Mayer bond orders larger than 0.100000
B(  0-Si,  1-H ) :   0.9581 B(  0-Si,  2-H ) :   0.9581 B(  0-Si,  3-H ) :   0.9581

Dispersion correction           -0.000725221
FINAL SINGLE POINT ENERGY      -290.897372886796

DIPOLE MOMENT
-------------
                                X             Y             Z
Electronic contribution:      0.00001      -0.00000      -1.94500
Nuclear contribution   :      0.00000       0.00000       2.10879
                        -----------------------------------------
Total Dipole Moment    :      0.00001      -0.00000       0.16380
                        -----------------------------------------
Magnitude (a.u.)       :      0.16380
Magnitude (Debye)      :      0.41634

Rotational constants in cm-1:     3.778006     3.778006     3.254596
Rotational constants in MHz : 113261.762358 113261.756367 97570.346219

                             ****ORCA TERMINATED NORMALLY****
TOTAL RUN TIME: 0 days 0 hours 0 minutes 37 seconds 539 msec
