                         Program Version 5.0.3 -  RELEASE  -
|  1> ! PBEh-3c def2/J TightSCF DefGrid3
|  2>
|  3> %maxcore 60000
|  4>
|  5> %pal
|  6> nprocs 4
|  7> end
|  8>
|  9> *xyzfile 1 1 4p.xyz
| 10>
| 11>                          ****END OF INPUT****

CARTESIAN COORDINATES (ANGSTROEM)
---------------------------------
  C     -1.178198    0.000000    0.165584
  C      0.000000    0.000000   -0.543020
  H      0.000000    0.000000   -1.627366
  C      1.178198    0.000000    0.165584
  H      1.177141    0.000000    1.252577
  H      2.144340    0.000000   -0.332968
  H     -1.177141    0.000000    1.252577
  H     -2.144340    0.000000   -0.332968

 Total Charge           Charge          ....    1
 Multiplicity           Mult            ....    1
 Number of Electrons    NEL             ....   22
 Basis Dimension        Dim             ....   55

ORBITAL ENERGIES
----------------

  NO   OCC          E(Eh)            E(eV)
   0   2.0000     -10.762263      -292.8561
   1   2.0000     -10.762241      -292.8555
   2   2.0000     -10.709735      -291.4267
   3   2.0000      -1.171163       -31.8690
   4   2.0000      -1.026758       -27.9395
   5   2.0000      -0.892030       -24.2734
   6   2.0000      -0.814649       -22.1677
   7   2.0000      -0.770364       -20.9627
   8   2.0000      -0.704172       -19.1615
   9   2.0000      -0.683670       -18.6036
  10   2.0000      -0.617974       -16.8159
  11   0.0000      -0.356600        -9.7036
  12   0.0000      -0.171731        -4.6730
  13   0.0000      -0.062211        -1.6928
  14   0.0000      -0.047616        -1.2957
  15   0.0000      -0.026781        -0.7287

MULLIKEN ATOMIC CHARGES
-----------------------
   0 C :   -0.282043
   1 C :   -0.164208
   2 H :    0.351715
   3 C :   -0.282043
   4 H :    0.334351
   5 H :    0.353939
   6 H :    0.334351
   7 H :    0.353939
Sum of atomic charges:    1.0000000

LOEWDIN ATOMIC CHARGES
----------------------
   0 C :    0.094380
   1 C :   -0.160270
   2 H :    0.191437
   3 C :    0.094380
   4 H :    0.189843
   5 H :    0.200193
   6 H :    0.189843
   7 H :    0.200193

  Mayer bond orders larger than 0.100000
B(  0-C ,  1-C ) :   1.3937 B(  0-C ,  3-C ) :   0.2447 B(  0-C ,  6-H ) :   0.8792
B(  0-C ,  7-H ) :   0.8689 B(  1-C ,  2-H ) :   0.8640 B(  1-C ,  3-C ) :   1.3937
B(  3-C ,  4-H ) :   0.8792 B(  3-C ,  5-H ) :   0.8689

Dispersion correction           -0.002383140
FINAL SINGLE POINT ENERGY      -116.690948533317

DIPOLE MOMENT
-------------
                                X             Y             Z
Electronic contribution:     -0.00000       0.00000      -0.16533
Nuclear contribution   :     -0.00000       0.00000       0.46497
                        -----------------------------------------
Total Dipole Moment    :     -0.00000       0.00000       0.29964
                        -----------------------------------------
Magnitude (a.u.)       :      0.29964
Magnitude (Debye)      :      0.76163

Rotational constants in cm-1:     1.665109     0.371235     0.303557
Rotational constants in MHz : 49918.701537 11129.355292  9100.420127

                             ****ORCA TERMINATED NORMALLY****
TOTAL RUN TIME: 0 days 0 hours 1 minutes 52 seconds 350 msec
