                         Program Version 5.0.3 -  RELEASE  -
|  1> ! PBEh-3c def2/J TightSCF DefGrid3
|  2>
|  3> %maxcore 60000
|  4>
|  5> %pal
|  6> nprocs 4
|  7> end
|  8>
|  9> *xyzfile 0 1 P31.xyz
| 10>
| 11>                          ****END OF INPUT****

CARTESIAN COORDINATES (ANGSTROEM)
---------------------------------
  C     -2.103556   -0.664628    0.000000
  C     -1.014293    0.370285    0.000000
  O      0.215206   -0.238267    0.000000
  C      1.348061    0.558334    0.000000
  C      2.549537    0.004336    0.000000
  O     -1.165499    1.562036    0.000000
  H     -3.071779   -0.170815    0.000000
  H     -2.010015   -1.303975    0.879777
  H     -2.010015   -1.303975   -0.879777
  H      1.150970    1.621522    0.000000
  H      2.683978   -1.069399    0.000000
  H      3.427404    0.634547    0.000000

 Total Charge           Charge          ....    0
 Multiplicity           Mult            ....    1
 Number of Electrons    NEL             ....   46
 Basis Dimension        Dim             ....  102

ORBITAL ENERGIES
----------------

  NO   OCC          E(Eh)            E(eV)
   0   2.0000     -19.557913      -532.1979
   1   2.0000     -19.496893      -530.5374
   2   2.0000     -10.592892      -288.2472
   3   2.0000     -10.508710      -285.9566
   4   2.0000     -10.455640      -284.5124
   5   2.0000     -10.440067      -284.0887
   6   2.0000      -1.231985       -33.5240
   7   2.0000      -1.143624       -31.1196
   8   2.0000      -0.885833       -24.1047
   9   2.0000      -0.834644       -22.7118
  10   2.0000      -0.707958       -19.2645
  11   2.0000      -0.638221       -17.3669
  12   2.0000      -0.574647       -15.6369
  13   2.0000      -0.549590       -14.9551
  14   2.0000      -0.547801       -14.9064
  15   2.0000      -0.501020       -13.6334
  16   2.0000      -0.479513       -13.0482
  17   2.0000      -0.470615       -12.8061
  18   2.0000      -0.468620       -12.7518
  19   2.0000      -0.421025       -11.4567
  20   2.0000      -0.410401       -11.1676
  21   2.0000      -0.346583        -9.4310
  22   2.0000      -0.298979        -8.1356
  23   0.0000       0.018093         0.4923
  24   0.0000       0.067148         1.8272
  25   0.0000       0.153589         4.1794
  26   0.0000       0.169785         4.6201
  27   0.0000       0.179605         4.8873

MULLIKEN ATOMIC CHARGES
-----------------------
   0 C :   -0.751657
   1 C :    0.557196
   2 O :   -0.459188
   3 C :    0.107321
   4 C :   -0.572492
   5 O :   -0.378059
   6 H :    0.259146
   7 H :    0.256314
   8 H :    0.256314
   9 H :    0.259913
  10 H :    0.234418
  11 H :    0.230773
Sum of atomic charges:    0.0000000

LOEWDIN ATOMIC CHARGES
----------------------
   0 C :   -0.385439
   1 C :    0.155705
   2 O :   -0.149296
   3 C :   -0.012164
   4 C :   -0.306766
   5 O :   -0.204851
   6 H :    0.153833
   7 H :    0.158650
   8 H :    0.158650
   9 H :    0.142779
  10 H :    0.143681
  11 H :    0.145218

  Mayer bond orders larger than 0.100000
B(  0-C ,  1-C ) :   0.9447 B(  0-C ,  6-H ) :   0.9144 B(  0-C ,  7-H ) :   0.9040
B(  0-C ,  8-H ) :   0.9040 B(  1-C ,  2-O ) :   1.0290 B(  1-C ,  5-O ) :   2.0586
B(  2-O ,  3-C ) :   0.9570 B(  3-C ,  4-C ) :   1.8903 B(  3-C ,  9-H ) :   0.8779
B(  4-C , 10-H ) :   0.9202 B(  4-C , 11-H ) :   0.9272

Dispersion correction           -0.004437586
FINAL SINGLE POINT ENERGY      -305.810739731589

DIPOLE MOMENT
-------------
                                X             Y             Z
Electronic contribution:     -0.50216       2.29551       0.00000
Nuclear contribution   :      0.51838      -2.97252       0.00000
                        -----------------------------------------
Total Dipole Moment    :      0.01623      -0.67702       0.00000
                        -----------------------------------------
Magnitude (a.u.)       :      0.67721
Magnitude (Debye)      :      1.72133

Rotational constants in cm-1:     0.313152     0.074210     0.060667
Rotational constants in MHz :  9388.068431  2224.767777  1818.750123

                             ****ORCA TERMINATED NORMALLY****
TOTAL RUN TIME: 0 days 0 hours 1 minutes 6 seconds 939 msec
