                         Program Version 5.0.3 -  RELEASE  -
|  1> ! PBEh-3c def2/J TightSCF DefGrid3
|  2>
|  3> %maxcore 60000
|  4>
|  5> %pal
|  6> nprocs 4
|  7> end
|  8>
|  9> *xyzfile 0 1 SiH4.xyz
| 10>
| 11>                          ****END OF INPUT****

CARTESIAN COORDINATES (ANGSTROEM)
---------------------------------
  Si     0.000000   -0.000000    0.000000
  H      0.856042    0.856042   -0.856042
  H     -0.856042   -0.856042   -0.856042
  H      0.856042   -0.856042    0.856042
  H     -0.856042    0.856042    0.856042

 Total Charge           Charge          ....    0
 Multiplicity           Mult            ....    1
 Number of Electrons    NEL             ....   18
 Basis Dimension        Dim             ....   26

ORBITAL ENERGIES
----------------

  NO   OCC          E(Eh)            E(eV)
   0   2.0000     -66.727840     -1815.7568
   1   2.0000      -5.512836      -150.0119
   2   2.0000      -3.803298      -103.4930
   3   2.0000      -3.803298      -103.4930
   4   2.0000      -3.803298      -103.4930
   5   2.0000      -0.611946       -16.6519
   6   2.0000      -0.401248       -10.9185
   7   2.0000      -0.401248       -10.9185
   8   2.0000      -0.401248       -10.9185
   9   0.0000       0.083799         2.2803
  10   0.0000       0.083799         2.2803
  11   0.0000       0.083799         2.2803
  12   0.0000       0.154750         4.2110
  13   0.0000       0.244043         6.6408

MULLIKEN ATOMIC CHARGES
-----------------------
   0 Si:    0.080859
   1 H :   -0.020215
   2 H :   -0.020215
   3 H :   -0.020215
   4 H :   -0.020215
Sum of atomic charges:   -0.0000000

LOEWDIN ATOMIC CHARGES
----------------------
   0 Si:    0.091686
   1 H :   -0.022922
   2 H :   -0.022922
   3 H :   -0.022922
   4 H :   -0.022922

  Mayer bond orders larger than 0.100000
B(  0-Si,  1-H ) :   0.9678 B(  0-Si,  2-H ) :   0.9678 B(  0-Si,  3-H ) :   0.9678
B(  0-Si,  4-H ) :   0.9678

Dispersion correction           -0.000930663
FINAL SINGLE POINT ENERGY      -291.510237117032

DIPOLE MOMENT
-------------
                                X             Y             Z
Electronic contribution:      0.00000      -0.00000       0.00000
Nuclear contribution   :      0.00000       0.00000       0.00000
                        -----------------------------------------
Total Dipole Moment    :      0.00000      -0.00000       0.00000
                        -----------------------------------------
Magnitude (a.u.)       :      0.00000
Magnitude (Debye)      :      0.00000

Rotational constants in cm-1:     2.852704     2.852704     2.852704
Rotational constants in MHz : 85521.920748 85521.920748 85521.920748

                             ****ORCA TERMINATED NORMALLY****
TOTAL RUN TIME: 0 days 0 hours 0 minutes 54 seconds 193 msec
