                         Program Version 5.0.3 -  RELEASE  -
|  1> ! PBEh-3c def2/J TightSCF DefGrid3
|  2>
|  3> %maxcore 60000
|  4>
|  5> %pal
|  6> nprocs 4
|  7> end
|  8>
|  9> *xyzfile 0 1 sih3f.xyz
| 10>
| 11>                          ****END OF INPUT****

CARTESIAN COORDINATES (ANGSTROEM)
---------------------------------
  F     -1.020140    0.000000   -0.000000
  Si     0.575224    0.000000    0.000000
  H      1.066767    0.000247   -1.390293
  H      1.066767    1.203905    0.695360
  H      1.066767   -1.204152    0.694932

 Total Charge           Charge          ....    0
 Multiplicity           Mult            ....    1
 Number of Electrons    NEL             ....   26
 Basis Dimension        Dim             ....   39

ORBITAL ENERGIES
----------------

  NO   OCC          E(Eh)            E(eV)
   0   2.0000     -66.778738     -1817.1418
   1   2.0000     -25.085517      -682.6116
   2   2.0000      -5.554097      -151.1347
   3   2.0000      -3.847305      -104.6905
   4   2.0000      -3.844160      -104.6049
   5   2.0000      -3.844160      -104.6049
   6   2.0000      -1.305488       -35.5241
   7   2.0000      -0.633313       -17.2333
   8   2.0000      -0.517111       -14.0713
   9   2.0000      -0.515300       -14.0220
  10   2.0000      -0.515300       -14.0220
  11   2.0000      -0.396020       -10.7763
  12   2.0000      -0.396020       -10.7763
  13   0.0000       0.044828         1.2198
  14   0.0000       0.116347         3.1660
  15   0.0000       0.116347         3.1660
  16   0.0000       0.165225         4.4960
  17   0.0000       0.208988         5.6868

MULLIKEN ATOMIC CHARGES
-----------------------
   0 F :   -0.487052
   1 Si:    0.629060
   2 H :   -0.047353
   3 H :   -0.047328
   4 H :   -0.047328
Sum of atomic charges:   -0.0000000

LOEWDIN ATOMIC CHARGES
----------------------
   0 F :   -0.263801
   1 Si:    0.381541
   2 H :   -0.039252
   3 H :   -0.039244
   4 H :   -0.039244

  Mayer bond orders larger than 0.100000
B(  0-F ,  1-Si) :   0.8824 B(  1-Si,  2-H ) :   0.9367 B(  1-Si,  3-H ) :   0.9367
B(  1-Si,  4-H ) :   0.9367

Dispersion correction           -0.000970067
FINAL SINGLE POINT ENERGY      -390.628383299393

DIPOLE MOMENT
-------------
                                X             Y             Z
Electronic contribution:     -3.44794      -0.00000      -0.00002
Nuclear contribution   :      3.91484      -0.00000      -0.00000
                        -----------------------------------------
Total Dipole Moment    :      0.46690      -0.00000      -0.00002
                        -----------------------------------------
Magnitude (a.u.)       :      0.46690
Magnitude (Debye)      :      1.18678

Rotational constants in cm-1:     2.884049     0.475829     0.475829
Rotational constants in MHz : 86461.616615 14264.988143 14264.987755

                             ****ORCA TERMINATED NORMALLY****
TOTAL RUN TIME: 0 days 0 hours 0 minutes 28 seconds 840 msec
