                         Program Version 5.0.3 -  RELEASE  -
|  1> ! PBEh-3c def2/J TightSCF DefGrid3
|  2>
|  3> %maxcore 60000
|  4>
|  5> %pal
|  6> nprocs 4
|  7> end
|  8>
|  9> *xyzfile 0 1 B7.xyz
| 10>
| 11>                          ****END OF INPUT****

CARTESIAN COORDINATES (ANGSTROEM)
---------------------------------
  C      0.123352    1.762730   -0.179930
  H     -0.807987    2.195371   -0.545981
  O     -0.123352    1.422379    1.182096
  C      0.516153    0.570517   -1.046494
  H      0.663431    0.945322   -2.061830
  H      1.486112    0.189245   -0.714065
  C     -0.516153   -0.570517   -1.046494
  H     -0.663431   -0.945322   -2.061830
  H     -1.486112   -0.189245   -0.714065
  H      0.615676    0.875564    1.469111
  H      0.896444    2.534405   -0.245458
  C     -0.123352   -1.762730   -0.179930
  H     -0.896444   -2.534405   -0.245458
  H      0.807987   -2.195371   -0.545981
  O      0.123352   -1.422379    1.182096
  H     -0.615676   -0.875564    1.469111

 Total Charge           Charge          ....    0
 Multiplicity           Mult            ....    1
 Number of Electrons    NEL             ....   50
 Basis Dimension        Dim             ....  110

ORBITAL ENERGIES
----------------

  NO   OCC          E(Eh)            E(eV)
   0   2.0000     -19.486241      -530.2476
   1   2.0000     -19.486226      -530.2472
   2   2.0000     -10.482003      -285.2298
   3   2.0000     -10.481986      -285.2293
   4   2.0000     -10.439984      -284.0864
   5   2.0000     -10.439790      -284.0811
   6   2.0000      -1.127970       -30.6936
   7   2.0000      -1.116719       -30.3875
   8   2.0000      -0.883057       -24.0292
   9   2.0000      -0.799381       -21.7523
  10   2.0000      -0.717880       -19.5345
  11   2.0000      -0.665754       -18.1161
  12   2.0000      -0.565589       -15.3905
  13   2.0000      -0.536648       -14.6029
  14   2.0000      -0.535975       -14.5846
  15   2.0000      -0.529110       -14.3978
  16   2.0000      -0.496856       -13.5201
  17   2.0000      -0.482068       -13.1177
  18   2.0000      -0.425729       -11.5847
  19   2.0000      -0.414958       -11.2916
  20   2.0000      -0.409501       -11.1431
  21   2.0000      -0.380593       -10.3565
  22   2.0000      -0.372080       -10.1248
  23   2.0000      -0.329619        -8.9694
  24   2.0000      -0.321803        -8.7567
  25   0.0000       0.125644         3.4189
  26   0.0000       0.150815         4.1039
  27   0.0000       0.166442         4.5291
  28   0.0000       0.170031         4.6268
  29   0.0000       0.175800         4.7838

MULLIKEN ATOMIC CHARGES
-----------------------
   0 C :   -0.151536
   1 H :    0.204475
   2 O :   -0.637729
   3 C :   -0.474522
   4 H :    0.223189
   5 H :    0.222432
   6 C :   -0.474522
   7 H :    0.223189
   8 H :    0.222432
   9 H :    0.419762
  10 H :    0.193928
  11 C :   -0.151536
  12 H :    0.193928
  13 H :    0.204475
  14 O :   -0.637728
  15 H :    0.419762
Sum of atomic charges:    0.0000000

LOEWDIN ATOMIC CHARGES
----------------------
   0 C :   -0.094994
   1 H :    0.115507
   2 O :   -0.418901
   3 C :   -0.269013
   4 H :    0.131730
   5 H :    0.126548
   6 C :   -0.269013
   7 H :    0.131730
   8 H :    0.126548
   9 H :    0.306784
  10 H :    0.102339
  11 C :   -0.094994
  12 H :    0.102339
  13 H :    0.115507
  14 O :   -0.418901
  15 H :    0.306784

  Mayer bond orders larger than 0.100000
B(  0-C ,  1-H ) :   0.9158 B(  0-C ,  2-O ) :   1.0174 B(  0-C ,  3-C ) :   0.9819
B(  0-C , 10-H ) :   0.9107 B(  2-O ,  9-H ) :   0.7672 B(  3-C ,  4-H ) :   0.9177
B(  3-C ,  5-H ) :   0.9163 B(  3-C ,  6-C ) :   0.9292 B(  6-C ,  7-H ) :   0.9177
B(  6-C ,  8-H ) :   0.9163 B(  6-C , 11-C ) :   0.9819 B( 11-C , 12-H ) :   0.9107
B( 11-C , 13-H ) :   0.9158 B( 11-C , 14-O ) :   1.0174 B( 14-O , 15-H ) :   0.7672

Dispersion correction           -0.006962358
FINAL SINGLE POINT ENERGY      -308.208746130548

DIPOLE MOMENT
-------------
                                X             Y             Z
Electronic contribution:     -0.00000       0.00000       3.55620
Nuclear contribution   :     -0.00000       0.00000      -4.33370
                        -----------------------------------------
Total Dipole Moment    :     -0.00000       0.00000      -0.77751
                        -----------------------------------------
Magnitude (a.u.)       :      0.77751
Magnitude (Debye)      :      1.97626

Rotational constants in cm-1:     0.165500     0.088923     0.064768
Rotational constants in MHz :  4961.553653  2665.858260  1941.708430

                             ****ORCA TERMINATED NORMALLY****
TOTAL RUN TIME: 0 days 0 hours 1 minutes 47 seconds 567 msec
