                         Program Version 5.0.3 -  RELEASE  -
|  1> ! PBEh-3c def2/J TightSCF DefGrid3
|  2>
|  3> %maxcore 60000
|  4>
|  5> %pal
|  6> nprocs 4
|  7> end
|  8>
|  9> *xyzfile 0 1 12_benF6-benA.xyz
| 10>
| 11>                          ****END OF INPUT****

CARTESIAN COORDINATES (ANGSTROEM)
---------------------------------
  F     -2.268328   -1.958203   -0.323025
  F     -2.703691    0.725550   -0.253119
  C      0.039970   -1.620649    0.000628
  C     -1.246715   -1.122332   -0.158189
  C     -1.468961    0.248282   -0.123448
  C     -0.404843    1.120111    0.068322
  C      0.882869    0.622304    0.223240
  C      1.104164   -0.748842    0.192246
  F     -0.620158    2.430733    0.113060
  F      1.901232    1.456424    0.399377
  F      0.250821   -2.933836   -0.010169
  F      2.333224   -1.227391    0.354783

 Total Charge           Charge          ....    0
 Multiplicity           Mult            ....    1
 Number of Electrons    NEL             ....   90
 Basis Dimension        Dim             ....  180

ORBITAL ENERGIES
----------------

  NO   OCC          E(Eh)            E(eV)
   0   2.0000     -25.155915      -684.5272
   1   2.0000     -25.155626      -684.5194
   2   2.0000     -25.155594      -684.5185
   3   2.0000     -25.155408      -684.5134
   4   2.0000     -25.155398      -684.5132
   5   2.0000     -25.155353      -684.5120
   6   2.0000     -10.589464      -288.1540
   7   2.0000     -10.589287      -288.1492
   8   2.0000     -10.589236      -288.1478
   9   2.0000     -10.588616      -288.1309
  10   2.0000     -10.588565      -288.1295
  11   2.0000     -10.588283      -288.1218
  12   2.0000      -1.413069       -38.4516
  13   2.0000      -1.405670       -38.2502
  14   2.0000      -1.405562       -38.2473
  15   2.0000      -1.391895       -37.8754
  16   2.0000      -1.391655       -37.8688
  17   2.0000      -1.384859       -37.6839
  18   2.0000      -1.030817       -28.0500
  19   2.0000      -0.900423       -24.5018
  20   2.0000      -0.900288       -24.4981
  21   2.0000      -0.775270       -21.0962
  22   2.0000      -0.775156       -21.0931
  23   2.0000      -0.705338       -19.1932
  24   2.0000      -0.693780       -18.8787
  25   2.0000      -0.678331       -18.4583
  26   2.0000      -0.640357       -17.4250
  27   2.0000      -0.640120       -17.4186
  28   2.0000      -0.626881       -17.0583
  29   2.0000      -0.626588       -17.0503
  30   2.0000      -0.626505       -17.0481
  31   2.0000      -0.593627       -16.1534
  32   2.0000      -0.593527       -16.1507
  33   2.0000      -0.564716       -15.3667
  34   2.0000      -0.564548       -15.3621
  35   2.0000      -0.555704       -15.1215
  36   2.0000      -0.540883       -14.7182
  37   2.0000      -0.540674       -14.7125
  38   2.0000      -0.528992       -14.3946
  39   2.0000      -0.497984       -13.5508
  40   2.0000      -0.497927       -13.5493
  41   2.0000      -0.465136       -12.6570
  42   2.0000      -0.430060       -11.7025
  43   2.0000      -0.323524        -8.8035
  44   2.0000      -0.323477        -8.8023
  45   0.0000      -0.015630        -0.4253
  46   0.0000      -0.015528        -0.4225
  47   0.0000       0.011820         0.3216
  48   0.0000       0.124291         3.3821
  49   0.0000       0.124443         3.3863

MULLIKEN ATOMIC CHARGES
-----------------------
   0 F :   -0.277771
   1 F :   -0.277789
   2 C :    0.277299
   3 C :    0.277659
   4 C :    0.277323
   5 C :    0.277230
   6 C :    0.277536
   7 C :    0.277255
   8 F :   -0.277233
   9 F :   -0.276526
  10 F :   -0.277776
  11 F :   -0.277206
Sum of atomic charges:   -0.0000000

LOEWDIN ATOMIC CHARGES
----------------------
   0 F :   -0.114652
   1 F :   -0.114637
   2 C :    0.114302
   3 C :    0.114505
   4 C :    0.114320
   5 C :    0.113989
   6 C :    0.113767
   7 C :    0.113981
   8 F :   -0.113900
   9 F :   -0.113188
  10 F :   -0.114612
  11 F :   -0.113875

  Mayer bond orders larger than 0.100000
B(  0-F ,  3-C ) :   0.9685 B(  1-F ,  4-C ) :   0.9685 B(  2-C ,  3-C ) :   1.3251
B(  2-C ,  7-C ) :   1.3250 B(  2-C , 10-F ) :   0.9685 B(  3-C ,  4-C ) :   1.3251
B(  4-C ,  5-C ) :   1.3251 B(  5-C ,  6-C ) :   1.3249 B(  5-C ,  8-F ) :   0.9688
B(  6-C ,  7-C ) :   1.3250 B(  6-C ,  9-F ) :   0.9698 B(  7-C , 11-F ) :   0.9688

Dispersion correction           -0.006432537
FINAL SINGLE POINT ENERGY      -825.988825778318

DIPOLE MOMENT
-------------
                                X             Y             Z
Electronic contribution:      0.00235       0.00290       0.01750
Nuclear contribution   :      0.00480       0.00201      -0.02803
                        -----------------------------------------
Total Dipole Moment    :      0.00715       0.00491      -0.01053
                        -----------------------------------------
Magnitude (a.u.)       :      0.01364
Magnitude (Debye)      :      0.03468

Rotational constants in cm-1:     0.034356     0.034354     0.017178
Rotational constants in MHz :  1029.975137  1029.896729   514.982024

                             ****ORCA TERMINATED NORMALLY****
TOTAL RUN TIME: 0 days 0 hours 1 minutes 56 seconds 275 msec
