                         Program Version 5.0.3 -  RELEASE  -
|  1> ! PBEh-3c def2/J TightSCF DefGrid3
|  2>
|  3> %maxcore 60000
|  4>
|  5> %pal
|  6> nprocs 4
|  7> end
|  8>
|  9> *xyzfile 1 1 214A.xyz
| 10>
| 11>                          ****END OF INPUT****

CARTESIAN COORDINATES (ANGSTROEM)
---------------------------------
  C     -0.648620   -1.247290   -0.618880
  N      0.091350   -0.093690   -0.016270
  C     -0.517070    1.286450   -0.271730
  C     -1.686840    1.563410    0.668530
  H      0.154670   -0.192680    1.007580
  H      1.061190   -0.061390   -0.361530
  H     -0.661100   -1.146240   -1.708760
  H     -0.141510   -2.174390   -0.333900
  H     -1.671640   -1.260050   -0.235120
  H     -2.078290    2.567160    0.463770
  H     -2.512570    0.852210    0.534330
  H     -1.345990    1.536860    1.709900
  H     -0.802140    1.324600   -1.330170
  H      0.295380    1.995100   -0.082530

 Total Charge           Charge          ....    1
 Multiplicity           Mult            ....    1
 Number of Electrons    NEL             ....   34
 Basis Dimension        Dim             ....   80

ORBITAL ENERGIES
----------------

  NO   OCC          E(Eh)            E(eV)
   0   2.0000     -14.960045      -407.0835
   1   2.0000     -10.688164      -290.8397
   2   2.0000     -10.681069      -290.6467
   3   2.0000     -10.612791      -288.7887
   4   2.0000      -1.301498       -35.4156
   5   2.0000      -1.049082       -28.5470
   6   2.0000      -0.989797       -26.9337
   7   2.0000      -0.903407       -24.5830
   8   2.0000      -0.845713       -23.0130
   9   2.0000      -0.786412       -21.3994
  10   2.0000      -0.740109       -20.1394
  11   2.0000      -0.689615       -18.7654
  12   2.0000      -0.662803       -18.0358
  13   2.0000      -0.655744       -17.8437
  14   2.0000      -0.623169       -16.9573
  15   2.0000      -0.610252       -16.6058
  16   2.0000      -0.593666       -16.1545
  17   0.0000      -0.111998        -3.0476
  18   0.0000      -0.057739        -1.5711
  19   0.0000      -0.037772        -1.0278
  20   0.0000      -0.026284        -0.7152
  21   0.0000      -0.016545        -0.4502

MULLIKEN ATOMIC CHARGES
-----------------------
   0 C :   -0.536852
   1 N :   -0.650225
   2 C :   -0.340816
   3 C :   -0.664411
   4 H :    0.441673
   5 H :    0.448071
   6 H :    0.300738
   7 H :    0.303652
   8 H :    0.298861
   9 H :    0.302639
  10 H :    0.254346
  11 H :    0.246373
  12 H :    0.298754
  13 H :    0.297196
Sum of atomic charges:    1.0000000

LOEWDIN ATOMIC CHARGES
----------------------
   0 C :   -0.249222
   1 N :   -0.135372
   2 C :   -0.143164
   3 C :   -0.369975
   4 H :    0.300606
   5 H :    0.303301
   6 H :    0.168362
   7 H :    0.168469
   8 H :    0.166647
   9 H :    0.177301
  10 H :    0.147760
  11 H :    0.146107
  12 H :    0.160839
  13 H :    0.158341

  Mayer bond orders larger than 0.100000
B(  0-C ,  1-N ) :   0.8589 B(  0-C ,  6-H ) :   0.8900 B(  0-C ,  7-H ) :   0.8907
B(  0-C ,  8-H ) :   0.8884 B(  1-N ,  2-C ) :   0.8122 B(  1-N ,  4-H ) :   0.7738
B(  1-N ,  5-H ) :   0.7767 B(  2-C ,  3-C ) :   0.9814 B(  2-C , 12-H ) :   0.8832
B(  2-C , 13-H ) :   0.8884 B(  3-C ,  9-H ) :   0.8907 B(  3-C , 10-H ) :   0.9068
B(  3-C , 11-H ) :   0.9074

Dispersion correction           -0.005337044
FINAL SINGLE POINT ENERGY      -174.464551744081

DIPOLE MOMENT
-------------
                                X             Y             Z
Electronic contribution:      1.75352      -0.42274      -0.19889
Nuclear contribution   :     -0.86319      -0.11428       0.18931
                        -----------------------------------------
Total Dipole Moment    :      0.89034      -0.53702      -0.00958
                        -----------------------------------------
Magnitude (a.u.)       :      1.03980
Magnitude (Debye)      :      2.64296

Rotational constants in cm-1:     0.473521     0.150404     0.134423
Rotational constants in MHz : 14195.797451  4509.002791  4029.909307

                             ****ORCA TERMINATED NORMALLY****
TOTAL RUN TIME: 0 days 0 hours 0 minutes 52 seconds 453 msec
