                         Program Version 5.0.3 -  RELEASE  -
|  1> ! PBEh-3c def2/J TightSCF DefGrid3
|  2>
|  3> %maxcore 60000
|  4>
|  5> %pal
|  6> nprocs 4
|  7> end
|  8>
|  9> *xyzfile 0 1 be4.xyz
| 10>
| 11>                          ****END OF INPUT****

CARTESIAN COORDINATES (ANGSTROEM)
---------------------------------
  Be     0.727904   -0.727904    0.727904
  Be    -0.727904    0.727904    0.727904
  Be    -0.727904   -0.727904   -0.727904
  Be     0.727904    0.727904   -0.727904

 Total Charge           Charge          ....    0
 Multiplicity           Mult            ....    1
 Number of Electrons    NEL             ....   16
 Basis Dimension        Dim             ....   36

ORBITAL ENERGIES
----------------

  NO   OCC          E(Eh)            E(eV)
   0   2.0000      -4.207017      -114.4788
   1   2.0000      -4.206051      -114.4525
   2   2.0000      -4.206051      -114.4525
   3   2.0000      -4.206051      -114.4525
   4   2.0000      -0.462078       -12.5738
   5   2.0000      -0.239428        -6.5152
   6   2.0000      -0.239428        -6.5152
   7   2.0000      -0.239428        -6.5152
   8   0.0000      -0.092424        -2.5150
   9   0.0000      -0.030309        -0.8248
  10   0.0000      -0.030309        -0.8248
  11   0.0000      -0.030309        -0.8248
  12   0.0000      -0.026473        -0.7204

MULLIKEN ATOMIC CHARGES
-----------------------
   0 Be:    0.000001
   1 Be:   -0.000001
   2 Be:   -0.000001
   3 Be:   -0.000000
Sum of atomic charges:   -0.0000000

LOEWDIN ATOMIC CHARGES
----------------------
   0 Be:    0.000000
   1 Be:   -0.000000
   2 Be:   -0.000000
   3 Be:   -0.000000

  Mayer bond orders larger than 0.100000
B(  0-Be,  1-Be) :   0.7290 B(  0-Be,  2-Be) :   0.7290 B(  0-Be,  3-Be) :   0.7290
B(  1-Be,  2-Be) :   0.7290 B(  1-Be,  3-Be) :   0.7290 B(  2-Be,  3-Be) :   0.7290

Dispersion correction           -0.001509582
FINAL SINGLE POINT ENERGY       -58.576462834595

DIPOLE MOMENT
-------------
                                X             Y             Z
Electronic contribution:     -0.00000       0.00000       0.00000
Nuclear contribution   :      0.00000       0.00000       0.00000
                        -----------------------------------------
Total Dipole Moment    :     -0.00000       0.00000       0.00000
                        -----------------------------------------
Magnitude (a.u.)       :      0.00000
Magnitude (Debye)      :      0.00000

Rotational constants in cm-1:     0.441304     0.441304     0.441304
Rotational constants in MHz : 13229.957854 13229.957854 13229.957854

                             ****ORCA TERMINATED NORMALLY****
TOTAL RUN TIME: 0 days 0 hours 0 minutes 35 seconds 705 msec
