                         Program Version 5.0.3 -  RELEASE  -
|  1> ! PBEh-3c def2/J TightSCF DefGrid3
|  2>
|  3> %maxcore 60000
|  4>
|  5> %pal
|  6> nprocs 4
|  7> end
|  8>
|  9> *xyzfile 0 1 cbut.xyz
| 10>
| 11>                          ****END OF INPUT****

CARTESIAN COORDINATES (ANGSTROEM)
---------------------------------
  N      1.154377    0.000000    0.000000
  B      0.000000    1.105007    0.000000
  N     -1.154377    0.000000    0.000000
  B      0.000000   -1.105007    0.000000
  H      1.745919    0.000000    0.816622
  H      1.745919    0.000000   -0.816622
  H      0.000000    1.752956    1.016566
  H      0.000000    1.752956   -1.016566
  H     -1.745919    0.000000   -0.816622
  H     -1.745919    0.000000    0.816622
  H      0.000000   -1.752956    1.016566
  H      0.000000   -1.752956   -1.016566

 Total Charge           Charge          ....    0
 Multiplicity           Mult            ....    1
 Number of Electrons    NEL             ....   32
 Basis Dimension        Dim             ....   76

ORBITAL ENERGIES
----------------

  NO   OCC          E(Eh)            E(eV)
   0   2.0000     -14.650439      -398.6587
   1   2.0000     -14.650413      -398.6580
   2   2.0000      -6.935612      -188.7276
   3   2.0000      -6.935574      -188.7266
   4   2.0000      -1.016127       -27.6502
   5   2.0000      -0.960301       -26.1311
   6   2.0000      -0.639643       -17.4056
   7   2.0000      -0.596184       -16.2230
   8   2.0000      -0.569316       -15.4919
   9   2.0000      -0.560997       -15.2655
  10   2.0000      -0.442874       -12.0512
  11   2.0000      -0.440532       -11.9875
  12   2.0000      -0.434580       -11.8255
  13   2.0000      -0.350497        -9.5375
  14   2.0000      -0.335130        -9.1194
  15   2.0000      -0.327698        -8.9171
  16   0.0000       0.096499         2.6259
  17   0.0000       0.112792         3.0692
  18   0.0000       0.143950         3.9171
  19   0.0000       0.181875         4.9491
  20   0.0000       0.188022         5.1163

MULLIKEN ATOMIC CHARGES
-----------------------
   0 N :   -0.772318
   1 B :   -0.014498
   2 N :   -0.772318
   3 B :   -0.014498
   4 H :    0.375552
   5 H :    0.375552
   6 H :    0.017856
   7 H :    0.017856
   8 H :    0.375552
   9 H :    0.375552
  10 H :    0.017856
  11 H :    0.017856
Sum of atomic charges:   -0.0000000

LOEWDIN ATOMIC CHARGES
----------------------
   0 N :   -0.322746
   1 B :   -0.183210
   2 N :   -0.322746
   3 B :   -0.183210
   4 H :    0.266597
   5 H :    0.266597
   6 H :   -0.013619
   7 H :   -0.013619
   8 H :    0.266597
   9 H :    0.266597
  10 H :   -0.013619
  11 H :   -0.013619

  Mayer bond orders larger than 0.100000
B(  0-N ,  1-B ) :   0.7247 B(  0-N ,  3-B ) :   0.7247 B(  0-N ,  4-H ) :   0.8328
B(  0-N ,  5-H ) :   0.8328 B(  1-B ,  2-N ) :   0.7247 B(  1-B ,  6-H ) :   0.9933
B(  1-B ,  7-H ) :   0.9933 B(  2-N ,  3-B ) :   0.7247 B(  2-N ,  8-H ) :   0.8328
B(  2-N ,  9-H ) :   0.8328 B(  3-B , 10-H ) :   0.9933 B(  3-B , 11-H ) :   0.9933

Dispersion correction           -0.004591103
FINAL SINGLE POINT ENERGY      -163.737596005104

DIPOLE MOMENT
-------------
                                X             Y             Z
Electronic contribution:     -0.00000       0.00000      -0.00000
Nuclear contribution   :      0.00000       0.00000       0.00000
                        -----------------------------------------
Total Dipole Moment    :     -0.00000       0.00000      -0.00000
                        -----------------------------------------
Magnitude (a.u.)       :      0.00000
Magnitude (Debye)      :      0.00000

Rotational constants in cm-1:     0.369328     0.298487     0.190675
Rotational constants in MHz : 11072.161254  8948.402960  5716.304243

                             ****ORCA TERMINATED NORMALLY****
TOTAL RUN TIME: 0 days 0 hours 0 minutes 54 seconds 381 msec
