                         Program Version 5.0.3 -  RELEASE  -
|  1> ! PBEh-3c def2/J TightSCF DefGrid3
|  2>
|  3> %maxcore 60000
|  4>
|  5> %pal
|  6> nprocs 4
|  7> end
|  8>
|  9> *xyzfile 0 1 R43.xyz
| 10>
| 11>                          ****END OF INPUT****

CARTESIAN COORDINATES (ANGSTROEM)
---------------------------------
  C      0.000000    0.781938    1.310988
  C      0.000000   -0.781938    1.310988
  C      0.000000    0.739288   -0.213371
  C      0.000000   -0.739288   -0.213371
  C      0.000000    1.668935   -1.160668
  C      0.000000   -1.668935   -1.160668
  H      0.885114    1.238333    1.752687
  H     -0.885114    1.238333    1.752687
  H      0.885114   -1.238333    1.752687
  H     -0.885114   -1.238333    1.752687
  H      0.000000    2.723132   -0.917147
  H      0.000000    1.403759   -2.209923
  H      0.000000   -1.403759   -2.209923
  H      0.000000   -2.723132   -0.917147

 Total Charge           Charge          ....    0
 Multiplicity           Mult            ....    1
 Number of Electrons    NEL             ....   44
 Basis Dimension        Dim             ....  106

ORBITAL ENERGIES
----------------

  NO   OCC          E(Eh)            E(eV)
   0   2.0000     -10.452053      -284.4148
   1   2.0000     -10.451836      -284.4089
   2   2.0000     -10.440278      -284.0944
   3   2.0000     -10.440152      -284.0910
   4   2.0000     -10.433143      -283.9003
   5   2.0000     -10.433099      -283.8991
   6   2.0000      -0.955548       -26.0018
   7   2.0000      -0.823629       -22.4121
   8   2.0000      -0.814219       -22.1560
   9   2.0000      -0.697371       -18.9764
  10   2.0000      -0.673042       -18.3144
  11   2.0000      -0.551182       -14.9984
  12   2.0000      -0.532909       -14.5012
  13   2.0000      -0.523449       -14.2438
  14   2.0000      -0.519881       -14.1467
  15   2.0000      -0.475282       -12.9331
  16   2.0000      -0.421290       -11.4639
  17   2.0000      -0.390223       -10.6185
  18   2.0000      -0.379270       -10.3205
  19   2.0000      -0.373455       -10.1622
  20   2.0000      -0.348642        -9.4870
  21   2.0000      -0.266426        -7.2498
  22   0.0000      -0.010621        -0.2890
  23   0.0000       0.130291         3.5454
  24   0.0000       0.154619         4.2074
  25   0.0000       0.163856         4.4587
  26   0.0000       0.169256         4.6057

MULLIKEN ATOMIC CHARGES
-----------------------
   0 C :   -0.489647
   1 C :   -0.489647
   2 C :    0.174545
   3 C :    0.174545
   4 C :   -0.597618
   5 C :   -0.597618
   6 H :    0.237995
   7 H :    0.237995
   8 H :    0.237995
   9 H :    0.237995
  10 H :    0.219792
  11 H :    0.216937
  12 H :    0.216937
  13 H :    0.219792
Sum of atomic charges:    0.0000000

LOEWDIN ATOMIC CHARGES
----------------------
   0 C :   -0.227514
   1 C :   -0.227514
   2 C :   -0.050436
   3 C :   -0.050436
   4 C :   -0.267827
   5 C :   -0.267827
   6 H :    0.135863
   7 H :    0.135863
   8 H :    0.135863
   9 H :    0.135863
  10 H :    0.137314
  11 H :    0.136738
  12 H :    0.136738
  13 H :    0.137314

  Mayer bond orders larger than 0.100000
B(  0-C ,  1-C ) :   0.9642 B(  0-C ,  2-C ) :   0.9747 B(  0-C ,  6-H ) :   0.9134
B(  0-C ,  7-H ) :   0.9134 B(  1-C ,  3-C ) :   0.9747 B(  1-C ,  8-H ) :   0.9134
B(  1-C ,  9-H ) :   0.9134 B(  2-C ,  3-C ) :   1.0390 B(  2-C ,  4-C ) :   1.8231
B(  3-C ,  5-C ) :   1.8231 B(  4-C , 10-H ) :   0.9315 B(  4-C , 11-H ) :   0.9299
B(  5-C , 12-H ) :   0.9299 B(  5-C , 13-H ) :   0.9315

Dispersion correction           -0.006323262
FINAL SINGLE POINT ENERGY      -232.858985971562

DIPOLE MOMENT
-------------
                                X             Y             Z
Electronic contribution:     -0.00000      -0.00000      -0.59126
Nuclear contribution   :      0.00000       0.00000       0.78026
                        -----------------------------------------
Total Dipole Moment    :     -0.00000      -0.00000       0.18901
                        -----------------------------------------
Magnitude (a.u.)       :      0.18901
Magnitude (Debye)      :      0.48042

Rotational constants in cm-1:     0.165563     0.137065     0.077154
Rotational constants in MHz :  4963.443064  4109.102536  2313.023401

                             ****ORCA TERMINATED NORMALLY****
TOTAL RUN TIME: 0 days 0 hours 1 minutes 10 seconds 458 msec
