                         Program Version 5.0.3 -  RELEASE  -
|  1> ! PBEh-3c def2/J TightSCF DefGrid3
|  2>
|  3> %maxcore 60000
|  4>
|  5> %pal
|  6> nprocs 4
|  7> end
|  8>
|  9> *xyzfile 1 1 A2.xyz
| 10>
| 11>                          ****END OF INPUT****

CARTESIAN COORDINATES (ANGSTROEM)
---------------------------------
  N     -2.004616    0.686104    0.000000
  N     -0.096813    2.103879    0.000000
  N      1.203471   -1.141115    0.000000
  N      1.975097    0.874049    0.000000
  N     -1.964151   -1.597884    0.000000
  C      2.302532   -0.409057    0.000000
  C      0.598560    0.992476    0.000000
  C     -1.303557   -0.441210    0.000000
  C     -1.401646    1.865601    0.000000
  C      0.102479   -0.299512    0.000000
  H      2.623901    1.652330    0.000000
  H     -2.972045   -1.566033    0.000000
  H     -1.527157   -2.501198    0.000000
  H     -2.052359    2.732077    0.000000
  H      3.308719   -0.798778    0.000000
  H      1.207585   -2.151729    0.000000

 Total Charge           Charge          ....    1
 Multiplicity           Mult            ....    1
 Number of Electrons    NEL             ....   70
 Basis Dimension        Dim             ....  162

ORBITAL ENERGIES
----------------

  NO   OCC          E(Eh)            E(eV)
   0   2.0000     -14.927906      -406.2090
   1   2.0000     -14.913085      -405.8057
   2   2.0000     -14.822641      -403.3446
   3   2.0000     -14.793104      -402.5408
   4   2.0000     -14.786855      -402.3708
   5   2.0000     -10.756102      -292.6884
   6   2.0000     -10.716397      -291.6080
   7   2.0000     -10.707863      -291.3758
   8   2.0000     -10.678552      -290.5782
   9   2.0000     -10.666278      -290.2442
  10   2.0000      -1.382418       -37.6175
  11   2.0000      -1.267918       -34.5018
  12   2.0000      -1.243278       -33.8313
  13   2.0000      -1.200746       -32.6740
  14   2.0000      -1.129612       -30.7383
  15   2.0000      -1.065195       -28.9854
  16   2.0000      -0.960036       -26.1239
  17   2.0000      -0.940020       -25.5792
  18   2.0000      -0.923445       -25.1282
  19   2.0000      -0.846442       -23.0329
  20   2.0000      -0.811148       -22.0725
  21   2.0000      -0.794324       -21.6147
  22   2.0000      -0.773321       -21.0431
  23   2.0000      -0.763345       -20.7717
  24   2.0000      -0.746701       -20.3188
  25   2.0000      -0.718198       -19.5432
  26   2.0000      -0.693320       -18.8662
  27   2.0000      -0.647370       -17.6158
  28   2.0000      -0.646579       -17.5943
  29   2.0000      -0.609670       -16.5900
  30   2.0000      -0.553215       -15.0537
  31   2.0000      -0.516561       -14.0563
  32   2.0000      -0.493544       -13.4300
  33   2.0000      -0.470982       -12.8161
  34   2.0000      -0.438894       -11.9429
  35   0.0000      -0.195998        -5.3334
  36   0.0000      -0.141892        -3.8611
  37   0.0000      -0.118944        -3.2366
  38   0.0000      -0.081107        -2.2070
  39   0.0000      -0.039404        -1.0722

MULLIKEN ATOMIC CHARGES
-----------------------
   0 N :   -0.401799
   1 N :   -0.376327
   2 N :   -0.628110
   3 N :   -0.623101
   4 N :   -0.806282
   5 C :    0.252104
   6 C :    0.499293
   7 C :    0.552690
   8 C :    0.094253
   9 C :    0.137735
  10 H :    0.440512
  11 H :    0.418778
  12 H :    0.381883
  13 H :    0.287864
  14 H :    0.344861
  15 H :    0.425646
Sum of atomic charges:    1.0000000

LOEWDIN ATOMIC CHARGES
----------------------
   0 N :   -0.165974
   1 N :   -0.164667
   2 N :   -0.075005
   3 N :   -0.075536
   4 N :   -0.311542
   5 C :    0.089797
   6 C :    0.082472
   7 C :    0.110899
   8 C :    0.054532
   9 C :   -0.063443
  10 H :    0.314776
  11 H :    0.292236
  12 H :    0.265765
  13 H :    0.155940
  14 H :    0.186979
  15 H :    0.302772

  Mayer bond orders larger than 0.100000
B(  0-N ,  7-C ) :   1.4676 B(  0-N ,  8-C ) :   1.4670 B(  1-N ,  6-C ) :   1.5100
B(  1-N ,  8-C ) :   1.4656 B(  2-N ,  5-C ) :   1.3719 B(  2-N ,  9-C ) :   0.9404
B(  2-N , 15-H ) :   0.7903 B(  3-N ,  5-C ) :   1.3316 B(  3-N ,  6-C ) :   1.0006
B(  3-N , 10-H ) :   0.7744 B(  4-N ,  7-C ) :   1.1883 B(  4-N , 11-H ) :   0.7963
B(  4-N , 12-H ) :   0.8316 B(  5-C , 14-H ) :   0.8607 B(  6-C ,  9-C ) :   1.3046
B(  7-C ,  9-C ) :   1.1557 B(  8-C , 13-H ) :   0.8866

Dispersion correction           -0.009362611
FINAL SINGLE POINT ENERGY      -466.671039978881

DIPOLE MOMENT
-------------
                                X             Y             Z
Electronic contribution:      1.34642       1.46541       0.00000
Nuclear contribution   :      0.89005      -3.74606       0.00000
                        -----------------------------------------
Total Dipole Moment    :      2.23647      -2.28065       0.00000
                        -----------------------------------------
Magnitude (a.u.)       :      3.19424
Magnitude (Debye)      :      8.11911

Rotational constants in cm-1:     0.080381     0.050781     0.031121
Rotational constants in MHz :  2409.756898  1522.388825   932.973300

                             ****ORCA TERMINATED NORMALLY****
TOTAL RUN TIME: 0 days 0 hours 2 minutes 14 seconds 483 msec
