                         Program Version 5.0.3 -  RELEASE  -
|  1> ! PBEh-3c def2/J TightSCF DefGrid3
|  2>
|  3> %maxcore 60000
|  4>
|  5> %pal
|  6> nprocs 4
|  7> end
|  8>
|  9> *xyzfile 0 1 C4H9SO3H.xyz
| 10>
| 11>                          ****END OF INPUT****

CARTESIAN COORDINATES (ANGSTROEM)
---------------------------------
  C     -2.151685   -0.817483   -1.528908
  H     -1.828084   -1.868929   -1.537138
  H     -1.798645   -0.352926   -2.461463
  H     -3.250287   -0.806808   -1.545138
  C     -1.608992   -0.080413   -0.302376
  H     -1.978168    0.958755   -0.301700
  H     -2.004573   -0.547279    0.614963
  C     -0.074557   -0.071530   -0.248538
  H      0.327237    0.417400   -1.149169
  H      0.298050   -1.108320   -0.250950
  C      0.445370    0.651114    0.991828
  H      0.151438    0.155294    1.927878
  H      0.098226    1.694972    1.035993
  O      2.576881    1.425252    2.333742
  O      2.689403   -0.767015    1.188932
  H      3.121773   -0.990812    0.340562
  S      2.236137    0.803814    1.076909
  O      2.750477    1.304915   -0.185427

 Total Charge           Charge          ....    0
 Multiplicity           Mult            ....    1
 Number of Electrons    NEL             ....   74
 Basis Dimension        Dim             ....  143

ORBITAL ENERGIES
----------------

  NO   OCC          E(Eh)            E(eV)
   0   2.0000     -89.843346     -2444.7617
   1   2.0000     -19.555313      -532.1271
   2   2.0000     -19.498983      -530.5943
   3   2.0000     -19.494159      -530.4630
   4   2.0000     -10.493943      -285.5547
   5   2.0000     -10.467380      -284.8319
   6   2.0000     -10.458849      -284.5998
   7   2.0000     -10.442573      -284.1569
   8   2.0000      -8.444880      -229.7969
   9   2.0000      -6.338533      -172.4802
  10   2.0000      -6.335041      -172.3852
  11   2.0000      -6.334219      -172.3629
  12   2.0000      -1.261437       -34.3254
  13   2.0000      -1.149771       -31.2868
  14   2.0000      -1.124047       -30.5869
  15   2.0000      -0.925253       -25.1774
  16   2.0000      -0.859292       -23.3825
  17   2.0000      -0.771147       -20.9840
  18   2.0000      -0.708275       -19.2731
  19   2.0000      -0.677063       -18.4238
  20   2.0000      -0.614723       -16.7275
  21   2.0000      -0.575420       -15.6580
  22   2.0000      -0.562589       -15.3088
  23   2.0000      -0.551539       -15.0081
  24   2.0000      -0.515101       -14.0166
  25   2.0000      -0.504891       -13.7388
  26   2.0000      -0.496543       -13.5116
  27   2.0000      -0.464888       -12.6502
  28   2.0000      -0.436101       -11.8669
  29   2.0000      -0.435048       -11.8383
  30   2.0000      -0.429663       -11.6917
  31   2.0000      -0.408639       -11.1196
  32   2.0000      -0.402242       -10.9456
  33   2.0000      -0.396047       -10.7770
  34   2.0000      -0.383502       -10.4356
  35   2.0000      -0.369487       -10.0543
  36   2.0000      -0.360751        -9.8165
  37   0.0000       0.079502         2.1634
  38   0.0000       0.104257         2.8370
  39   0.0000       0.119963         3.2644
  40   0.0000       0.124389         3.3848
  41   0.0000       0.135769         3.6945

MULLIKEN ATOMIC CHARGES
-----------------------
   0 C :   -0.637517
   1 H :    0.213103
   2 H :    0.216147
   3 H :    0.227583
   4 C :   -0.412132
   5 H :    0.215262
   6 H :    0.213874
   7 C :   -0.427454
   8 H :    0.247228
   9 H :    0.225453
  10 C :   -0.612702
  11 H :    0.280467
  12 H :    0.278040
  13 O :   -0.583663
  14 O :   -0.702616
  15 H :    0.457133
  16 S :    1.420710
  17 O :   -0.618916
Sum of atomic charges:   -0.0000000

LOEWDIN ATOMIC CHARGES
----------------------
   0 C :   -0.360209
   1 H :    0.126233
   2 H :    0.127630
   3 H :    0.131986
   4 C :   -0.242506
   5 H :    0.124603
   6 H :    0.123868
   7 C :   -0.260018
   8 H :    0.139594
   9 H :    0.129948
  10 C :   -0.355576
  11 H :    0.156426
  12 H :    0.156465
  13 O :   -0.524809
  14 O :   -0.512226
  15 H :    0.332467
  16 S :    1.261190
  17 O :   -0.555064

  Mayer bond orders larger than 0.100000
B(  0-C ,  1-H ) :   0.9274 B(  0-C ,  2-H ) :   0.9265 B(  0-C ,  3-H ) :   0.9285
B(  0-C ,  4-C ) :   0.9953 B(  4-C ,  5-H ) :   0.9169 B(  4-C ,  6-H ) :   0.9172
B(  4-C ,  7-C ) :   0.9762 B(  7-C ,  8-H ) :   0.9012 B(  7-C ,  9-H ) :   0.9103
B(  7-C , 10-C ) :   0.9284 B( 10-C , 11-H ) :   0.8748 B( 10-C , 12-H ) :   0.8773
B( 10-C , 16-S ) :   0.9045 B( 13-O , 16-S ) :   1.7635 B( 14-O , 15-H ) :   0.7472
B( 14-O , 16-S ) :   0.9164 B( 16-S , 17-O ) :   1.6996

Dispersion correction           -0.009046925
FINAL SINGLE POINT ENERGY      -781.001189770466

DIPOLE MOMENT
-------------
                                X             Y             Z
Electronic contribution:     15.48288       4.81806       7.22569
Nuclear contribution   :    -16.74344      -5.75216      -7.96464
                        -----------------------------------------
Total Dipole Moment    :     -1.26056      -0.93410      -0.73895
                        -----------------------------------------
Magnitude (a.u.)       :      1.73424
Magnitude (Debye)      :      4.40810

Rotational constants in cm-1:     0.131779     0.025765     0.025240
Rotational constants in MHz :  3950.638222   772.421208   756.667738

                             ****ORCA TERMINATED NORMALLY****
TOTAL RUN TIME: 0 days 0 hours 1 minutes 46 seconds 635 msec
