                         Program Version 5.0.3 -  RELEASE  -
|  1> ! PBEh-3c def2/J TightSCF DefGrid3
|  2>
|  3> %maxcore 60000
|  4>
|  5> %pal
|  6> nprocs 4
|  7> end
|  8>
|  9> *xyzfile 0 1 Dibenzocycloheptene_TS.xyz
| 10>
| 11>                          ****END OF INPUT****

CARTESIAN COORDINATES (ANGSTROEM)
---------------------------------
  C     -0.792218   -2.030635   -0.024380
  C      0.561748   -1.764265   -0.487113
  C      1.177593   -0.505547   -0.579581
  C     -0.768587    1.131176    0.369364
  C     -1.801408    0.218463    0.638008
  C     -1.756262   -1.222604    0.435598
  C     -3.011425    0.716886    1.156814
  C     -3.218161    2.058188    1.411490
  C     -2.196604    2.959434    1.139566
  C     -1.000477    2.485457    0.625376
  C      2.479945   -0.445228   -1.082464
  C      3.189597   -1.573385   -1.461012
  C      2.590679   -2.821512   -1.351117
  C      1.296131   -2.900189   -0.877500
  C      0.625883    0.844485   -0.157872
  H     -1.055877   -3.081469   -0.070668
  H     -2.679364   -1.718564    0.715115
  H     -3.804273    0.010224    1.365092
  H     -4.161546    2.397635    1.817093
  H     -2.326468    4.016152    1.330876
  H     -0.203222    3.189400    0.416490
  H      2.954873    0.525005   -1.168842
  H      4.198033   -1.476959   -1.840428
  H      3.121939   -3.718398   -1.639683
  H      0.818742   -3.867863   -0.794013
  H      1.316618    1.222258    0.603407
  H      0.773111    1.515854   -1.008618

 Total Charge           Charge          ....    0
 Multiplicity           Mult            ....    1
 Number of Electrons    NEL             ....  102
 Basis Dimension        Dim             ....  249

ORBITAL ENERGIES
----------------

  NO   OCC          E(Eh)            E(eV)
   0   2.0000     -10.465757      -284.7877
   1   2.0000     -10.465601      -284.7835
   2   2.0000     -10.460180      -284.6360
   3   2.0000     -10.460147      -284.6351
   4   2.0000     -10.455663      -284.5131
   5   2.0000     -10.450095      -284.3615
   6   2.0000     -10.450023      -284.3596
   7   2.0000     -10.449403      -284.3427
   8   2.0000     -10.449255      -284.3387
   9   2.0000     -10.448719      -284.3241
  10   2.0000     -10.447826      -284.2998
  11   2.0000     -10.447293      -284.2853
  12   2.0000     -10.447224      -284.2834
  13   2.0000     -10.446625      -284.2671
  14   2.0000     -10.446562      -284.2654
  15   2.0000      -0.975774       -26.5522
  16   2.0000      -0.959853       -26.1189
  17   2.0000      -0.897108       -24.4116
  18   2.0000      -0.886615       -24.1260
  19   2.0000      -0.854015       -23.2389
  20   2.0000      -0.842011       -22.9123
  21   2.0000      -0.810287       -22.0490
  22   2.0000      -0.763064       -20.7640
  23   2.0000      -0.721637       -19.6367
  24   2.0000      -0.690063       -18.7776
  25   2.0000      -0.676088       -18.3973
  26   2.0000      -0.649673       -17.6785
  27   2.0000      -0.631540       -17.1851
  28   2.0000      -0.575502       -15.6602
  29   2.0000      -0.556235       -15.1359
  30   2.0000      -0.546747       -14.8777
  31   2.0000      -0.530667       -14.4402
  32   2.0000      -0.527028       -14.3412
  33   2.0000      -0.504053       -13.7160
  34   2.0000      -0.497916       -13.5490
  35   2.0000      -0.485864       -13.2210
  36   2.0000      -0.475523       -12.9396
  37   2.0000      -0.473582       -12.8868
  38   2.0000      -0.449285       -12.2257
  39   2.0000      -0.436066       -11.8660
  40   2.0000      -0.428617       -11.6633
  41   2.0000      -0.421078       -11.4581
  42   2.0000      -0.410586       -11.1726
  43   2.0000      -0.397918       -10.8279
  44   2.0000      -0.392129       -10.6704
  45   2.0000      -0.381474       -10.3804
  46   2.0000      -0.361404        -9.8343
  47   2.0000      -0.307460        -8.3664
  48   2.0000      -0.297859        -8.1051
  49   2.0000      -0.278829        -7.5873
  50   2.0000      -0.239840        -6.5264
  51   0.0000      -0.037036        -1.0078
  52   0.0000       0.008465         0.2303
  53   0.0000       0.021658         0.5893
  54   0.0000       0.040523         1.1027
  55   0.0000       0.110327         3.0022

MULLIKEN ATOMIC CHARGES
-----------------------
   0 C :   -0.285825
   1 C :    0.139885
   2 C :    0.102284
   3 C :    0.102013
   4 C :    0.141166
   5 C :   -0.286495
   6 C :   -0.283598
   7 C :   -0.222643
   8 C :   -0.218062
   9 C :   -0.258249
  10 C :   -0.258260
  11 C :   -0.217780
  12 C :   -0.222779
  13 C :   -0.283078
  14 C :   -0.615517
  15 H :    0.211372
  16 H :    0.211418
  17 H :    0.215630
  18 H :    0.219253
  19 H :    0.219828
  20 H :    0.213005
  21 H :    0.213040
  22 H :    0.219668
  23 H :    0.219274
  24 H :    0.215937
  25 H :    0.256972
  26 H :    0.251539
Sum of atomic charges:    0.0000000

LOEWDIN ATOMIC CHARGES
----------------------
   0 C :   -0.131308
   1 C :   -0.049862
   2 C :   -0.026577
   3 C :   -0.026837
   4 C :   -0.049841
   5 C :   -0.131651
   6 C :   -0.116681
   7 C :   -0.140423
   8 C :   -0.128168
   9 C :   -0.130633
  10 C :   -0.130656
  11 C :   -0.128080
  12 C :   -0.140431
  13 C :   -0.116596
  14 C :   -0.221429
  15 H :    0.138390
  16 H :    0.138427
  17 H :    0.135530
  18 H :    0.137099
  19 H :    0.137335
  20 H :    0.134088
  21 H :    0.134244
  22 H :    0.137183
  23 H :    0.137179
  24 H :    0.135678
  25 H :    0.153180
  26 H :    0.150840

  Mayer bond orders larger than 0.100000
B(  0-C ,  1-C ) :   1.0492 B(  0-C ,  5-C ) :   1.7816 B(  0-C , 15-H ) :   0.9171
B(  1-C ,  2-C ) :   1.3497 B(  1-C , 13-C ) :   1.3190 B(  2-C , 10-C ) :   1.3689
B(  2-C , 14-C ) :   0.9668 B(  3-C ,  4-C ) :   1.3503 B(  3-C ,  9-C ) :   1.3687
B(  3-C , 14-C ) :   0.9662 B(  4-C ,  5-C ) :   1.0490 B(  4-C ,  6-C ) :   1.3186
B(  5-C , 16-H ) :   0.9171 B(  6-C ,  7-C ) :   1.4453 B(  6-C , 17-H ) :   0.9207
B(  7-C ,  8-C ) :   1.4039 B(  7-C , 18-H ) :   0.9194 B(  8-C ,  9-C ) :   1.4256
B(  8-C , 19-H ) :   0.9191 B(  9-C , 20-H ) :   0.9234 B( 10-C , 11-C ) :   1.4259
B( 10-C , 21-H ) :   0.9235 B( 11-C , 12-C ) :   1.4044 B( 11-C , 22-H ) :   0.9191
B( 12-C , 13-C ) :   1.4444 B( 12-C , 23-H ) :   0.9194 B( 13-C , 24-H ) :   0.9206
B( 14-C , 25-H ) :   0.8941 B( 14-C , 26-H ) :   0.9007

Dispersion correction           -0.019496182
FINAL SINGLE POINT ENERGY      -577.525115339623

DIPOLE MOMENT
-------------
                                X             Y             Z
Electronic contribution:     -0.77243      -0.95889       0.06523
Nuclear contribution   :      0.92435       1.13648      -0.06886
                        -----------------------------------------
Total Dipole Moment    :      0.15192       0.17758      -0.00363
                        -----------------------------------------
Magnitude (a.u.)       :      0.23373
Magnitude (Debye)      :      0.59409

Rotational constants in cm-1:     0.056412     0.012635     0.010343
Rotational constants in MHz :  1691.188115   378.785802   310.066557

                             ****ORCA TERMINATED NORMALLY****
TOTAL RUN TIME: 0 days 0 hours 3 minutes 20 seconds 62 msec
