                         Program Version 5.0.3 -  RELEASE  -
|  1> ! PBEh-3c def2/J TightSCF DefGrid3
|  2>
|  3> %maxcore 60000
|  4>
|  5> %pal
|  6> nprocs 4
|  7> end
|  8>
|  9> *xyzfile 0 2 P10.xyz
| 10>
| 11>                          ****END OF INPUT****

CARTESIAN COORDINATES (ANGSTROEM)
---------------------------------
  C     -1.042754   -0.458121    0.000000
  C      0.185733    0.363169    0.000000
  O      1.326171   -0.494514    0.000000
  H     -0.971832   -1.536197    0.000000
  H     -2.013341    0.018512    0.000000
  H      0.197677    1.028885   -0.881589
  H      0.197677    1.028885    0.881589
  H      2.120668    0.049381    0.000000

 Total Charge           Charge          ....    0
 Multiplicity           Mult            ....    2
 Number of Electrons    NEL             ....   25
 Basis Dimension        Dim             ....   55

ORBITAL ENERGIES
----------------
                 SPIN UP ORBITALS
  NO   OCC          E(Eh)            E(eV)
   0   1.0000     -19.484684      -530.2052
   1   1.0000     -10.488906      -285.4176
   2   1.0000     -10.441777      -284.1352
   3   1.0000      -1.120497       -30.4903
   4   1.0000      -0.837914       -22.8008
   5   1.0000      -0.678972       -18.4758
   6   1.0000      -0.584844       -15.9144
   7   1.0000      -0.514795       -14.0083
   8   1.0000      -0.473063       -12.8727
   9   1.0000      -0.458676       -12.4812
  10   1.0000      -0.395290       -10.7564
  11   1.0000      -0.335898        -9.1403
  12   1.0000      -0.252591        -6.8733
  13   0.0000       0.126245         3.4353
  14   0.0000       0.181374         4.9354
  15   0.0000       0.193042         5.2529
  16   0.0000       0.224372         6.1055
  17   0.0000       0.231052         6.2872

                 SPIN DOWN ORBITALS
  NO   OCC          E(Eh)            E(eV)
   0   1.0000     -19.484784      -530.2079
   1   1.0000     -10.490316      -285.4560
   2   1.0000     -10.425751      -283.6991
   3   1.0000      -1.120322       -30.4855
   4   1.0000      -0.813087       -22.1252
   5   1.0000      -0.651203       -17.7201
   6   1.0000      -0.581890       -15.8340
   7   1.0000      -0.501088       -13.6353
   8   1.0000      -0.466101       -12.6832
   9   1.0000      -0.449112       -12.2210
  10   1.0000      -0.390728       -10.6322
  11   1.0000      -0.327943        -8.9238
  12   0.0000      -0.003674        -0.1000
  13   0.0000       0.126921         3.4537
  14   0.0000       0.191952         5.2233
  15   0.0000       0.201199         5.4749
  16   0.0000       0.230744         6.2789

MULLIKEN ATOMIC CHARGES AND SPIN POPULATIONS
--------------------------------------------
   0 C :   -0.458752    1.126220
   1 C :   -0.159578   -0.096427
   2 O :   -0.634957   -0.001571
   3 H :    0.242166   -0.062414
   4 H :    0.213812   -0.061120
   5 H :    0.190498    0.048109
   6 H :    0.190498    0.048109
   7 H :    0.416313   -0.000905
Sum of atomic charges         :   -0.0000000

LOEWDIN ATOMIC CHARGES AND SPIN POPULATIONS
-------------------------------------------
   0 C :   -0.268415    0.999337
   1 C :   -0.104505   -0.024603
   2 O :   -0.417699   -0.001675
   3 H :    0.143968   -0.030340
   4 H :    0.128991   -0.029557
   5 H :    0.104375    0.043805
   6 H :    0.104375    0.043805
   7 H :    0.308912   -0.000771

  Mayer bond orders larger than 0.100000
B(  0-C ,  1-C ) :   1.0008 B(  0-C ,  3-H ) :   0.9174 B(  0-C ,  4-H ) :   0.9206
B(  1-C ,  2-O ) :   1.0038 B(  1-C ,  5-H ) :   0.8947 B(  1-C ,  6-H ) :   0.8947
B(  2-O ,  7-H ) :   0.7928

Dispersion correction           -0.002079829
FINAL SINGLE POINT ENERGY      -154.027242683880

DIPOLE MOMENT
-------------
                                X             Y             Z
Electronic contribution:      1.61255      -0.74451      -0.00000
Nuclear contribution   :     -1.51190       1.42897       0.00000
                        -----------------------------------------
Total Dipole Moment    :      0.10065       0.68446      -0.00000
                        -----------------------------------------
Magnitude (a.u.)       :      0.69182
Magnitude (Debye)      :      1.75847

Rotational constants in cm-1:     1.347274     0.334442     0.281976
Rotational constants in MHz : 40390.267826 10026.330259  8453.427909

                             ****ORCA TERMINATED NORMALLY****
TOTAL RUN TIME: 0 days 0 hours 1 minutes 45 seconds 318 msec
