                         Program Version 5.0.3 -  RELEASE  -
|  1> ! PBEh-3c def2/J TightSCF DefGrid3
|  2>
|  3> %maxcore 60000
|  4>
|  5> %pal
|  6> nprocs 4
|  7> end
|  8>
|  9> *xyzfile 0 1 R45.xyz
| 10>
| 11>                          ****END OF INPUT****

CARTESIAN COORDINATES (ANGSTROEM)
---------------------------------
  C     -0.589125   -0.224319   -0.117789
  C     -1.935405   -0.932745    0.130819
  C     -1.293173    1.063599   -0.031570
  C     -2.489385    0.487182    0.188350
  H     -2.292984   -1.550582   -0.695048
  C      0.654108   -0.644456   -0.320691
  H      0.841608   -1.714512   -0.319425
  C      1.841206    0.245696   -0.529834
  H      1.517903    1.287478   -0.568796
  H      2.293540    0.024954   -1.502266
  H     -0.968902    2.091239   -0.114213
  H     -3.484941    0.873301    0.348739
  H     -1.993049   -1.504789    1.058774
  C      2.905412    0.073660    0.560127
  H      3.250470   -0.960617    0.609356
  H      3.772617    0.706830    0.367473
  H      2.501917    0.334991    1.538935

 Total Charge           Charge          ....    0
 Multiplicity           Mult            ....    1
 Number of Electrons    NEL             ....   52
 Basis Dimension        Dim             ....  125

ORBITAL ENERGIES
----------------

  NO   OCC          E(Eh)            E(eV)
   0   2.0000     -10.451654      -284.4040
   1   2.0000     -10.448435      -284.3164
   2   2.0000     -10.445800      -284.2447
   3   2.0000     -10.442422      -284.1528
   4   2.0000     -10.436217      -283.9839
   5   2.0000     -10.433863      -283.9199
   6   2.0000     -10.423327      -283.6331
   7   2.0000      -0.966809       -26.3082
   8   2.0000      -0.877317       -23.8730
   9   2.0000      -0.792718       -21.5709
  10   2.0000      -0.739479       -20.1222
  11   2.0000      -0.691849       -18.8262
  12   2.0000      -0.641783       -17.4638
  13   2.0000      -0.577706       -15.7202
  14   2.0000      -0.554734       -15.0951
  15   2.0000      -0.506248       -13.7757
  16   2.0000      -0.492572       -13.4036
  17   2.0000      -0.477535       -12.9944
  18   2.0000      -0.442710       -12.0468
  19   2.0000      -0.430650       -11.7186
  20   2.0000      -0.415175       -11.2975
  21   2.0000      -0.396110       -10.7787
  22   2.0000      -0.380981       -10.3670
  23   2.0000      -0.362748        -9.8709
  24   2.0000      -0.336043        -9.1442
  25   2.0000      -0.258968        -7.0469
  26   0.0000       0.010717         0.2916
  27   0.0000       0.102787         2.7970
  28   0.0000       0.149930         4.0798
  29   0.0000       0.166019         4.5176
  30   0.0000       0.183992         5.0067

MULLIKEN ATOMIC CHARGES
-----------------------
   0 C :    0.138831
   1 C :   -0.472157
   2 C :   -0.199415
   3 C :   -0.232335
   4 H :    0.232643
   5 C :   -0.298424
   6 H :    0.208207
   7 C :   -0.469283
   8 H :    0.218753
   9 H :    0.220575
  10 H :    0.198051
  11 H :    0.209913
  12 H :    0.232097
  13 C :   -0.638094
  14 H :    0.210837
  15 H :    0.217376
  16 H :    0.222424
Sum of atomic charges:    0.0000000

LOEWDIN ATOMIC CHARGES
----------------------
   0 C :   -0.050277
   1 C :   -0.217654
   2 C :   -0.136548
   3 C :   -0.119901
   4 H :    0.132913
   5 C :   -0.165468
   6 H :    0.132404
   7 C :   -0.237192
   8 H :    0.126540
   9 H :    0.128879
  10 H :    0.127355
  11 H :    0.127115
  12 H :    0.132748
  13 C :   -0.359612
  14 H :    0.124212
  15 H :    0.125659
  16 H :    0.128828

  Mayer bond orders larger than 0.100000
B(  0-C ,  1-C ) :   0.9543 B(  0-C ,  2-C ) :   1.0666 B(  0-C ,  5-C ) :   1.7749
B(  1-C ,  3-C ) :   1.0100 B(  1-C ,  4-H ) :   0.9047 B(  1-C , 12-H ) :   0.9049
B(  2-C ,  3-C ) :   1.7873 B(  2-C , 10-H ) :   0.9312 B(  3-C ,  5-C ) :   0.1181
B(  3-C , 11-H ) :   0.9269 B(  5-C ,  6-H ) :   0.9215 B(  5-C ,  7-C ) :   1.0024
B(  7-C ,  8-H ) :   0.9235 B(  7-C ,  9-H ) :   0.9128 B(  7-C , 13-C ) :   0.9776
B( 13-C , 14-H ) :   0.9302 B( 13-C , 15-H ) :   0.9291 B( 13-C , 16-H ) :   0.9273

Dispersion correction           -0.007693742
FINAL SINGLE POINT ENERGY      -272.082266435113

DIPOLE MOMENT
-------------
                                X             Y             Z
Electronic contribution:     -5.67999       0.44379      -0.72989
Nuclear contribution   :      5.64049      -0.42702       0.75045
                        -----------------------------------------
Total Dipole Moment    :     -0.03950       0.01677       0.02056
                        -----------------------------------------
Magnitude (a.u.)       :      0.04759
Magnitude (Debye)      :      0.12095

Rotational constants in cm-1:     0.256017     0.045648     0.041925
Rotational constants in MHz :  7675.209404  1368.487306  1256.864912

                             ****ORCA TERMINATED NORMALLY****
TOTAL RUN TIME: 0 days 0 hours 1 minutes 23 seconds 435 msec
