                         Program Version 5.0.3 -  RELEASE  -
|  1> ! PBEh-3c def2/J TightSCF DefGrid3
|  2>
|  3> %maxcore 60000
|  4>
|  5> %pal
|  6> nprocs 4
|  7> end
|  8>
|  9> *xyzfile 0 1 MeI_NCH.xyz
| 10>
| 11>                          ****END OF INPUT****

CARTESIAN COORDINATES (ANGSTROEM)
---------------------------------
  C      0.000000    0.000000    2.588940
  I      0.000000    0.000000    0.459309
  H      0.000000    1.028802    2.931299
  H      0.890969   -0.514401    2.931299
  H     -0.890969   -0.514401    2.931299
  N      0.000000    0.000000   -2.829059
  C      0.000000    0.000000   -3.971451
  H      0.000000    0.000000   -5.038776

 Total Charge           Charge          ....    0
 Multiplicity           Mult            ....    1
 Number of Electrons    NEL             ....   48
 Basis Dimension        Dim             ....   79

ORBITAL ENERGIES
----------------

  NO   OCC          E(Eh)            E(eV)
   0   2.0000     -14.674076      -399.3019
   1   2.0000     -10.508011      -285.9375
   2   2.0000     -10.468986      -284.8756
   3   2.0000      -7.069481      -192.3704
   4   2.0000      -5.052799      -137.4937
   5   2.0000      -5.036336      -137.0457
   6   2.0000      -5.036336      -137.0457
   7   2.0000      -2.006629       -54.6031
   8   2.0000      -2.001453       -54.4623
   9   2.0000      -2.001452       -54.4623
  10   2.0000      -1.987161       -54.0734
  11   2.0000      -1.987159       -54.0733
  12   2.0000      -1.035213       -28.1696
  13   2.0000      -0.824040       -22.4233
  14   2.0000      -0.697013       -18.9667
  15   2.0000      -0.682157       -18.5624
  16   2.0000      -0.484460       -13.1828
  17   2.0000      -0.484460       -13.1828
  18   2.0000      -0.462171       -12.5763
  19   2.0000      -0.424243       -11.5442
  20   2.0000      -0.424243       -11.5442
  21   2.0000      -0.381907       -10.3922
  22   2.0000      -0.280835        -7.6419
  23   2.0000      -0.280835        -7.6419
  24   0.0000       0.025985         0.7071
  25   0.0000       0.050421         1.3720
  26   0.0000       0.050421         1.3720
  27   0.0000       0.128744         3.5033
  28   0.0000       0.169078         4.6009

MULLIKEN ATOMIC CHARGES
-----------------------
   0 C :   -0.826552
   1 I :    0.018350
   2 H :    0.262668
   3 H :    0.262667
   4 H :    0.262667
   5 N :   -0.167282
   6 C :   -0.118663
   7 H :    0.306145
Sum of atomic charges:   -0.0000000

LOEWDIN ATOMIC CHARGES
----------------------
   0 C :   -0.501290
   1 I :    0.050872
   2 H :    0.143404
   3 H :    0.143404
   4 H :    0.143404
   5 N :   -0.045733
   6 C :   -0.096139
   7 H :    0.162080

  Mayer bond orders larger than 0.100000
B(  0-C ,  1-I ) :   1.0121 B(  0-C ,  2-H ) :   0.8991 B(  0-C ,  3-H ) :   0.8991
B(  0-C ,  4-H ) :   0.8991 B(  5-N ,  6-C ) :   3.1248 B(  6-C ,  7-H ) :   0.8578

Dispersion correction           -0.002334667
FINAL SINGLE POINT ENERGY      -430.771669770655

DIPOLE MOMENT
-------------
                                X             Y             Z
Electronic contribution:     -0.00000       0.00000      26.61202
Nuclear contribution   :      0.00000      -0.00000     -27.43802
                        -----------------------------------------
Total Dipole Moment    :     -0.00000       0.00000      -0.82599
                        -----------------------------------------
Magnitude (a.u.)       :      0.82599
Magnitude (Debye)      :      2.09951

Rotational constants in cm-1:     5.266856     0.036504     0.036504
Rotational constants in MHz : 157896.365060  1094.369367  1094.369364

                             ****ORCA TERMINATED NORMALLY****
TOTAL RUN TIME: 0 days 0 hours 1 minutes 45 seconds 910 msec
