                         Program Version 5.0.3 -  RELEASE  -
|  1> ! PBEh-3c def2/J TightSCF DefGrid3
|  2>
|  3> %maxcore 60000
|  4>
|  5> %pal
|  6> nprocs 4
|  7> end
|  8>
|  9> *xyzfile 0 1 i10e.xyz
| 10>
| 11>                          ****END OF INPUT****

CARTESIAN COORDINATES (ANGSTROEM)
---------------------------------
  C     -1.679365    1.083083    0.484431
  C     -2.980625    1.599835    0.435878
  C     -4.035892    0.812719   -0.023917
  C     -3.792431   -0.496379   -0.447219
  C     -2.491707   -1.006494   -0.391370
  C     -1.411120   -0.248337    0.080023
  O     -0.708411    1.939746    0.947658
  C      0.010018   -0.837288    0.237610
  C      1.012904    0.101257   -0.488334
  C      2.248118    0.464852   -0.065242
  C      0.498682    0.572617   -1.846442
  C      3.095081    1.458471   -0.840809
  C      2.969731   -0.073279    1.161485
  C      0.153352   -2.232130   -0.414158
  H      0.171199    1.574371    0.728573
  C      0.197031   -1.022714    1.769718
  H     -3.139966    2.626585    0.757447
  H     -5.042189    1.225970   -0.057032
  H     -4.603939   -1.118630   -0.818213
  H     -2.318853   -2.026877   -0.721874
  H      1.305924    0.650891   -2.581701
  H     -0.247083   -0.128273   -2.235432
  H      0.000728    1.550362   -1.779150
  H      2.525249    2.064118   -1.550382
  H      3.895185    0.939129   -1.393274
  H      3.594126    2.140013   -0.137103
  H      2.927661   -1.166048    1.214425
  H      4.027621    0.214022    1.122631
  H      2.559181    0.318843    2.100533
  H      1.184235   -2.580106   -0.278475
  H     -0.519791   -2.957565    0.060504
  H     -0.066750   -2.203936   -1.487574
  H      1.079512   -1.620715    2.009803
  H      0.263704   -0.063253    2.292513
  H     -0.681121   -1.554858    2.154467

 Total Charge           Charge          ....    0
 Multiplicity           Mult            ....    1
 Number of Electrons    NEL             ....  112
 Basis Dimension        Dim             ....  265

ORBITAL ENERGIES
----------------

  NO   OCC          E(Eh)            E(eV)
   0   2.0000     -19.508800      -530.8614
   1   2.0000     -10.503569      -285.8166
   2   2.0000     -10.476776      -285.0876
   3   2.0000     -10.463932      -284.7381
   4   2.0000     -10.459141      -284.6077
   5   2.0000     -10.452913      -284.4382
   6   2.0000     -10.444546      -284.2105
   7   2.0000     -10.443591      -284.1846
   8   2.0000     -10.439792      -284.0812
   9   2.0000     -10.438621      -284.0493
  10   2.0000     -10.436796      -283.9997
  11   2.0000     -10.436188      -283.9831
  12   2.0000     -10.435751      -283.9712
  13   2.0000     -10.431324      -283.8508
  14   2.0000     -10.430223      -283.8208
  15   2.0000      -1.151342       -31.3296
  16   2.0000      -0.952930       -25.9305
  17   2.0000      -0.927780       -25.2462
  18   2.0000      -0.885064       -24.0838
  19   2.0000      -0.823316       -22.4036
  20   2.0000      -0.820777       -22.3345
  21   2.0000      -0.811997       -22.0956
  22   2.0000      -0.776611       -21.1327
  23   2.0000      -0.767648       -20.8888
  24   2.0000      -0.725407       -19.7393
  25   2.0000      -0.700672       -19.0663
  26   2.0000      -0.669337       -18.2136
  27   2.0000      -0.645213       -17.5571
  28   2.0000      -0.600106       -16.3297
  29   2.0000      -0.561203       -15.2711
  30   2.0000      -0.553322       -15.0567
  31   2.0000      -0.532275       -14.4839
  32   2.0000      -0.521005       -14.1773
  33   2.0000      -0.507606       -13.8127
  34   2.0000      -0.501374       -13.6431
  35   2.0000      -0.493241       -13.4218
  36   2.0000      -0.486769       -13.2457
  37   2.0000      -0.475015       -12.9258
  38   2.0000      -0.467603       -12.7241
  39   2.0000      -0.457701       -12.4547
  40   2.0000      -0.451307       -12.2807
  41   2.0000      -0.444256       -12.0888
  42   2.0000      -0.440185       -11.9781
  43   2.0000      -0.431447       -11.7403
  44   2.0000      -0.428404       -11.6575
  45   2.0000      -0.428039       -11.6475
  46   2.0000      -0.418489       -11.3877
  47   2.0000      -0.413682       -11.2569
  48   2.0000      -0.406611       -11.0645
  49   2.0000      -0.388407       -10.5691
  50   2.0000      -0.374516       -10.1911
  51   2.0000      -0.373023       -10.1505
  52   2.0000      -0.360795        -9.8177
  53   2.0000      -0.284349        -7.7375
  54   2.0000      -0.273882        -7.4527
  55   2.0000      -0.253373        -6.8946
  56   0.0000       0.019246         0.5237
  57   0.0000       0.034459         0.9377
  58   0.0000       0.040971         1.1149
  59   0.0000       0.107849         2.9347
  60   0.0000       0.139629         3.7995

MULLIKEN ATOMIC CHARGES
-----------------------
   0 C :    0.317315
   1 C :   -0.294181
   2 C :   -0.226897
   3 C :   -0.224629
   4 C :   -0.298131
   5 C :    0.050643
   6 O :   -0.625269
   7 C :   -0.187830
   8 C :    0.013677
   9 C :    0.042873
  10 C :   -0.704270
  11 C :   -0.709516
  12 C :   -0.717125
  13 C :   -0.632633
  14 H :    0.458081
  15 C :   -0.634073
  16 H :    0.233547
  17 H :    0.216105
  18 H :    0.212282
  19 H :    0.217822
  20 H :    0.233157
  21 H :    0.245571
  22 H :    0.243979
  23 H :    0.237530
  24 H :    0.230520
  25 H :    0.230483
  26 H :    0.229557
  27 H :    0.238305
  28 H :    0.236089
  29 H :    0.233103
  30 H :    0.221467
  31 H :    0.226272
  32 H :    0.215759
  33 H :    0.226551
  34 H :    0.243864
Sum of atomic charges:   -0.0000000

LOEWDIN ATOMIC CHARGES
----------------------
   0 C :    0.073725
   1 C :   -0.161673
   2 C :   -0.129093
   3 C :   -0.162436
   4 C :   -0.134657
   5 C :   -0.077810
   6 O :   -0.330550
   7 C :   -0.072086
   8 C :   -0.088378
   9 C :   -0.077411
  10 C :   -0.351482
  11 C :   -0.353865
  12 C :   -0.353845
  13 C :   -0.334801
  14 H :    0.325472
  15 C :   -0.338478
  16 H :    0.145376
  17 H :    0.135537
  18 H :    0.133641
  19 H :    0.135777
  20 H :    0.133091
  21 H :    0.140407
  22 H :    0.142079
  23 H :    0.136016
  24 H :    0.138065
  25 H :    0.135040
  26 H :    0.134470
  27 H :    0.133539
  28 H :    0.140821
  29 H :    0.133176
  30 H :    0.128160
  31 H :    0.129552
  32 H :    0.124121
  33 H :    0.129881
  34 H :    0.138622

  Mayer bond orders larger than 0.100000
B(  0-C ,  1-C ) :   1.3793 B(  0-C ,  5-C ) :   1.2814 B(  0-C ,  6-O ) :   1.1166
B(  1-C ,  2-C ) :   1.4348 B(  1-C , 16-H ) :   0.9096 B(  2-C ,  3-C ) :   1.4255
B(  2-C , 17-H ) :   0.9205 B(  3-C ,  4-C ) :   1.4231 B(  3-C , 18-H ) :   0.9210
B(  4-C ,  5-C ) :   1.4105 B(  4-C , 19-H ) :   0.9157 B(  5-C ,  7-C ) :   0.9419
B(  6-O , 14-H ) :   0.7038 B(  7-C ,  8-C ) :   0.9575 B(  7-C , 13-C ) :   0.9981
B(  7-C , 15-C ) :   0.9799 B(  8-C ,  9-C ) :   1.7938 B(  8-C , 10-C ) :   0.9686
B(  9-C , 11-C ) :   0.9909 B(  9-C , 12-C ) :   0.9621 B( 10-C , 20-H ) :   0.9221
B( 10-C , 21-H ) :   0.9103 B( 10-C , 22-H ) :   0.9038 B( 11-C , 23-H ) :   0.9188
B( 11-C , 24-H ) :   0.9116 B( 11-C , 25-H ) :   0.9169 B( 12-C , 26-H ) :   0.9182
B( 12-C , 27-H ) :   0.9238 B( 12-C , 28-H ) :   0.9121 B( 13-C , 29-H ) :   0.9190
B( 13-C , 30-H ) :   0.9165 B( 13-C , 31-H ) :   0.9188 B( 15-C , 32-H ) :   0.9176
B( 15-C , 33-H ) :   0.9161 B( 15-C , 34-H ) :   0.9158

Dispersion correction           -0.025303291
FINAL SINGLE POINT ENERGY      -619.389533066079

DIPOLE MOMENT
-------------
                                X             Y             Z
Electronic contribution:    -12.97339       4.33442       1.25191
Nuclear contribution   :     13.72896      -4.80727      -1.50167
                        -----------------------------------------
Total Dipole Moment    :      0.75558      -0.47285      -0.24976
                        -----------------------------------------
Magnitude (a.u.)       :      0.92567
Magnitude (Debye)      :      2.35286

Rotational constants in cm-1:     0.035814     0.014118     0.012869
Rotational constants in MHz :  1073.683325   423.238960   385.799679

                             ****ORCA TERMINATED NORMALLY****
TOTAL RUN TIME: 0 days 0 hours 4 minutes 47 seconds 206 msec
