                         Program Version 5.0.3 -  RELEASE  -
|  1> ! PBEh-3c def2/J TightSCF DefGrid3
|  2>
|  3> %maxcore 60000
|  4>
|  5> %pal
|  6> nprocs 4
|  7> end
|  8>
|  9> *xyzfile 0 1 58A.xyz
| 10>
| 11>                          ****END OF INPUT****

CARTESIAN COORDINATES (ANGSTROEM)
---------------------------------
  N      1.362766    0.857472    0.000000
  C      1.381223   -0.485156    0.000000
  H      2.361250   -0.948574    0.000000
  C      0.227418   -1.265745    0.000000
  H      0.307411   -2.343490    0.000000
  C     -1.012422   -0.635783    0.000000
  H     -1.927717   -1.211478    0.000000
  C     -1.045006    0.754795    0.000000
  H     -1.981590    1.294105    0.000000
  C      0.160830    1.450334    0.000000
  H      0.165835    2.533518    0.000000

 Total Charge           Charge          ....    0
 Multiplicity           Mult            ....    1
 Number of Electrons    NEL             ....   42
 Basis Dimension        Dim             ....  100

ORBITAL ENERGIES
----------------

  NO   OCC          E(Eh)            E(eV)
   0   2.0000     -14.640477      -398.3876
   1   2.0000     -10.483771      -285.2779
   2   2.0000     -10.483128      -285.2604
   3   2.0000     -10.471025      -284.9311
   4   2.0000     -10.459341      -284.6131
   5   2.0000     -10.459290      -284.6117
   6   2.0000      -1.045678       -28.4544
   7   2.0000      -0.901851       -24.5406
   8   2.0000      -0.854885       -23.2626
   9   2.0000      -0.710032       -19.3210
  10   2.0000      -0.709363       -19.3027
  11   2.0000      -0.601183       -16.3590
  12   2.0000      -0.547085       -14.8869
  13   2.0000      -0.537522       -14.6267
  14   2.0000      -0.492375       -13.3982
  15   2.0000      -0.468139       -12.7387
  16   2.0000      -0.455927       -12.4064
  17   2.0000      -0.422128       -11.4867
  18   2.0000      -0.333358        -9.0711
  19   2.0000      -0.313619        -8.5340
  20   2.0000      -0.306243        -8.3333
  21   0.0000      -0.004784        -0.1302
  22   0.0000       0.008761         0.2384
  23   0.0000       0.144821         3.9408
  24   0.0000       0.181953         4.9512
  25   0.0000       0.195816         5.3284

MULLIKEN ATOMIC CHARGES
-----------------------
   0 N :   -0.361393
   1 C :   -0.037694
   2 H :    0.234079
   3 C :   -0.298707
   4 H :    0.231669
   5 C :   -0.132980
   6 H :    0.235027
   7 C :   -0.297750
   8 H :    0.232179
   9 C :   -0.037744
  10 H :    0.233316
Sum of atomic charges:    0.0000000

LOEWDIN ATOMIC CHARGES
----------------------
   0 N :   -0.140347
   1 C :   -0.056227
   2 H :    0.130839
   3 C :   -0.164335
   4 H :    0.141733
   5 C :   -0.103954
   6 H :    0.141130
   7 C :   -0.164282
   8 H :    0.142016
   9 C :   -0.056842
  10 H :    0.130270

  Mayer bond orders larger than 0.100000
B(  0-N ,  1-C ) :   1.4941 B(  0-N ,  9-C ) :   1.4991 B(  1-C ,  2-H ) :   0.9169
B(  1-C ,  3-C ) :   1.3833 B(  3-C ,  4-H ) :   0.9130 B(  3-C ,  5-C ) :   1.4133
B(  5-C ,  6-H ) :   0.9183 B(  5-C ,  7-C ) :   1.4141 B(  7-C ,  8-H ) :   0.9128
B(  7-C ,  9-C ) :   1.3816 B(  9-C , 10-H ) :   0.9172

Dispersion correction           -0.005321862
FINAL SINGLE POINT ENERGY      -247.729257687198

DIPOLE MOMENT
-------------
                                X             Y             Z
Electronic contribution:      1.12600       0.70569      -0.00000
Nuclear contribution   :     -1.86449      -1.17258       0.00000
                        -----------------------------------------
Total Dipole Moment    :     -0.73849      -0.46688      -0.00000
                        -----------------------------------------
Magnitude (a.u.)       :      0.87370
Magnitude (Debye)      :      2.22076

Rotational constants in cm-1:     0.201823     0.194021     0.098922
Rotational constants in MHz :  6050.501638  5816.593776  2965.621236

                             ****ORCA TERMINATED NORMALLY****
TOTAL RUN TIME: 0 days 0 hours 1 minutes 14 seconds 83 msec
