                         Program Version 5.0.3 -  RELEASE  -
|  1> ! PBEh-3c def2/J TightSCF DefGrid3
|  2>
|  3> %maxcore 60000
|  4>
|  5> %pal
|  6> nprocs 4
|  7> end
|  8>
|  9> *xyzfile 0 1 82.xyz
| 10>
| 11>                          ****END OF INPUT****

CARTESIAN COORDINATES (ANGSTROEM)
---------------------------------
  C     -0.434517    0.752605    0.000000
  C     -0.434517   -0.752605    0.000000
  C      0.869033    0.000000    0.000000
  H     -0.727610    1.260257    0.908131
  H     -0.727610    1.260257   -0.908131
  H     -0.727610   -1.260257    0.908131
  H     -0.727610   -1.260257   -0.908131
  H      1.455220    0.000000   -0.908131
  H      1.455220    0.000000    0.908131

 Total Charge           Charge          ....    0
 Multiplicity           Mult            ....    1
 Number of Electrons    NEL             ....   24
 Basis Dimension        Dim             ....   57

ORBITAL ENERGIES
----------------

  NO   OCC          E(Eh)            E(eV)
   0   2.0000     -10.435436      -283.9626
   1   2.0000     -10.435072      -283.9528
   2   2.0000     -10.435072      -283.9527
   3   2.0000      -0.941776       -25.6270
   4   2.0000      -0.669832       -18.2270
   5   2.0000      -0.669831       -18.2270
   6   2.0000      -0.555531       -15.1168
   7   2.0000      -0.522841       -14.2272
   8   2.0000      -0.414403       -11.2765
   9   2.0000      -0.414403       -11.2765
  10   2.0000      -0.340881        -9.2758
  11   2.0000      -0.340880        -9.2758
  12   0.0000       0.149998         4.0817
  13   0.0000       0.162897         4.4326
  14   0.0000       0.180323         4.9068
  15   0.0000       0.194468         5.2917
  16   0.0000       0.194473         5.2919

MULLIKEN ATOMIC CHARGES
-----------------------
   0 C :   -0.460136
   1 C :   -0.460136
   2 C :   -0.460174
   3 H :    0.230072
   4 H :    0.230072
   5 H :    0.230072
   6 H :    0.230072
   7 H :    0.230080
   8 H :    0.230080
Sum of atomic charges:   -0.0000000

LOEWDIN ATOMIC CHARGES
----------------------
   0 C :   -0.265254
   1 C :   -0.265254
   2 C :   -0.265265
   3 H :    0.132628
   4 H :    0.132628
   5 H :    0.132628
   6 H :    0.132628
   7 H :    0.132630
   8 H :    0.132630

  Mayer bond orders larger than 0.100000
B(  0-C ,  1-C ) :   0.9463 B(  0-C ,  2-C ) :   0.9463 B(  0-C ,  3-H ) :   0.9272
B(  0-C ,  4-H ) :   0.9272 B(  1-C ,  2-C ) :   0.9463 B(  1-C ,  5-H ) :   0.9272
B(  1-C ,  6-H ) :   0.9272 B(  2-C ,  7-H ) :   0.9272 B(  2-C ,  8-H ) :   0.9272

Dispersion correction           -0.002599266
FINAL SINGLE POINT ENERGY      -117.633831978767

DIPOLE MOMENT
-------------
                                X             Y             Z
Electronic contribution:     -0.00000       0.00000      -0.00000
Nuclear contribution   :      0.00000       0.00000       0.00000
                        -----------------------------------------
Total Dipole Moment    :     -0.00000       0.00000      -0.00000
                        -----------------------------------------
Magnitude (a.u.)       :      0.00000
Magnitude (Debye)      :      0.00001

Rotational constants in cm-1:     0.674360     0.674360     0.421226
Rotational constants in MHz : 20216.795568 20216.795534 12628.042058

                             ****ORCA TERMINATED NORMALLY****
TOTAL RUN TIME: 0 days 0 hours 0 minutes 31 seconds 572 msec
