                         Program Version 5.0.3 -  RELEASE  -
|  1> ! PBEh-3c def2/J TightSCF DefGrid3
|  2>
|  3> %maxcore 60000
|  4>
|  5> %pal
|  6> nprocs 4
|  7> end
|  8>
|  9> *xyzfile 0 1 E15.xyz
| 10>
| 11>                          ****END OF INPUT****

CARTESIAN COORDINATES (ANGSTROEM)
---------------------------------
  C     -1.105259    0.098680    0.000000
  C      0.359860    0.498052    0.000000
  N      1.255510   -0.533052    0.000000
  O      0.713252    1.662810    0.000000
  H      0.972762   -1.496891    0.000000
  H      2.238855   -0.313796    0.000000
  H     -1.583238    0.532011    0.879715
  H     -1.268506   -0.979825    0.000000
  H     -1.583238    0.532011   -0.879715

 Total Charge           Charge          ....    0
 Multiplicity           Mult            ....    1
 Number of Electrons    NEL             ....   32
 Basis Dimension        Dim             ....   70

ORBITAL ENERGIES
----------------

  NO   OCC          E(Eh)            E(eV)
   0   2.0000     -19.449331      -529.2432
   1   2.0000     -14.654944      -398.7813
   2   2.0000     -10.548843      -287.0486
   3   2.0000     -10.442463      -284.1539
   4   2.0000      -1.137339       -30.9486
   5   2.0000      -0.999428       -27.1958
   6   2.0000      -0.824759       -22.4428
   7   2.0000      -0.660296       -17.9676
   8   2.0000      -0.604743       -16.4559
   9   2.0000      -0.533916       -14.5286
  10   2.0000      -0.504583       -13.7304
  11   2.0000      -0.460907       -12.5419
  12   2.0000      -0.456277       -12.4159
  13   2.0000      -0.420262       -11.4359
  14   2.0000      -0.316461        -8.6113
  15   2.0000      -0.304349        -8.2818
  16   0.0000       0.069639         1.8950
  17   0.0000       0.120913         3.2902
  18   0.0000       0.169689         4.6175
  19   0.0000       0.186068         5.0632
  20   0.0000       0.218552         5.9471

MULLIKEN ATOMIC CHARGES
-----------------------
   0 C :   -0.747422
   1 C :    0.501350
   2 N :   -0.799398
   3 O :   -0.411777
   4 H :    0.360202
   5 H :    0.371706
   6 H :    0.259059
   7 H :    0.207220
   8 H :    0.259059
Sum of atomic charges:   -0.0000000

LOEWDIN ATOMIC CHARGES
----------------------
   0 C :   -0.395659
   1 C :    0.101649
   2 N :   -0.381073
   3 O :   -0.272637
   4 H :    0.250438
   5 H :    0.258510
   6 H :    0.157116
   7 H :    0.124541
   8 H :    0.157116

  Mayer bond orders larger than 0.100000
B(  0-C ,  1-C ) :   0.9210 B(  0-C ,  6-H ) :   0.9103 B(  0-C ,  7-H ) :   0.9221
B(  0-C ,  8-H ) :   0.9103 B(  1-C ,  2-N ) :   1.1353 B(  1-C ,  3-O ) :   2.0405
B(  2-N ,  4-H ) :   0.8312 B(  2-N ,  5-H ) :   0.8254

Dispersion correction           -0.002878619
FINAL SINGLE POINT ENERGY      -208.767734469020

DIPOLE MOMENT
-------------
                                X             Y             Z
Electronic contribution:      2.51216       2.03973      -0.00000
Nuclear contribution   :     -2.63062      -3.55728       0.00000
                        -----------------------------------------
Total Dipole Moment    :     -0.11845      -1.51755      -0.00000
                        -----------------------------------------
Magnitude (a.u.)       :      1.52216
Magnitude (Debye)      :      3.86903

Rotational constants in cm-1:     0.362110     0.308196     0.171787
Rotational constants in MHz : 10855.785315  9239.495530  5150.033008

                             ****ORCA TERMINATED NORMALLY****
TOTAL RUN TIME: 0 days 0 hours 0 minutes 55 seconds 778 msec
