                         Program Version 5.0.3 -  RELEASE  -
|  1> ! PBEh-3c def2/J TightSCF DefGrid3
|  2>
|  3> %maxcore 60000
|  4>
|  5> %pal
|  6> nprocs 4
|  7> end
|  8>
|  9> *xyzfile 0 1 NCH_FBr.xyz
| 10>
| 11>                          ****END OF INPUT****

CARTESIAN COORDINATES (ANGSTROEM)
---------------------------------
  N      0.000000    0.000000   -2.038393
  C      0.000000    0.000000   -3.178266
  H      0.000000    0.000000   -4.246203
  Br     0.000000    0.000000    0.490152
  F      0.000000    0.000000    2.269913

 Total Charge           Charge          ....    0
 Multiplicity           Mult            ....    1
 Number of Electrons    NEL             ....   58
 Basis Dimension        Dim             ....   79

ORBITAL ENERGIES
----------------

  NO   OCC          E(Eh)            E(eV)
   0   2.0000    -484.565389    -13185.6946
   1   2.0000     -63.224423     -1720.4240
   2   2.0000     -56.930285     -1549.1518
   3   2.0000     -56.925551     -1549.0230
   4   2.0000     -56.925551     -1549.0230
   5   2.0000     -25.073701      -682.2901
   6   2.0000     -14.710349      -400.2890
   7   2.0000     -10.542633      -286.8796
   8   2.0000      -9.051909      -246.3150
   9   2.0000      -6.832814      -185.9303
  10   2.0000      -6.809597      -185.2986
  11   2.0000      -6.809597      -185.2986
  12   2.0000      -2.845722       -77.4360
  13   2.0000      -2.838595       -77.2421
  14   2.0000      -2.838595       -77.2421
  15   2.0000      -2.818591       -76.6977
  16   2.0000      -2.818590       -76.6977
  17   2.0000      -1.272563       -34.6282
  18   2.0000      -1.070308       -29.1246
  19   2.0000      -0.836738       -22.7688
  20   2.0000      -0.710174       -19.3248
  21   2.0000      -0.551166       -14.9980
  22   2.0000      -0.483143       -13.1470
  23   2.0000      -0.483143       -13.1470
  24   2.0000      -0.463595       -12.6151
  25   2.0000      -0.458582       -12.4786
  26   2.0000      -0.458582       -12.4786
  27   2.0000      -0.324547        -8.8314
  28   2.0000      -0.324547        -8.8314
  29   0.0000      -0.028783        -0.7832
  30   0.0000       0.019129         0.5205
  31   0.0000       0.019129         0.5205
  32   0.0000       0.107188         2.9167
  33   0.0000       0.323464         8.8019

MULLIKEN ATOMIC CHARGES
-----------------------
   0 N :   -0.190949
   1 C :   -0.067793
   2 H :    0.325126
   3 Br:    0.371180
   4 F :   -0.437564
Sum of atomic charges:   -0.0000000

LOEWDIN ATOMIC CHARGES
----------------------
   0 N :   -0.046407
   1 C :   -0.047907
   2 H :    0.173979
   3 Br:    0.301933
   4 F :   -0.381598

  Mayer bond orders larger than 0.100000
B(  0-N ,  1-C ) :   3.0679 B(  0-N ,  3-Br) :   0.1225 B(  1-C ,  2-H ) :   0.8506
B(  3-Br,  4-F ) :   0.8361

Dispersion correction           -0.001281796
FINAL SINGLE POINT ENERGY     -2765.814326260098

DIPOLE MOMENT
-------------
                                X             Y             Z
Electronic contribution:     -0.00000      -0.00000       7.36068
Nuclear contribution   :      0.00000       0.00000      -9.81887
                        -----------------------------------------
Total Dipole Moment    :     -0.00000      -0.00000      -2.45819
                        -----------------------------------------
Magnitude (a.u.)       :      2.45819
Magnitude (Debye)      :      6.24822

Rotational constants in cm-1:     0.000000     0.053725     0.053725
Rotational constants in MHz :     0.000000  1610.646116  1610.646116

                             ****ORCA TERMINATED NORMALLY****
TOTAL RUN TIME: 0 days 0 hours 1 minutes 36 seconds 403 msec
