                         Program Version 5.0.3 -  RELEASE  -
|  1> ! PBEh-3c def2/J TightSCF DefGrid3
|  2>
|  3> %maxcore 60000
|  4>
|  5> %pal
|  6> nprocs 4
|  7> end
|  8>
|  9> *xyzfile 0 1 TRP_xah.xyz
| 10>
| 11>                          ****END OF INPUT****

CARTESIAN COORDINATES (ANGSTROEM)
---------------------------------
  N     -2.022938   -0.946964    0.008444
  C     -1.627049   -0.054414    1.067982
  C     -1.192408    1.339884    0.612338
  O     -1.018692    2.227557    1.443481
  C     -0.473526   -0.695434    1.866321
  H     -1.330070   -1.602377   -0.330995
  H     -2.456651    0.107182    1.756182
  H     -0.163385    0.024246    2.623704
  H     -0.866899   -1.575985    2.376606
  C     -3.222895   -0.969800   -0.653345
  O     -3.418961   -1.743265   -1.580744
  N     -1.011066    1.491226   -0.715693
  H     -1.099237    0.666229   -1.285332
  C     -0.473172    2.709780   -1.280410
  H     -0.974072    2.938883   -2.217701
  H     -0.649856    3.510209   -0.568271
  H      0.599949    2.622715   -1.452046
  C     -4.264942    0.003376   -0.160276
  H     -3.880174    1.022107   -0.148619
  H     -4.572093   -0.249314    0.854167
  H     -5.124026   -0.057929   -0.818886
  C      0.672654   -1.084929    0.994726
  C      0.911805   -2.348580    0.487120
  C      1.700414   -0.239624    0.464875
  H      0.381377   -3.270019    0.669404
  C      2.530298   -1.049365   -0.357049
  C      2.017972    1.121489    0.622706
  H      2.410214   -3.120178   -0.794567
  C      3.124225    1.624482   -0.043232
  H      1.407572    1.762691    1.245451
  N      2.021039   -2.323748   -0.321459
  C      3.642553   -0.540486   -1.031638
  C      3.926007    0.806265   -0.864540
  H      4.262723   -1.170123   -1.656294
  H      4.781166    1.234798   -1.369130
  H      3.383702    2.668387    0.071960

 Total Charge           Charge          ....    0
 Multiplicity           Mult            ....    1
 Number of Electrons    NEL             ....  138
 Basis Dimension        Dim             ....  319

ORBITAL ENERGIES
----------------

  NO   OCC          E(Eh)            E(eV)
   0   2.0000     -19.457486      -529.4651
   1   2.0000     -19.456655      -529.4425
   2   2.0000     -14.696798      -399.9202
   3   2.0000     -14.664985      -399.0545
   4   2.0000     -14.662786      -398.9947
   5   2.0000     -10.551534      -287.1218
   6   2.0000     -10.545417      -286.9554
   7   2.0000     -10.498901      -285.6896
   8   2.0000     -10.491798      -285.4963
   9   2.0000     -10.488955      -285.4190
  10   2.0000     -10.463921      -284.7378
  11   2.0000     -10.460673      -284.6494
  12   2.0000     -10.455418      -284.5064
  13   2.0000     -10.454719      -284.4874
  14   2.0000     -10.451536      -284.4008
  15   2.0000     -10.449904      -284.3563
  16   2.0000     -10.447219      -284.2833
  17   2.0000     -10.442793      -284.1629
  18   2.0000     -10.440737      -284.1069
  19   2.0000      -1.146053       -31.1857
  20   2.0000      -1.139599       -31.0101
  21   2.0000      -1.100907       -29.9572
  22   2.0000      -1.040259       -28.3069
  23   2.0000      -1.016473       -27.6596
  24   2.0000      -0.945446       -25.7269
  25   2.0000      -0.911620       -24.8064
  26   2.0000      -0.859226       -23.3807
  27   2.0000      -0.832676       -22.6583
  28   2.0000      -0.828135       -22.5347
  29   2.0000      -0.818068       -22.2608
  30   2.0000      -0.795245       -21.6397
  31   2.0000      -0.740259       -20.1435
  32   2.0000      -0.709093       -19.2954
  33   2.0000      -0.679542       -18.4913
  34   2.0000      -0.665353       -18.1052
  35   2.0000      -0.656521       -17.8648
  36   2.0000      -0.638474       -17.3738
  37   2.0000      -0.616342       -16.7715
  38   2.0000      -0.606151       -16.4942
  39   2.0000      -0.564523       -15.3615
  40   2.0000      -0.559638       -15.2285
  41   2.0000      -0.548007       -14.9120
  42   2.0000      -0.541923       -14.7465
  43   2.0000      -0.524394       -14.2695
  44   2.0000      -0.517089       -14.0707
  45   2.0000      -0.504619       -13.7314
  46   2.0000      -0.500138       -13.6095
  47   2.0000      -0.499717       -13.5980
  48   2.0000      -0.492901       -13.4125
  49   2.0000      -0.488174       -13.2839
  50   2.0000      -0.474138       -12.9019
  51   2.0000      -0.464975       -12.6526
  52   2.0000      -0.463148       -12.6029
  53   2.0000      -0.459601       -12.5064
  54   2.0000      -0.447794       -12.1851
  55   2.0000      -0.444654       -12.0996
  56   2.0000      -0.436007       -11.8644
  57   2.0000      -0.420225       -11.4349
  58   2.0000      -0.412924       -11.2362
  59   2.0000      -0.406312       -11.0563
  60   2.0000      -0.395736       -10.7685
  61   2.0000      -0.392479       -10.6799
  62   2.0000      -0.337497        -9.1838
  63   2.0000      -0.329691        -8.9714
  64   2.0000      -0.308443        -8.3932
  65   2.0000      -0.305129        -8.3030
  66   2.0000      -0.289146        -7.8681
  67   2.0000      -0.270207        -7.3527
  68   2.0000      -0.250624        -6.8198
  69   0.0000      -0.002706        -0.0736
  70   0.0000       0.038549         1.0490
  71   0.0000       0.052840         1.4379
  72   0.0000       0.059171         1.6101
  73   0.0000       0.076871         2.0918

MULLIKEN ATOMIC CHARGES
-----------------------
   0 N :   -0.646788
   1 C :   -0.160703
   2 C :    0.524545
   3 O :   -0.443575
   4 C :   -0.539394
   5 H :    0.379225
   6 H :    0.269005
   7 H :    0.275957
   8 H :    0.245878
   9 C :    0.482305
  10 O :   -0.413624
  11 N :   -0.615082
  12 H :    0.377733
  13 C :   -0.503297
  14 H :    0.223559
  15 H :    0.257569
  16 H :    0.241861
  17 C :   -0.785699
  18 H :    0.250575
  19 H :    0.242748
  20 H :    0.272606
  21 C :   -0.009554
  22 C :   -0.077354
  23 C :    0.037316
  24 H :    0.254917
  25 C :    0.372833
  26 C :   -0.340343
  27 H :    0.363671
  28 C :   -0.242797
  29 H :    0.259453
  30 N :   -0.693014
  31 C :   -0.275685
  32 C :   -0.238117
  33 H :    0.214701
  34 H :    0.218402
  35 H :    0.220166
Sum of atomic charges:   -0.0000000

LOEWDIN ATOMIC CHARGES
----------------------
   0 N :   -0.245581
   1 C :   -0.092251
   2 C :    0.090924
   3 O :   -0.294413
   4 C :   -0.211470
   5 H :    0.262432
   6 H :    0.148832
   7 H :    0.157601
   8 H :    0.141370
   9 C :    0.103432
  10 O :   -0.271676
  11 N :   -0.227592
  12 H :    0.262096
  13 C :   -0.258296
  14 H :    0.125443
  15 H :    0.149602
  16 H :    0.130955
  17 C :   -0.397738
  18 H :    0.149847
  19 H :    0.148200
  20 H :    0.156656
  21 C :   -0.113045
  22 C :   -0.097651
  23 C :   -0.064777
  24 H :    0.139721
  25 C :    0.019549
  26 C :   -0.127480
  27 H :    0.264803
  28 C :   -0.159432
  29 H :    0.154199
  30 N :   -0.151059
  31 C :   -0.163157
  32 C :   -0.138713
  33 H :    0.136650
  34 H :    0.136085
  35 H :    0.135936

  Mayer bond orders larger than 0.100000
B(  0-N ,  1-C ) :   0.9209 B(  0-N ,  5-H ) :   0.7825 B(  0-N ,  9-C ) :   1.1400
B(  1-C ,  2-C ) :   0.8966 B(  1-C ,  4-C ) :   0.9609 B(  1-C ,  6-H ) :   0.8845
B(  2-C ,  3-O ) :   1.9346 B(  2-C , 11-N ) :   1.1659 B(  4-C ,  7-H ) :   0.8955
B(  4-C ,  8-H ) :   0.9170 B(  4-C , 21-C ) :   0.9512 B(  9-C , 10-O ) :   2.0456
B(  9-C , 17-C ) :   0.9347 B( 11-N , 12-H ) :   0.7979 B( 11-N , 13-C ) :   0.9486
B( 13-C , 14-H ) :   0.9235 B( 13-C , 15-H ) :   0.9040 B( 13-C , 16-H ) :   0.9049
B( 17-C , 18-H ) :   0.8979 B( 17-C , 19-H ) :   0.9063 B( 17-C , 20-H ) :   0.9158
B( 21-C , 22-C ) :   1.5420 B( 21-C , 23-C ) :   1.2358 B( 22-C , 24-H ) :   0.9042
B( 22-C , 30-N ) :   1.1405 B( 23-C , 25-C ) :   1.2392 B( 23-C , 26-C ) :   1.3020
B( 25-C , 30-N ) :   1.0230 B( 25-C , 31-C ) :   1.2877 B( 26-C , 28-C ) :   1.4986
B( 26-C , 29-H ) :   0.8880 B( 27-H , 30-N ) :   0.8298 B( 28-C , 32-C ) :   1.3558
B( 28-C , 35-H ) :   0.9195 B( 31-C , 32-C ) :   1.4999 B( 31-C , 33-H ) :   0.9195
B( 32-C , 34-H ) :   0.9195

Dispersion correction           -0.027029565
FINAL SINGLE POINT ENERGY      -856.624006366566

DIPOLE MOMENT
-------------
                                X             Y             Z
Electronic contribution:      4.47759      -6.16266       0.84712
Nuclear contribution   :     -3.61166       5.42369      -1.17674
                        -----------------------------------------
Total Dipole Moment    :      0.86593      -0.73897      -0.32962
                        -----------------------------------------
Magnitude (a.u.)       :      1.18514
Magnitude (Debye)      :      3.01239

Rotational constants in cm-1:     0.020080     0.009636     0.008030
Rotational constants in MHz :   601.996367   288.888078   240.744628

                             ****ORCA TERMINATED NORMALLY****
TOTAL RUN TIME: 0 days 0 hours 6 minutes 15 seconds 457 msec
