                         Program Version 5.0.3 -  RELEASE  -
|  1> ! PBEh-3c def2/J TightSCF DefGrid3
|  2>
|  3> %maxcore 60000
|  4>
|  5> %pal
|  6> nprocs 4
|  7> end
|  8>
|  9> *xyzfile 1 1 H3OpH2O3.xyz
| 10>
| 11>                          ****END OF INPUT****

CARTESIAN COORDINATES (ANGSTROEM)
---------------------------------
  O      0.448855    2.450661   -0.112838
  H      0.536564    3.108236    0.585837
  H      0.958737    2.767861   -0.865725
  O     -2.346762   -0.836610   -0.112838
  H     -2.876406   -0.553640   -0.865725
  H     -2.960094   -1.089440    0.585837
  O      1.897907   -1.614050   -0.112838
  H      2.423529   -2.018797    0.585837
  H      1.917669   -2.214221   -0.865725
  O      0.000000    0.000000    0.498037
  H      0.720674   -0.658645    0.226714
  H      0.210067    0.953444    0.226714
  H     -0.930740   -0.294799    0.226714

 Total Charge           Charge          ....    1
 Multiplicity           Mult            ....    1
 Number of Electrons    NEL             ....   40
 Basis Dimension        Dim             ....   78

ORBITAL ENERGIES
----------------

  NO   OCC          E(Eh)            E(eV)
   0   2.0000     -19.718445      -536.5662
   1   2.0000     -19.677552      -535.4534
   2   2.0000     -19.677551      -535.4534
   3   2.0000     -19.677526      -535.4527
   4   2.0000      -1.359522       -36.9945
   5   2.0000      -1.300871       -35.3985
   6   2.0000      -1.300871       -35.3985
   7   2.0000      -1.295452       -35.2510
   8   2.0000      -0.829773       -22.5793
   9   2.0000      -0.829773       -22.5793
  10   2.0000      -0.780324       -21.2337
  11   2.0000      -0.779863       -21.2212
  12   2.0000      -0.779862       -21.2211
  13   2.0000      -0.673921       -18.3383
  14   2.0000      -0.631920       -17.1954
  15   2.0000      -0.631919       -17.1954
  16   2.0000      -0.612890       -16.6776
  17   2.0000      -0.561028       -15.2663
  18   2.0000      -0.558736       -15.2040
  19   2.0000      -0.558733       -15.2039
  20   0.0000      -0.054219        -1.4754
  21   0.0000      -0.031347        -0.8530
  22   0.0000      -0.031347        -0.8530
  23   0.0000       0.049417         1.3447
  24   0.0000       0.049490         1.3467

MULLIKEN ATOMIC CHARGES
-----------------------
   0 O :   -0.835489
   1 H :    0.473335
   2 H :    0.471112
   3 O :   -0.835493
   4 H :    0.471117
   5 H :    0.473332
   6 O :   -0.835489
   7 H :    0.473329
   8 H :    0.471120
   9 O :   -0.876161
  10 H :    0.516423
  11 H :    0.516425
  12 H :    0.516438
Sum of atomic charges:    1.0000000

LOEWDIN ATOMIC CHARGES
----------------------
   0 O :   -0.547625
   1 H :    0.341239
   2 H :    0.339200
   3 O :   -0.547626
   4 H :    0.339202
   5 H :    0.341238
   6 O :   -0.547625
   7 H :    0.341236
   8 H :    0.339203
   9 O :   -0.440409
  10 H :    0.347321
  11 H :    0.347322
  12 H :    0.347324

  Mayer bond orders larger than 0.100000
B(  0-O ,  1-H ) :   0.7586 B(  0-O ,  2-H ) :   0.7606 B(  0-O , 11-H ) :   0.2005
B(  3-O ,  4-H ) :   0.7606 B(  3-O ,  5-H ) :   0.7586 B(  3-O , 12-H ) :   0.2005
B(  6-O ,  7-H ) :   0.7586 B(  6-O ,  8-H ) :   0.7606 B(  6-O , 10-H ) :   0.2005
B(  9-O , 10-H ) :   0.5565 B(  9-O , 11-H ) :   0.5565 B(  9-O , 12-H ) :   0.5565

Dispersion correction           -0.002842820
FINAL SINGLE POINT ENERGY      -305.454792987080

DIPOLE MOMENT
-------------
                                X             Y             Z
Electronic contribution:     -0.00001       0.00001       0.10951
Nuclear contribution   :      0.00000       0.00000      -0.42558
                        -----------------------------------------
Total Dipole Moment    :     -0.00001       0.00001      -0.31608
                        -----------------------------------------
Magnitude (a.u.)       :      0.31608
Magnitude (Debye)      :      0.80341

Rotational constants in cm-1:     0.090447     0.090447     0.047241
Rotational constants in MHz :  2711.522799  2711.522701  1416.254034

                             ****ORCA TERMINATED NORMALLY****
TOTAL RUN TIME: 0 days 0 hours 1 minutes 12 seconds 765 msec
