                         Program Version 5.0.3 -  RELEASE  -
|  1> ! PBEh-3c def2/J TightSCF DefGrid3
|  2>
|  3> %maxcore 60000
|  4>
|  5> %pal
|  6> nprocs 4
|  7> end
|  8>
|  9> *xyzfile 0 2 hfhts.xyz
| 10>
| 11>                          ****END OF INPUT****

CARTESIAN COORDINATES (ANGSTROEM)
---------------------------------
  H      0.000000    0.000000    1.137218
  F      0.000000    0.000000    0.000000
  H      0.000000    0.000000   -1.137218

 Total Charge           Charge          ....    0
 Multiplicity           Mult            ....    2
 Number of Electrons    NEL             ....   11
 Basis Dimension        Dim             ....   19

ORBITAL ENERGIES
----------------
                 SPIN UP ORBITALS
  NO   OCC          E(Eh)            E(eV)
   0   1.0000     -25.114978      -683.4133
   1   1.0000      -1.317675       -35.8557
   2   1.0000      -0.674375       -18.3507
   3   1.0000      -0.499858       -13.6018
   4   1.0000      -0.499858       -13.6018
   5   1.0000      -0.205342        -5.5877
   6   0.0000       0.063038         1.7153
   7   0.0000       0.636234        17.3128
   8   0.0000       0.886416        24.1206
   9   0.0000       1.139434        31.0056
  10   0.0000       1.139434        31.0056

                 SPIN DOWN ORBITALS
  NO   OCC          E(Eh)            E(eV)
   0   1.0000     -25.111227      -683.3112
   1   1.0000      -1.306421       -35.5495
   2   1.0000      -0.649823       -17.6826
   3   1.0000      -0.493963       -13.4414
   4   1.0000      -0.493963       -13.4414
   5   0.0000       0.014802         0.4028
   6   0.0000       0.140592         3.8257
   7   0.0000       0.695639        18.9293
   8   0.0000       0.959780        26.1170
   9   0.0000       1.149373        31.2760

MULLIKEN ATOMIC CHARGES AND SPIN POPULATIONS
--------------------------------------------
   0 H :    0.213743    0.546966
   1 F :   -0.427487   -0.093932
   2 H :    0.213743    0.546966
Sum of atomic charges         :    0.0000000

LOEWDIN ATOMIC CHARGES AND SPIN POPULATIONS
-------------------------------------------
   0 H :    0.186382    0.460024
   1 F :   -0.372763    0.079953
   2 H :    0.186382    0.460024

  Mayer bond orders larger than 0.100000
B(  0-H ,  1-F ) :   0.3959 B(  0-H ,  2-H ) :   0.2687 B(  1-F ,  2-H ) :   0.3959

Dispersion correction           -0.000184280
FINAL SINGLE POINT ENERGY      -100.674070938141

DIPOLE MOMENT
-------------
                                X             Y             Z
Electronic contribution:      0.00000      -0.00000       0.00000
Nuclear contribution   :      0.00000       0.00000       0.00000
                        -----------------------------------------
Total Dipole Moment    :      0.00000      -0.00000       0.00000
                        -----------------------------------------
Magnitude (a.u.)       :      0.00000
Magnitude (Debye)      :      0.00000

Rotational constants in cm-1:     0.000000     6.465754     6.465754
Rotational constants in MHz :     0.000000 193838.417275 193838.417275

                             ****ORCA TERMINATED NORMALLY****
TOTAL RUN TIME: 0 days 0 hours 0 minutes 24 seconds 99 msec
