                         Program Version 5.0.3 -  RELEASE  -
|  1> ! PBEh-3c def2/J TightSCF DefGrid3
|  2>
|  3> %maxcore 60000
|  4>
|  5> %pal
|  6> nprocs 4
|  7> end
|  8>
|  9> *xyzfile 0 1 P40.xyz
| 10>
| 11>                          ****END OF INPUT****

CARTESIAN COORDINATES (ANGSTROEM)
---------------------------------
  C     -1.551800   -1.267145   -0.334969
  C     -1.800393   -0.047879   -0.005687
  C     -0.458620   -0.577136    0.451314
  C     -2.649040    1.154706   -0.001181
  C      0.792263   -0.135726   -0.200853
  C      1.972086   -0.026355    0.404025
  H     -0.338473   -0.832605    1.504994
  H     -3.575226    0.994898   -0.553220
  H     -2.115235    1.997017   -0.446314
  H     -2.896757    1.442200    1.023287
  H      0.710842    0.112045   -1.257272
  H      2.038937   -0.280022    1.459068
  H     -1.834460   -2.177955   -0.830942
  C      3.240054    0.420846   -0.252349
  H      4.014183   -0.349028   -0.189146
  H      3.081393    0.653631   -1.305691
  H      3.647492    1.311944    0.233435

 Total Charge           Charge          ....    0
 Multiplicity           Mult            ....    1
 Number of Electrons    NEL             ....   52
 Basis Dimension        Dim             ....  125

ORBITAL ENERGIES
----------------

  NO   OCC          E(Eh)            E(eV)
   0   2.0000     -10.462634      -284.7028
   1   2.0000     -10.453021      -284.4412
   2   2.0000     -10.448739      -284.3247
   3   2.0000     -10.447208      -284.2830
   4   2.0000     -10.429318      -283.7962
   5   2.0000     -10.426172      -283.7106
   6   2.0000     -10.423888      -283.6484
   7   2.0000      -0.974593       -26.5200
   8   2.0000      -0.871682       -23.7197
   9   2.0000      -0.821247       -22.3473
  10   2.0000      -0.771279       -20.9876
  11   2.0000      -0.660016       -17.9600
  12   2.0000      -0.613036       -16.6816
  13   2.0000      -0.598593       -16.2885
  14   2.0000      -0.532777       -14.4976
  15   2.0000      -0.516030       -14.0419
  16   2.0000      -0.492110       -13.3910
  17   2.0000      -0.476211       -12.9584
  18   2.0000      -0.459638       -12.5074
  19   2.0000      -0.458699       -12.4818
  20   2.0000      -0.427279       -11.6269
  21   2.0000      -0.391419       -10.6511
  22   2.0000      -0.379656       -10.3310
  23   2.0000      -0.364876        -9.9288
  24   2.0000      -0.289332        -7.8731
  25   2.0000      -0.259633        -7.0650
  26   0.0000       0.036505         0.9933
  27   0.0000       0.075736         2.0609
  28   0.0000       0.163255         4.4424
  29   0.0000       0.175104         4.7648
  30   0.0000       0.181258         4.9323

MULLIKEN ATOMIC CHARGES
-----------------------
   0 C :   -0.264941
   1 C :    0.167836
   2 C :   -0.288507
   3 C :   -0.761298
   4 C :   -0.139688
   5 C :   -0.212704
   6 H :    0.202516
   7 H :    0.235230
   8 H :    0.241448
   9 H :    0.239414
  10 H :    0.195370
  11 H :    0.199930
  12 H :    0.208892
  13 C :   -0.683577
  14 H :    0.220975
  15 H :    0.219243
  16 H :    0.219862
Sum of atomic charges:   -0.0000000

LOEWDIN ATOMIC CHARGES
----------------------
   0 C :   -0.139823
   1 C :   -0.021795
   2 C :   -0.139130
   3 C :   -0.356513
   4 C :   -0.153731
   5 C :   -0.167655
   6 H :    0.112473
   7 H :    0.142831
   8 H :    0.149030
   9 H :    0.148069
  10 H :    0.124521
  11 H :    0.123654
  12 H :    0.142759
  13 C :   -0.357251
  14 H :    0.131606
  15 H :    0.129869
  16 H :    0.131088

  Mayer bond orders larger than 0.100000
B(  0-C ,  1-C ) :   1.7886 B(  0-C ,  2-C ) :   0.9356 B(  0-C , 12-H ) :   0.9296
B(  1-C ,  2-C ) :   0.9090 B(  1-C ,  3-C ) :   0.9782 B(  2-C ,  4-C ) :   1.0086
B(  2-C ,  6-H ) :   0.9106 B(  3-C ,  7-H ) :   0.9210 B(  3-C ,  8-H ) :   0.9136
B(  3-C ,  9-H ) :   0.9137 B(  4-C ,  5-C ) :   1.8706 B(  4-C , 10-H ) :   0.9215
B(  5-C , 11-H ) :   0.9231 B(  5-C , 13-C ) :   0.9946 B( 13-C , 14-H ) :   0.9180
B( 13-C , 15-H ) :   0.9322 B( 13-C , 16-H ) :   0.9183

Dispersion correction           -0.007370761
FINAL SINGLE POINT ENERGY      -272.051796764782

DIPOLE MOMENT
-------------
                                X             Y             Z
Electronic contribution:     -3.16023      -2.78155       0.29507
Nuclear contribution   :      2.83436       2.97897      -0.37526
                        -----------------------------------------
Total Dipole Moment    :     -0.32587       0.19742      -0.08020
                        -----------------------------------------
Magnitude (a.u.)       :      0.38936
Magnitude (Debye)      :      0.98968

Rotational constants in cm-1:     0.228898     0.039634     0.036269
Rotational constants in MHz :  6862.182074  1188.210736  1087.311372

                             ****ORCA TERMINATED NORMALLY****
TOTAL RUN TIME: 0 days 0 hours 0 minutes 59 seconds 344 msec
