                         Program Version 5.0.3 -  RELEASE  -
|  1> ! PBEh-3c def2/J TightSCF DefGrid3
|  2>
|  3> %maxcore 60000
|  4>
|  5> %pal
|  6> nprocs 4
|  7> end
|  8>
|  9> *xyzfile 0 1 hf_6.xyz
| 10>
| 11>                          ****END OF INPUT****

CARTESIAN COORDINATES (ANGSTROEM)
---------------------------------
  H     -0.829028    1.947972    0.063739
  H     -2.101507    0.256027   -0.063739
  H      0.829028   -1.947972   -0.063739
  H      1.272479    1.691945   -0.063739
  H     -1.272479   -1.691945    0.063739
  H      2.101507   -0.256027    0.063739
  F      2.077176    1.199258   -0.275173
  F      0.000000    2.398517    0.275173
  F      0.000000   -2.398517   -0.275173
  F     -2.077176    1.199258   -0.275173
  F     -2.077176   -1.199258    0.275173
  F      2.077176   -1.199258    0.275173

 Total Charge           Charge          ....    0
 Multiplicity           Mult            ....    1
 Number of Electrons    NEL             ....   60
 Basis Dimension        Dim             ....  102

ORBITAL ENERGIES
----------------

  NO   OCC          E(Eh)            E(eV)
   0   2.0000     -25.108508      -683.2373
   1   2.0000     -25.108501      -683.2371
   2   2.0000     -25.108497      -683.2369
   3   2.0000     -25.108416      -683.2347
   4   2.0000     -25.108411      -683.2346
   5   2.0000     -25.108288      -683.2312
   6   2.0000      -1.358935       -36.9785
   7   2.0000      -1.348345       -36.6903
   8   2.0000      -1.348343       -36.6903
   9   2.0000      -1.325645       -36.0726
  10   2.0000      -1.325642       -36.0726
  11   2.0000      -1.313306       -35.7369
  12   2.0000      -0.707534       -19.2530
  13   2.0000      -0.679418       -18.4879
  14   2.0000      -0.679417       -18.4879
  15   2.0000      -0.623924       -16.9778
  16   2.0000      -0.623924       -16.9778
  17   2.0000      -0.599508       -16.3134
  18   2.0000      -0.519057       -14.1243
  19   2.0000      -0.513166       -13.9640
  20   2.0000      -0.513162       -13.9639
  21   2.0000      -0.513010       -13.9597
  22   2.0000      -0.513007       -13.9596
  23   2.0000      -0.510794       -13.8994
  24   2.0000      -0.503646       -13.7049
  25   2.0000      -0.503644       -13.7049
  26   2.0000      -0.501695       -13.6518
  27   2.0000      -0.501692       -13.6517
  28   2.0000      -0.498046       -13.5525
  29   2.0000      -0.497247       -13.5308
  30   0.0000       0.109872         2.9898
  31   0.0000       0.174802         4.7566
  32   0.0000       0.174804         4.7567
  33   0.0000       0.284364         7.7379
  34   0.0000       0.284366         7.7380

MULLIKEN ATOMIC CHARGES
-----------------------
   0 H :    0.542108
   1 H :    0.542112
   2 H :    0.542108
   3 H :    0.542118
   4 H :    0.542118
   5 H :    0.542112
   6 F :   -0.542119
   7 F :   -0.542107
   8 F :   -0.542107
   9 F :   -0.542113
  10 F :   -0.542119
  11 F :   -0.542113
Sum of atomic charges:    0.0000000

LOEWDIN ATOMIC CHARGES
----------------------
   0 H :    0.381420
   1 H :    0.381422
   2 H :    0.381420
   3 H :    0.381424
   4 H :    0.381424
   5 H :    0.381422
   6 F :   -0.381425
   7 F :   -0.381418
   8 F :   -0.381418
   9 F :   -0.381423
  10 F :   -0.381425
  11 F :   -0.381423

  Mayer bond orders larger than 0.100000
B(  0-H ,  7-F ) :   0.5587 B(  0-H ,  9-F ) :   0.1644 B(  1-H ,  9-F ) :   0.5587
B(  1-H , 10-F ) :   0.1644 B(  2-H ,  8-F ) :   0.5587 B(  2-H , 11-F ) :   0.1644
B(  3-H ,  6-F ) :   0.5587 B(  3-H ,  7-F ) :   0.1644 B(  4-H ,  8-F ) :   0.1644
B(  4-H , 10-F ) :   0.5587 B(  5-H ,  6-F ) :   0.1644 B(  5-H , 11-F ) :   0.5587

Dispersion correction           -0.002447412
FINAL SINGLE POINT ENERGY      -601.545678164431

DIPOLE MOMENT
-------------
                                X             Y             Z
Electronic contribution:     -0.00000      -0.00000      -0.00000
Nuclear contribution   :      0.00000       0.00000       0.00000
                        -----------------------------------------
Total Dipole Moment    :     -0.00000      -0.00000      -0.00000
                        -----------------------------------------
Magnitude (a.u.)       :      0.00000
Magnitude (Debye)      :      0.00000

Rotational constants in cm-1:     0.048153     0.048152     0.024687
Rotational constants in MHz :  1443.575975  1443.575588   740.086143

                             ****ORCA TERMINATED NORMALLY****
TOTAL RUN TIME: 0 days 0 hours 0 minutes 52 seconds 912 msec
