                         Program Version 5.0.3 -  RELEASE  -
|  1> ! PBEh-3c def2/J TightSCF DefGrid3
|  2>
|  3> %maxcore 60000
|  4>
|  5> %pal
|  6> nprocs 4
|  7> end
|  8>
|  9> *xyzfile 0 1 i8p.xyz
| 10>
| 11>                          ****END OF INPUT****

CARTESIAN COORDINATES (ANGSTROEM)
---------------------------------
  C     -3.452015    1.186003    1.174494
  C     -2.127024    1.309706    1.435377
  C     -1.017756    0.737540    0.645463
  C     -1.093114    0.998842   -0.922347
  C     -1.501420   -0.180173   -1.711114
  C     -2.754630   -0.691561   -1.693673
  C     -3.936106   -0.257545   -0.978169
  C     -4.201756    0.495170    0.140015
  C      0.366438    1.434448    0.692991
  C      0.393762    1.495075   -0.885936
  C      1.375264    0.764488    1.574433
  C      2.709832    0.907281    1.608320
  C      3.548687    1.685476    0.704637
  C      3.597378    1.671014   -0.640772
  C      2.887788    0.839707   -1.643218
  C      1.360301    0.735564   -1.758960
  N      2.172747   -0.393416   -1.400505
  C      2.207920   -1.333230   -0.400187
  O      3.217887   -1.777009    0.107349
  O      0.934831   -1.776039   -0.155887
  C      0.818378   -2.823205    0.843786
  C     -0.628722   -3.287602    0.850638
  H     -4.106614    1.711840    1.871713
  H     -1.845779    1.962838    2.264657
  H     -0.905728   -0.338105    0.801484
  H     -1.784299    1.829344   -1.100318
  H     -0.737994   -0.726732   -2.262005
  H     -2.930244   -1.557573   -2.334667
  H     -4.845827   -0.664383   -1.425819
  H     -5.274719    0.586752    0.320829
  H      0.241659    2.470002    1.046563
  H      0.464295    2.535528   -1.228702
  H      0.927866    0.137633    2.349045
  H      3.240988    0.423622    2.430070
  H      4.287563    2.320929    1.199409
  H      4.328137    2.332263   -1.107788
  H      3.416132    0.830795   -2.600231
  H      0.991048    0.686722   -2.788836
  H      1.121264   -2.411125    1.815994
  H      1.508044   -3.637764    0.592111
  H     -1.311068   -2.466958    1.101425
  H     -0.750222   -4.081427    1.599222
  H     -0.913176   -3.684736   -0.130895

 Total Charge           Charge          ....    0
 Multiplicity           Mult            ....    1
 Number of Electrons    NEL             ....  158
 Basis Dimension        Dim             ....  372

ORBITAL ENERGIES
----------------

  NO   OCC          E(Eh)            E(eV)
   0   2.0000     -19.532131      -531.4963
   1   2.0000     -19.462686      -529.6066
   2   2.0000     -14.666718      -399.1017
   3   2.0000     -10.594736      -288.2974
   4   2.0000     -10.503254      -285.8081
   5   2.0000     -10.500904      -285.7441
   6   2.0000     -10.495310      -285.5919
   7   2.0000     -10.467191      -284.8267
   8   2.0000     -10.461627      -284.6753
   9   2.0000     -10.459168      -284.6084
  10   2.0000     -10.456668      -284.5404
  11   2.0000     -10.456321      -284.5310
  12   2.0000     -10.454716      -284.4873
  13   2.0000     -10.454050      -284.4692
  14   2.0000     -10.453433      -284.4524
  15   2.0000     -10.452432      -284.4251
  16   2.0000     -10.451513      -284.4001
  17   2.0000     -10.449791      -284.3533
  18   2.0000     -10.449762      -284.3525
  19   2.0000     -10.448829      -284.3271
  20   2.0000     -10.445258      -284.2299
  21   2.0000     -10.434324      -283.9324
  22   2.0000      -1.205064       -32.7915
  23   2.0000      -1.111974       -30.2584
  24   2.0000      -1.086646       -29.5691
  25   2.0000      -0.968182       -26.3456
  26   2.0000      -0.911715       -24.8090
  27   2.0000      -0.898711       -24.4552
  28   2.0000      -0.879917       -23.9437
  29   2.0000      -0.872537       -23.7429
  30   2.0000      -0.846327       -23.0297
  31   2.0000      -0.829864       -22.5817
  32   2.0000      -0.802099       -21.8262
  33   2.0000      -0.793813       -21.6008
  34   2.0000      -0.745578       -20.2882
  35   2.0000      -0.740879       -20.1604
  36   2.0000      -0.705382       -19.1944
  37   2.0000      -0.693021       -18.8581
  38   2.0000      -0.669156       -18.2087
  39   2.0000      -0.641088       -17.4449
  40   2.0000      -0.627016       -17.0620
  41   2.0000      -0.621664       -16.9163
  42   2.0000      -0.596489       -16.2313
  43   2.0000      -0.583124       -15.8676
  44   2.0000      -0.575304       -15.6548
  45   2.0000      -0.560481       -15.2515
  46   2.0000      -0.548930       -14.9371
  47   2.0000      -0.548195       -14.9172
  48   2.0000      -0.532497       -14.4900
  49   2.0000      -0.523801       -14.2533
  50   2.0000      -0.515326       -14.0227
  51   2.0000      -0.510244       -13.8844
  52   2.0000      -0.505722       -13.7614
  53   2.0000      -0.494199       -13.4478
  54   2.0000      -0.481042       -13.0898
  55   2.0000      -0.473908       -12.8957
  56   2.0000      -0.462462       -12.5842
  57   2.0000      -0.459105       -12.4929
  58   2.0000      -0.452159       -12.3039
  59   2.0000      -0.446141       -12.1401
  60   2.0000      -0.433295       -11.7906
  61   2.0000      -0.426152       -11.5962
  62   2.0000      -0.419468       -11.4143
  63   2.0000      -0.414067       -11.2673
  64   2.0000      -0.407158       -11.0793
  65   2.0000      -0.406289       -11.0557
  66   2.0000      -0.398743       -10.8503
  67   2.0000      -0.390517       -10.6265
  68   2.0000      -0.378817       -10.3081
  69   2.0000      -0.372811       -10.1447
  70   2.0000      -0.366648        -9.9770
  71   2.0000      -0.359256        -9.7759
  72   2.0000      -0.348959        -9.4957
  73   2.0000      -0.337842        -9.1931
  74   2.0000      -0.321385        -8.7453
  75   2.0000      -0.301995        -8.2177
  76   2.0000      -0.296367        -8.0646
  77   2.0000      -0.267617        -7.2822
  78   2.0000      -0.245763        -6.6876
  79   0.0000      -0.033662        -0.9160
  80   0.0000      -0.005242        -0.1426
  81   0.0000       0.043938         1.1956
  82   0.0000       0.062549         1.7020
  83   0.0000       0.082423         2.2428

MULLIKEN ATOMIC CHARGES
-----------------------
   0 C :   -0.212476
   1 C :   -0.207147
   2 C :   -0.287471
   3 C :   -0.291790
   4 C :   -0.185956
   5 C :   -0.218818
   6 C :   -0.225824
   7 C :   -0.218937
   8 C :   -0.244012
   9 C :   -0.227758
  10 C :   -0.211777
  11 C :   -0.233639
  12 C :   -0.239950
  13 C :   -0.171149
  14 C :   -0.127827
  15 C :   -0.106838
  16 N :   -0.440436
  17 C :    0.735935
  18 O :   -0.427832
  19 O :   -0.487175
  20 C :   -0.161468
  21 C :   -0.670286
  22 H :    0.214161
  23 H :    0.219944
  24 H :    0.284225
  25 H :    0.260294
  26 H :    0.232320
  27 H :    0.215831
  28 H :    0.214680
  29 H :    0.212910
  30 H :    0.245347
  31 H :    0.243941
  32 H :    0.222953
  33 H :    0.232502
  34 H :    0.226097
  35 H :    0.222559
  36 H :    0.239422
  37 H :    0.241793
  38 H :    0.211485
  39 H :    0.234983
  40 H :    0.237241
  41 H :    0.219724
  42 H :    0.230223
Sum of atomic charges:    0.0000000

LOEWDIN ATOMIC CHARGES
----------------------
   0 C :   -0.164671
   1 C :   -0.134858
   2 C :   -0.121869
   3 C :   -0.118179
   4 C :   -0.122807
   5 C :   -0.167238
   6 C :   -0.146384
   7 C :   -0.155127
   8 C :   -0.122821
   9 C :   -0.125359
  10 C :   -0.141519
  11 C :   -0.146277
  12 C :   -0.135209
  13 C :   -0.152054
  14 C :   -0.046104
  15 C :   -0.042036
  16 N :   -0.135955
  17 C :    0.168157
  18 O :   -0.251874
  19 O :   -0.198670
  20 C :   -0.076147
  21 C :   -0.370179
  22 H :    0.136886
  23 H :    0.135724
  24 H :    0.149956
  25 H :    0.149846
  26 H :    0.141562
  27 H :    0.136664
  28 H :    0.138442
  29 H :    0.138147
  30 H :    0.145145
  31 H :    0.142357
  32 H :    0.136374
  33 H :    0.145782
  34 H :    0.142640
  35 H :    0.142242
  36 H :    0.137868
  37 H :    0.136316
  38 H :    0.117476
  39 H :    0.128452
  40 H :    0.134838
  41 H :    0.133797
  42 H :    0.136664

  Mayer bond orders larger than 0.100000
B(  0-C ,  1-C ) :   1.7833 B(  0-C ,  7-C ) :   1.1467 B(  0-C , 22-H ) :   0.9182
B(  1-C ,  2-C ) :   1.0237 B(  1-C , 23-H ) :   0.9143 B(  2-C ,  3-C ) :   0.8981
B(  2-C ,  8-C ) :   0.9590 B(  2-C , 24-H ) :   0.8638 B(  3-C ,  4-C ) :   1.0530
B(  3-C ,  9-C ) :   0.9500 B(  3-C , 25-H ) :   0.8941 B(  4-C ,  5-C ) :   1.7661
B(  4-C , 26-H ) :   0.9037 B(  5-C ,  6-C ) :   1.1470 B(  5-C , 27-H ) :   0.9175
B(  6-C ,  7-C ) :   1.7028 B(  6-C , 28-H ) :   0.9163 B(  7-C , 29-H ) :   0.9184
B(  8-C ,  9-C ) :   0.9491 B(  8-C , 10-C ) :   0.9986 B(  8-C , 30-H ) :   0.8945
B(  9-C , 15-C ) :   0.9673 B(  9-C , 31-H ) :   0.9064 B( 10-C , 11-C ) :   1.8536
B( 10-C , 32-H ) :   0.9119 B( 11-C , 12-C ) :   1.0720 B( 11-C , 33-H ) :   0.9073
B( 12-C , 13-C ) :   1.8419 B( 12-C , 34-H ) :   0.9103 B( 13-C , 14-C ) :   1.0171
B( 13-C , 35-H ) :   0.9102 B( 14-C , 15-C ) :   0.8782 B( 14-C , 16-N ) :   0.9249
B( 14-C , 36-H ) :   0.9070 B( 15-C , 16-N ) :   0.9424 B( 15-C , 37-H ) :   0.8927
B( 16-N , 17-C ) :   1.0559 B( 17-C , 18-O ) :   1.9681 B( 17-C , 19-O ) :   1.0393
B( 19-O , 20-C ) :   0.8681 B( 20-C , 21-C ) :   0.9899 B( 20-C , 38-H ) :   0.9069
B( 20-C , 39-H ) :   0.9035 B( 21-C , 40-H ) :   0.9102 B( 21-C , 41-H ) :   0.9204
B( 21-C , 42-H ) :   0.9212

Dispersion correction           -0.034529902
FINAL SINGLE POINT ENERGY      -939.658948135177

DIPOLE MOMENT
-------------
                                X             Y             Z
Electronic contribution:      8.88097       2.63766      -4.19978
Nuclear contribution   :     -9.48681      -1.96803       4.22958
                        -----------------------------------------
Total Dipole Moment    :     -0.60584       0.66963       0.02979
                        -----------------------------------------
Magnitude (a.u.)       :      0.90351
Magnitude (Debye)      :      2.29654

Rotational constants in cm-1:     0.015861     0.007887     0.007029
Rotational constants in MHz :   475.505684   236.447756   210.735885

                             ****ORCA TERMINATED NORMALLY****
TOTAL RUN TIME: 0 days 0 hours 7 minutes 41 seconds 714 msec
