                         Program Version 5.0.3 -  RELEASE  -
|  1> ! PBEh-3c def2/J TightSCF DefGrid3
|  2>
|  3> %maxcore 60000
|  4>
|  5> %pal
|  6> nprocs 4
|  7> end
|  8>
|  9> *xyzfile 0 1 pbh4_hbr.xyz
| 10>
| 11>                          ****END OF INPUT****

CARTESIAN COORDINATES (ANGSTROEM)
---------------------------------
  Pb     0.000000    0.000000    1.384467
  H      0.000000    1.402518    0.383483
  H      0.000000   -1.402518    0.383483
  H      1.406665    0.000000    2.378014
  H     -1.406665    0.000000    2.378014
  H      0.000000    0.000000   -4.161113
  Br     0.000000    0.000000   -2.746348

 Total Charge           Charge          ....    0
 Multiplicity           Mult            ....    1
 Number of Electrons    NEL             ....   62
 Basis Dimension        Dim             ....   68

ORBITAL ENERGIES
----------------

  NO   OCC          E(Eh)            E(eV)
   0   2.0000    -484.534314    -13184.8490
   1   2.0000     -63.198085     -1719.7073
   2   2.0000     -56.901868     -1548.3786
   3   2.0000     -56.900291     -1548.3356
   4   2.0000     -56.900266     -1548.3349
   5   2.0000      -9.027596      -245.6534
   6   2.0000      -6.802314      -185.1004
   7   2.0000      -6.789440      -184.7501
   8   2.0000      -6.789394      -184.7488
   9   2.0000      -5.697245      -155.0299
  10   2.0000      -3.489679       -94.9590
  11   2.0000      -3.489588       -94.9565
  12   2.0000      -3.489581       -94.9563
  13   2.0000      -2.816222       -76.6333
  14   2.0000      -2.811747       -76.5115
  15   2.0000      -2.811706       -76.5104
  16   2.0000      -2.800951       -76.2177
  17   2.0000      -2.800949       -76.2177
  18   2.0000      -0.932794       -25.3826
  19   2.0000      -0.932745       -25.3813
  20   2.0000      -0.932545       -25.3758
  21   2.0000      -0.921400       -25.0726
  22   2.0000      -0.921187       -25.0668
  23   2.0000      -0.875805       -23.8319
  24   2.0000      -0.625072       -17.0091
  25   2.0000      -0.499453       -13.5908
  26   2.0000      -0.363938        -9.9033
  27   2.0000      -0.361791        -9.8448
  28   2.0000      -0.361584        -9.8392
  29   2.0000      -0.352616        -9.5952
  30   2.0000      -0.349519        -9.5109
  31   0.0000       0.025719         0.6999
  32   0.0000       0.054741         1.4896
  33   0.0000       0.078608         2.1390
  34   0.0000       0.079888         2.1739
  35   0.0000       0.091055         2.4777

MULLIKEN ATOMIC CHARGES
-----------------------
   0 Pb:   -0.030915
   1 H :    0.008987
   2 H :    0.008987
   3 H :    0.006928
   4 H :    0.006928
   5 H :    0.250951
   6 Br:   -0.251866
Sum of atomic charges:   -0.0000000

LOEWDIN ATOMIC CHARGES
----------------------
   0 Pb:   -0.073608
   1 H :    0.016841
   2 H :    0.016841
   3 H :    0.015160
   4 H :    0.015160
   5 H :    0.163602
   6 Br:   -0.153996

  Mayer bond orders larger than 0.100000
B(  0-Pb,  1-H ) :   0.9414 B(  0-Pb,  2-H ) :   0.9414 B(  0-Pb,  3-H ) :   0.9428
B(  0-Pb,  4-H ) :   0.9428 B(  5-H ,  6-Br) :   0.9117

Dispersion correction           -0.001740165
FINAL SINGLE POINT ENERGY     -2768.790387480196

DIPOLE MOMENT
-------------
                                X             Y             Z
Electronic contribution:      0.00000       0.00000     148.67295
Nuclear contribution   :      0.00000       0.00000    -149.10600
                        -----------------------------------------
Total Dipole Moment    :      0.00000       0.00000      -0.43306
                        -----------------------------------------
Magnitude (a.u.)       :      0.43306
Magnitude (Debye)      :      1.10074

Rotational constants in cm-1:     2.119217     0.016581     0.016580
Rotational constants in MHz : 63532.526177   497.076664   497.065182

                             ****ORCA TERMINATED NORMALLY****
TOTAL RUN TIME: 0 days 0 hours 1 minutes 11 seconds 266 msec
