                         Program Version 5.0.3 -  RELEASE  -
|  1> ! PBEh-3c def2/J TightSCF DefGrid3
|  2>
|  3> %maxcore 60000
|  4>
|  5> %pal
|  6> nprocs 4
|  7> end
|  8>
|  9> *xyzfile 0 1 26_benI-mSHAB.xyz
| 10>
| 11>                          ****END OF INPUT****

CARTESIAN COORDINATES (ANGSTROEM)
---------------------------------
  C     -0.755422   -0.796459   -1.023590
  C      0.634275   -0.880017   -1.075233
  C      1.406955    0.199695   -0.653144
  C      0.798864    1.361204   -0.180598
  C     -0.593167    1.434312   -0.133598
  C     -1.376239    0.359205   -0.553258
  I     -1.514344    3.173268    0.573601
  H      1.110907   -1.778802   -1.440620
  H      1.399172    2.197767    0.147413
  H      2.486418    0.142466   -0.689381
  H     -2.454252    0.422581   -0.512808
  H     -1.362354   -1.630564   -1.348743
  S     -3.112683    6.289228    1.226984
  H     -4.328790    5.797771    0.973373
  C     -2.689135    6.703164   -0.489063
  H     -1.684433    7.115457   -0.460266
  H     -2.683867    5.816530   -1.115184
  H     -3.365331    7.451201   -0.890099

 Total Charge           Charge          ....    0
 Multiplicity           Mult            ....    1
 Number of Electrons    NEL             ....   92
 Basis Dimension        Dim             ....  167

ORBITAL ENERGIES
----------------

  NO   OCC          E(Eh)            E(eV)
   0   2.0000     -89.586044     -2437.7602
   1   2.0000     -10.496522      -285.6249
   2   2.0000     -10.467376      -284.8318
   3   2.0000     -10.460611      -284.6477
   4   2.0000     -10.460479      -284.6441
   5   2.0000     -10.458633      -284.5939
   6   2.0000     -10.458523      -284.5909
   7   2.0000     -10.456410      -284.5334
   8   2.0000      -8.226610      -223.8574
   9   2.0000      -7.087675      -192.8654
  10   2.0000      -6.117590      -166.4681
  11   2.0000      -6.114440      -166.3824
  12   2.0000      -6.109027      -166.2351
  13   2.0000      -5.071369      -137.9990
  14   2.0000      -5.054442      -137.5384
  15   2.0000      -5.054278      -137.5339
  16   2.0000      -2.025266       -55.1103
  17   2.0000      -2.019803       -54.9616
  18   2.0000      -2.019687       -54.9585
  19   2.0000      -2.005201       -54.5643
  20   2.0000      -2.005192       -54.5641
  21   2.0000      -0.966560       -26.3014
  22   2.0000      -0.873889       -23.7797
  23   2.0000      -0.858015       -23.3478
  24   2.0000      -0.847471       -23.0609
  25   2.0000      -0.759807       -20.6754
  26   2.0000      -0.725710       -19.7476
  27   2.0000      -0.693072       -18.8594
  28   2.0000      -0.668291       -18.1851
  29   2.0000      -0.588052       -16.0017
  30   2.0000      -0.525425       -14.2975
  31   2.0000      -0.522946       -14.2301
  32   2.0000      -0.513079       -13.9616
  33   2.0000      -0.494444       -13.4545
  34   2.0000      -0.492692       -13.4068
  35   2.0000      -0.463043       -12.6000
  36   2.0000      -0.448603       -12.2071
  37   2.0000      -0.437838       -11.9142
  38   2.0000      -0.411470       -11.1967
  39   2.0000      -0.389747       -10.6056
  40   2.0000      -0.381310       -10.3760
  41   2.0000      -0.337324        -9.1791
  42   2.0000      -0.302834        -8.2405
  43   2.0000      -0.301828        -8.2131
  44   2.0000      -0.287461        -7.8222
  45   2.0000      -0.271488        -7.3876
  46   0.0000       0.006213         0.1691
  47   0.0000       0.008822         0.2401
  48   0.0000       0.014007         0.3812
  49   0.0000       0.070094         1.9073
  50   0.0000       0.111732         3.0404

MULLIKEN ATOMIC CHARGES
-----------------------
   0 C :   -0.211729
   1 C :   -0.225486
   2 C :   -0.211725
   3 C :   -0.209016
   4 C :   -0.194734
   5 C :   -0.209233
   6 I :    0.065214
   7 H :    0.225616
   8 H :    0.242689
   9 H :    0.227153
  10 H :    0.241131
  11 H :    0.226815
  12 S :   -0.178642
  13 H :    0.185735
  14 C :   -0.752466
  15 H :    0.262884
  16 H :    0.260913
  17 H :    0.254881
Sum of atomic charges:    0.0000000

LOEWDIN ATOMIC CHARGES
----------------------
   0 C :   -0.128693
   1 C :   -0.135099
   2 C :   -0.128464
   3 C :   -0.141114
   4 C :   -0.182134
   5 C :   -0.141647
   6 I :    0.109773
   7 H :    0.138812
   8 H :    0.145554
   9 H :    0.139959
  10 H :    0.144883
  11 H :    0.139797
  12 S :   -0.008939
  13 H :    0.101290
  14 C :   -0.470609
  15 H :    0.145864
  16 H :    0.136812
  17 H :    0.133956

  Mayer bond orders larger than 0.100000
B(  0-C ,  1-C ) :   1.4218 B(  0-C ,  5-C ) :   1.4321 B(  0-C , 11-H ) :   0.9167
B(  1-C ,  2-C ) :   1.4217 B(  1-C ,  7-H ) :   0.9180 B(  2-C ,  3-C ) :   1.4321
B(  2-C ,  9-H ) :   0.9166 B(  3-C ,  4-C ) :   1.3740 B(  3-C ,  8-H ) :   0.9111
B(  4-C ,  5-C ) :   1.3741 B(  4-C ,  6-I ) :   1.0136 B(  5-C , 10-H ) :   0.9117
B( 12-S , 13-H ) :   0.9207 B( 12-S , 14-C ) :   1.0187 B( 14-C , 15-H ) :   0.9036
B( 14-C , 16-H ) :   0.8915 B( 14-C , 17-H ) :   0.8986

Dispersion correction           -0.009940863
FINAL SINGLE POINT ENERGY      -967.032072249717

DIPOLE MOMENT
-------------
                                X             Y             Z
Electronic contribution:    -14.89349      20.35836      31.27952
Nuclear contribution   :     14.81689     -20.55400     -32.05417
                        -----------------------------------------
Total Dipole Moment    :     -0.07660      -0.19564      -0.77465
                        -----------------------------------------
Magnitude (a.u.)       :      0.80264
Magnitude (Debye)      :      2.04014

Rotational constants in cm-1:     0.111888     0.010386     0.010148
Rotational constants in MHz :  3354.304766   311.377382   304.230827

                             ****ORCA TERMINATED NORMALLY****
TOTAL RUN TIME: 0 days 0 hours 2 minutes 19 seconds 107 msec
