                         Program Version 5.0.3 -  RELEASE  -
|  1> ! PBEh-3c def2/J TightSCF DefGrid3
|  2>
|  3> %maxcore 60000
|  4>
|  5> %pal
|  6> nprocs 4
|  7> end
|  8>
|  9> *xyzfile 0 1 126.xyz
| 10>
| 11>                          ****END OF INPUT****

CARTESIAN COORDINATES (ANGSTROEM)
---------------------------------
  C     -0.962943    0.078441    0.000000
  C      0.530031    0.251454    0.000000
  O      1.121977    1.299270    0.000000
  O      1.170809   -0.946509    0.000000
  H      2.119866   -0.755128    0.000000
  H     -1.441694    1.052311    0.000000
  H     -1.269023   -0.489920    0.878487
  H     -1.269023   -0.489920   -0.878487

 Total Charge           Charge          ....    0
 Multiplicity           Mult            ....    1
 Number of Electrons    NEL             ....   32
 Basis Dimension        Dim             ....   68

ORBITAL ENERGIES
----------------

  NO   OCC          E(Eh)            E(eV)
   0   2.0000     -19.541124      -531.7410
   1   2.0000     -19.486793      -530.2626
   2   2.0000     -10.585760      -288.0532
   3   2.0000     -10.450735      -284.3790
   4   2.0000      -1.219862       -33.1941
   5   2.0000      -1.125827       -30.6353
   6   2.0000      -0.849065       -23.1042
   7   2.0000      -0.684903       -18.6372
   8   2.0000      -0.561013       -15.2659
   9   2.0000      -0.548197       -14.9172
  10   2.0000      -0.533708       -14.5229
  11   2.0000      -0.471036       -12.8175
  12   2.0000      -0.458070       -12.4647
  13   2.0000      -0.451735       -12.2923
  14   2.0000      -0.378107       -10.2888
  15   2.0000      -0.337378        -9.1805
  16   0.0000       0.045271         1.2319
  17   0.0000       0.129164         3.5147
  18   0.0000       0.166481         4.5302
  19   0.0000       0.205269         5.5857
  20   0.0000       0.219281         5.9669

MULLIKEN ATOMIC CHARGES
-----------------------
   0 C :   -0.740370
   1 C :    0.506153
   2 O :   -0.384394
   3 O :   -0.589923
   4 H :    0.441635
   5 H :    0.258458
   6 H :    0.254221
   7 H :    0.254221
Sum of atomic charges:    0.0000000

LOEWDIN ATOMIC CHARGES
----------------------
   0 C :   -0.391345
   1 C :    0.130832
   2 O :   -0.224796
   3 O :   -0.312881
   4 H :    0.331417
   5 H :    0.152847
   6 H :    0.156963
   7 H :    0.156963

  Mayer bond orders larger than 0.100000
B(  0-C ,  1-C ) :   0.9366 B(  0-C ,  5-H ) :   0.9169 B(  0-C ,  6-H ) :   0.9050
B(  0-C ,  7-H ) :   0.9050 B(  1-C ,  2-O ) :   2.0788 B(  1-C ,  3-O ) :   1.1311
B(  3-O ,  4-H ) :   0.7617

Dispersion correction           -0.002311217
FINAL SINGLE POINT ENERGY      -228.602247553421

DIPOLE MOMENT
-------------
                                X             Y             Z
Electronic contribution:      3.32058       0.60627      -0.00000
Nuclear contribution   :     -3.57579      -1.19693       0.00000
                        -----------------------------------------
Total Dipole Moment    :     -0.25520      -0.59066      -0.00000
                        -----------------------------------------
Magnitude (a.u.)       :      0.64343
Magnitude (Debye)      :      1.63547

Rotational constants in cm-1:     0.378137     0.315612     0.177670
Rotational constants in MHz : 11336.262515  9461.808615  5326.417111

                             ****ORCA TERMINATED NORMALLY****
TOTAL RUN TIME: 0 days 0 hours 0 minutes 32 seconds 520 msec
