                         Program Version 5.0.3 -  RELEASE  -
|  1> ! PBEh-3c def2/J TightSCF DefGrid3
|  2>
|  3> %maxcore 60000
|  4>
|  5> %pal
|  6> nprocs 4
|  7> end
|  8>
|  9> *xyzfile 0 1 10.xyz
| 10>
| 11>                          ****END OF INPUT****

CARTESIAN COORDINATES (ANGSTROEM)
---------------------------------
  N     -1.453934    0.199944   -0.757715
  H     -0.625338   -0.384909   -0.808057
  H     -2.115762   -0.189715   -1.415952
  C     -2.013951    0.120427    0.589663
  H     -2.908030    0.738273    0.650884
  H     -2.278038   -0.886816    0.927169
  H     -1.295568    0.527703    1.298804
  N      1.583601   -0.726493   -0.605239
  H      1.879869   -0.451955   -1.533224
  H      2.207150   -1.474183   -0.330044
  C      1.743831    0.408717    0.308436
  H      1.473640    0.094022    1.314089
  H      2.751241    0.830494    0.345408
  H      1.051290    1.194493    0.015779

 Total Charge           Charge          ....    0
 Multiplicity           Mult            ....    1
 Number of Electrons    NEL             ....   36
 Basis Dimension        Dim             ....   80

ORBITAL ENERGIES
----------------

  NO   OCC          E(Eh)            E(eV)
   0   2.0000     -14.616811      -397.7436
   1   2.0000     -14.581110      -396.7722
   2   2.0000     -10.447877      -284.3012
   3   2.0000     -10.431739      -283.8620
   4   2.0000      -0.974758       -26.5245
   5   2.0000      -0.944443       -25.6996
   6   2.0000      -0.739316       -20.1178
   7   2.0000      -0.718099       -19.5405
   8   2.0000      -0.555091       -15.1048
   9   2.0000      -0.529783       -14.4161
  10   2.0000      -0.497410       -13.5352
  11   2.0000      -0.476635       -12.9699
  12   2.0000      -0.456895       -12.4328
  13   2.0000      -0.435089       -11.8394
  14   2.0000      -0.420233       -11.4351
  15   2.0000      -0.400556       -10.8997
  16   2.0000      -0.296834        -8.0773
  17   2.0000      -0.264298        -7.1919
  18   0.0000       0.124631         3.3914
  19   0.0000       0.163235         4.4418
  20   0.0000       0.189995         5.1700
  21   0.0000       0.207340         5.6420
  22   0.0000       0.216102         5.8804

MULLIKEN ATOMIC CHARGES
-----------------------
   0 N :   -0.773911
   1 H :    0.357394
   2 H :    0.304153
   3 C :   -0.498390
   4 H :    0.206327
   5 H :    0.176058
   6 H :    0.205275
   7 N :   -0.755676
   8 H :    0.322789
   9 H :    0.322802
  10 C :   -0.520654
  11 H :    0.215368
  12 H :    0.192889
  13 H :    0.245577
Sum of atomic charges:    0.0000000

LOEWDIN ATOMIC CHARGES
----------------------
   0 N :   -0.505493
   1 H :    0.228325
   2 H :    0.213044
   3 C :   -0.277695
   4 H :    0.113918
   5 H :    0.088143
   6 H :    0.113869
   7 N :   -0.482014
   8 H :    0.222798
   9 H :    0.221105
  10 C :   -0.286012
  11 H :    0.120053
  12 H :    0.096693
  13 H :    0.133265

  Mayer bond orders larger than 0.100000
B(  0-N ,  1-H ) :   0.8011 B(  0-N ,  2-H ) :   0.8726 B(  0-N ,  3-C ) :   1.0480
B(  3-C ,  4-H ) :   0.9289 B(  3-C ,  5-H ) :   0.9186 B(  3-C ,  6-H ) :   0.9278
B(  7-N ,  8-H ) :   0.8628 B(  7-N ,  9-H ) :   0.8624 B(  7-N , 10-C ) :   1.0099
B( 10-C , 11-H ) :   0.9269 B( 10-C , 12-H ) :   0.9191 B( 10-C , 13-H ) :   0.9094

Dispersion correction           -0.004470670
FINAL SINGLE POINT ENERGY      -191.293563439326

DIPOLE MOMENT
-------------
                                X             Y             Z
Electronic contribution:      0.33938      -0.60406      -1.60025
Nuclear contribution   :      0.32704       0.14927       1.61341
                        -----------------------------------------
Total Dipole Moment    :      0.66641      -0.45479       0.01315
                        -----------------------------------------
Magnitude (a.u.)       :      0.80692
Magnitude (Debye)      :      2.05102

Rotational constants in cm-1:     0.400410     0.083170     0.075733
Rotational constants in MHz : 12003.981393  2493.386796  2270.414030

                             ****ORCA TERMINATED NORMALLY****
TOTAL RUN TIME: 0 days 0 hours 1 minutes 0 seconds 316 msec
