                         Program Version 5.0.3 -  RELEASE  -
|  1> ! PBEh-3c def2/J TightSCF DefGrid3
|  2>
|  3> %maxcore 60000
|  4>
|  5> %pal
|  6> nprocs 4
|  7> end
|  8>
|  9> *xyzfile 0 1 1b.xyz
| 10>
| 11>                          ****END OF INPUT****

CARTESIAN COORDINATES (ANGSTROEM)
---------------------------------
  C     -1.301574   -1.750992   -0.382347
  C      1.301574    1.750992   -0.382347
  C      0.000000    0.000000    0.966287
  C     -1.178797   -0.318750    0.054535
  C      1.178797    0.318750    0.054535
  O     -1.931506    0.558332   -0.318160
  O      1.931506   -0.558332   -0.318160
  H     -2.057390   -1.845974   -1.153994
  H     -1.573202   -2.362630    0.477795
  H     -0.336521   -2.109383   -0.738500
  H      1.573202    2.362630    0.477795
  H      0.336521    2.109383   -0.738500
  H      2.057390    1.845974   -1.153994
  H      0.261399   -0.858979    1.578027
  H     -0.261399    0.858979    1.578027

 Total Charge           Charge          ....    0
 Multiplicity           Mult            ....    1
 Number of Electrons    NEL             ....   54
 Basis Dimension        Dim             ....  121

ORBITAL ENERGIES
----------------

  NO   OCC          E(Eh)            E(eV)
   0   2.0000     -19.499401      -530.6057
   1   2.0000     -19.499375      -530.6050
   2   2.0000     -10.554590      -287.2050
   3   2.0000     -10.554489      -287.2023
   4   2.0000     -10.461079      -284.6604
   5   2.0000     -10.446180      -284.2550
   6   2.0000     -10.446180      -284.2550
   7   2.0000      -1.167924       -31.7808
   8   2.0000      -1.161363       -31.6023
   9   2.0000      -0.895268       -24.3615
  10   2.0000      -0.847339       -23.0573
  11   2.0000      -0.805258       -21.9122
  12   2.0000      -0.639692       -17.4069
  13   2.0000      -0.604296       -16.4437
  14   2.0000      -0.552043       -15.0219
  15   2.0000      -0.550355       -14.9759
  16   2.0000      -0.538890       -14.6639
  17   2.0000      -0.502983       -13.6869
  18   2.0000      -0.499524       -13.5927
  19   2.0000      -0.494058       -13.4440
  20   2.0000      -0.465005       -12.6534
  21   2.0000      -0.454532       -12.3684
  22   2.0000      -0.436906       -11.8888
  23   2.0000      -0.421705       -11.4752
  24   2.0000      -0.416159       -11.3243
  25   2.0000      -0.325143        -8.8476
  26   2.0000      -0.309935        -8.4338
  27   0.0000      -0.017262        -0.4697
  28   0.0000       0.037917         1.0318
  29   0.0000       0.141188         3.8419
  30   0.0000       0.156135         4.2487
  31   0.0000       0.166509         4.5310

MULLIKEN ATOMIC CHARGES
-----------------------
   0 C :   -0.750062
   1 C :   -0.750062
   2 C :   -0.640344
   3 C :    0.366661
   4 C :    0.366661
   5 O :   -0.335413
   6 O :   -0.335413
   7 H :    0.261677
   8 H :    0.243634
   9 H :    0.264354
  10 H :    0.243634
  11 H :    0.264354
  12 H :    0.261677
  13 H :    0.269322
  14 H :    0.269322
Sum of atomic charges:    0.0000000

LOEWDIN ATOMIC CHARGES
----------------------
   0 C :   -0.391352
   1 C :   -0.391352
   2 C :   -0.297904
   3 C :    0.112490
   4 C :    0.112490
   5 O :   -0.193350
   6 O :   -0.193350
   7 H :    0.152168
   8 H :    0.152956
   9 H :    0.160046
  10 H :    0.152956
  11 H :    0.160046
  12 H :    0.152168
  13 H :    0.155994
  14 H :    0.155994

  Mayer bond orders larger than 0.100000
B(  0-C ,  3-C ) :   0.9462 B(  0-C ,  7-H ) :   0.9163 B(  0-C ,  8-H ) :   0.9036
B(  0-C ,  9-H ) :   0.8931 B(  1-C ,  4-C ) :   0.9462 B(  1-C , 10-H ) :   0.9036
B(  1-C , 11-H ) :   0.8931 B(  1-C , 12-H ) :   0.9163 B(  2-C ,  3-C ) :   0.8911
B(  2-C ,  4-C ) :   0.8911 B(  2-C , 13-H ) :   0.9005 B(  2-C , 14-H ) :   0.9005
B(  3-C ,  5-O ) :   2.1205 B(  4-C ,  6-O ) :   2.1205

Dispersion correction           -0.006908805
FINAL SINGLE POINT ENERGY      -345.053201649138

DIPOLE MOMENT
-------------
                                X             Y             Z
Electronic contribution:      0.00000       0.00000      -0.16825
Nuclear contribution   :      0.00000       0.00000       0.75764
                        -----------------------------------------
Total Dipole Moment    :      0.00000       0.00000       0.58939
                        -----------------------------------------
Magnitude (a.u.)       :      0.58939
Magnitude (Debye)      :      1.49812

Rotational constants in cm-1:     0.137001     0.066685     0.052355
Rotational constants in MHz :  4107.199317  1999.167428  1569.564279

                             ****ORCA TERMINATED NORMALLY****
TOTAL RUN TIME: 0 days 0 hours 1 minutes 54 seconds 594 msec
