                         Program Version 5.0.3 -  RELEASE  -
|  1> ! PBEh-3c def2/J TightSCF DefGrid3
|  2>
|  3> %maxcore 60000
|  4>
|  5> %pal
|  6> nprocs 4
|  7> end
|  8>
|  9> *xyzfile 0 1 H_g+x-t+.xyz
| 10>
| 11>                          ****END OF INPUT****

CARTESIAN COORDINATES (ANGSTROEM)
---------------------------------
  C     -1.826341    1.235149    0.022488
  C     -2.033907   -0.255799   -0.214080
  C     -0.898990   -1.141214    0.298300
  C      0.467522   -0.841662   -0.331734
  C      1.349271    0.089243    0.495421
  C      2.668157    0.400535   -0.199287
  H     -0.960573    1.608871   -0.522195
  H     -1.671314    1.444790    1.081132
  H     -2.692949    1.806060   -0.308014
  H     -2.159512   -0.435469   -1.284534
  H     -2.966034   -0.567454    0.260979
  H     -1.169646   -2.180627    0.106405
  H     -0.823047   -1.041504    1.384924
  H      0.322074   -0.413356   -1.328459
  H      1.016195   -1.773853   -0.483186
  H      1.543341   -0.382510    1.461401
  H      0.817398    1.016274    0.709743
  H      3.302003    1.044686    0.408141
  H      2.494506    0.903132   -1.150851
  H      3.221848   -0.515297   -0.406587

 Total Charge           Charge          ....    0
 Multiplicity           Mult            ....    1
 Number of Electrons    NEL             ....   50
 Basis Dimension        Dim             ....  118

ORBITAL ENERGIES
----------------

  NO   OCC          E(Eh)            E(eV)
   0   2.0000     -10.427183      -283.7381
   1   2.0000     -10.425568      -283.6941
   2   2.0000     -10.425088      -283.6811
   3   2.0000     -10.424780      -283.6727
   4   2.0000     -10.418707      -283.5074
   5   2.0000     -10.418302      -283.4964
   6   2.0000      -0.897596       -24.4248
   7   2.0000      -0.852020       -23.1846
   8   2.0000      -0.788534       -21.4571
   9   2.0000      -0.722855       -19.6699
  10   2.0000      -0.657688       -17.8966
  11   2.0000      -0.632488       -17.2109
  12   2.0000      -0.534437       -14.5428
  13   2.0000      -0.509082       -13.8528
  14   2.0000      -0.491449       -13.3730
  15   2.0000      -0.469937       -12.7876
  16   2.0000      -0.465439       -12.6652
  17   2.0000      -0.429813       -11.6958
  18   2.0000      -0.422702       -11.5023
  19   2.0000      -0.412295       -11.2191
  20   2.0000      -0.389910       -10.6100
  21   2.0000      -0.381440       -10.3795
  22   2.0000      -0.365518        -9.9463
  23   2.0000      -0.355898        -9.6845
  24   2.0000      -0.352530        -9.5928
  25   0.0000       0.132450         3.6042
  26   0.0000       0.151800         4.1307
  27   0.0000       0.175530         4.7764
  28   0.0000       0.179721         4.8904
  29   0.0000       0.187699         5.1076

MULLIKEN ATOMIC CHARGES
-----------------------
   0 C :   -0.647488
   1 C :   -0.419348
   2 C :   -0.415534
   3 C :   -0.415597
   4 C :   -0.425124
   5 C :   -0.638486
   6 H :    0.213654
   7 H :    0.208202
   8 H :    0.222104
   9 H :    0.205796
  10 H :    0.212234
  11 H :    0.217543
  12 H :    0.205379
  13 H :    0.203807
  14 H :    0.213084
  15 H :    0.207806
  16 H :    0.216989
  17 H :    0.218444
  18 H :    0.208240
  19 H :    0.208293
Sum of atomic charges:    0.0000000

LOEWDIN ATOMIC CHARGES
----------------------
   0 C :   -0.365780
   1 C :   -0.245090
   2 C :   -0.241801
   3 C :   -0.243117
   4 C :   -0.249311
   5 C :   -0.362356
   6 H :    0.123150
   7 H :    0.122559
   8 H :    0.126241
   9 H :    0.118708
  10 H :    0.121142
  11 H :    0.123788
  12 H :    0.119620
  13 H :    0.118369
  14 H :    0.122208
  15 H :    0.118869
  16 H :    0.120966
  17 H :    0.125865
  18 H :    0.122890
  19 H :    0.123079

  Mayer bond orders larger than 0.100000
B(  0-C ,  1-C ) :   0.9929 B(  0-C ,  6-H ) :   0.9242 B(  0-C ,  7-H ) :   0.9285
B(  0-C ,  8-H ) :   0.9297 B(  1-C ,  2-C ) :   0.9972 B(  1-C ,  9-H ) :   0.9202
B(  1-C , 10-H ) :   0.9234 B(  2-C ,  3-C ) :   0.9548 B(  2-C , 11-H ) :   0.9298
B(  2-C , 12-H ) :   0.9217 B(  3-C ,  4-C ) :   0.9839 B(  3-C , 13-H ) :   0.9217
B(  3-C , 14-H ) :   0.9266 B(  4-C ,  5-C ) :   0.9973 B(  4-C , 15-H ) :   0.9199
B(  4-C , 16-H ) :   0.9130 B(  5-C , 17-H ) :   0.9323 B(  5-C , 18-H ) :   0.9298
B(  5-C , 19-H ) :   0.9297

Dispersion correction           -0.009116436
FINAL SINGLE POINT ENERGY      -236.557593481269

DIPOLE MOMENT
-------------
                                X             Y             Z
Electronic contribution:     -0.74620      -1.37422       0.19158
Nuclear contribution   :      0.71731       1.34352      -0.18595
                        -----------------------------------------
Total Dipole Moment    :     -0.02889      -0.03069       0.00563
                        -----------------------------------------
Magnitude (a.u.)       :      0.04252
Magnitude (Debye)      :      0.10808

Rotational constants in cm-1:     0.200755     0.058960     0.050469
Rotational constants in MHz :  6018.488630  1767.570875  1513.009134

                             ****ORCA TERMINATED NORMALLY****
TOTAL RUN TIME: 0 days 0 hours 1 minutes 33 seconds 325 msec
