                         Program Version 5.0.3 -  RELEASE  -
|  1> ! PBEh-3c def2/J TightSCF DefGrid3
|  2>
|  3> %maxcore 60000
|  4>
|  5> %pal
|  6> nprocs 4
|  7> end
|  8>
|  9> *xyzfile 0 1 ethylene.xyz
| 10>
| 11>                          ****END OF INPUT****

CARTESIAN COORDINATES (ANGSTROEM)
---------------------------------
  C     -0.661479    0.000000    0.000000
  C      0.661479    0.000000    0.000000
  H     -1.230860   -0.923121    0.000000
  H     -1.230860    0.923121    0.000000
  H      1.230860   -0.923121    0.000000
  H      1.230860    0.923121    0.000000

 Total Charge           Charge          ....    0
 Multiplicity           Mult            ....    1
 Number of Electrons    NEL             ....   16
 Basis Dimension        Dim             ....   38

ORBITAL ENERGIES
----------------

  NO   OCC          E(Eh)            E(eV)
   0   2.0000     -10.440290      -284.0947
   1   2.0000     -10.439274      -284.0671
   2   2.0000      -0.850831       -23.1523
   3   2.0000      -0.650620       -17.7043
   4   2.0000      -0.531121       -14.4525
   5   2.0000      -0.479008       -13.0345
   6   2.0000      -0.406912       -11.0726
   7   2.0000      -0.317858        -8.6494
   8   0.0000       0.041602         1.1321
   9   0.0000       0.169230         4.6050
  10   0.0000       0.194788         5.3005
  11   0.0000       0.209926         5.7124
  12   0.0000       0.319710         8.6997

MULLIKEN ATOMIC CHARGES
-----------------------
   0 C :   -0.428859
   1 C :   -0.428859
   2 H :    0.214429
   3 H :    0.214429
   4 H :    0.214429
   5 H :    0.214430
Sum of atomic charges:    0.0000000

LOEWDIN ATOMIC CHARGES
----------------------
   0 C :   -0.260091
   1 C :   -0.260091
   2 H :    0.130045
   3 H :    0.130045
   4 H :    0.130045
   5 H :    0.130045

  Mayer bond orders larger than 0.100000
B(  0-C ,  1-C ) :   1.9825 B(  0-C ,  2-H ) :   0.9301 B(  0-C ,  3-H ) :   0.9301
B(  1-C ,  4-H ) :   0.9301 B(  1-C ,  5-H ) :   0.9301

Dispersion correction           -0.001302041
FINAL SINGLE POINT ENERGY       -78.405398093081

DIPOLE MOMENT
-------------
                                X             Y             Z
Electronic contribution:      0.00000      -0.00000      -0.00000
Nuclear contribution   :      0.00000       0.00000       0.00000
                        -----------------------------------------
Total Dipole Moment    :      0.00000      -0.00000      -0.00000
                        -----------------------------------------
Magnitude (a.u.)       :      0.00000
Magnitude (Debye)      :      0.00000

Rotational constants in cm-1:     4.906355     1.014330     0.840555
Rotational constants in MHz : 147088.808756 30408.848741 25199.213331

                             ****ORCA TERMINATED NORMALLY****
TOTAL RUN TIME: 0 days 0 hours 1 minutes 26 seconds 162 msec
