                         Program Version 5.0.3 -  RELEASE  -
|  1> ! PBEh-3c def2/J TightSCF DefGrid3
|  2>
|  3> %maxcore 60000
|  4>
|  5> %pal
|  6> nprocs 4
|  7> end
|  8>
|  9> *xyzfile 0 1 i14p.xyz
| 10>
| 11>                          ****END OF INPUT****

CARTESIAN COORDINATES (ANGSTROEM)
---------------------------------
  C     -1.356385    2.127626   -0.654007
  C     -2.652224    1.755630   -0.292767
  C     -2.905485    0.454055    0.153058
  C     -1.860722   -0.467483    0.220499
  C     -0.539660   -0.111261   -0.111996
  C     -0.306066    1.211688   -0.548060
  H     -1.138707    3.125004   -1.028775
  H     -3.462066    2.478391   -0.367275
  H     -3.912498    0.155448    0.435085
  H     -2.066097   -1.480380    0.556760
  C      0.573110   -1.120219   -0.001010
  O      0.938500    1.608896   -1.013124
  C      1.928169    2.111028   -0.153398
  O      2.988286    2.397753   -0.635067
  C      1.534288    2.274547    1.297112
  O      1.689630   -0.797396    0.374749
  C      0.239438   -2.560233   -0.391226
  C      1.461962   -3.480210   -0.429606
  H      0.619254    2.872619    1.388701
  H      2.357943    2.758800    1.826291
  H      1.340946    1.286333    1.727987
  H     -0.278681   -2.535552   -1.361398
  H     -0.505878   -2.939717    0.325436
  H      2.195827   -3.116742   -1.158049
  H      1.161255   -4.497738   -0.707815
  H      1.955862   -3.510886    0.547895

 Total Charge           Charge          ....    0
 Multiplicity           Mult            ....    1
 Number of Electrons    NEL             ....  102
 Basis Dimension        Dim             ....  234

ORBITAL ENERGIES
----------------

  NO   OCC          E(Eh)            E(eV)
   0   2.0000     -19.546074      -531.8757
   1   2.0000     -19.503365      -530.7136
   2   2.0000     -19.483911      -530.1842
   3   2.0000     -10.586086      -288.0620
   4   2.0000     -10.555692      -287.2350
   5   2.0000     -10.539382      -286.7912
   6   2.0000     -10.484792      -285.3057
   7   2.0000     -10.483151      -285.2610
   8   2.0000     -10.480341      -285.1846
   9   2.0000     -10.474344      -285.0214
  10   2.0000     -10.473741      -285.0050
  11   2.0000     -10.462009      -284.6857
  12   2.0000     -10.449130      -284.3353
  13   2.0000     -10.435934      -283.9762
  14   2.0000      -1.213221       -33.0134
  15   2.0000      -1.163119       -31.6501
  16   2.0000      -1.135620       -30.9018
  17   2.0000      -0.978175       -26.6175
  18   2.0000      -0.891361       -24.2552
  19   2.0000      -0.861509       -23.4428
  20   2.0000      -0.860321       -23.4105
  21   2.0000      -0.835530       -22.7359
  22   2.0000      -0.759884       -20.6775
  23   2.0000      -0.721672       -19.6377
  24   2.0000      -0.717006       -19.5107
  25   2.0000      -0.658295       -17.9131
  26   2.0000      -0.625391       -17.0178
  27   2.0000      -0.588019       -16.0008
  28   2.0000      -0.571286       -15.5455
  29   2.0000      -0.563065       -15.3218
  30   2.0000      -0.543460       -14.7883
  31   2.0000      -0.538637       -14.6571
  32   2.0000      -0.529234       -14.4012
  33   2.0000      -0.520145       -14.1539
  34   2.0000      -0.517294       -14.0763
  35   2.0000      -0.498265       -13.5585
  36   2.0000      -0.479806       -13.0562
  37   2.0000      -0.461107       -12.5474
  38   2.0000      -0.458036       -12.4638
  39   2.0000      -0.452468       -12.3123
  40   2.0000      -0.442605       -12.0439
  41   2.0000      -0.433180       -11.7874
  42   2.0000      -0.428780       -11.6677
  43   2.0000      -0.423283       -11.5181
  44   2.0000      -0.419258       -11.4086
  45   2.0000      -0.402385       -10.9495
  46   2.0000      -0.366076        -9.9614
  47   2.0000      -0.341580        -9.2949
  48   2.0000      -0.320849        -8.7307
  49   2.0000      -0.318432        -8.6650
  50   2.0000      -0.301281        -8.1983
  51   0.0000      -0.041888        -1.1398
  52   0.0000      -0.007053        -0.1919
  53   0.0000       0.037056         1.0083
  54   0.0000       0.047489         1.2922
  55   0.0000       0.113612         3.0916

MULLIKEN ATOMIC CHARGES
-----------------------
   0 C :   -0.275585
   1 C :   -0.226185
   2 C :   -0.213137
   3 C :   -0.265986
   4 C :   -0.064879
   5 C :    0.331908
   6 H :    0.253467
   7 H :    0.236694
   8 H :    0.232688
   9 H :    0.227652
  10 C :    0.386801
  11 O :   -0.477758
  12 C :    0.539372
  13 O :   -0.334024
  14 C :   -0.793924
  15 O :   -0.348304
  16 C :   -0.549890
  17 C :   -0.635764
  18 H :    0.244896
  19 H :    0.269567
  20 H :    0.279708
  21 H :    0.255494
  22 H :    0.235912
  23 H :    0.237838
  24 H :    0.219350
  25 H :    0.234089
Sum of atomic charges:    0.0000000

LOEWDIN ATOMIC CHARGES
----------------------
   0 C :   -0.146248
   1 C :   -0.111698
   2 C :   -0.139925
   3 C :   -0.109704
   4 C :   -0.103674
   5 C :    0.088024
   6 H :    0.153426
   7 H :    0.144638
   8 H :    0.143160
   9 H :    0.141877
  10 C :    0.131339
  11 O :   -0.150601
  12 C :    0.178698
  13 O :   -0.176408
  14 C :   -0.402816
  15 O :   -0.182760
  16 C :   -0.276359
  17 C :   -0.355993
  18 H :    0.150281
  19 H :    0.158378
  20 H :    0.167028
  21 H :    0.148821
  22 H :    0.142539
  23 H :    0.139876
  24 H :    0.129539
  25 H :    0.138562

  Mayer bond orders larger than 0.100000
B(  0-C ,  1-C ) :   1.4052 B(  0-C ,  5-C ) :   1.3918 B(  0-C ,  6-H ) :   0.9045
B(  1-C ,  2-C ) :   1.4128 B(  1-C ,  7-H ) :   0.9148 B(  2-C ,  3-C ) :   1.4415
B(  2-C ,  8-H ) :   0.9154 B(  3-C ,  4-C ) :   1.3488 B(  3-C ,  9-H ) :   0.9165
B(  4-C ,  5-C ) :   1.3248 B(  4-C , 10-C ) :   0.9310 B(  5-C , 11-O ) :   0.9934
B( 10-C , 15-O ) :   2.0615 B( 10-C , 16-C ) :   0.9212 B( 11-O , 12-C ) :   0.9682
B( 12-C , 13-O ) :   2.1567 B( 12-C , 14-C ) :   0.9522 B( 14-C , 18-H ) :   0.8994
B( 14-C , 19-H ) :   0.9127 B( 14-C , 20-H ) :   0.8797 B( 16-C , 17-C ) :   0.9940
B( 16-C , 21-H ) :   0.8987 B( 16-C , 22-H ) :   0.8966 B( 17-C , 23-H ) :   0.9228
B( 17-C , 24-H ) :   0.9251 B( 17-C , 25-H ) :   0.9225

Dispersion correction           -0.016479727
FINAL SINGLE POINT ENERGY      -650.672739507230

DIPOLE MOMENT
-------------
                                X             Y             Z
Electronic contribution:      1.75157       8.73101      -3.03251
Nuclear contribution   :     -3.98084      -9.27203       3.74314
                        -----------------------------------------
Total Dipole Moment    :     -2.22926      -0.54103       0.71063
                        -----------------------------------------
Magnitude (a.u.)       :      2.40153
Magnitude (Debye)      :      6.10419

Rotational constants in cm-1:     0.025061     0.022490     0.013152
Rotational constants in MHz :   751.320454   674.243445   394.273537

                             ****ORCA TERMINATED NORMALLY****
TOTAL RUN TIME: 0 days 0 hours 3 minutes 38 seconds 102 msec
