                         Program Version 5.0.3 -  RELEASE  -
|  1> ! PBEh-3c def2/J TightSCF DefGrid3
|  2>
|  3> %maxcore 60000
|  4>
|  5> %pal
|  6> nprocs 4
|  7> end
|  8>
|  9> *xyzfile 0 2 c-hooo.xyz
| 10>
| 11>                          ****END OF INPUT****

CARTESIAN COORDINATES (ANGSTROEM)
---------------------------------
  O      1.093712   -0.303416    0.000000
  O      0.160969    0.527360    0.000000
  O     -1.199257   -0.156311    0.000000
  H     -0.879802   -1.073620    0.000000

 Total Charge           Charge          ....    0
 Multiplicity           Mult            ....    2
 Number of Electrons    NEL             ....   25
 Basis Dimension        Dim             ....   47

ORBITAL ENERGIES
----------------
                 SPIN UP ORBITALS
  NO   OCC          E(Eh)            E(eV)
   0   1.0000     -19.711200      -536.3690
   1   1.0000     -19.618676      -533.8513
   2   1.0000     -19.576315      -532.6986
   3   1.0000      -1.415640       -38.5215
   4   1.0000      -1.149462       -31.2784
   5   1.0000      -0.929753       -25.2999
   6   1.0000      -0.648598       -17.6492
   7   1.0000      -0.646550       -17.5935
   8   1.0000      -0.612391       -16.6640
   9   1.0000      -0.523296       -14.2396
  10   1.0000      -0.441183       -12.0052
  11   1.0000      -0.389463       -10.5978
  12   1.0000      -0.358762        -9.7624
  13   0.0000      -0.012907        -0.3512
  14   0.0000       0.129833         3.5329
  15   0.0000       0.222760         6.0616
  16   0.0000       0.780158        21.2292
  17   0.0000       0.848066        23.0771

                 SPIN DOWN ORBITALS
  NO   OCC          E(Eh)            E(eV)
   0   1.0000     -19.695828      -535.9507
   1   1.0000     -19.597026      -533.2622
   2   1.0000     -19.577497      -532.7308
   3   1.0000      -1.380740       -37.5718
   4   1.0000      -1.142917       -31.1003
   5   1.0000      -0.880565       -23.9614
   6   1.0000      -0.630182       -17.1481
   7   1.0000      -0.595842       -16.2137
   8   1.0000      -0.543769       -14.7967
   9   1.0000      -0.517040       -14.0694
  10   1.0000      -0.394792       -10.7428
  11   1.0000      -0.371819       -10.1177
  12   0.0000      -0.080593        -2.1931
  13   0.0000      -0.004024        -0.1095
  14   0.0000       0.130745         3.5578
  15   0.0000       0.249256         6.7826
  16   0.0000       0.788123        21.4459

MULLIKEN ATOMIC CHARGES AND SPIN POPULATIONS
--------------------------------------------
   0 O :   -0.116283    0.661519
   1 O :    0.102286    0.388926
   2 O :   -0.417141   -0.048322
   3 H :    0.431139   -0.002122
Sum of atomic charges         :   -0.0000000

LOEWDIN ATOMIC CHARGES AND SPIN POPULATIONS
-------------------------------------------
   0 O :   -0.113996    0.645662
   1 O :    0.113695    0.395494
   2 O :   -0.295572   -0.039516
   3 H :    0.295873   -0.001639

  Mayer bond orders larger than 0.100000
B(  0-O ,  1-O ) :   1.5327 B(  0-O ,  2-O ) :   0.1570 B(  1-O ,  2-O ) :   0.8824
B(  2-O ,  3-H ) :   0.7620

Dispersion correction           -0.000603303
FINAL SINGLE POINT ENERGY      -225.576915356322

DIPOLE MOMENT
-------------
                                X             Y             Z
Electronic contribution:      0.80139       0.49533       0.00000
Nuclear contribution   :     -0.82459      -1.00624       0.00000
                        -----------------------------------------
Total Dipole Moment    :     -0.02319      -0.51091       0.00000
                        -----------------------------------------
Magnitude (a.u.)       :      0.51144
Magnitude (Debye)      :      1.29997

Rotational constants in cm-1:     2.255164     0.388936     0.331725
Rotational constants in MHz : 67608.115537 11660.019811  9944.878394

                             ****ORCA TERMINATED NORMALLY****
TOTAL RUN TIME: 0 days 0 hours 1 minutes 19 seconds 873 msec
