                         Program Version 5.0.3 -  RELEASE  -
|  1> ! PBEh-3c def2/J TightSCF DefGrid3
|  2>
|  3> %maxcore 60000
|  4>
|  5> %pal
|  6> nprocs 4
|  7> end
|  8>
|  9> *xyzfile 0 1 FBr.xyz
| 10>
| 11>                          ****END OF INPUT****

CARTESIAN COORDINATES (ANGSTROEM)
---------------------------------
  Br     0.000000    0.000000    0.359357
  F      0.000000    0.000000   -1.397499

 Total Charge           Charge          ....    0
 Multiplicity           Mult            ....    1
 Number of Electrons    NEL             ....   44
 Basis Dimension        Dim             ....   47

ORBITAL ENERGIES
----------------

  NO   OCC          E(Eh)            E(eV)
   0   2.0000    -484.599487    -13186.6224
   1   2.0000     -63.259574     -1721.3805
   2   2.0000     -56.965185     -1550.1015
   3   2.0000     -56.960914     -1549.9853
   4   2.0000     -56.960914     -1549.9853
   5   2.0000     -25.127668      -683.7586
   6   2.0000      -9.087520      -247.2840
   7   2.0000      -6.868144      -186.8917
   8   2.0000      -6.845631      -186.2791
   9   2.0000      -6.845631      -186.2791
  10   2.0000      -2.881077       -78.3981
  11   2.0000      -2.874191       -78.2107
  12   2.0000      -2.874191       -78.2107
  13   2.0000      -2.854706       -77.6805
  14   2.0000      -2.854702       -77.6804
  15   2.0000      -1.325326       -36.0639
  16   2.0000      -0.870237       -23.6803
  17   2.0000      -0.558629       -15.2011
  18   2.0000      -0.530830       -14.4446
  19   2.0000      -0.530830       -14.4446
  20   2.0000      -0.358757        -9.7623
  21   2.0000      -0.358757        -9.7623
  22   0.0000      -0.086412        -2.3514
  23   0.0000       0.306686         8.3454
  24   0.0000       0.516250        14.0479
  25   0.0000       0.516250        14.0479
  26   0.0000       0.530080        14.4242

MULLIKEN ATOMIC CHARGES
-----------------------
   0 Br:    0.395296
   1 F :   -0.395296
Sum of atomic charges:   -0.0000000

LOEWDIN ATOMIC CHARGES
----------------------
   0 Br:    0.336822
   1 F :   -0.336822

  Mayer bond orders larger than 0.100000
B(  0-Br,  1-F ) :   0.9014

Dispersion correction           -0.000211461
FINAL SINGLE POINT ENERGY     -2672.595658130057

DIPOLE MOMENT
-------------
                                X             Y             Z
Electronic contribution:     -0.00000       0.00000       2.37687
Nuclear contribution   :      0.00000       0.00000      -1.81847
                        -----------------------------------------
Total Dipole Moment    :     -0.00000       0.00000       0.55840
                        -----------------------------------------
Magnitude (a.u.)       :      0.55840
Magnitude (Debye)      :      1.41934

Rotational constants in cm-1:     0.000000     0.355842     0.355842
Rotational constants in MHz :     0.000000 10667.881120 10667.881120

                             ****ORCA TERMINATED NORMALLY****
TOTAL RUN TIME: 0 days 0 hours 0 minutes 59 seconds 780 msec
