                         Program Version 5.0.3 -  RELEASE  -
|  1> ! PBEh-3c def2/J TightSCF DefGrid3
|  2>
|  3> %maxcore 60000
|  4>
|  5> %pal
|  6> nprocs 4
|  7> end
|  8>
|  9> *xyzfile 0 1 B48.xyz
| 10>
| 11>                          ****END OF INPUT****

CARTESIAN COORDINATES (ANGSTROEM)
---------------------------------
  C      0.228241    1.534737   -0.340753
  H     -0.102852    2.566949   -0.240335
  O      1.646165    1.602035   -0.464094
  C     -0.228241    0.731295    0.872979
  H      0.149535    1.220741    1.771836
  H     -1.319889    0.776514    0.929026
  C      0.228241   -0.731295    0.872979
  H     -0.149535   -1.220741    1.771836
  H      1.319889   -0.776514    0.929026
  H      1.963935    0.721987   -0.680486
  H     -0.218466    1.141486   -1.260642
  C     -0.228241   -1.534737   -0.340753
  H      0.218466   -1.141486   -1.260642
  H      0.102852   -2.566949   -0.240335
  O     -1.646165   -1.602035   -0.464094
  H     -1.963935   -0.721987   -0.680486

 Total Charge           Charge          ....    0
 Multiplicity           Mult            ....    1
 Number of Electrons    NEL             ....   50
 Basis Dimension        Dim             ....  110

ORBITAL ENERGIES
----------------

  NO   OCC          E(Eh)            E(eV)
   0   2.0000     -19.490314      -530.3584
   1   2.0000     -19.490309      -530.3583
   2   2.0000     -10.487700      -285.3848
   3   2.0000     -10.487684      -285.3844
   4   2.0000     -10.441545      -284.1289
   5   2.0000     -10.441328      -284.1230
   6   2.0000      -1.128045       -30.6957
   7   2.0000      -1.125656       -30.6307
   8   2.0000      -0.887363       -24.1464
   9   2.0000      -0.805198       -21.9105
  10   2.0000      -0.728161       -19.8143
  11   2.0000      -0.652366       -17.7518
  12   2.0000      -0.593920       -16.1614
  13   2.0000      -0.559817       -15.2334
  14   2.0000      -0.536189       -14.5904
  15   2.0000      -0.521288       -14.1850
  16   2.0000      -0.489405       -13.3174
  17   2.0000      -0.477139       -12.9836
  18   2.0000      -0.442061       -12.0291
  19   2.0000      -0.420186       -11.4338
  20   2.0000      -0.403033       -10.9671
  21   2.0000      -0.390419       -10.6238
  22   2.0000      -0.372501       -10.1363
  23   2.0000      -0.337577        -9.1859
  24   2.0000      -0.322621        -8.7790
  25   0.0000       0.092651         2.5212
  26   0.0000       0.115673         3.1476
  27   0.0000       0.164833         4.4853
  28   0.0000       0.177136         4.8201
  29   0.0000       0.180408         4.9091

MULLIKEN ATOMIC CHARGES
-----------------------
   0 C :   -0.164128
   1 H :    0.226166
   2 O :   -0.622691
   3 C :   -0.469618
   4 H :    0.243376
   5 H :    0.202547
   6 C :   -0.469618
   7 H :    0.243376
   8 H :    0.202547
   9 H :    0.414415
  10 H :    0.169933
  11 C :   -0.164129
  12 H :    0.169933
  13 H :    0.226166
  14 O :   -0.622691
  15 H :    0.414415
Sum of atomic charges:   -0.0000000

LOEWDIN ATOMIC CHARGES
----------------------
   0 C :   -0.097131
   1 H :    0.124602
   2 O :   -0.410847
   3 C :   -0.272527
   4 H :    0.137440
   5 H :    0.122282
   6 C :   -0.272527
   7 H :    0.137440
   8 H :    0.122282
   9 H :    0.304932
  10 H :    0.091249
  11 C :   -0.097131
  12 H :    0.091249
  13 H :    0.124602
  14 O :   -0.410847
  15 H :    0.304932

  Mayer bond orders larger than 0.100000
B(  0-C ,  1-H ) :   0.9165 B(  0-C ,  2-O ) :   1.0218 B(  0-C ,  3-C ) :   0.9573
B(  0-C , 10-H ) :   0.9121 B(  2-O ,  9-H ) :   0.7887 B(  3-C ,  4-H ) :   0.9138
B(  3-C ,  5-H ) :   0.9074 B(  3-C ,  6-C ) :   0.9797 B(  6-C ,  7-H ) :   0.9138
B(  6-C ,  8-H ) :   0.9074 B(  6-C , 11-C ) :   0.9573 B( 11-C , 12-H ) :   0.9121
B( 11-C , 13-H ) :   0.9165 B( 11-C , 14-O ) :   1.0218 B( 14-O , 15-H ) :   0.7887

Dispersion correction           -0.006981823
FINAL SINGLE POINT ENERGY      -308.206115984403

DIPOLE MOMENT
-------------
                                X             Y             Z
Electronic contribution:      0.00000       0.00000      -1.09087
Nuclear contribution   :      0.00000      -0.00000       1.06714
                        -----------------------------------------
Total Dipole Moment    :      0.00000       0.00000      -0.02373
                        -----------------------------------------
Magnitude (a.u.)       :      0.02373
Magnitude (Debye)      :      0.06031

Rotational constants in cm-1:     0.207972     0.061764     0.061660
Rotational constants in MHz :  6234.839876  1851.624812  1848.519905

                             ****ORCA TERMINATED NORMALLY****
TOTAL RUN TIME: 0 days 0 hours 1 minutes 38 seconds 652 msec
