                         Program Version 5.0.3 -  RELEASE  -
|  1> ! PBEh-3c def2/J TightSCF DefGrid3
|  2>
|  3> %maxcore 60000
|  4>
|  5> %pal
|  6> nprocs 4
|  7> end
|  8>
|  9> *xyzfile 0 1 c2h6Ne.xyz
| 10>
| 11>                          ****END OF INPUT****

CARTESIAN COORDINATES (ANGSTROEM)
---------------------------------
  C      0.763258    0.000000   -0.399823
  C     -0.763258    0.000000   -0.399823
  H      1.157843    1.016928   -0.399767
  H      1.157843   -0.508512    0.480836
  H      1.157843   -0.508416   -1.280536
  H     -1.157843   -1.016928   -0.399767
  H     -1.157843    0.508512    0.480836
  H     -1.157843    0.508416   -1.280536
  Ne     0.000000   -0.000000    3.198582

 Total Charge           Charge          ....    0
 Multiplicity           Mult            ....    1
 Number of Electrons    NEL             ....   28
 Basis Dimension        Dim             ....   57

ORBITAL ENERGIES
----------------

  NO   OCC          E(Eh)            E(eV)
   0   2.0000     -31.404871      -854.5700
   1   2.0000     -10.421522      -283.5840
   2   2.0000     -10.421314      -283.5784
   3   2.0000      -1.571457       -42.7615
   4   2.0000      -0.838193       -22.8084
   5   2.0000      -0.689019       -18.7492
   6   2.0000      -0.631761       -17.1911
   7   2.0000      -0.631636       -17.1877
   8   2.0000      -0.631511       -17.1843
   9   2.0000      -0.490882       -13.3576
  10   2.0000      -0.490687       -13.3523
  11   2.0000      -0.417660       -11.3651
  12   2.0000      -0.391582       -10.6555
  13   2.0000      -0.391557       -10.6548
  14   0.0000       0.155277         4.2253
  15   0.0000       0.201452         5.4818
  16   0.0000       0.219346         5.9687
  17   0.0000       0.219408         5.9704
  18   0.0000       0.225139         6.1263

MULLIKEN ATOMIC CHARGES
-----------------------
   0 C :   -0.638121
   1 C :   -0.638121
   2 H :    0.212513
   3 H :    0.211519
   4 H :    0.212409
   5 H :    0.212513
   6 H :    0.211519
   7 H :    0.212409
   8 Ne:    0.003360
Sum of atomic charges:   -0.0000000

LOEWDIN ATOMIC CHARGES
----------------------
   0 C :   -0.371607
   1 C :   -0.371607
   2 H :    0.123671
   3 H :    0.123163
   4 H :    0.123587
   5 H :    0.123671
   6 H :    0.123163
   7 H :    0.123587
   8 Ne:    0.002370

  Mayer bond orders larger than 0.100000
B(  0-C ,  1-C ) :   0.9963 B(  0-C ,  2-H ) :   0.9316 B(  0-C ,  3-H ) :   0.9310
B(  0-C ,  4-H ) :   0.9313 B(  1-C ,  5-H ) :   0.9316 B(  1-C ,  6-H ) :   0.9310
B(  1-C ,  7-H ) :   0.9313

Dispersion correction           -0.002118711
FINAL SINGLE POINT ENERGY      -208.347425358690

DIPOLE MOMENT
-------------
                                X             Y             Z
Electronic contribution:      0.00000      -0.00000       8.47401
Nuclear contribution   :     -0.00000       0.00000      -8.46086
                        -----------------------------------------
Total Dipole Moment    :      0.00000      -0.00000       0.01315
                        -----------------------------------------
Magnitude (a.u.)       :      0.01315
Magnitude (Debye)      :      0.03343

Rotational constants in cm-1:     0.668172     0.103666     0.092834
Rotational constants in MHz : 20031.279474  3107.837173  2783.086766

                             ****ORCA TERMINATED NORMALLY****
TOTAL RUN TIME: 0 days 0 hours 0 minutes 52 seconds 472 msec
