                         Program Version 5.0.3 -  RELEASE  -
|  1> ! PBEh-3c def2/J TightSCF DefGrid3
|  2>
|  3> %maxcore 60000
|  4>
|  5> %pal
|  6> nprocs 4
|  7> end
|  8>
|  9> *xyzfile 0 1 TS8.xyz
| 10>
| 11>                          ****END OF INPUT****

CARTESIAN COORDINATES (ANGSTROEM)
---------------------------------
  H     -1.575817   -1.697377   -1.328818
  C     -0.776420   -1.313181   -0.702911
  H      1.970279    0.357371    0.000000
  C      0.326265   -0.583595   -1.157427
  C     -0.776420   -1.313181    0.702911
  H      1.909937   -1.416401    0.000000
  C      1.294203   -0.500108    0.000000
  C     -0.364294    1.505867   -0.693970
  H      0.639664   -0.530494   -2.195445
  C     -0.364294    1.505867    0.693970
  H     -1.575817   -1.697377    1.328818
  C      0.326265   -0.583595    1.157427
  H      0.639664   -0.530494    2.195445
  H      0.460238    1.954127    1.241173
  H     -1.296845    1.444222   -1.243940
  H      0.460238    1.954127   -1.241173
  H     -1.296845    1.444222    1.243940

 Total Charge           Charge          ....    0
 Multiplicity           Mult            ....    1
 Number of Electrons    NEL             ....   52
 Basis Dimension        Dim             ....  125

ORBITAL ENERGIES
----------------

  NO   OCC          E(Eh)            E(eV)
   0   2.0000     -10.453931      -284.4659
   1   2.0000     -10.453873      -284.4644
   2   2.0000     -10.441431      -284.1258
   3   2.0000     -10.435092      -283.9533
   4   2.0000     -10.434560      -283.9388
   5   2.0000     -10.433598      -283.9126
   6   2.0000     -10.432957      -283.8952
   7   2.0000      -0.956345       -26.0235
   8   2.0000      -0.827321       -22.5126
   9   2.0000      -0.784474       -21.3466
  10   2.0000      -0.781252       -21.2589
  11   2.0000      -0.643037       -17.4979
  12   2.0000      -0.621880       -16.9222
  13   2.0000      -0.588140       -16.0041
  14   2.0000      -0.575869       -15.6702
  15   2.0000      -0.516254       -14.0480
  16   2.0000      -0.491918       -13.3858
  17   2.0000      -0.456913       -12.4332
  18   2.0000      -0.438224       -11.9247
  19   2.0000      -0.424815       -11.5598
  20   2.0000      -0.420415       -11.4401
  21   2.0000      -0.407418       -11.0864
  22   2.0000      -0.389186       -10.5903
  23   2.0000      -0.356785        -9.7086
  24   2.0000      -0.260978        -7.1016
  25   2.0000      -0.259713        -7.0671
  26   0.0000       0.018041         0.4909
  27   0.0000       0.042259         1.1499
  28   0.0000       0.145545         3.9605
  29   0.0000       0.154445         4.2027
  30   0.0000       0.180067         4.8999

MULLIKEN ATOMIC CHARGES
-----------------------
   0 H :    0.212439
   1 C :   -0.172446
   2 H :    0.226685
   3 C :   -0.272717
   4 C :   -0.172447
   5 H :    0.255649
   6 C :   -0.436181
   7 C :   -0.460013
   8 H :    0.218595
   9 C :   -0.460012
  10 H :    0.212439
  11 C :   -0.272717
  12 H :    0.218595
  13 H :    0.223406
  14 H :    0.227660
  15 H :    0.223406
  16 H :    0.227660
Sum of atomic charges:   -0.0000000

LOEWDIN ATOMIC CHARGES
----------------------
   0 H :    0.130530
   1 C :   -0.155253
   2 H :    0.130072
   3 C :   -0.127280
   4 C :   -0.155253
   5 H :    0.153511
   6 C :   -0.225244
   7 C :   -0.272151
   8 H :    0.131777
   9 C :   -0.272151
  10 H :    0.130530
  11 C :   -0.127280
  12 H :    0.131777
  13 H :    0.130770
  14 H :    0.132437
  15 H :    0.130770
  16 H :    0.132437

  Mayer bond orders larger than 0.100000
B(  0-H ,  1-C ) :   0.9241 B(  1-C ,  3-C ) :   1.4411 B(  1-C ,  4-C ) :   1.3882
B(  2-H ,  6-C ) :   0.9149 B(  3-C ,  6-C ) :   0.9966 B(  3-C ,  7-C ) :   0.3507
B(  3-C ,  8-H ) :   0.9237 B(  4-C , 10-H ) :   0.9241 B(  4-C , 11-C ) :   1.4411
B(  5-H ,  6-C ) :   0.8758 B(  6-C , 11-C ) :   0.9966 B(  7-C ,  9-C ) :   1.5202
B(  7-C , 14-H ) :   0.9247 B(  7-C , 15-H ) :   0.9202 B(  9-C , 11-C ) :   0.3507
B(  9-C , 13-H ) :   0.9202 B(  9-C , 16-H ) :   0.9247 B( 11-C , 12-H ) :   0.9237

Dispersion correction           -0.009819823
FINAL SINGLE POINT ENERGY      -272.048569384335

DIPOLE MOMENT
-------------
                                X             Y             Z
Electronic contribution:     -0.53231      -2.66818      -0.00000
Nuclear contribution   :      0.68094       2.60809      -0.00000
                        -----------------------------------------
Total Dipole Moment    :      0.14863      -0.06008      -0.00000
                        -----------------------------------------
Magnitude (a.u.)       :      0.16032
Magnitude (Debye)      :      0.40750

Rotational constants in cm-1:     0.127181     0.092199     0.084065
Rotational constants in MHz :  3812.786025  2764.067815  2520.198777

                             ****ORCA TERMINATED NORMALLY****
TOTAL RUN TIME: 0 days 0 hours 1 minutes 46 seconds 542 msec
