                         Program Version 5.0.3 -  RELEASE  -
|  1> ! PBEh-3c def2/J TightSCF DefGrid3
|  2>
|  3> %maxcore 60000
|  4>
|  5> %pal
|  6> nprocs 4
|  7> end
|  8>
|  9> *xyzfile 0 1 methylpyrrole.xyz
| 10>
| 11>                          ****END OF INPUT****

CARTESIAN COORDINATES (ANGSTROEM)
---------------------------------
  C     -0.619762   -1.719275    0.000194
  C      0.761349   -1.709750    0.000477
  C      1.176597   -0.345828   -0.000059
  C      0.041887    0.450199   -0.000674
  N     -1.041253   -0.405820   -0.000638
  H     -2.009117   -0.109060   -0.001021
  H     -1.330358   -2.538386    0.000388
  H      1.401384   -2.586129    0.000991
  H      2.198306    0.022229    0.000262
  C     -0.119576    1.934775   -0.000172
  H     -0.662320    2.296552   -0.888979
  H     -0.663627    2.295351    0.888320
  H      0.866492    2.415143    0.000912

 Total Charge           Charge          ....    0
 Multiplicity           Mult            ....    1
 Number of Electrons    NEL             ....   44
 Basis Dimension        Dim             ....  104

ORBITAL ENERGIES
----------------

  NO   OCC          E(Eh)            E(eV)
   0   2.0000     -14.676162      -399.3587
   1   2.0000     -10.465976      -284.7937
   2   2.0000     -10.456537      -284.5368
   3   2.0000     -10.442272      -284.1487
   4   2.0000     -10.418846      -283.5112
   5   2.0000     -10.416816      -283.4560
   6   2.0000      -1.069443       -29.1010
   7   2.0000      -0.852625       -23.2011
   8   2.0000      -0.844814       -22.9886
   9   2.0000      -0.747894       -20.3512
  10   2.0000      -0.650282       -17.6951
  11   2.0000      -0.629310       -17.1244
  12   2.0000      -0.572919       -15.5899
  13   2.0000      -0.488404       -13.2902
  14   2.0000      -0.486997       -13.2519
  15   2.0000      -0.472694       -12.8627
  16   2.0000      -0.445440       -12.1210
  17   2.0000      -0.433245       -11.7892
  18   2.0000      -0.431191       -11.7333
  19   2.0000      -0.410283       -11.1644
  20   2.0000      -0.278601        -7.5811
  21   2.0000      -0.236569        -6.4374
  22   0.0000       0.070059         1.9064
  23   0.0000       0.120449         3.2776
  24   0.0000       0.125120         3.4047
  25   0.0000       0.170252         4.6328
  26   0.0000       0.192242         5.2312

MULLIKEN ATOMIC CHARGES
-----------------------
   0 C :   -0.042450
   1 C :   -0.288751
   2 C :   -0.342867
   3 C :    0.333389
   4 N :   -0.621246
   5 H :    0.355899
   6 H :    0.225274
   7 H :    0.207294
   8 H :    0.204146
   9 C :   -0.720737
  10 H :    0.224525
  11 H :    0.224512
  12 H :    0.241011
Sum of atomic charges:    0.0000000

LOEWDIN ATOMIC CHARGES
----------------------
   0 C :   -0.124334
   1 C :   -0.199701
   2 C :   -0.209358
   3 C :   -0.031516
   4 N :   -0.143488
   5 H :    0.257162
   6 H :    0.130631
   7 H :    0.133252
   8 H :    0.131907
   9 C :   -0.358451
  10 H :    0.133685
  11 H :    0.133697
  12 H :    0.146511

  Mayer bond orders larger than 0.100000
B(  0-C ,  1-C ) :   1.5560 B(  0-C ,  4-N ) :   1.1523 B(  0-C ,  6-H ) :   0.9150
B(  1-C ,  2-C ) :   1.3654 B(  1-C ,  7-H ) :   0.9282 B(  2-C ,  3-C ) :   1.5081
B(  2-C ,  8-H ) :   0.9299 B(  3-C ,  4-N ) :   1.1218 B(  3-C ,  9-C ) :   0.9622
B(  4-N ,  5-H ) :   0.8302 B(  9-C , 10-H ) :   0.9161 B(  9-C , 11-H ) :   0.9161
B(  9-C , 12-H ) :   0.9286

Dispersion correction           -0.005838628
FINAL SINGLE POINT ENERGY      -248.938529443642

DIPOLE MOMENT
-------------
                                X             Y             Z
Electronic contribution:     -0.53681      -2.97920      -0.00156
Nuclear contribution   :     -0.20189       3.34902       0.00170
                        -----------------------------------------
Total Dipole Moment    :     -0.73869       0.36982       0.00013
                        -----------------------------------------
Magnitude (a.u.)       :      0.82610
Magnitude (Debye)      :      2.09977

Rotational constants in cm-1:     0.284717     0.113750     0.082545
Rotational constants in MHz :  8535.601764  3410.141668  2474.641541

                             ****ORCA TERMINATED NORMALLY****
TOTAL RUN TIME: 0 days 0 hours 1 minutes 32 seconds 367 msec
