                         Program Version 5.0.3 -  RELEASE  -
|  1> ! PBEh-3c def2/J TightSCF DefGrid3
|  2>
|  3> %maxcore 60000
|  4>
|  5> %pal
|  6> nprocs 4
|  7> end
|  8>
|  9> *xyzfile 0 1 128.xyz
| 10>
| 11>                          ****END OF INPUT****

CARTESIAN COORDINATES (ANGSTROEM)
---------------------------------
  C     -0.423094   -0.555924    0.000000
  C      0.320219    0.749585    0.000000
  O     -0.148012    1.832151    0.000000
  Cl     2.144750    0.539431    0.000000
  H     -1.066631   -0.576135    0.880432
  H      0.239398   -1.412974    0.000000
  H     -1.066631   -0.576135   -0.880432

 Total Charge           Charge          ....    0
 Multiplicity           Mult            ....    1
 Number of Electrons    NEL             ....   40
 Basis Dimension        Dim             ....   69

ORBITAL ENERGIES
----------------

  NO   OCC          E(Eh)            E(eV)
   0   2.0000    -102.299911     -2783.7221
   1   2.0000     -19.538367      -531.6660
   2   2.0000     -10.612863      -288.7907
   3   2.0000     -10.476719      -285.0860
   4   2.0000      -9.767525      -265.7879
   5   2.0000      -7.454442      -202.8457
   6   2.0000      -7.447615      -202.6599
   7   2.0000      -7.446605      -202.6324
   8   2.0000      -1.218082       -33.1457
   9   2.0000      -0.935074       -25.4447
  10   2.0000      -0.857355       -23.3298
  11   2.0000      -0.637086       -17.3360
  12   2.0000      -0.561749       -15.2860
  13   2.0000      -0.546989       -14.8843
  14   2.0000      -0.544034       -14.8039
  15   2.0000      -0.484201       -13.1758
  16   2.0000      -0.460784       -12.5386
  17   2.0000      -0.372544       -10.1374
  18   2.0000      -0.369452       -10.0533
  19   2.0000      -0.353570        -9.6211
  20   0.0000      -0.009302        -0.2531
  21   0.0000       0.054972         1.4959
  22   0.0000       0.148857         4.0506
  23   0.0000       0.189377         5.1532
  24   0.0000       0.197326         5.3695

MULLIKEN ATOMIC CHARGES
-----------------------
   0 C :   -0.711936
   1 C :    0.320406
   2 O :   -0.251590
   3 Cl:   -0.168492
   4 H :    0.273049
   5 H :    0.265514
   6 H :    0.273049
Sum of atomic charges:   -0.0000000

LOEWDIN ATOMIC CHARGES
----------------------
   0 C :   -0.395361
   1 C :    0.048088
   2 O :   -0.120814
   3 Cl:   -0.022480
   4 H :    0.167929
   5 H :    0.154708
   6 H :    0.167929

  Mayer bond orders larger than 0.100000
B(  0-C ,  1-C ) :   0.9019 B(  0-C ,  4-H ) :   0.8956 B(  0-C ,  5-H ) :   0.9049
B(  0-C ,  6-H ) :   0.8956 B(  1-C ,  2-O ) :   2.1804 B(  1-C ,  3-Cl) :   0.9577
B(  2-O ,  3-Cl) :   0.1184

Dispersion correction           -0.002457654
FINAL SINGLE POINT ENERGY      -612.619803884433

DIPOLE MOMENT
-------------
                                X             Y             Z
Electronic contribution:      5.39437       3.02936       0.00000
Nuclear contribution   :     -5.99374      -4.01628       0.00000
                        -----------------------------------------
Total Dipole Moment    :     -0.59937      -0.98692       0.00000
                        -----------------------------------------
Magnitude (a.u.)       :      1.15467
Magnitude (Debye)      :      2.93493

Rotational constants in cm-1:     0.342927     0.157010     0.109894
Rotational constants in MHz : 10280.683805  4707.055999  3294.540678

                             ****ORCA TERMINATED NORMALLY****
TOTAL RUN TIME: 0 days 0 hours 0 minutes 33 seconds 352 msec
