                         Program Version 5.0.3 -  RELEASE  -
|  1> ! PBEh-3c def2/J TightSCF DefGrid3
|  2>
|  3> %maxcore 60000
|  4>
|  5> %pal
|  6> nprocs 4
|  7> end
|  8>
|  9> *xyzfile -1 1 12A.xyz
| 10>
| 11>                          ****END OF INPUT****

CARTESIAN COORDINATES (ANGSTROEM)
---------------------------------
  N      1.339030    1.021340    0.060054
  N      0.136424    1.079647    0.069926
  N      2.539119    0.974285    0.052213

 Total Charge           Charge          ....   -1
 Multiplicity           Mult            ....    1
 Number of Electrons    NEL             ....   22
 Basis Dimension        Dim             ....   45

ORBITAL ENERGIES
----------------

  NO   OCC          E(Eh)            E(eV)
   0   2.0000     -14.522521      -395.1779
   1   2.0000     -14.371220      -391.0608
   2   2.0000     -14.370677      -391.0460
   3   2.0000      -0.920942       -25.0601
   4   2.0000      -0.736014       -20.0280
   5   2.0000      -0.262939        -7.1549
   6   2.0000      -0.262917        -7.1543
   7   2.0000      -0.256196        -6.9715
   8   2.0000      -0.190530        -5.1846
   9   2.0000      -0.002520        -0.0686
  10   2.0000      -0.002518        -0.0685
  11   0.0000       0.343399         9.3444
  12   0.0000       0.343425         9.3451
  13   0.0000       0.572164        15.5694
  14   0.0000       0.731964        19.9177
  15   0.0000       0.878798        23.9133

MULLIKEN ATOMIC CHARGES
-----------------------
   0 N :    0.112764
   1 N :   -0.557964
   2 N :   -0.554800
Sum of atomic charges:   -1.0000000

LOEWDIN ATOMIC CHARGES
----------------------
   0 N :    0.080520
   1 N :   -0.542268
   2 N :   -0.538252

  Mayer bond orders larger than 0.100000
B(  0-N ,  1-N ) :   2.1833 B(  0-N ,  2-N ) :   2.1880 B(  1-N ,  2-N ) :   0.6289

Dispersion correction           -0.000635377
FINAL SINGLE POINT ENERGY      -163.843068846289

DIPOLE MOMENT
-------------
                                X             Y             Z
Electronic contribution:      0.00759      -0.00552      -0.00099
Nuclear contribution   :      0.00000       0.00000      -0.00000
                        -----------------------------------------
Total Dipole Moment    :      0.00759      -0.00552      -0.00099
                        -----------------------------------------
Magnitude (a.u.)       :      0.00943
Magnitude (Debye)      :      0.02398

Rotational constants in cm-1: 56454.079582     0.416127     0.416124
Rotational constants in MHz : 1692450728.216239 12475.180873 12475.088918

                             ****ORCA TERMINATED NORMALLY****
TOTAL RUN TIME: 0 days 0 hours 0 minutes 55 seconds 316 msec
