                         Program Version 5.0.3 -  RELEASE  -
|  1> ! PBEh-3c def2/J TightSCF DefGrid3
|  2>
|  3> %maxcore 60000
|  4>
|  5> %pal
|  6> nprocs 4
|  7> end
|  8>
|  9> *xyzfile 0 1 AM7.xyz
| 10>
| 11>                          ****END OF INPUT****

CARTESIAN COORDINATES (ANGSTROEM)
---------------------------------
  C      0.000000    0.000000    0.516829
  C      0.000000    1.275258   -0.323287
  C      0.000000   -1.275258   -0.323287
  C      0.000000    2.551380    0.515349
  C      0.000000   -2.551380    0.515349
  C      0.000000    3.818785   -0.335356
  C      0.000000   -3.818785   -0.335356
  H     -0.878865    0.000000    1.175865
  H      0.878865    0.000000    1.175865
  H     -0.878791    1.275653   -0.982526
  H      0.878791    1.275653   -0.982526
  H     -0.878791   -1.275653   -0.982526
  H      0.878791   -1.275653   -0.982526
  H     -0.878025    2.549277    1.173421
  H      0.878025    2.549277    1.173421
  H     -0.878025   -2.549277    1.173421
  H      0.878025   -2.549277    1.173421
  H     -0.884051    3.855216   -0.979550
  H      0.884051    3.855216   -0.979550
  H      0.000000    4.719020    0.286323
  H     -0.884051   -3.855216   -0.979550
  H      0.884051   -3.855216   -0.979550
  H      0.000000   -4.719020    0.286323

 Total Charge           Charge          ....    0
 Multiplicity           Mult            ....    1
 Number of Electrons    NEL             ....   58
 Basis Dimension        Dim             ....  137

ORBITAL ENERGIES
----------------

  NO   OCC          E(Eh)            E(eV)
   0   2.0000     -10.428531      -283.7747
   1   2.0000     -10.428522      -283.7745
   2   2.0000     -10.426906      -283.7305
   3   2.0000     -10.426713      -283.7253
   4   2.0000     -10.426572      -283.7214
   5   2.0000     -10.420685      -283.5612
   6   2.0000     -10.420679      -283.5611
   7   2.0000      -0.899204       -24.4686
   8   2.0000      -0.866954       -23.5910
   9   2.0000      -0.815571       -22.1928
  10   2.0000      -0.750637       -20.4259
  11   2.0000      -0.683235       -18.5918
  12   2.0000      -0.643520       -17.5111
  13   2.0000      -0.642529       -17.4841
  14   2.0000      -0.541619       -14.7382
  15   2.0000      -0.513029       -13.9602
  16   2.0000      -0.488855       -13.3024
  17   2.0000      -0.481224       -13.0948
  18   2.0000      -0.470991       -12.8163
  19   2.0000      -0.453107       -12.3297
  20   2.0000      -0.425231       -11.5711
  21   2.0000      -0.420650       -11.4465
  22   2.0000      -0.407915       -11.0999
  23   2.0000      -0.388155       -10.5622
  24   2.0000      -0.382635       -10.4120
  25   2.0000      -0.369020       -10.0415
  26   2.0000      -0.368488       -10.0271
  27   2.0000      -0.364474        -9.9178
  28   2.0000      -0.349594        -9.5129
  29   0.0000       0.132719         3.6115
  30   0.0000       0.145521         3.9598
  31   0.0000       0.162251         4.4151
  32   0.0000       0.174736         4.7548
  33   0.0000       0.183642         4.9971

MULLIKEN ATOMIC CHARGES
-----------------------
   0 C :   -0.398829
   1 C :   -0.394036
   2 C :   -0.394036
   3 C :   -0.408484
   4 C :   -0.408484
   5 C :   -0.637228
   6 C :   -0.637228
   7 H :    0.199541
   8 H :    0.199541
   9 H :    0.199213
  10 H :    0.199213
  11 H :    0.199213
  12 H :    0.199213
  13 H :    0.203718
  14 H :    0.203718
  15 H :    0.203718
  16 H :    0.203718
  17 H :    0.208162
  18 H :    0.208162
  19 H :    0.217436
  20 H :    0.208162
  21 H :    0.208162
  22 H :    0.217436
Sum of atomic charges:    0.0000000

LOEWDIN ATOMIC CHARGES
----------------------
   0 C :   -0.238230
   1 C :   -0.239208
   2 C :   -0.239208
   3 C :   -0.245468
   4 C :   -0.245468
   5 C :   -0.361783
   6 C :   -0.361783
   7 H :    0.118697
   8 H :    0.118697
   9 H :    0.118342
  10 H :    0.118342
  11 H :    0.118342
  12 H :    0.118342
  13 H :    0.119057
  14 H :    0.119057
  15 H :    0.119057
  16 H :    0.119057
  17 H :    0.123161
  18 H :    0.123161
  19 H :    0.125757
  20 H :    0.123161
  21 H :    0.123161
  22 H :    0.125757

  Mayer bond orders larger than 0.100000
B(  0-C ,  1-C ) :   0.9942 B(  0-C ,  2-C ) :   0.9942 B(  0-C ,  7-H ) :   0.9184
B(  0-C ,  8-H ) :   0.9184 B(  1-C ,  3-C ) :   0.9897 B(  1-C ,  9-H ) :   0.9186
B(  1-C , 10-H ) :   0.9186 B(  2-C ,  4-C ) :   0.9897 B(  2-C , 11-H ) :   0.9186
B(  2-C , 12-H ) :   0.9186 B(  3-C ,  5-C ) :   0.9970 B(  3-C , 13-H ) :   0.9207
B(  3-C , 14-H ) :   0.9207 B(  4-C ,  6-C ) :   0.9970 B(  4-C , 15-H ) :   0.9207
B(  4-C , 16-H ) :   0.9207 B(  5-C , 17-H ) :   0.9296 B(  5-C , 18-H ) :   0.9296
B(  5-C , 19-H ) :   0.9323 B(  6-C , 20-H ) :   0.9296 B(  6-C , 21-H ) :   0.9296
B(  6-C , 22-H ) :   0.9323

Dispersion correction           -0.010207647
FINAL SINGLE POINT ENERGY      -275.789113630113

DIPOLE MOMENT
-------------
                                X             Y             Z
Electronic contribution:      0.00000       0.00000       0.61612
Nuclear contribution   :      0.00000       0.00000      -0.59551
                        -----------------------------------------
Total Dipole Moment    :      0.00000       0.00000       0.02061
                        -----------------------------------------
Magnitude (a.u.)       :      0.02061
Magnitude (Debye)      :      0.05238

Rotational constants in cm-1:     0.402019     0.024281     0.023599
Rotational constants in MHz : 12052.231336   727.928892   707.475763

                             ****ORCA TERMINATED NORMALLY****
TOTAL RUN TIME: 0 days 0 hours 1 minutes 23 seconds 510 msec
