                         Program Version 5.0.3 -  RELEASE  -
|  1> ! PBEh-3c def2/J TightSCF DefGrid3
|  2>
|  3> %maxcore 60000
|  4>
|  5> %pal
|  6> nprocs 4
|  7> end
|  8>
|  9> *xyzfile 0 1 chdiene.xyz
| 10>
| 11>                          ****END OF INPUT****

CARTESIAN COORDINATES (ANGSTROEM)
---------------------------------
  C     -1.413529    0.064733    0.234775
  C     -0.720395    0.112174    1.374950
  C      0.720395   -0.112174    1.374950
  C      1.413529   -0.064733    0.234775
  C      0.720903    0.247633   -1.058141
  C     -0.720903   -0.247633   -1.058141
  H     -2.491087    0.191819    0.236248
  H     -1.221750    0.292589    2.319814
  H      1.221750   -0.292589    2.319814
  H      2.491087   -0.191819    0.236248
  H      1.265838   -0.178348   -1.904132
  H      0.737373    1.338671   -1.203513
  H     -1.265838    0.178348   -1.904132
  H     -0.737373   -1.338671   -1.203513

 Total Charge           Charge          ....    0
 Multiplicity           Mult            ....    1
 Number of Electrons    NEL             ....   44
 Basis Dimension        Dim             ....  106

ORBITAL ENERGIES
----------------

  NO   OCC          E(Eh)            E(eV)
   0   2.0000     -10.440210      -284.0925
   1   2.0000     -10.440188      -284.0920
   2   2.0000     -10.438418      -284.0438
   3   2.0000     -10.438181      -284.0373
   4   2.0000     -10.436449      -283.9902
   5   2.0000     -10.436134      -283.9816
   6   2.0000      -0.936899       -25.4943
   7   2.0000      -0.829697       -22.5772
   8   2.0000      -0.829087       -22.5606
   9   2.0000      -0.694034       -18.8856
  10   2.0000      -0.660343       -17.9688
  11   2.0000      -0.572573       -15.5805
  12   2.0000      -0.550030       -14.9671
  13   2.0000      -0.500425       -13.6172
  14   2.0000      -0.481703       -13.1078
  15   2.0000      -0.472306       -12.8521
  16   2.0000      -0.446725       -12.1560
  17   2.0000      -0.420920       -11.4538
  18   2.0000      -0.383379       -10.4323
  19   2.0000      -0.365961        -9.9583
  20   2.0000      -0.353011        -9.6059
  21   2.0000      -0.249911        -6.8004
  22   0.0000       0.002756         0.0750
  23   0.0000       0.114961         3.1283
  24   0.0000       0.148278         4.0348
  25   0.0000       0.187071         5.0905
  26   0.0000       0.193278         5.2594

MULLIKEN ATOMIC CHARGES
-----------------------
   0 C :   -0.219261
   1 C :   -0.205965
   2 C :   -0.205965
   3 C :   -0.219261
   4 C :   -0.464713
   5 C :   -0.464713
   6 H :    0.218512
   7 H :    0.215419
   8 H :    0.215419
   9 H :    0.218512
  10 H :    0.225559
  11 H :    0.230448
  12 H :    0.225559
  13 H :    0.230448
Sum of atomic charges:    0.0000000

LOEWDIN ATOMIC CHARGES
----------------------
   0 C :   -0.138406
   1 C :   -0.156691
   2 C :   -0.156691
   3 C :   -0.138406
   4 C :   -0.236509
   5 C :   -0.236509
   6 H :    0.131611
   7 H :    0.133099
   8 H :    0.133099
   9 H :    0.131611
  10 H :    0.131749
  11 H :    0.135146
  12 H :    0.131749
  13 H :    0.135146

  Mayer bond orders larger than 0.100000
B(  0-C ,  1-C ) :   1.8360 B(  0-C ,  5-C ) :   0.9926 B(  0-C ,  6-H ) :   0.9236
B(  1-C ,  2-C ) :   1.0971 B(  1-C ,  7-H ) :   0.9192 B(  2-C ,  3-C ) :   1.8360
B(  2-C ,  8-H ) :   0.9192 B(  3-C ,  4-C ) :   0.9926 B(  3-C ,  9-H ) :   0.9236
B(  4-C ,  5-C ) :   0.9853 B(  4-C , 10-H ) :   0.9198 B(  4-C , 11-H ) :   0.9013
B(  5-C , 12-H ) :   0.9198 B(  5-C , 13-H ) :   0.9013

Dispersion correction           -0.006828355
FINAL SINGLE POINT ENERGY      -232.897983738174

DIPOLE MOMENT
-------------
                                X             Y             Z
Electronic contribution:     -0.00000       0.00000       1.99032
Nuclear contribution   :     -0.00000       0.00000      -2.17189
                        -----------------------------------------
Total Dipole Moment    :     -0.00000       0.00000      -0.18157
                        -----------------------------------------
Magnitude (a.u.)       :      0.18157
Magnitude (Debye)      :      0.46151

Rotational constants in cm-1:     0.170980     0.170648     0.090739
Rotational constants in MHz :  5125.858640  5115.898042  2720.298826

                             ****ORCA TERMINATED NORMALLY****
TOTAL RUN TIME: 0 days 0 hours 0 minutes 53 seconds 190 msec
