                         Program Version 5.0.3 -  RELEASE  -
|  1> ! PBEh-3c def2/J TightSCF DefGrid3
|  2>
|  3> %maxcore 60000
|  4>
|  5> %pal
|  6> nprocs 4
|  7> end
|  8>
|  9> *xyzfile 0 1 16B.xyz
| 10>
| 11>                          ****END OF INPUT****

CARTESIAN COORDINATES (ANGSTROEM)
---------------------------------
  H     -1.093928    1.613540    0.510306
  O     -1.385188    2.563167    0.558947
  H     -1.494099    2.757559   -0.376179

 Total Charge           Charge          ....    0
 Multiplicity           Mult            ....    1
 Number of Electrons    NEL             ....   10
 Basis Dimension        Dim             ....   19

ORBITAL ENERGIES
----------------

  NO   OCC          E(Eh)            E(eV)
   0   2.0000     -19.479381      -530.0609
   1   2.0000      -1.098338       -29.8873
   2   2.0000      -0.566939       -15.4272
   3   2.0000      -0.440878       -11.9969
   4   2.0000      -0.356345        -9.6966
   5   0.0000       0.124193         3.3795
   6   0.0000       0.201439         5.4814
   7   0.0000       0.853872        23.2350
   8   0.0000       0.977035        26.5865
   9   0.0000       0.990923        26.9644

MULLIKEN ATOMIC CHARGES
-----------------------
   0 H :    0.399837
   1 O :   -0.806126
   2 H :    0.406289
Sum of atomic charges:   -0.0000000

LOEWDIN ATOMIC CHARGES
----------------------
   0 H :    0.299989
   1 O :   -0.596395
   2 H :    0.296407

  Mayer bond orders larger than 0.100000
B(  0-H ,  1-O ) :   0.8241 B(  1-O ,  2-H ) :   0.8173

Dispersion correction           -0.000209678
FINAL SINGLE POINT ENERGY       -76.256341618141

DIPOLE MOMENT
-------------
                                X             Y             Z
Electronic contribution:     -0.02678       0.10679       0.12016
Nuclear contribution   :      0.15178      -0.62863      -0.81885
                        -----------------------------------------
Total Dipole Moment    :      0.12500      -0.52184      -0.69869
                        -----------------------------------------
Magnitude (a.u.)       :      0.88097
Magnitude (Debye)      :      2.23924

Rotational constants in cm-1:    24.041594    14.805749     9.162887
Rotational constants in MHz : 720748.866072 443865.192077 274696.438395

                             ****ORCA TERMINATED NORMALLY****
TOTAL RUN TIME: 0 days 0 hours 0 minutes 38 seconds 203 msec
