                         Program Version 5.0.3 -  RELEASE  -
|  1> ! PBEh-3c def2/J TightSCF DefGrid3
|  2>
|  3> %maxcore 60000
|  4>
|  5> %pal
|  6> nprocs 4
|  7> end
|  8>
|  9> *xyzfile 0 1 60.xyz
| 10>
| 11>                          ****END OF INPUT****

CARTESIAN COORDINATES (ANGSTROEM)
---------------------------------
  Al     0.000000    0.000000    0.000000
  Cl     1.045540    1.810928    0.000000
  Cl     1.045540   -1.810928    0.000000
  Cl    -2.091079    0.000000    0.000000

 Total Charge           Charge          ....    0
 Multiplicity           Mult            ....    1
 Number of Electrons    NEL             ....   64
 Basis Dimension        Dim             ....   72

ORBITAL ENERGIES
----------------

  NO   OCC          E(Eh)            E(eV)
   0   2.0000    -102.313277     -2784.0858
   1   2.0000    -102.313268     -2784.0856
   2   2.0000    -102.313259     -2784.0853
   3   2.0000     -56.718633     -1543.3925
   4   2.0000      -9.780682      -266.1459
   5   2.0000      -9.780680      -266.1458
   6   2.0000      -9.780672      -266.1456
   7   2.0000      -7.465729      -203.1528
   8   2.0000      -7.465728      -203.1528
   9   2.0000      -7.465712      -203.1524
  10   2.0000      -7.461696      -203.0431
  11   2.0000      -7.461682      -203.0427
  12   2.0000      -7.461681      -203.0427
  13   2.0000      -7.461150      -203.0282
  14   2.0000      -7.461145      -203.0281
  15   2.0000      -7.461133      -203.0278
  16   2.0000      -4.449656      -121.0813
  17   2.0000      -2.942807       -80.0778
  18   2.0000      -2.936983       -79.9194
  19   2.0000      -2.936983       -79.9194
  20   2.0000      -0.930183       -25.3116
  21   2.0000      -0.913500       -24.8576
  22   2.0000      -0.913497       -24.8575
  23   2.0000      -0.521396       -14.1879
  24   2.0000      -0.456423       -12.4199
  25   2.0000      -0.456422       -12.4199
  26   2.0000      -0.421354       -11.4656
  27   2.0000      -0.404239       -10.9999
  28   2.0000      -0.404239       -10.9999
  29   2.0000      -0.397233       -10.8093
  30   2.0000      -0.397232       -10.8092
  31   2.0000      -0.380461       -10.3529
  32   0.0000      -0.029909        -0.8139
  33   0.0000      -0.025547        -0.6952
  34   0.0000       0.096084         2.6146
  35   0.0000       0.096084         2.6146
  36   0.0000       0.107782         2.9329

MULLIKEN ATOMIC CHARGES
-----------------------
   0 Al:    0.825267
   1 Cl:   -0.275095
   2 Cl:   -0.275095
   3 Cl:   -0.275077
Sum of atomic charges:   -0.0000000

LOEWDIN ATOMIC CHARGES
----------------------
   0 Al:    0.116874
   1 Cl:   -0.038959
   2 Cl:   -0.038959
   3 Cl:   -0.038956

  Mayer bond orders larger than 0.100000
B(  0-Al,  1-Cl) :   1.1205 B(  0-Al,  2-Cl) :   1.1205 B(  0-Al,  3-Cl) :   1.1205

Dispersion correction           -0.001891460
FINAL SINGLE POINT ENERGY     -1621.438617592741

DIPOLE MOMENT
-------------
                                X             Y             Z
Electronic contribution:     -0.00000       0.00000       0.00000
Nuclear contribution   :      0.00000       0.00000       0.00000
                        -----------------------------------------
Total Dipole Moment    :     -0.00000       0.00000       0.00000
                        -----------------------------------------
Magnitude (a.u.)       :      0.00000
Magnitude (Debye)      :      0.00000

Rotational constants in cm-1:     0.072496     0.072496     0.036248
Rotational constants in MHz :  2173.363189  2173.363145  1086.681583

                             ****ORCA TERMINATED NORMALLY****
TOTAL RUN TIME: 0 days 0 hours 0 minutes 16 seconds 147 msec
