                         Program Version 5.0.3 -  RELEASE  -
|  1> ! PBEh-3c def2/J TightSCF DefGrid3
|  2>
|  3> %maxcore 60000
|  4>
|  5> %pal
|  6> nprocs 4
|  7> end
|  8>
|  9> *xyzfile 0 1 62B.xyz
| 10>
| 11>                          ****END OF INPUT****

CARTESIAN COORDINATES (ANGSTROEM)
---------------------------------
  C      0.211239    0.565268   -0.120975
  O      0.238151    1.750341   -0.412816
  N      1.343819   -0.186610   -0.018155
  H      2.214759    0.235971   -0.286818
  H      1.304881   -1.178497    0.113268
  C     -1.078982   -0.173670    0.143478
  H     -0.931732   -1.134391    0.630603
  H     -1.585209   -0.331979   -0.807335
  H     -1.716926    0.453567    0.758750

 Total Charge           Charge          ....    0
 Multiplicity           Mult            ....    1
 Number of Electrons    NEL             ....   32
 Basis Dimension        Dim             ....   70

ORBITAL ENERGIES
----------------

  NO   OCC          E(Eh)            E(eV)
   0   2.0000     -19.449538      -529.2488
   1   2.0000     -14.654556      -398.7707
   2   2.0000     -10.548070      -287.0276
   3   2.0000     -10.441044      -284.1152
   4   2.0000      -1.135956       -30.9109
   5   2.0000      -1.001804       -27.2605
   6   2.0000      -0.827566       -22.5192
   7   2.0000      -0.660257       -17.9665
   8   2.0000      -0.606547       -16.5050
   9   2.0000      -0.534613       -14.5476
  10   2.0000      -0.506641       -13.7864
  11   2.0000      -0.461006       -12.5446
  12   2.0000      -0.456805       -12.4303
  13   2.0000      -0.420461       -11.4413
  14   2.0000      -0.317683        -8.6446
  15   2.0000      -0.303871        -8.2687
  16   0.0000       0.068700         1.8694
  17   0.0000       0.121505         3.3063
  18   0.0000       0.172205         4.6859
  19   0.0000       0.186391         5.0720
  20   0.0000       0.211433         5.7534

MULLIKEN ATOMIC CHARGES
-----------------------
   0 C :    0.496737
   1 O :   -0.414021
   2 N :   -0.793324
   3 H :    0.371614
   4 H :    0.360174
   5 C :   -0.751370
   6 H :    0.210837
   7 H :    0.254954
   8 H :    0.264400
Sum of atomic charges:   -0.0000000

LOEWDIN ATOMIC CHARGES
----------------------
   0 C :    0.100709
   1 O :   -0.275244
   2 N :   -0.379210
   3 H :    0.258130
   4 H :    0.250157
   5 C :   -0.395609
   6 H :    0.126859
   7 H :    0.156103
   8 H :    0.158105

  Mayer bond orders larger than 0.100000
B(  0-C ,  1-O ) :   2.0415 B(  0-C ,  2-N ) :   1.1414 B(  0-C ,  5-C ) :   0.9244
B(  2-N ,  3-H ) :   0.8257 B(  2-N ,  4-H ) :   0.8317 B(  5-C ,  6-H ) :   0.9213
B(  5-C ,  7-H ) :   0.9085 B(  5-C ,  8-H ) :   0.9121

Dispersion correction           -0.002889795
FINAL SINGLE POINT ENERGY      -208.767593194462

DIPOLE MOMENT
-------------
                                X             Y             Z
Electronic contribution:      1.84509       2.55056      -0.69216
Nuclear contribution   :     -1.57563      -4.05258       0.86967
                        -----------------------------------------
Total Dipole Moment    :      0.26947      -1.50202       0.17751
                        -----------------------------------------
Magnitude (a.u.)       :      1.53629
Magnitude (Debye)      :      3.90495

Rotational constants in cm-1:     0.360726     0.312193     0.172758
Rotational constants in MHz : 10814.305460  9359.322115  5179.151483

                             ****ORCA TERMINATED NORMALLY****
TOTAL RUN TIME: 0 days 0 hours 1 minutes 5 seconds 345 msec
