                         Program Version 5.0.3 -  RELEASE  -
|  1> ! PBEh-3c def2/J TightSCF DefGrid3
|  2>
|  3> %maxcore 60000
|  4>
|  5> %pal
|  6> nprocs 4
|  7> end
|  8>
|  9> *xyzfile 0 1 14b.xyz
| 10>
| 11>                          ****END OF INPUT****

CARTESIAN COORDINATES (ANGSTROEM)
---------------------------------
  C      1.206255   -0.696431    0.000000
  C      1.206255    0.696431    0.000000
  C      0.000000    1.392863    0.000000
  C     -1.206255    0.696431    0.000000
  C     -1.206255   -0.696431    0.000000
  C      0.000000   -1.392863    0.000000
  H      2.143442    1.237517    0.000000
  H      0.000000    2.475033    0.000000
  H     -2.143442    1.237517    0.000000
  H     -2.143442   -1.237517    0.000000
  H      0.000000   -2.475033    0.000000
  H      2.143442   -1.237517    0.000000

 Total Charge           Charge          ....    0
 Multiplicity           Mult            ....    1
 Number of Electrons    NEL             ....   42
 Basis Dimension        Dim             ....  102

ORBITAL ENERGIES
----------------

  NO   OCC          E(Eh)            E(eV)
   0   2.0000     -10.448560      -284.3198
   1   2.0000     -10.448339      -284.3138
   2   2.0000     -10.448337      -284.3137
   3   2.0000     -10.447721      -284.2970
   4   2.0000     -10.447719      -284.2969
   5   2.0000     -10.447489      -284.2906
   6   2.0000      -0.952618       -25.9221
   7   2.0000      -0.835679       -22.7400
   8   2.0000      -0.835678       -22.7400
   9   2.0000      -0.678996       -18.4764
  10   2.0000      -0.678995       -18.4764
  11   2.0000      -0.592108       -16.1121
  12   2.0000      -0.525475       -14.2989
  13   2.0000      -0.508768       -13.8443
  14   2.0000      -0.481756       -13.1092
  15   2.0000      -0.481754       -13.1092
  16   2.0000      -0.421239       -11.4625
  17   2.0000      -0.398194       -10.8354
  18   2.0000      -0.398193       -10.8354
  19   2.0000      -0.292630        -7.9629
  20   2.0000      -0.292627        -7.9628
  21   0.0000       0.019400         0.5279
  22   0.0000       0.019402         0.5279
  23   0.0000       0.140449         3.8218
  24   0.0000       0.196752         5.3539
  25   0.0000       0.201538         5.4841

MULLIKEN ATOMIC CHARGES
-----------------------
   0 C :   -0.219736
   1 C :   -0.219734
   2 C :   -0.219748
   3 C :   -0.219735
   4 C :   -0.219734
   5 C :   -0.219748
   6 H :    0.219735
   7 H :    0.219748
   8 H :    0.219735
   9 H :    0.219735
  10 H :    0.219748
  11 H :    0.219735
Sum of atomic charges:    0.0000000

LOEWDIN ATOMIC CHARGES
----------------------
   0 C :   -0.135666
   1 C :   -0.135666
   2 C :   -0.135672
   3 C :   -0.135666
   4 C :   -0.135666
   5 C :   -0.135672
   6 H :    0.135668
   7 H :    0.135667
   8 H :    0.135668
   9 H :    0.135668
  10 H :    0.135667
  11 H :    0.135668

  Mayer bond orders larger than 0.100000
B(  0-C ,  1-C ) :   1.4266 B(  0-C ,  5-C ) :   1.4265 B(  0-C , 11-H ) :   0.9200
B(  1-C ,  2-C ) :   1.4265 B(  1-C ,  6-H ) :   0.9200 B(  2-C ,  3-C ) :   1.4265
B(  2-C ,  7-H ) :   0.9200 B(  3-C ,  4-C ) :   1.4266 B(  3-C ,  8-H ) :   0.9200
B(  4-C ,  5-C ) :   1.4265 B(  4-C ,  9-H ) :   0.9200 B(  5-C , 10-H ) :   0.9200

Dispersion correction           -0.005881665
FINAL SINGLE POINT ENERGY      -231.725866664362

DIPOLE MOMENT
-------------
                                X             Y             Z
Electronic contribution:     -0.00000       0.00000       0.00000
Nuclear contribution   :      0.00000      -0.00000       0.00000
                        -----------------------------------------
Total Dipole Moment    :     -0.00000       0.00000       0.00000
                        -----------------------------------------
Magnitude (a.u.)       :      0.00000
Magnitude (Debye)      :      0.00000

Rotational constants in cm-1:     0.190631     0.190631     0.095315
Rotational constants in MHz :  5714.970331  5714.970079  2857.485103

                             ****ORCA TERMINATED NORMALLY****
TOTAL RUN TIME: 0 days 0 hours 1 minutes 2 seconds 552 msec
