                         Program Version 5.0.3 -  RELEASE  -
|  1> ! PBEh-3c def2/J TightSCF DefGrid3
|  2>
|  3> %maxcore 60000
|  4>
|  5> %pal
|  6> nprocs 4
|  7> end
|  8>
|  9> *xyzfile 0 2 no2.xyz
| 10>
| 11>                          ****END OF INPUT****

CARTESIAN COORDINATES (ANGSTROEM)
---------------------------------
  N      0.000000    0.323916    0.000000
  O     -1.101234   -0.141786    0.000000
  O      1.101234   -0.141786    0.000000

 Total Charge           Charge          ....    0
 Multiplicity           Mult            ....    2
 Number of Electrons    NEL             ....   23
 Basis Dimension        Dim             ....   45

ORBITAL ENERGIES
----------------
                 SPIN UP ORBITALS
  NO   OCC          E(Eh)            E(eV)
   0   1.0000     -19.610736      -533.6353
   1   1.0000     -19.610644      -533.6328
   2   1.0000     -14.898608      -405.4117
   3   1.0000      -1.409790       -38.3623
   4   1.0000      -1.253331       -34.1049
   5   1.0000      -0.766469       -20.8567
   6   1.0000      -0.660882       -17.9835
   7   1.0000      -0.648401       -17.6439
   8   1.0000      -0.638320       -17.3696
   9   1.0000      -0.451070       -12.2742
  10   1.0000      -0.431055       -11.7296
  11   1.0000      -0.351218        -9.5571
  12   0.0000      -0.053165        -1.4467
  13   0.0000       0.274456         7.4683
  14   0.0000       0.420067        11.4306
  15   0.0000       0.656790        17.8722
  16   0.0000       0.659321        17.9410

                 SPIN DOWN ORBITALS
  NO   OCC          E(Eh)            E(eV)
   0   1.0000     -19.600362      -533.3530
   1   1.0000     -19.600252      -533.3500
   2   1.0000     -14.885147      -405.0454
   3   1.0000      -1.385876       -37.7116
   4   1.0000      -1.226674       -33.3795
   5   1.0000      -0.719866       -19.5886
   6   1.0000      -0.625356       -17.0168
   7   1.0000      -0.616573       -16.7778
   8   1.0000      -0.598939       -16.2980
   9   1.0000      -0.423495       -11.5239
  10   1.0000      -0.394068       -10.7231
  11   0.0000      -0.100208        -2.7268
  12   0.0000      -0.032863        -0.8942
  13   0.0000       0.289183         7.8691
  14   0.0000       0.449712        12.2373
  15   0.0000       0.669286        18.2122

MULLIKEN ATOMIC CHARGES AND SPIN POPULATIONS
--------------------------------------------
   0 N :    0.492150    0.446819
   1 O :   -0.246075    0.276590
   2 O :   -0.246075    0.276590
Sum of atomic charges         :   -0.0000000

LOEWDIN ATOMIC CHARGES AND SPIN POPULATIONS
-------------------------------------------
   0 N :    0.216449    0.459590
   1 O :   -0.108224    0.270205
   2 O :   -0.108224    0.270205

  Mayer bond orders larger than 0.100000
B(  0-N ,  1-O ) :   1.8322 B(  0-N ,  2-O ) :   1.8322 B(  1-O ,  2-O ) :   0.3290

Dispersion correction           -0.000473087
FINAL SINGLE POINT ENERGY      -204.642451399157

DIPOLE MOMENT
-------------
                                X             Y             Z
Electronic contribution:     -0.00000       0.18262       0.00000
Nuclear contribution   :      0.00000      -0.00241       0.00000
                        -----------------------------------------
Total Dipole Moment    :     -0.00000       0.18021       0.00000
                        -----------------------------------------
Magnitude (a.u.)       :      0.18021
Magnitude (Debye)      :      0.45806

Rotational constants in cm-1:     7.978436     0.434425     0.411992
Rotational constants in MHz : 239187.494819 13023.737245 12351.214731

                             ****ORCA TERMINATED NORMALLY****
TOTAL RUN TIME: 0 days 0 hours 1 minutes 4 seconds 35 msec
