                         Program Version 5.0.3 -  RELEASE  -
|  1> ! PBEh-3c def2/J TightSCF DefGrid3
|  2>
|  3> %maxcore 60000
|  4>
|  5> %pal
|  6> nprocs 4
|  7> end
|  8>
|  9> *xyzfile 0 1 2.xyz
| 10>
| 11>                          ****END OF INPUT****

CARTESIAN COORDINATES (ANGSTROEM)
---------------------------------
  N     -2.785115   -2.471774   -0.024742
  C     -1.485500   -2.885645   -0.232856
  C     -0.656992   -1.789002   -0.318684
  C     -1.494619   -0.635117   -0.152845
  C     -1.210286    0.747480   -0.151285
  C     -2.269003    1.624488    0.031794
  C     -3.593107    1.149781    0.209261
  C     -3.883008   -0.202268    0.208372
  C     -2.817024   -1.094669    0.025520
  H     -3.580260   -3.078193    0.053598
  H     -1.249661   -3.934681   -0.312298
  H     -0.193729    1.089834   -0.283484
  H     -4.376374    1.882357    0.347105
  H     -4.900042   -0.547180    0.344228
  O     -2.146136    2.987311    0.060903
  C     -0.830001    3.493837   -0.114231
  H     -0.422337    3.210825   -1.086605
  H     -0.157389    3.135737    0.667145
  H     -0.917293    4.574706   -0.055844
  C      0.825076   -1.745415   -0.512248
  C      1.538603   -1.287524    0.770323
  N      2.912940   -0.871196    0.538633
  C      3.194528    0.367827    0.051992
  C      4.657486    0.652887   -0.218259
  H      1.068617   -1.032437   -1.303105
  H      1.206522   -2.721222   -0.821202
  H      1.538304   -2.087758    1.510191
  H      1.007499   -0.438262    1.194807
  H      3.656560   -1.540520    0.616254
  O      2.323930    1.206576   -0.153387
  H      4.789469    0.808513   -1.287706
  H      5.319529   -0.145964    0.110934
  H      4.928815    1.576665    0.287727

 Total Charge           Charge          ....    0
 Multiplicity           Mult            ....    1
 Number of Electrons    NEL             ....  124
 Basis Dimension        Dim             ....  287

ORBITAL ENERGIES
----------------

  NO   OCC          E(Eh)            E(eV)
   0   2.0000     -19.504362      -530.7407
   1   2.0000     -19.455855      -529.4207
   2   2.0000     -14.675393      -399.3377
   3   2.0000     -14.662800      -398.9951
   4   2.0000     -10.548967      -287.0520
   5   2.0000     -10.486368      -285.3486
   6   2.0000     -10.470476      -284.9161
   7   2.0000     -10.470299      -284.9113
   8   2.0000     -10.466982      -284.8211
   9   2.0000     -10.465128      -284.7706
  10   2.0000     -10.444461      -284.2082
  11   2.0000     -10.441559      -284.1293
  12   2.0000     -10.437957      -284.0312
  13   2.0000     -10.432410      -283.8803
  14   2.0000     -10.431949      -283.8678
  15   2.0000     -10.429253      -283.7944
  16   2.0000     -10.423846      -283.6473
  17   2.0000      -1.152165       -31.3520
  18   2.0000      -1.140704       -31.0401
  19   2.0000      -1.076527       -29.2938
  20   2.0000      -1.021939       -27.8084
  21   2.0000      -0.925199       -25.1759
  22   2.0000      -0.892660       -24.2905
  23   2.0000      -0.847440       -23.0600
  24   2.0000      -0.818884       -22.2830
  25   2.0000      -0.816878       -22.2284
  26   2.0000      -0.791278       -21.5318
  27   2.0000      -0.761469       -20.7206
  28   2.0000      -0.720496       -19.6057
  29   2.0000      -0.679209       -18.4822
  30   2.0000      -0.658338       -17.9143
  31   2.0000      -0.655047       -17.8247
  32   2.0000      -0.623030       -16.9535
  33   2.0000      -0.599122       -16.3029
  34   2.0000      -0.573923       -15.6172
  35   2.0000      -0.561003       -15.2657
  36   2.0000      -0.545278       -14.8378
  37   2.0000      -0.537481       -14.6256
  38   2.0000      -0.516020       -14.0416
  39   2.0000      -0.512566       -13.9476
  40   2.0000      -0.510815       -13.9000
  41   2.0000      -0.502699       -13.6791
  42   2.0000      -0.485015       -13.1979
  43   2.0000      -0.477843       -13.0028
  44   2.0000      -0.471499       -12.8301
  45   2.0000      -0.462478       -12.5847
  46   2.0000      -0.454793       -12.3755
  47   2.0000      -0.449654       -12.2357
  48   2.0000      -0.442398       -12.0383
  49   2.0000      -0.436601       -11.8805
  50   2.0000      -0.427906       -11.6439
  51   2.0000      -0.410915       -11.1816
  52   2.0000      -0.400305       -10.8928
  53   2.0000      -0.396202       -10.7812
  54   2.0000      -0.390216       -10.6183
  55   2.0000      -0.362807        -9.8725
  56   2.0000      -0.337183        -9.1752
  57   2.0000      -0.313938        -8.5427
  58   2.0000      -0.308928        -8.4064
  59   2.0000      -0.299574        -8.1518
  60   2.0000      -0.233882        -6.3643
  61   2.0000      -0.225970        -6.1490
  62   0.0000       0.018243         0.4964
  63   0.0000       0.060290         1.6406
  64   0.0000       0.071697         1.9510
  65   0.0000       0.101346         2.7578
  66   0.0000       0.115035         3.1303

MULLIKEN ATOMIC CHARGES
-----------------------
   0 N :   -0.702675
   1 C :   -0.065895
   2 C :    0.015705
   3 C :    0.077330
   4 C :   -0.515085
   5 C :    0.383428
   6 C :   -0.314346
   7 C :   -0.256872
   8 C :    0.350811
   9 H :    0.354914
  10 H :    0.231077
  11 H :    0.287262
  12 H :    0.229535
  13 H :    0.208397
  14 O :   -0.471001
  15 C :   -0.410375
  16 H :    0.213194
  17 H :    0.219447
  18 H :    0.230422
  19 C :   -0.533729
  20 C :   -0.283341
  21 N :   -0.628417
  22 C :    0.531348
  23 C :   -0.749636
  24 H :    0.251152
  25 H :    0.213875
  26 H :    0.227127
  27 H :    0.270653
  28 H :    0.351499
  29 O :   -0.442476
  30 H :    0.256128
  31 H :    0.209522
  32 H :    0.261021
Sum of atomic charges:    0.0000000

LOEWDIN ATOMIC CHARGES
----------------------
   0 N :   -0.161304
   1 C :   -0.090227
   2 C :   -0.107191
   3 C :   -0.051880
   4 C :   -0.198608
   5 C :    0.057749
   6 C :   -0.157792
   7 C :   -0.151818
   8 C :    0.001542
   9 H :    0.259383
  10 H :    0.131895
  11 H :    0.158411
  12 H :    0.144015
  13 H :    0.134871
  14 O :   -0.194480
  15 C :   -0.180051
  16 H :    0.117580
  17 H :    0.120302
  18 H :    0.125271
  19 C :   -0.234030
  20 C :   -0.144647
  21 N :   -0.239620
  22 C :    0.109247
  23 C :   -0.389362
  24 H :    0.143719
  25 H :    0.126326
  26 H :    0.125497
  27 H :    0.147154
  28 H :    0.251765
  29 O :   -0.293010
  30 H :    0.155980
  31 H :    0.125739
  32 H :    0.157576

  Mayer bond orders larger than 0.100000
B(  0-N ,  1-C ) :   1.1355 B(  0-N ,  8-C ) :   1.0007 B(  0-N ,  9-H ) :   0.8355
B(  1-C ,  2-C ) :   1.5544 B(  1-C , 10-H ) :   0.9136 B(  2-C ,  3-C ) :   1.2491
B(  2-C , 19-C ) :   0.9595 B(  3-C ,  4-C ) :   1.2593 B(  3-C ,  8-C ) :   1.2576
B(  4-C ,  5-C ) :   1.4151 B(  4-C , 11-H ) :   0.8637 B(  5-C ,  6-C ) :   1.3016
B(  5-C , 14-O ) :   1.0313 B(  6-C ,  7-C ) :   1.5278 B(  6-C , 12-H ) :   0.9104
B(  7-C ,  8-C ) :   1.2742 B(  7-C , 13-H ) :   0.9216 B( 14-O , 15-C ) :   0.9473
B( 15-C , 16-H ) :   0.9064 B( 15-C , 17-H ) :   0.9033 B( 15-C , 18-H ) :   0.9255
B( 19-C , 20-C ) :   0.9423 B( 19-C , 24-H ) :   0.9085 B( 19-C , 25-H ) :   0.9313
B( 20-C , 21-N ) :   0.9262 B( 20-C , 26-H ) :   0.9210 B( 20-C , 27-H ) :   0.8949
B( 21-N , 22-C ) :   1.1558 B( 21-N , 28-H ) :   0.8305 B( 22-C , 23-C ) :   0.9269
B( 22-C , 29-O ) :   1.9455 B( 23-C , 30-H ) :   0.9093 B( 23-C , 31-H ) :   0.9226
B( 23-C , 32-H ) :   0.9103

Dispersion correction           -0.021580818
FINAL SINGLE POINT ENERGY      -763.330516987432

DIPOLE MOMENT
-------------
                                X             Y             Z
Electronic contribution:    -11.64314      -2.43281       0.29571
Nuclear contribution   :     12.68478       0.63458      -0.07125
                        -----------------------------------------
Total Dipole Moment    :      1.04164      -1.79823       0.22446
                        -----------------------------------------
Magnitude (a.u.)       :      2.09022
Magnitude (Debye)      :      5.31292

Rotational constants in cm-1:     0.020959     0.010955     0.007380
Rotational constants in MHz :   628.345157   328.425055   221.234762

                             ****ORCA TERMINATED NORMALLY****
TOTAL RUN TIME: 0 days 0 hours 4 minutes 30 seconds 275 msec
