                         Program Version 5.0.3 -  RELEASE  -
|  1> ! PBEh-3c def2/J TightSCF DefGrid3
|  2>
|  3> %maxcore 60000
|  4>
|  5> %pal
|  6> nprocs 4
|  7> end
|  8>
|  9> *xyzfile 0 1 11.xyz
| 10>
| 11>                          ****END OF INPUT****

CARTESIAN COORDINATES (ANGSTROEM)
---------------------------------
  N     -0.758798    2.649444    0.525708
  C     -1.703428    2.195648   -0.368013
  C     -1.250591    1.056311   -0.992732
  C      0.048729    0.791092   -0.446910
  C      1.009971   -0.212636   -0.675067
  C      2.177558   -0.196479    0.067250
  C      2.423369    0.804147    1.034461
  C      1.503460    1.816247    1.262064
  C      0.320699    1.800240    0.512280
  H     -0.879105    3.430071    1.144697
  H     -2.645979    2.707497   -0.474011
  H      0.859639   -0.997713   -1.405232
  H      3.339358    0.758166    1.608057
  H      1.692413    2.579314    2.006208
  O      3.102790   -1.211645   -0.111381
  C      4.243998   -0.785456   -0.851198
  H      4.765684    0.028226   -0.342919
  H      3.954289   -0.452052   -1.850650
  H      4.904863   -1.644839   -0.929901
  C     -2.026993    0.162762   -1.909135
  C     -2.877421   -0.849769   -1.117394
  N     -2.103905   -1.581806   -0.130482
  C     -2.024170   -1.157973    1.172000
  C     -0.932099   -1.816847    1.988031
  H     -1.341475   -0.374294   -2.570049
  H     -2.691980    0.744207   -2.552093
  H     -3.354622   -1.555787   -1.799530
  H     -3.653977   -0.325482   -0.564891
  H     -1.357158   -2.169950   -0.458584
  O     -2.771569   -0.313341    1.643193
  H     -0.058627   -1.163216    1.981352
  H     -0.638604   -2.787985    1.592047
  H     -1.276321   -1.926096    3.012823

 Total Charge           Charge          ....    0
 Multiplicity           Mult            ....    1
 Number of Electrons    NEL             ....  124
 Basis Dimension        Dim             ....  287

ORBITAL ENERGIES
----------------

  NO   OCC          E(Eh)            E(eV)
   0   2.0000     -19.505550      -530.7730
   1   2.0000     -19.439331      -528.9711
   2   2.0000     -14.682481      -399.5306
   3   2.0000     -14.646744      -398.5582
   4   2.0000     -10.532807      -286.6123
   5   2.0000     -10.493673      -285.5474
   6   2.0000     -10.480850      -285.1984
   7   2.0000     -10.477996      -285.1208
   8   2.0000     -10.475004      -285.0394
   9   2.0000     -10.466812      -284.8164
  10   2.0000     -10.453252      -284.4474
  11   2.0000     -10.445048      -284.2242
  12   2.0000     -10.444580      -284.2115
  13   2.0000     -10.443705      -284.1877
  14   2.0000     -10.443202      -284.1740
  15   2.0000     -10.436982      -284.0047
  16   2.0000     -10.423648      -283.6419
  17   2.0000      -1.153308       -31.3831
  18   2.0000      -1.124539       -30.6003
  19   2.0000      -1.085352       -29.5339
  20   2.0000      -1.009516       -27.4703
  21   2.0000      -0.936837       -25.4926
  22   2.0000      -0.895457       -24.3666
  23   2.0000      -0.846368       -23.0308
  24   2.0000      -0.828869       -22.5547
  25   2.0000      -0.811949       -22.0942
  26   2.0000      -0.790691       -21.5158
  27   2.0000      -0.765608       -20.8332
  28   2.0000      -0.718657       -19.5557
  29   2.0000      -0.697689       -18.9851
  30   2.0000      -0.664414       -18.0796
  31   2.0000      -0.640312       -17.4238
  32   2.0000      -0.629001       -17.1160
  33   2.0000      -0.610762       -16.6197
  34   2.0000      -0.568559       -15.4713
  35   2.0000      -0.555413       -15.1135
  36   2.0000      -0.550149       -14.9703
  37   2.0000      -0.527968       -14.3667
  38   2.0000      -0.520083       -14.1522
  39   2.0000      -0.517927       -14.0935
  40   2.0000      -0.512683       -13.9508
  41   2.0000      -0.499303       -13.5867
  42   2.0000      -0.490579       -13.3493
  43   2.0000      -0.481957       -13.1147
  44   2.0000      -0.474563       -12.9135
  45   2.0000      -0.470500       -12.8029
  46   2.0000      -0.459488       -12.5033
  47   2.0000      -0.450520       -12.2593
  48   2.0000      -0.444960       -12.1080
  49   2.0000      -0.440947       -11.9988
  50   2.0000      -0.427521       -11.6334
  51   2.0000      -0.406698       -11.0668
  52   2.0000      -0.398354       -10.8398
  53   2.0000      -0.396303       -10.7839
  54   2.0000      -0.387430       -10.5425
  55   2.0000      -0.374378       -10.1873
  56   2.0000      -0.327190        -8.9033
  57   2.0000      -0.320459        -8.7201
  58   2.0000      -0.296339        -8.0638
  59   2.0000      -0.288911        -7.8617
  60   2.0000      -0.253108        -6.8874
  61   2.0000      -0.236411        -6.4331
  62   0.0000       0.005125         0.1395
  63   0.0000       0.050287         1.3684
  64   0.0000       0.076509         2.0819
  65   0.0000       0.090760         2.4697
  66   0.0000       0.123334         3.3561

MULLIKEN ATOMIC CHARGES
-----------------------
   0 N :   -0.696587
   1 C :   -0.017849
   2 C :    0.016448
   3 C :    0.058746
   4 C :   -0.433494
   5 C :    0.350969
   6 C :   -0.318022
   7 C :   -0.263430
   8 C :    0.370774
   9 H :    0.360527
  10 H :    0.239306
  11 H :    0.203799
  12 H :    0.226920
  13 H :    0.216418
  14 O :   -0.488077
  15 C :   -0.376669
  16 H :    0.198981
  17 H :    0.203104
  18 H :    0.219015
  19 C :   -0.534945
  20 C :   -0.277426
  21 N :   -0.618688
  22 C :    0.530428
  23 C :   -0.758385
  24 H :    0.217677
  25 H :    0.231943
  26 H :    0.220990
  27 H :    0.257397
  28 H :    0.349027
  29 O :   -0.429305
  30 H :    0.274835
  31 H :    0.211488
  32 H :    0.254085
Sum of atomic charges:   -0.0000000

LOEWDIN ATOMIC CHARGES
----------------------
   0 N :   -0.148495
   1 C :   -0.060370
   2 C :   -0.107783
   3 C :   -0.055865
   4 C :   -0.163088
   5 C :    0.037145
   6 C :   -0.167104
   7 C :   -0.150426
   8 C :    0.012406
   9 H :    0.263350
  10 H :    0.136925
  11 H :    0.137257
  12 H :    0.141604
  13 H :    0.137855
  14 O :   -0.223026
  15 C :   -0.172641
  16 H :    0.108230
  17 H :    0.110851
  18 H :    0.123425
  19 C :   -0.235460
  20 C :   -0.146039
  21 N :   -0.246474
  22 C :    0.112873
  23 C :   -0.391010
  24 H :    0.127196
  25 H :    0.137272
  26 H :    0.119512
  27 H :    0.148059
  28 H :    0.248682
  29 O :   -0.279217
  30 H :    0.164438
  31 H :    0.128764
  32 H :    0.151157

  Mayer bond orders larger than 0.100000
B(  0-N ,  1-C ) :   1.1411 B(  0-N ,  8-C ) :   1.0176 B(  0-N ,  9-H ) :   0.8329
B(  1-C ,  2-C ) :   1.5532 B(  1-C , 10-H ) :   0.9122 B(  2-C ,  3-C ) :   1.2614
B(  2-C , 19-C ) :   0.9560 B(  3-C ,  4-C ) :   1.2400 B(  3-C ,  8-C ) :   1.2377
B(  4-C ,  5-C ) :   1.4860 B(  4-C , 11-H ) :   0.9310 B(  5-C ,  6-C ) :   1.3157
B(  5-C , 14-O ) :   0.9523 B(  6-C ,  7-C ) :   1.4821 B(  6-C , 12-H ) :   0.9125
B(  7-C ,  8-C ) :   1.2903 B(  7-C , 13-H ) :   0.9201 B( 14-O , 15-C ) :   0.9525
B( 15-C , 16-H ) :   0.9117 B( 15-C , 17-H ) :   0.9124 B( 15-C , 18-H ) :   0.9288
B( 19-C , 20-C ) :   0.9597 B( 19-C , 24-H ) :   0.9228 B( 19-C , 25-H ) :   0.9211
B( 20-C , 21-N ) :   0.9591 B( 20-C , 26-H ) :   0.9176 B( 20-C , 27-H ) :   0.8940
B( 21-N , 22-C ) :   1.1175 B( 21-N , 28-H ) :   0.8272 B( 22-C , 23-C ) :   0.9325
B( 22-C , 29-O ) :   1.9977 B( 23-C , 30-H ) :   0.8948 B( 23-C , 31-H ) :   0.9213
B( 23-C , 32-H ) :   0.9162

Dispersion correction           -0.023386703
FINAL SINGLE POINT ENERGY      -763.325667250612

DIPOLE MOMENT
-------------
                                X             Y             Z
Electronic contribution:     -2.35863       5.48593       2.37140
Nuclear contribution   :      2.94601      -4.96169      -3.06838
                        -----------------------------------------
Total Dipole Moment    :      0.58738       0.52425      -0.69697
                        -----------------------------------------
Magnitude (a.u.)       :      1.05148
Magnitude (Debye)      :      2.67266

Rotational constants in cm-1:     0.023278     0.012084     0.010812
Rotational constants in MHz :   697.842701   362.274844   324.143100

                             ****ORCA TERMINATED NORMALLY****
TOTAL RUN TIME: 0 days 0 hours 5 minutes 0 seconds 753 msec
