                         Program Version 5.0.3 -  RELEASE  -
|  1> ! PBEh-3c def2/J TightSCF DefGrid3
|  2>
|  3> %maxcore 60000
|  4>
|  5> %pal
|  6> nprocs 4
|  7> end
|  8>
|  9> *xyzfile 0 1 32.xyz
| 10>
| 11>                          ****END OF INPUT****

CARTESIAN COORDINATES (ANGSTROEM)
---------------------------------
  O      0.000000    0.000000   -1.193203
  C      0.000000    0.000000    0.006841
  H     -0.938380    0.000000    0.593181
  H      0.938380    0.000000    0.593181

 Total Charge           Charge          ....    0
 Multiplicity           Mult            ....    1
 Number of Electrons    NEL             ....   16
 Basis Dimension        Dim             ....   34

ORBITAL ENERGIES
----------------

  NO   OCC          E(Eh)            E(eV)
   0   2.0000     -19.515224      -531.0362
   1   2.0000     -10.542770      -286.8833
   2   2.0000      -1.174619       -31.9630
   3   2.0000      -0.712881       -19.3985
   4   2.0000      -0.564829       -15.3698
   5   2.0000      -0.518830       -14.1181
   6   2.0000      -0.455436       -12.3930
   7   2.0000      -0.326481        -8.8840
   8   0.0000      -0.006042        -0.1644
   9   0.0000       0.154443         4.2026
  10   0.0000       0.250757         6.8235
  11   0.0000       0.258269         7.0279
  12   0.0000       0.502935        13.6855

MULLIKEN ATOMIC CHARGES
-----------------------
   0 O :   -0.284299
   1 C :   -0.031184
   2 H :    0.157742
   3 H :    0.157742
Sum of atomic charges:   -0.0000000

LOEWDIN ATOMIC CHARGES
----------------------
   0 O :   -0.163201
   1 C :   -0.003813
   2 H :    0.083507
   3 H :    0.083507

  Mayer bond orders larger than 0.100000
B(  0-O ,  1-C ) :   2.1346 B(  1-C ,  2-H ) :   0.8614 B(  1-C ,  3-H ) :   0.8614

Dispersion correction           -0.000601146
FINAL SINGLE POINT ENERGY      -114.250967558172

DIPOLE MOMENT
-------------
                                X             Y             Z
Electronic contribution:     -0.00000       0.00000      -1.29801
Nuclear contribution   :      0.00000       0.00000       2.21723
                        -----------------------------------------
Total Dipole Moment    :     -0.00000       0.00000       0.91923
                        -----------------------------------------
Magnitude (a.u.)       :      0.91923
Magnitude (Debye)      :      2.33649

Rotational constants in cm-1:     9.496173     1.304594     1.147016
Rotational constants in MHz : 284688.099106 39110.733532 34386.660054

                             ****ORCA TERMINATED NORMALLY****
TOTAL RUN TIME: 0 days 0 hours 0 minutes 18 seconds 286 msec
