                         Program Version 5.0.3 -  RELEASE  -
|  1> ! PBEh-3c def2/J TightSCF DefGrid3
|  2>
|  3> %maxcore 60000
|  4>
|  5> %pal
|  6> nprocs 4
|  7> end
|  8>
|  9> *xyzfile 1 2 IP_65.xyz
| 10>
| 11>                          ****END OF INPUT****

CARTESIAN COORDINATES (ANGSTROEM)
---------------------------------
  P      0.000000    0.000000    0.718378
  H      0.000000    0.000000   -0.718378

 Total Charge           Charge          ....    1
 Multiplicity           Mult            ....    2
 Number of Electrons    NEL             ....   15
 Basis Dimension        Dim             ....   20

ORBITAL ENERGIES
----------------
                 SPIN UP ORBITALS
  NO   OCC          E(Eh)            E(eV)
   0   1.0000     -78.163149     -2126.9274
   1   1.0000      -7.232210      -196.7984
   2   1.0000      -5.327560      -144.9703
   3   1.0000      -5.322284      -144.8267
   4   1.0000      -5.316980      -144.6824
   5   1.0000      -1.014524       -27.6066
   6   1.0000      -0.707801       -19.2602
   7   1.0000      -0.622121       -16.9288
   8   0.0000      -0.459949       -12.5159
   9   0.0000      -0.201163        -5.4739
  10   0.0000      -0.007422        -0.2020
  11   0.0000       0.224387         6.1059
  12   0.0000       0.227992         6.2040

                 SPIN DOWN ORBITALS
  NO   OCC          E(Eh)            E(eV)
   0   1.0000     -78.157333     -2126.7692
   1   1.0000      -7.226097      -196.6321
   2   1.0000      -5.319094      -144.7399
   3   1.0000      -5.313479      -144.5871
   4   1.0000      -5.305019      -144.3569
   5   1.0000      -0.965691       -26.2778
   6   1.0000      -0.692030       -18.8311
   7   0.0000      -0.442811       -12.0495
   8   0.0000      -0.395205       -10.7541
   9   0.0000      -0.186742        -5.0815
  10   0.0000       0.011049         0.3007
  11   0.0000       0.234548         6.3824

MULLIKEN ATOMIC CHARGES AND SPIN POPULATIONS
--------------------------------------------
   0 P :    0.810849    1.031509
   1 H :    0.189151   -0.031509
Sum of atomic charges         :    1.0000000

LOEWDIN ATOMIC CHARGES AND SPIN POPULATIONS
-------------------------------------------
   0 P :    0.879889    1.019575
   1 H :    0.120111   -0.019575

  Mayer bond orders larger than 0.100000
B(  0-P ,  1-H ) :   0.9409

Dispersion correction           -0.000202696
FINAL SINGLE POINT ENERGY      -341.087361503050

DIPOLE MOMENT
-------------
                                X             Y             Z
Electronic contribution:     -0.00000      -0.00000       0.93004
Nuclear contribution   :      0.00000       0.00000      -1.34591
                        -----------------------------------------
Total Dipole Moment    :     -0.00000      -0.00000      -0.41586
                        -----------------------------------------
Magnitude (a.u.)       :      0.41586
Magnitude (Debye)      :      1.05704

Rotational constants in cm-1:     0.000000     8.365240     8.365240
Rotational constants in MHz :     0.000000 250783.590557 250783.590557

                             ****ORCA TERMINATED NORMALLY****
TOTAL RUN TIME: 0 days 0 hours 0 minutes 7 seconds 695 msec
