                         Program Version 5.0.3 -  RELEASE  -
|  1> ! PBEh-3c def2/J TightSCF DefGrid3
|  2>
|  3> %maxcore 60000
|  4>
|  5> %pal
|  6> nprocs 4
|  7> end
|  8>
|  9> *xyzfile 0 1 dimethylpyrrole.xyz
| 10>
| 11>                          ****END OF INPUT****

CARTESIAN COORDINATES (ANGSTROEM)
---------------------------------
  C     -0.263583   -1.112095   -0.000704
  C      1.120295   -1.093222   -0.000397
  C      1.541785    0.270172   -0.000327
  C      0.410139    1.066669   -0.000537
  N     -0.675118    0.208685   -0.000791
  H     -1.642926    0.507984   -0.000745
  H      1.758605   -1.971907   -0.000018
  H      2.564743    0.635011   -0.000130
  C      0.247772    2.550779    0.000068
  H     -0.295547    2.913372   -0.888405
  H     -0.296081    2.912320    0.888649
  H      1.234032    3.031069    0.000664
  C     -1.235231   -2.245405    0.000391
  H     -1.888304   -2.236174    0.888916
  H     -1.888044   -2.238491   -0.888363
  H     -0.692537   -3.198767    0.001729

 Total Charge           Charge          ....    0
 Multiplicity           Mult            ....    1
 Number of Electrons    NEL             ....   52
 Basis Dimension        Dim             ....  123

ORBITAL ENERGIES
----------------

  NO   OCC          E(Eh)            E(eV)
   0   2.0000     -14.670210      -399.1967
   1   2.0000     -10.462212      -284.6913
   2   2.0000     -10.462203      -284.6910
   3   2.0000     -10.440065      -284.0886
   4   2.0000     -10.440053      -284.0883
   5   2.0000     -10.413775      -283.3732
   6   2.0000     -10.413338      -283.3613
   7   2.0000      -1.066440       -29.0193
   8   2.0000      -0.859998       -23.4017
   9   2.0000      -0.848574       -23.0909
  10   2.0000      -0.804071       -21.8799
  11   2.0000      -0.714040       -19.4300
  12   2.0000      -0.645080       -17.5535
  13   2.0000      -0.624594       -16.9961
  14   2.0000      -0.547273       -14.8921
  15   2.0000      -0.493811       -13.4373
  16   2.0000      -0.480282       -13.0691
  17   2.0000      -0.476296       -12.9607
  18   2.0000      -0.468489       -12.7482
  19   2.0000      -0.457133       -12.4392
  20   2.0000      -0.433983       -11.8093
  21   2.0000      -0.415649       -11.3104
  22   2.0000      -0.415185       -11.2978
  23   2.0000      -0.403356       -10.9759
  24   2.0000      -0.275257        -7.4901
  25   2.0000      -0.227031        -6.1778
  26   0.0000       0.070739         1.9249
  27   0.0000       0.124380         3.3846
  28   0.0000       0.125623         3.4184
  29   0.0000       0.164196         4.4680
  30   0.0000       0.178472         4.8565

MULLIKEN ATOMIC CHARGES
-----------------------
   0 C :    0.324261
   1 C :   -0.332464
   2 C :   -0.332410
   3 C :    0.324215
   4 N :   -0.662690
   5 H :    0.351203
   6 H :    0.202385
   7 H :    0.202411
   8 C :   -0.723747
   9 H :    0.222657
  10 H :    0.222644
  11 H :    0.239991
  12 C :   -0.723833
  13 H :    0.222667
  14 H :    0.222686
  15 H :    0.240022
Sum of atomic charges:   -0.0000000

LOEWDIN ATOMIC CHARGES
----------------------
   0 C :   -0.030623
   1 C :   -0.206993
   2 C :   -0.206983
   3 C :   -0.030618
   4 N :   -0.147461
   5 H :    0.255142
   6 H :    0.131071
   7 H :    0.131082
   8 C :   -0.358436
   9 H :    0.132550
  10 H :    0.132554
  11 H :    0.146012
  12 C :   -0.358454
  13 H :    0.132576
  14 H :    0.132569
  15 H :    0.146014

  Mayer bond orders larger than 0.100000
B(  0-C ,  1-C ) :   1.5228 B(  0-C ,  4-N ) :   1.1178 B(  0-C , 12-C ) :   0.9631
B(  1-C ,  2-C ) :   1.3537 B(  1-C ,  6-H ) :   0.9304 B(  2-C ,  3-C ) :   1.5228
B(  2-C ,  7-H ) :   0.9304 B(  3-C ,  4-N ) :   1.1178 B(  3-C ,  8-C ) :   0.9630
B(  4-N ,  5-H ) :   0.8330 B(  8-C ,  9-H ) :   0.9160 B(  8-C , 10-H ) :   0.9160
B(  8-C , 11-H ) :   0.9289 B( 12-C , 13-H ) :   0.9160 B( 12-C , 14-H ) :   0.9160
B( 12-C , 15-H ) :   0.9289

Dispersion correction           -0.007577899
FINAL SINGLE POINT ENERGY      -288.174245232388

DIPOLE MOMENT
-------------
                                X             Y             Z
Electronic contribution:      1.28851      -0.39863      -0.00384
Nuclear contribution   :     -2.07906       0.64296       0.00453
                        -----------------------------------------
Total Dipole Moment    :     -0.79055       0.24434       0.00069
                        -----------------------------------------
Magnitude (a.u.)       :      0.82745
Magnitude (Debye)      :      2.10321

Rotational constants in cm-1:     0.209065     0.066768     0.051593
Rotational constants in MHz :  6267.610712  2001.668569  1546.707252

                             ****ORCA TERMINATED NORMALLY****
TOTAL RUN TIME: 0 days 0 hours 1 minutes 27 seconds 118 msec
