                         Program Version 5.0.3 -  RELEASE  -
|  1> ! PBEh-3c def2/J TightSCF DefGrid3
|  2>
|  3> %maxcore 60000
|  4>
|  5> %pal
|  6> nprocs 4
|  7> end
|  8>
|  9> *xyzfile 0 1 P20.xyz
| 10>
| 11>                          ****END OF INPUT****

CARTESIAN COORDINATES (ANGSTROEM)
---------------------------------
  C      1.320130    0.000000    0.431324
  C      0.689723    0.000000   -0.812062
  C     -0.689723    0.000000   -0.812062
  C     -1.320130    0.000000    0.431324
  N     -0.665553    0.000000    1.591251
  N      0.665553    0.000000    1.591251
  H     -2.400797    0.000000    0.517424
  H     -1.267472    0.000000   -1.727937
  H      1.267472    0.000000   -1.727937
  H      2.400797    0.000000    0.517424

 Total Charge           Charge          ....    0
 Multiplicity           Mult            ....    1
 Number of Electrons    NEL             ....   42
 Basis Dimension        Dim             ....   98

ORBITAL ENERGIES
----------------

  NO   OCC          E(Eh)            E(eV)
   0   2.0000     -14.678034      -399.4096
   1   2.0000     -14.677796      -399.4031
   2   2.0000     -10.495403      -285.5944
   3   2.0000     -10.495341      -285.5927
   4   2.0000     -10.485834      -285.3340
   5   2.0000     -10.485198      -285.3168
   6   2.0000      -1.129220       -30.7276
   7   2.0000      -0.927104       -25.2278
   8   2.0000      -0.926375       -25.2079
   9   2.0000      -0.748176       -20.3589
  10   2.0000      -0.740995       -20.1635
  11   2.0000      -0.610277       -16.6065
  12   2.0000      -0.585105       -15.9215
  13   2.0000      -0.548563       -14.9272
  14   2.0000      -0.494834       -13.4651
  15   2.0000      -0.490788       -13.3550
  16   2.0000      -0.479464       -13.0469
  17   2.0000      -0.373140       -10.1537
  18   2.0000      -0.356265        -9.6945
  19   2.0000      -0.340120        -9.2551
  20   2.0000      -0.293793        -7.9945
  21   0.0000      -0.030883        -0.8404
  22   0.0000      -0.008122        -0.2210
  23   0.0000       0.136662         3.7188
  24   0.0000       0.164157         4.4669
  25   0.0000       0.182900         4.9770

MULLIKEN ATOMIC CHARGES
-----------------------
   0 C :   -0.063357
   1 C :   -0.229568
   2 C :   -0.229568
   3 C :   -0.063357
   4 N :   -0.201051
   5 N :   -0.201051
   6 H :    0.249368
   7 H :    0.244608
   8 H :    0.244608
   9 H :    0.249368
Sum of atomic charges:   -0.0000000

LOEWDIN ATOMIC CHARGES
----------------------
   0 C :   -0.082001
   1 C :   -0.131223
   2 C :   -0.131223
   3 C :   -0.082001
   4 N :   -0.074339
   5 N :   -0.074339
   6 H :    0.139375
   7 H :    0.148187
   8 H :    0.148187
   9 H :    0.139375

  Mayer bond orders larger than 0.100000
B(  0-C ,  1-C ) :   1.3306 B(  0-C ,  5-N ) :   1.5474 B(  0-C ,  9-H ) :   0.9102
B(  1-C ,  2-C ) :   1.4542 B(  1-C ,  8-H ) :   0.9113 B(  2-C ,  3-C ) :   1.3306
B(  2-C ,  7-H ) :   0.9113 B(  3-C ,  4-N ) :   1.5474 B(  3-C ,  6-H ) :   0.9102
B(  4-N ,  5-N ) :   1.3647

Dispersion correction           -0.004800078
FINAL SINGLE POINT ENERGY      -263.698650996755

DIPOLE MOMENT
-------------
                                X             Y             Z
Electronic contribution:     -0.00000       0.00000       2.16865
Nuclear contribution   :     -0.00000       0.00000      -3.80418
                        -----------------------------------------
Total Dipole Moment    :     -0.00000       0.00000      -1.63553
                        -----------------------------------------
Magnitude (a.u.)       :      1.63553
Magnitude (Debye)      :      4.15720

Rotational constants in cm-1:     0.209257     0.200178     0.102308
Rotational constants in MHz :  6273.368756  6001.178528  3067.127854

                             ****ORCA TERMINATED NORMALLY****
TOTAL RUN TIME: 0 days 0 hours 1 minutes 8 seconds 317 msec
