                         Program Version 5.0.3 -  RELEASE  -
|  1> ! PBEh-3c def2/J TightSCF DefGrid3
|  2>
|  3> %maxcore 60000
|  4>
|  5> %pal
|  6> nprocs 4
|  7> end
|  8>
|  9> *xyzfile 0 2 1p3.xyz
| 10>
| 11>                          ****END OF INPUT****

CARTESIAN COORDINATES (ANGSTROEM)
---------------------------------
  C     -0.608346   -0.111112    0.000000
  C      0.855497    0.097710    0.000000
  H      1.397052    0.242937   -0.925776
  H      1.397052    0.242937    0.925776
  H     -0.941774   -0.657809    0.885833
  H     -0.941774   -0.657809   -0.885833
  H     -1.157706    0.843147    0.000000

 Total Charge           Charge          ....    0
 Multiplicity           Mult            ....    2
 Number of Electrons    NEL             ....   17
 Basis Dimension        Dim             ....   40

ORBITAL ENERGIES
----------------
                 SPIN UP ORBITALS
  NO   OCC          E(Eh)            E(eV)
   0   1.0000     -10.441551      -284.1291
   1   1.0000     -10.429506      -283.8013
   2   1.0000      -0.846377       -23.0311
   3   1.0000      -0.683681       -18.6039
   4   1.0000      -0.510640       -13.8952
   5   1.0000      -0.470364       -12.7993
   6   1.0000      -0.447324       -12.1723
   7   1.0000      -0.407796       -11.0967
   8   1.0000      -0.250878        -6.8267
   9   0.0000       0.164615         4.4794
  10   0.0000       0.185272         5.0415
  11   0.0000       0.197798         5.3824
  12   0.0000       0.223120         6.0714
  13   0.0000       0.276795         7.5320

                 SPIN DOWN ORBITALS
  NO   OCC          E(Eh)            E(eV)
   0   1.0000     -10.430820      -283.8370
   1   1.0000     -10.425548      -283.6936
   2   1.0000      -0.824362       -22.4320
   3   1.0000      -0.652163       -17.7463
   4   1.0000      -0.502561       -13.6754
   5   1.0000      -0.449774       -12.2390
   6   1.0000      -0.437421       -11.9028
   7   1.0000      -0.402596       -10.9552
   8   0.0000      -0.000522        -0.0142
   9   0.0000       0.170106         4.6288
  10   0.0000       0.200153         5.4464
  11   0.0000       0.201672         5.4878
  12   0.0000       0.232866         6.3366

MULLIKEN ATOMIC CHARGES AND SPIN POPULATIONS
--------------------------------------------
   0 C :   -0.663887   -0.104097
   1 C :   -0.432455    1.127171
   2 H :    0.212780   -0.061475
   3 H :    0.212780   -0.061475
   4 H :    0.223162    0.016414
   5 H :    0.223162    0.016414
   6 H :    0.224457    0.067047
Sum of atomic charges         :   -0.0000000

LOEWDIN ATOMIC CHARGES AND SPIN POPULATIONS
-------------------------------------------
   0 C :   -0.381501   -0.029642
   1 C :   -0.266686    1.000366
   2 H :    0.124821   -0.029897
   3 H :    0.124821   -0.029897
   4 H :    0.132493    0.014473
   5 H :    0.132493    0.014473
   6 H :    0.133559    0.060124

  Mayer bond orders larger than 0.100000
B(  0-C ,  1-C ) :   1.0142 B(  0-C ,  4-H ) :   0.9253 B(  0-C ,  5-H ) :   0.9253
B(  0-C ,  6-H ) :   0.9053 B(  1-C ,  2-H ) :   0.9265 B(  1-C ,  3-H ) :   0.9265

Dispersion correction           -0.001575908
FINAL SINGLE POINT ENERGY       -78.979936220518

DIPOLE MOMENT
-------------
                                X             Y             Z
Electronic contribution:      0.57535       0.00398       0.00000
Nuclear contribution   :     -0.67081       0.03637       0.00000
                        -----------------------------------------
Total Dipole Moment    :     -0.09546       0.04035       0.00000
                        -----------------------------------------
Magnitude (a.u.)       :      0.10364
Magnitude (Debye)      :      0.26343

Rotational constants in cm-1:     3.466837     0.765383     0.708836
Rotational constants in MHz : 103933.161650 22945.606756 21250.371020

                             ****ORCA TERMINATED NORMALLY****
TOTAL RUN TIME: 0 days 0 hours 1 minutes 47 seconds 595 msec
