                         Program Version 5.0.3 -  RELEASE  -
|  1> ! PBEh-3c def2/J TightSCF DefGrid3
|  2>
|  3> %maxcore 60000
|  4>
|  5> %pal
|  6> nprocs 4
|  7> end
|  8>
|  9> *xyzfile 1 1 1p1.xyz
| 10>
| 11>                          ****END OF INPUT****

CARTESIAN COORDINATES (ANGSTROEM)
---------------------------------
  C     -0.989332   -0.290511    0.000000
  C      0.555436   -0.296031    0.000000
  C      1.079130    1.026693    0.000000
  O      1.455000    2.074060    0.000000
  H     -1.301337   -1.334244    0.000000
  H     -1.380034    0.195563   -0.892335
  H     -1.380034    0.195563    0.892335
  H      0.980585   -0.785547   -0.888666
  H      0.980585   -0.785547    0.888666

 Total Charge           Charge          ....    1
 Multiplicity           Mult            ....    1
 Number of Electrons    NEL             ....   30
 Basis Dimension        Dim             ....   70

ORBITAL ENERGIES
----------------

  NO   OCC          E(Eh)            E(eV)
   0   2.0000     -19.894454      -541.3556
   1   2.0000     -10.897691      -296.5412
   2   2.0000     -10.743412      -292.3431
   3   2.0000     -10.660525      -290.0876
   4   2.0000      -1.570985       -42.7487
   5   2.0000      -1.175566       -31.9888
   6   2.0000      -0.992343       -27.0030
   7   2.0000      -0.898501       -24.4494
   8   2.0000      -0.840448       -22.8698
   9   2.0000      -0.839210       -22.8361
  10   2.0000      -0.807819       -21.9819
  11   2.0000      -0.752394       -20.4737
  12   2.0000      -0.688255       -18.7284
  13   2.0000      -0.658058       -17.9067
  14   2.0000      -0.646934       -17.6040
  15   0.0000      -0.264882        -7.2078
  16   0.0000      -0.262622        -7.1463
  17   0.0000      -0.104911        -2.8548
  18   0.0000      -0.039324        -1.0701
  19   0.0000      -0.024344        -0.6624

MULLIKEN ATOMIC CHARGES
-----------------------
   0 C :   -0.650993
   1 C :   -0.653426
   2 C :    0.609149
   3 O :    0.016965
   4 H :    0.322333
   5 H :    0.290967
   6 H :    0.290967
   7 H :    0.387019
   8 H :    0.387019
Sum of atomic charges:    1.0000000

LOEWDIN ATOMIC CHARGES
----------------------
   0 C :   -0.323923
   1 C :   -0.276553
   2 C :    0.409961
   3 O :    0.200669
   4 H :    0.185013
   5 H :    0.169167
   6 H :    0.169167
   7 H :    0.233250
   8 H :    0.233250

  Mayer bond orders larger than 0.100000
B(  0-C ,  1-C ) :   0.8963 B(  0-C ,  4-H ) :   0.8757 B(  0-C ,  5-H ) :   0.8919
B(  0-C ,  6-H ) :   0.8919 B(  1-C ,  2-C ) :   1.0116 B(  1-C ,  7-H ) :   0.8030
B(  1-C ,  8-H ) :   0.8030 B(  2-C ,  3-O ) :   2.6212

Dispersion correction           -0.002884563
FINAL SINGLE POINT ENERGY      -191.822875972899

DIPOLE MOMENT
-------------
                                X             Y             Z
Electronic contribution:      4.42984       4.49691      -0.00000
Nuclear contribution   :     -4.33266      -5.29101       0.00000
                        -----------------------------------------
Total Dipole Moment    :      0.09718      -0.79410      -0.00000
                        -----------------------------------------
Magnitude (a.u.)       :      0.80003
Magnitude (Debye)      :      2.03351

Rotational constants in cm-1:     0.905979     0.156111     0.140250
Rotational constants in MHz : 27160.566491  4680.086117  4204.576626

                             ****ORCA TERMINATED NORMALLY****
TOTAL RUN TIME: 0 days 0 hours 1 minutes 22 seconds 855 msec
