                         Program Version 5.0.3 -  RELEASE  -
|  1> ! PBEh-3c def2/J TightSCF DefGrid3
|  2>
|  3> %maxcore 60000
|  4>
|  5> %pal
|  6> nprocs 4
|  7> end
|  8>
|  9> *xyzfile 0 1 na2_h2.xyz
| 10>
| 11>                          ****END OF INPUT****

CARTESIAN COORDINATES (ANGSTROEM)
---------------------------------
  Na     0.000000   -1.420964    0.000000
  Na     0.000000    1.420964    0.000000
  H     -1.590036    0.000000    0.000000
  H      1.590036    0.000000    0.000000

 Total Charge           Charge          ....    0
 Multiplicity           Mult            ....    1
 Number of Electrons    NEL             ....   24
 Basis Dimension        Dim             ....   34

ORBITAL ENERGIES
----------------

  NO   OCC          E(Eh)            E(eV)
   0   2.0000     -38.923045     -1059.1499
   1   2.0000     -38.923045     -1059.1499
   2   2.0000      -2.367448       -64.4215
   3   2.0000      -2.367103       -64.4121
   4   2.0000      -1.243322       -33.8325
   5   2.0000      -1.242702       -33.8156
   6   2.0000      -1.242311       -33.8050
   7   2.0000      -1.239721       -33.7345
   8   2.0000      -1.239319       -33.7236
   9   2.0000      -1.238708       -33.7070
  10   2.0000      -0.254902        -6.9362
  11   2.0000      -0.211402        -5.7525
  12   0.0000      -0.014359        -0.3907
  13   0.0000       0.006710         0.1826
  14   0.0000       0.025712         0.6996
  15   0.0000       0.076279         2.0757
  16   0.0000       0.080648         2.1945

MULLIKEN ATOMIC CHARGES
-----------------------
   0 Na:    0.235358
   1 Na:    0.235357
   2 H :   -0.235357
   3 H :   -0.235358
Sum of atomic charges:    0.0000000

LOEWDIN ATOMIC CHARGES
----------------------
   0 Na:    0.045874
   1 Na:    0.045874
   2 H :   -0.045874
   3 H :   -0.045874

  Mayer bond orders larger than 0.100000
B(  0-Na,  1-Na) :   0.3076 B(  0-Na,  2-H ) :   0.4666 B(  0-Na,  3-H ) :   0.4666
B(  1-Na,  2-H ) :   0.4666 B(  1-Na,  3-H ) :   0.4666

Dispersion correction           -0.000641054
FINAL SINGLE POINT ENERGY      -325.214513677748

DIPOLE MOMENT
-------------
                                X             Y             Z
Electronic contribution:     -0.00000      -0.00000       0.00000
Nuclear contribution   :      0.00000       0.00000       0.00000
                        -----------------------------------------
Total Dipole Moment    :     -0.00000      -0.00000       0.00000
                        -----------------------------------------
Magnitude (a.u.)       :      0.00000
Magnitude (Debye)      :      0.00000

Rotational constants in cm-1:     3.307442     0.181577     0.172128
Rotational constants in MHz : 99154.629869  5443.554152  5160.257821

                             ****ORCA TERMINATED NORMALLY****
TOTAL RUN TIME: 0 days 0 hours 0 minutes 47 seconds 924 msec
