                         Program Version 5.0.3 -  RELEASE  -
|  1> ! PBEh-3c def2/J TightSCF DefGrid3
|  2>
|  3> %maxcore 60000
|  4>
|  5> %pal
|  6> nprocs 4
|  7> end
|  8>
|  9> *xyzfile 1 2 h2o2+_1.75.xyz
| 10>
| 11>                          ****END OF INPUT****

CARTESIAN COORDINATES (ANGSTROEM)
---------------------------------
  O      1.769401    0.000000    0.069111
  O     -1.769401    0.000000   -0.069111
  H      1.898720    0.775137   -0.511172
  H      1.898720   -0.775137   -0.511172
  H     -1.898720    0.775137    0.511173
  H     -1.898720   -0.775137    0.511173

 Total Charge           Charge          ....    1
 Multiplicity           Mult            ....    2
 Number of Electrons    NEL             ....   19
 Basis Dimension        Dim             ....   38

ORBITAL ENERGIES
----------------
                 SPIN UP ORBITALS
  NO   OCC          E(Eh)            E(eV)
   0   1.0000     -19.826271      -539.5002
   1   1.0000     -19.826268      -539.5002
   2   1.0000      -1.428848       -38.8809
   3   1.0000      -1.428405       -38.8689
   4   1.0000      -0.883337       -24.0368
   5   1.0000      -0.882741       -24.0206
   6   1.0000      -0.747420       -20.3383
   7   1.0000      -0.747181       -20.3318
   8   1.0000      -0.719374       -19.5752
   9   1.0000      -0.712069       -19.3764
  10   0.0000      -0.116905        -3.1811
  11   0.0000      -0.101648        -2.7660
  12   0.0000      -0.033887        -0.9221
  13   0.0000      -0.030156        -0.8206
  14   0.0000       0.601183        16.3590

                 SPIN DOWN ORBITALS
  NO   OCC          E(Eh)            E(eV)
   0   1.0000     -19.810965      -539.0838
   1   1.0000     -19.810957      -539.0835
   2   1.0000      -1.384977       -37.6871
   3   1.0000      -1.384432       -37.6723
   4   1.0000      -0.871029       -23.7019
   5   1.0000      -0.870464       -23.6865
   6   1.0000      -0.729981       -19.8638
   7   1.0000      -0.729648       -19.8547
   8   1.0000      -0.542612       -14.7652
   9   0.0000      -0.487696       -13.2709
  10   0.0000      -0.110382        -3.0036
  11   0.0000      -0.094990        -2.5848
  12   0.0000      -0.029928        -0.8144
  13   0.0000      -0.026289        -0.7154

MULLIKEN ATOMIC CHARGES AND SPIN POPULATIONS
--------------------------------------------
   0 O :   -0.506256    0.532878
   1 O :   -0.506268    0.532867
   2 H :    0.503131   -0.016436
   3 H :    0.503131   -0.016436
   4 H :    0.503131   -0.016436
   5 H :    0.503131   -0.016436
Sum of atomic charges         :    1.0000000

LOEWDIN ATOMIC CHARGES AND SPIN POPULATIONS
-------------------------------------------
   0 O :   -0.234551    0.525319
   1 O :   -0.234563    0.525308
   2 H :    0.367278   -0.012657
   3 H :    0.367278   -0.012657
   4 H :    0.367279   -0.012657
   5 H :    0.367279   -0.012657

  Mayer bond orders larger than 0.100000
B(  0-O ,  1-O ) :   0.5003 B(  0-O ,  2-H ) :   0.7327 B(  0-O ,  3-H ) :   0.7327
B(  1-O ,  4-H ) :   0.7327 B(  1-O ,  5-H ) :   0.7327

Dispersion correction           -0.000630039
FINAL SINGLE POINT ENERGY      -152.095926834987

DIPOLE MOMENT
-------------
                                X             Y             Z
Electronic contribution:      0.00004       0.00000       0.00000
Nuclear contribution   :      0.00000       0.00000       0.00000
                        -----------------------------------------
Total Dipole Moment    :      0.00004       0.00000       0.00000
                        -----------------------------------------
Magnitude (a.u.)       :      0.00004
Magnitude (Debye)      :      0.00009

Rotational constants in cm-1:     4.645315     0.145424     0.143914
Rotational constants in MHz : 139263.029943  4359.690964  4314.425786

                             ****ORCA TERMINATED NORMALLY****
TOTAL RUN TIME: 0 days 0 hours 1 minutes 16 seconds 341 msec
