                         Program Version 5.0.3 -  RELEASE  -
|  1> ! PBEh-3c def2/J TightSCF DefGrid3
|  2>
|  3> %maxcore 60000
|  4>
|  5> %pal
|  6> nprocs 4
|  7> end
|  8>
|  9> *xyzfile 0 1 66B.xyz
| 10>
| 11>                          ****END OF INPUT****

CARTESIAN COORDINATES (ANGSTROEM)
---------------------------------
  N     -1.581248    0.304657    0.000000
  C     -1.109324   -0.950449    0.000000
  H     -1.853557   -1.736342    0.000000
  C      0.247078   -1.263590    0.000000
  H      0.563096   -2.296955    0.000000
  C      1.173568   -0.225977    0.000000
  H      2.235157   -0.430700    0.000000
  C      0.699516    1.081642    0.000000
  H      1.376897    1.923670    0.000000
  C     -0.676517    1.293409    0.000000
  H     -1.074664    2.300634    0.000000

 Total Charge           Charge          ....    0
 Multiplicity           Mult            ....    1
 Number of Electrons    NEL             ....   42
 Basis Dimension        Dim             ....  100

ORBITAL ENERGIES
----------------

  NO   OCC          E(Eh)            E(eV)
   0   2.0000     -14.640364      -398.3846
   1   2.0000     -10.483186      -285.2620
   2   2.0000     -10.483151      -285.2610
   3   2.0000     -10.471027      -284.9311
   4   2.0000     -10.459266      -284.6111
   5   2.0000     -10.459248      -284.6106
   6   2.0000      -1.046223       -28.4692
   7   2.0000      -0.901990       -24.5444
   8   2.0000      -0.855005       -23.2659
   9   2.0000      -0.710031       -19.3209
  10   2.0000      -0.709636       -19.3102
  11   2.0000      -0.601358       -16.3638
  12   2.0000      -0.547227       -14.8908
  13   2.0000      -0.537601       -14.6289
  14   2.0000      -0.492434       -13.3998
  15   2.0000      -0.468087       -12.7373
  16   2.0000      -0.456175       -12.4132
  17   2.0000      -0.422020       -11.4838
  18   2.0000      -0.333464        -9.0740
  19   2.0000      -0.313873        -8.5409
  20   2.0000      -0.306285        -8.3344
  21   0.0000      -0.004705        -0.1280
  22   0.0000       0.008865         0.2412
  23   0.0000       0.144920         3.9435
  24   0.0000       0.182144         4.9564
  25   0.0000       0.195958         5.3323

MULLIKEN ATOMIC CHARGES
-----------------------
   0 N :   -0.360640
   1 C :   -0.037988
   2 H :    0.233648
   3 C :   -0.298071
   4 H :    0.232016
   5 C :   -0.133566
   6 H :    0.234969
   7 C :   -0.297835
   8 H :    0.232126
   9 C :   -0.038015
  10 H :    0.233356
Sum of atomic charges:   -0.0000000

LOEWDIN ATOMIC CHARGES
----------------------
   0 N :   -0.139984
   1 C :   -0.056472
   2 H :    0.130422
   3 C :   -0.164494
   4 H :    0.141952
   5 C :   -0.103684
   6 H :    0.141027
   7 C :   -0.164517
   8 H :    0.142014
   9 C :   -0.056553
  10 H :    0.130289

  Mayer bond orders larger than 0.100000
B(  0-N ,  1-C ) :   1.4966 B(  0-N ,  9-C ) :   1.4983 B(  1-C ,  2-H ) :   0.9171
B(  1-C ,  3-C ) :   1.3831 B(  3-C ,  4-H ) :   0.9130 B(  3-C ,  5-C ) :   1.4136
B(  5-C ,  6-H ) :   0.9183 B(  5-C ,  7-C ) :   1.4142 B(  7-C ,  8-H ) :   0.9129
B(  7-C ,  9-C ) :   1.3820 B(  9-C , 10-H ) :   0.9172

Dispersion correction           -0.005322447
FINAL SINGLE POINT ENERGY      -247.729340974917

DIPOLE MOMENT
-------------
                                X             Y             Z
Electronic contribution:     -1.30477       0.25003      -0.00000
Nuclear contribution   :      2.16309      -0.41588       0.00000
                        -----------------------------------------
Total Dipole Moment    :      0.85832      -0.16585      -0.00000
                        -----------------------------------------
Magnitude (a.u.)       :      0.87420
Magnitude (Debye)      :      2.22203

Rotational constants in cm-1:     0.202001     0.194087     0.098982
Rotational constants in MHz :  6055.827130  5818.588906  2967.419067

                             ****ORCA TERMINATED NORMALLY****
TOTAL RUN TIME: 0 days 0 hours 1 minutes 27 seconds 473 msec
