                         Program Version 5.0.3 -  RELEASE  -
|  1> ! PBEh-3c def2/J TightSCF DefGrid3
|  2>
|  3> %maxcore 60000
|  4>
|  5> %pal
|  6> nprocs 4
|  7> end
|  8>
|  9> *xyzfile 0 1 NBS.xyz
| 10>
| 11>                          ****END OF INPUT****

CARTESIAN COORDINATES (ANGSTROEM)
---------------------------------
  Br     0.000000    0.000000    1.633398
  C      0.000000    1.156349   -0.969567
  N      0.000000    0.000000   -0.185628
  O      0.000000    2.284598   -0.572597
  O      0.000000   -2.284598   -0.572597
  C      0.000000   -1.156349   -0.969567
  C      0.000000   -0.661924   -2.386321
  C      0.000000    0.661924   -2.386321
  H      0.000000    1.348248   -3.218669
  H      0.000000   -1.348248   -3.218669

 Total Charge           Charge          ....    0
 Multiplicity           Mult            ....    1
 Number of Electrons    NEL             ....   84
 Basis Dimension        Dim             ....  141

ORBITAL ENERGIES
----------------

  NO   OCC          E(Eh)            E(eV)
   0   2.0000    -484.577583    -13186.0264
   1   2.0000     -63.239207     -1720.8263
   2   2.0000     -56.944248     -1549.5318
   3   2.0000     -56.940865     -1549.4397
   4   2.0000     -56.940780     -1549.4374
   5   2.0000     -19.520237      -531.1726
   6   2.0000     -19.520223      -531.1723
   7   2.0000     -14.738160      -401.0457
   8   2.0000     -10.599030      -288.4143
   9   2.0000     -10.598988      -288.4131
  10   2.0000     -10.506646      -285.9004
  11   2.0000     -10.505638      -285.8729
  12   2.0000      -9.067944      -246.7513
  13   2.0000      -6.846470      -186.3019
  14   2.0000      -6.827526      -185.7864
  15   2.0000      -6.827277      -185.7796
  16   2.0000      -2.859705       -77.8165
  17   2.0000      -2.853792       -77.6556
  18   2.0000      -2.853697       -77.6531
  19   2.0000      -2.837360       -77.2085
  20   2.0000      -2.837358       -77.2084
  21   2.0000      -1.215854       -33.0851
  22   2.0000      -1.196233       -32.5512
  23   2.0000      -1.097694       -29.8698
  24   2.0000      -0.961210       -26.1559
  25   2.0000      -0.861613       -23.4457
  26   2.0000      -0.785908       -21.3856
  27   2.0000      -0.706235       -19.2176
  28   2.0000      -0.661286       -17.9945
  29   2.0000      -0.590048       -16.0560
  30   2.0000      -0.565501       -15.3881
  31   2.0000      -0.548922       -14.9369
  32   2.0000      -0.534459       -14.5434
  33   2.0000      -0.527593       -14.3565
  34   2.0000      -0.510473       -13.8907
  35   2.0000      -0.479927       -13.0595
  36   2.0000      -0.416588       -11.3359
  37   2.0000      -0.381540       -10.3822
  38   2.0000      -0.373675       -10.1682
  39   2.0000      -0.369903       -10.0656
  40   2.0000      -0.347323        -9.4511
  41   2.0000      -0.322550        -8.7770
  42   0.0000      -0.086440        -2.3522
  43   0.0000      -0.033213        -0.9038
  44   0.0000       0.080755         2.1975
  45   0.0000       0.088866         2.4182
  46   0.0000       0.155236         4.2242

MULLIKEN ATOMIC CHARGES
-----------------------
   0 Br:    0.232111
   1 C :    0.577669
   2 N :   -0.709944
   3 O :   -0.321396
   4 O :   -0.321396
   5 C :    0.577669
   6 C :   -0.289580
   7 C :   -0.289580
   8 H :    0.272223
   9 H :    0.272223
Sum of atomic charges:    0.0000000

LOEWDIN ATOMIC CHARGES
----------------------
   0 Br:    0.223658
   1 C :    0.122088
   2 N :   -0.225718
   3 O :   -0.159692
   4 O :   -0.159692
   5 C :    0.122088
   6 C :   -0.124396
   7 C :   -0.124396
   8 H :    0.163030
   9 H :    0.163030

  Mayer bond orders larger than 0.100000
B(  0-Br,  2-N ) :   0.9402 B(  1-C ,  2-N ) :   0.9507 B(  1-C ,  3-O ) :   2.1077
B(  1-C ,  7-C ) :   0.9665 B(  2-N ,  5-C ) :   0.9507 B(  4-O ,  5-C ) :   2.1077
B(  5-C ,  6-C ) :   0.9665 B(  6-C ,  7-C ) :   1.7713 B(  6-C ,  9-H ) :   0.9092
B(  7-C ,  8-H ) :   0.9092

Dispersion correction           -0.005723554
FINAL SINGLE POINT ENERGY     -2931.037136108893

DIPOLE MOMENT
-------------
                                X             Y             Z
Electronic contribution:      0.00000       0.00000      19.35111
Nuclear contribution   :      0.00000      -0.00000     -20.28133
                        -----------------------------------------
Total Dipole Moment    :      0.00000       0.00000      -0.93022
                        -----------------------------------------
Magnitude (a.u.)       :      0.93022
Magnitude (Debye)      :      2.36442

Rotational constants in cm-1:     0.079025     0.041983     0.027417
Rotational constants in MHz :  2369.108806  1258.618762   821.948379

                             ****ORCA TERMINATED NORMALLY****
TOTAL RUN TIME: 0 days 0 hours 2 minutes 19 seconds 361 msec
