                         Program Version 5.0.3 -  RELEASE  -
|  1> ! PBEh-3c def2/J TightSCF DefGrid3
|  2>
|  3> %maxcore 60000
|  4>
|  5> %pal
|  6> nprocs 4
|  7> end
|  8>
|  9> *xyzfile 2 1 ph3_2+.xyz
| 10>
| 11>                          ****END OF INPUT****

CARTESIAN COORDINATES (ANGSTROEM)
---------------------------------
  P      0.000000    0.000000    0.000000
  H      0.722345   -1.251138    0.000000
  H      0.722345    1.251138    0.000000
  H     -1.444690    0.000000    0.000000

 Total Charge           Charge          ....    2
 Multiplicity           Mult            ....    1
 Number of Electrons    NEL             ....   16
 Basis Dimension        Dim             ....   24

ORBITAL ENERGIES
----------------

  NO   OCC          E(Eh)            E(eV)
   0   2.0000     -78.490131     -2135.8250
   1   2.0000      -7.561142      -205.7491
   2   2.0000      -5.655628      -153.8975
   3   2.0000      -5.648183      -153.6949
   4   2.0000      -5.648182      -153.6949
   5   2.0000      -1.350349       -36.7449
   6   2.0000      -1.078724       -29.3536
   7   2.0000      -1.078723       -29.3535
   8   0.0000      -0.747139       -20.3307
   9   0.0000      -0.530741       -14.4422
  10   0.0000      -0.471948       -12.8424
  11   0.0000      -0.471948       -12.8423
  12   0.0000      -0.251145        -6.8340

MULLIKEN ATOMIC CHARGES
-----------------------
   0 P :    0.829955
   1 H :    0.390019
   2 H :    0.390019
   3 H :    0.390008
Sum of atomic charges:    2.0000000

LOEWDIN ATOMIC CHARGES
----------------------
   0 P :    1.187792
   1 H :    0.270737
   2 H :    0.270737
   3 H :    0.270734

  Mayer bond orders larger than 0.100000
B(  0-P ,  1-H ) :   0.8156 B(  0-P ,  2-H ) :   0.8156 B(  0-P ,  3-H ) :   0.8156

Dispersion correction           -0.000697823
FINAL SINGLE POINT ENERGY      -341.684745061132

DIPOLE MOMENT
-------------
                                X             Y             Z
Electronic contribution:     -0.00001      -0.00000       0.00000
Nuclear contribution   :     -0.00000       0.00000       0.00000
                        -----------------------------------------
Total Dipole Moment    :     -0.00001      -0.00000       0.00000
                        -----------------------------------------
Magnitude (a.u.)       :      0.00001
Magnitude (Debye)      :      0.00003

Rotational constants in cm-1:     5.341901     5.341901     2.670951
Rotational constants in MHz : 160146.177519 160146.171088 80073.087152

                             ****ORCA TERMINATED NORMALLY****
TOTAL RUN TIME: 0 days 0 hours 0 minutes 34 seconds 721 msec
