                         Program Version 5.0.3 -  RELEASE  -
|  1> ! PBEh-3c def2/J TightSCF DefGrid3
|  2>
|  3> %maxcore 60000
|  4>
|  5> %pal
|  6> nprocs 4
|  7> end
|  8>
|  9> *xyzfile 0 1 TS2.xyz
| 10>
| 11>                          ****END OF INPUT****

CARTESIAN COORDINATES (ANGSTROEM)
---------------------------------
  C     -0.122821   -1.090540    1.140653
  C      0.171996    0.233019    1.482489
  C     -0.122821    1.355495    0.702964
  C     -0.122821    1.355495   -0.702964
  C      0.171996    0.233019   -1.482489
  C     -0.122821   -1.090540   -1.140653
  H      0.824542    0.409452    2.340489
  H     -0.033317    2.333176    1.175106
  H     -0.033317    2.333176   -1.175106
  H      0.824542    0.409452   -2.340489
  H      0.430312   -1.886029   -1.641147
  H     -1.147893   -1.354574   -0.936255
  H      0.430312   -1.886029    1.641147
  H     -1.147893   -1.354574    0.936255

 Total Charge           Charge          ....    0
 Multiplicity           Mult            ....    1
 Number of Electrons    NEL             ....   44
 Basis Dimension        Dim             ....  106

ORBITAL ENERGIES
----------------

  NO   OCC          E(Eh)            E(eV)
   0   2.0000     -10.453162      -284.4450
   1   2.0000     -10.453103      -284.4434
   2   2.0000     -10.448539      -284.3192
   3   2.0000     -10.448045      -284.3058
   4   2.0000     -10.445991      -284.2499
   5   2.0000     -10.445934      -284.2483
   6   2.0000      -0.918245       -24.9867
   7   2.0000      -0.848188       -23.0804
   8   2.0000      -0.804483       -21.8911
   9   2.0000      -0.708961       -19.2918
  10   2.0000      -0.656250       -17.8575
  11   2.0000      -0.562824       -15.3152
  12   2.0000      -0.556239       -15.1360
  13   2.0000      -0.514276       -13.9942
  14   2.0000      -0.499593       -13.5946
  15   2.0000      -0.468744       -12.7552
  16   2.0000      -0.424727       -11.5574
  17   2.0000      -0.414039       -11.2666
  18   2.0000      -0.406800       -11.0696
  19   2.0000      -0.381143       -10.3714
  20   2.0000      -0.273785        -7.4501
  21   2.0000      -0.258328        -7.0294
  22   0.0000       0.003710         0.1009
  23   0.0000       0.007787         0.2119
  24   0.0000       0.120387         3.2759
  25   0.0000       0.141695         3.8557
  26   0.0000       0.167691         4.5631

MULLIKEN ATOMIC CHARGES
-----------------------
   0 C :   -0.495273
   1 C :   -0.176095
   2 C :   -0.235695
   3 C :   -0.235695
   4 C :   -0.176095
   5 C :   -0.495273
   6 H :    0.225293
   7 H :    0.218319
   8 H :    0.218319
   9 H :    0.225293
  10 H :    0.217463
  11 H :    0.245988
  12 H :    0.217463
  13 H :    0.245988
Sum of atomic charges:   -0.0000000

LOEWDIN ATOMIC CHARGES
----------------------
   0 C :   -0.243480
   1 C :   -0.153855
   2 C :   -0.151600
   3 C :   -0.151600
   4 C :   -0.153855
   5 C :   -0.243480
   6 H :    0.137872
   7 H :    0.135306
   8 H :    0.135306
   9 H :    0.137872
  10 H :    0.131657
  11 H :    0.144100
  12 H :    0.131657
  13 H :    0.144100

  Mayer bond orders larger than 0.100000
B(  0-C ,  1-C ) :   1.4327 B(  0-C ,  5-C ) :   0.4300 B(  0-C , 12-H ) :   0.9258
B(  0-C , 13-H ) :   0.9065 B(  1-C ,  2-C ) :   1.4259 B(  1-C ,  6-H ) :   0.9106
B(  2-C ,  3-C ) :   1.4243 B(  2-C ,  7-H ) :   0.9172 B(  3-C ,  4-C ) :   1.4259
B(  3-C ,  8-H ) :   0.9172 B(  4-C ,  5-C ) :   1.4327 B(  4-C ,  9-H ) :   0.9106
B(  5-C , 10-H ) :   0.9258 B(  5-C , 11-H ) :   0.9065

Dispersion correction           -0.006993318
FINAL SINGLE POINT ENERGY      -232.815598607361

DIPOLE MOMENT
-------------
                                X             Y             Z
Electronic contribution:     -0.16057       1.84385       0.00000
Nuclear contribution   :      0.28998      -1.96080       0.00000
                        -----------------------------------------
Total Dipole Moment    :      0.12941      -0.11695       0.00000
                        -----------------------------------------
Magnitude (a.u.)       :      0.17442
Magnitude (Debye)      :      0.44335

Rotational constants in cm-1:     0.167738     0.137407     0.079628
Rotational constants in MHz :  5028.668449  4119.369029  2387.183964

                             ****ORCA TERMINATED NORMALLY****
TOTAL RUN TIME: 0 days 0 hours 1 minutes 21 seconds 86 msec
