                         Program Version 5.0.3 -  RELEASE  -
|  1> ! PBEh-3c def2/J TightSCF DefGrid3
|  2>
|  3> %maxcore 60000
|  4>
|  5> %pal
|  6> nprocs 4
|  7> end
|  8>
|  9> *xyzfile 0 1 NH3_F3CI.xyz
| 10>
| 11>                          ****END OF INPUT****

CARTESIAN COORDINATES (ANGSTROEM)
---------------------------------
  N      0.000000    0.000000    3.542567
  H      0.815876   -0.471046    3.910056
  H      0.000000    0.942092    3.910056
  H     -0.815876   -0.471046    3.910056
  I      0.000000    0.000000    0.550268
  C      0.000000    0.000000   -1.592898
  F      0.000000    1.244973   -2.079072
  F     -1.078178   -0.622486   -2.079072
  F      1.078178   -0.622486   -2.079072

 Total Charge           Charge          ....    0
 Multiplicity           Mult            ....    1
 Number of Electrons    NEL             ....   68
 Basis Dimension        Dim             ....  107

ORBITAL ENERGIES
----------------

  NO   OCC          E(Eh)            E(eV)
   0   2.0000     -25.130885      -683.8461
   1   2.0000     -25.130786      -683.8434
   2   2.0000     -25.130785      -683.8434
   3   2.0000     -14.640348      -398.3841
   4   2.0000     -10.715507      -291.5838
   5   2.0000      -7.096398      -193.1028
   6   2.0000      -5.081293      -138.2690
   7   2.0000      -5.062448      -137.7562
   8   2.0000      -5.062448      -137.7562
   9   2.0000      -2.035017       -55.3756
  10   2.0000      -2.029153       -55.2161
  11   2.0000      -2.029152       -55.2160
  12   2.0000      -2.012931       -54.7746
  13   2.0000      -2.012930       -54.7746
  14   2.0000      -1.444190       -39.2984
  15   2.0000      -1.349779       -36.7293
  16   2.0000      -1.349776       -36.7293
  17   2.0000      -0.974485       -26.5171
  18   2.0000      -0.821304       -22.3488
  19   2.0000      -0.747705       -20.3461
  20   2.0000      -0.665565       -18.1109
  21   2.0000      -0.665564       -18.1109
  22   2.0000      -0.617326       -16.7983
  23   2.0000      -0.551189       -14.9986
  24   2.0000      -0.551188       -14.9986
  25   2.0000      -0.541568       -14.7368
  26   2.0000      -0.541565       -14.7367
  27   2.0000      -0.502182       -13.6651
  28   2.0000      -0.502176       -13.6649
  29   2.0000      -0.479876       -13.0581
  30   2.0000      -0.412902       -11.2356
  31   2.0000      -0.337636        -9.1875
  32   2.0000      -0.311043        -8.4639
  33   2.0000      -0.311043        -8.4639
  34   0.0000       0.003305         0.0899
  35   0.0000       0.120851         3.2885
  36   0.0000       0.184150         5.0110
  37   0.0000       0.184150         5.0110
  38   0.0000       0.197605         5.3771

MULLIKEN ATOMIC CHARGES
-----------------------
   0 N :   -0.954307
   1 H :    0.342651
   2 H :    0.342645
   3 H :    0.342651
   4 I :    0.056634
   5 C :    0.719118
   6 F :   -0.283126
   7 F :   -0.283133
   8 F :   -0.283133
Sum of atomic charges:   -0.0000000

LOEWDIN ATOMIC CHARGES
----------------------
   0 N :   -0.615928
   1 H :    0.231820
   2 H :    0.231817
   3 H :    0.231820
   4 I :    0.096507
   5 C :    0.217491
   6 F :   -0.131172
   7 F :   -0.131176
   8 F :   -0.131176

  Mayer bond orders larger than 0.100000
B(  0-N ,  1-H ) :   0.8623 B(  0-N ,  2-H ) :   0.8623 B(  0-N ,  3-H ) :   0.8623
B(  0-N ,  4-I ) :   0.1101 B(  4-I ,  5-C ) :   0.9513 B(  5-C ,  6-F ) :   1.0081
B(  5-C ,  7-F ) :   1.0081 B(  5-C ,  8-F ) :   1.0081

Dispersion correction           -0.002769428
FINAL SINGLE POINT ENERGY      -691.161255043090

DIPOLE MOMENT
-------------
                                X             Y             Z
Electronic contribution:     -0.00000       0.00001      27.17212
Nuclear contribution   :      0.00000       0.00000     -25.28197
                        -----------------------------------------
Total Dipole Moment    :     -0.00000       0.00002       1.89014
                        -----------------------------------------
Magnitude (a.u.)       :      1.89014
Magnitude (Debye)      :      4.80437

Rotational constants in cm-1:     0.185204     0.028935     0.028935
Rotational constants in MHz :  5552.269184   867.458149   867.458147

                             ****ORCA TERMINATED NORMALLY****
TOTAL RUN TIME: 0 days 0 hours 1 minutes 46 seconds 938 msec
