                         Program Version 5.0.3 -  RELEASE  -
|  1> ! PBEh-3c def2/J TightSCF DefGrid3
|  2>
|  3> %maxcore 60000
|  4>
|  5> %pal
|  6> nprocs 4
|  7> end
|  8>
|  9> *xyzfile 0 1 H2S2O7_1.xyz
| 10>
| 11>                          ****END OF INPUT****

CARTESIAN COORDINATES (ANGSTROEM)
---------------------------------
  O     -2.089383    0.824263   -0.794519
  S     -1.203957   -0.202379    0.037937
  O     -0.969365    0.414699    1.318359
  O     -1.728157   -1.525564   -0.098894
  O      0.167341   -0.068237   -0.841569
  S      1.657709   -0.264327   -0.053627
  O      1.664025    1.028176    0.856751
  O      1.559931   -1.455899    0.733343
  O      2.606895   -0.063316   -1.094238
  H     -2.538174    0.338751   -1.514961
  H      0.873134    0.973834    1.451419

 Total Charge           Charge          ....    0
 Multiplicity           Mult            ....    1
 Number of Electrons    NEL             ....   90
 Basis Dimension        Dim             ....  145

ORBITAL ENERGIES
----------------

  NO   OCC          E(Eh)            E(eV)
   0   2.0000     -89.936139     -2447.2868
   1   2.0000     -89.921347     -2446.8842
   2   2.0000     -19.616628      -533.7956
   3   2.0000     -19.613863      -533.7203
   4   2.0000     -19.598339      -533.2979
   5   2.0000     -19.563242      -532.3429
   6   2.0000     -19.556563      -532.1611
   7   2.0000     -19.548632      -531.9453
   8   2.0000     -19.546170      -531.8783
   9   2.0000      -8.531666      -232.1584
  10   2.0000      -8.517549      -231.7743
  11   2.0000      -6.425113      -174.8362
  12   2.0000      -6.423924      -174.8039
  13   2.0000      -6.421064      -174.7260
  14   2.0000      -6.411827      -174.4747
  15   2.0000      -6.409176      -174.4026
  16   2.0000      -6.406444      -174.3282
  17   2.0000      -1.363355       -37.0988
  18   2.0000      -1.325576       -36.0708
  19   2.0000      -1.219712       -33.1901
  20   2.0000      -1.209728       -32.9184
  21   2.0000      -1.196030       -32.5456
  22   2.0000      -1.191318       -32.4174
  23   2.0000      -1.182931       -32.1892
  24   2.0000      -0.842147       -22.9160
  25   2.0000      -0.774020       -21.0622
  26   2.0000      -0.723194       -19.6791
  27   2.0000      -0.666448       -18.1350
  28   2.0000      -0.640212       -17.4210
  29   2.0000      -0.630565       -17.1585
  30   2.0000      -0.606373       -16.5003
  31   2.0000      -0.578050       -15.7295
  32   2.0000      -0.568786       -15.4775
  33   2.0000      -0.549803       -14.9609
  34   2.0000      -0.513849       -13.9825
  35   2.0000      -0.507915       -13.8211
  36   2.0000      -0.483868       -13.1667
  37   2.0000      -0.476509       -12.9665
  38   2.0000      -0.464017       -12.6266
  39   2.0000      -0.454643       -12.3715
  40   2.0000      -0.443959       -12.0807
  41   2.0000      -0.437322       -11.9001
  42   2.0000      -0.427096       -11.6219
  43   2.0000      -0.416280       -11.3275
  44   2.0000      -0.410057       -11.1582
  45   0.0000       0.002653         0.0722
  46   0.0000       0.051296         1.3958
  47   0.0000       0.059596         1.6217
  48   0.0000       0.070186         1.9099
  49   0.0000       0.100800         2.7429

MULLIKEN ATOMIC CHARGES
-----------------------
   0 O :   -0.656667
   1 S :    1.633499
   2 O :   -0.607510
   3 O :   -0.539888
   4 O :   -0.665528
   5 S :    1.612125
   6 O :   -0.672665
   7 O :   -0.547838
   8 O :   -0.526698
   9 H :    0.479411
  10 H :    0.491759
Sum of atomic charges:    0.0000000

LOEWDIN ATOMIC CHARGES
----------------------
   0 O :   -0.448863
   1 S :    1.314572
   2 O :   -0.514226
   3 O :   -0.475414
   4 O :   -0.491560
   5 S :    1.316091
   6 O :   -0.455436
   7 O :   -0.480613
   8 O :   -0.455286
   9 H :    0.350974
  10 H :    0.339761

  Mayer bond orders larger than 0.100000
B(  0-O ,  1-S ) :   1.0362 B(  0-O ,  9-H ) :   0.7268 B(  1-S ,  2-O ) :   1.6930
B(  1-S ,  3-O ) :   1.8323 B(  1-S ,  4-O ) :   0.8931 B(  4-O ,  5-S ) :   0.7545
B(  5-S ,  6-O ) :   1.0649 B(  5-S ,  7-O ) :   1.8043 B(  5-S ,  8-O ) :   1.8408
B(  6-O , 10-H ) :   0.6633

Dispersion correction           -0.006529817
FINAL SINGLE POINT ENERGY     -1322.035328979861

DIPOLE MOMENT
-------------
                                X             Y             Z
Electronic contribution:      0.72783      -0.91261      -0.33535
Nuclear contribution   :     -1.90528       1.52563      -0.06555
                        -----------------------------------------
Total Dipole Moment    :     -1.17744       0.61301      -0.40090
                        -----------------------------------------
Magnitude (a.u.)       :      1.38668
Magnitude (Debye)      :      3.52466

Rotational constants in cm-1:     0.086148     0.030402     0.029916
Rotational constants in MHz :  2582.640229   911.424926   896.868542

                             ****ORCA TERMINATED NORMALLY****
TOTAL RUN TIME: 0 days 0 hours 2 minutes 7 seconds 46 msec
