                         Program Version 5.0.3 -  RELEASE  -
|  1> ! PBEh-3c def2/J TightSCF DefGrid3
|  2>
|  3> %maxcore 60000
|  4>
|  5> %pal
|  6> nprocs 4
|  7> end
|  8>
|  9> *xyzfile 0 1 PRO_xad.xyz
| 10>
| 11>                          ****END OF INPUT****

CARTESIAN COORDINATES (ANGSTROEM)
---------------------------------
  N      2.486991    1.147891    2.905072
  C      3.733608    1.924478    2.797838
  C      4.380730    2.071993    4.184545
  O      4.297867    3.102348    4.846325
  C      3.287432    3.272934    2.226120
  C      1.877218    3.025639    1.687865
  C      1.326517    2.001117    2.672295
  H      4.411524    1.377483    2.141592
  H      3.975865    3.635059    1.466946
  H      3.268445    3.991011    3.044197
  H      1.912794    2.581714    0.692684
  H      1.276229    3.931275    1.643211
  H      0.492694    1.426705    2.281211
  H      1.017574    2.483939    3.602705
  N      5.028911    0.960082    4.590661
  H      4.851133    0.120181    4.050297
  C      5.577735    0.872598    5.926296
  H      6.359749    0.119008    5.944354
  H      5.997119    1.837319    6.195106
  H      4.818115    0.614920    6.665346
  C      2.516651   -0.206390    2.910366
  O      3.581369   -0.833306    2.948016
  C      1.187675   -0.921006    2.870973
  H      1.374099   -1.975011    3.044422
  H      0.503423   -0.539454    3.625884
  H      0.715832   -0.802324    1.895972

 Total Charge           Charge          ....    0
 Multiplicity           Mult            ....    1
 Number of Electrons    NEL             ....   92
 Basis Dimension        Dim             ....  208

ORBITAL ENERGIES
----------------

  NO   OCC          E(Eh)            E(eV)
   0   2.0000     -19.468599      -529.7675
   1   2.0000     -19.450636      -529.2787
   2   2.0000     -14.679146      -399.4399
   3   2.0000     -14.643131      -398.4598
   4   2.0000     -10.559195      -287.3303
   5   2.0000     -10.534299      -286.6529
   6   2.0000     -10.488189      -285.3981
   7   2.0000     -10.486621      -285.3555
   8   2.0000     -10.454722      -284.4875
   9   2.0000     -10.450495      -284.3724
  10   2.0000     -10.449838      -284.3546
  11   2.0000     -10.439995      -284.0867
  12   2.0000      -1.154504       -31.4156
  13   2.0000      -1.131682       -30.7946
  14   2.0000      -1.058252       -28.7965
  15   2.0000      -1.007938       -27.4274
  16   2.0000      -0.898631       -24.4530
  17   2.0000      -0.858113       -23.3504
  18   2.0000      -0.825807       -22.4713
  19   2.0000      -0.782758       -21.2999
  20   2.0000      -0.731022       -19.8921
  21   2.0000      -0.676412       -18.4061
  22   2.0000      -0.650781       -17.7087
  23   2.0000      -0.626759       -17.0550
  24   2.0000      -0.592029       -16.1099
  25   2.0000      -0.566440       -15.4136
  26   2.0000      -0.558304       -15.1922
  27   2.0000      -0.521320       -14.1858
  28   2.0000      -0.516028       -14.0418
  29   2.0000      -0.508702       -13.8425
  30   2.0000      -0.493896       -13.4396
  31   2.0000      -0.492752       -13.4085
  32   2.0000      -0.480147       -13.0655
  33   2.0000      -0.468524       -12.7492
  34   2.0000      -0.456118       -12.4116
  35   2.0000      -0.453261       -12.3339
  36   2.0000      -0.435130       -11.8405
  37   2.0000      -0.419860       -11.4250
  38   2.0000      -0.412694       -11.2300
  39   2.0000      -0.410415       -11.1679
  40   2.0000      -0.406104       -11.0506
  41   2.0000      -0.387920       -10.5558
  42   2.0000      -0.325627        -8.8608
  43   2.0000      -0.318437        -8.6651
  44   2.0000      -0.292172        -7.9504
  45   2.0000      -0.283321        -7.7096
  46   0.0000       0.043808         1.1921
  47   0.0000       0.062910         1.7119
  48   0.0000       0.119205         3.2437
  49   0.0000       0.145698         3.9647
  50   0.0000       0.158103         4.3022

MULLIKEN ATOMIC CHARGES
-----------------------
   0 N :   -0.450925
   1 C :   -0.216963
   2 C :    0.562014
   3 O :   -0.436732
   4 C :   -0.474171
   5 C :   -0.444349
   6 C :   -0.277921
   7 H :    0.270360
   8 H :    0.240965
   9 H :    0.276919
  10 H :    0.223688
  11 H :    0.237118
  12 H :    0.238410
  13 H :    0.241344
  14 N :   -0.645272
  15 H :    0.407499
  16 C :   -0.490652
  17 H :    0.219146
  18 H :    0.249203
  19 H :    0.218321
  20 C :    0.535898
  21 O :   -0.472612
  22 C :   -0.772762
  23 H :    0.275914
  24 H :    0.244060
  25 H :    0.241503
Sum of atomic charges:    0.0000000

LOEWDIN ATOMIC CHARGES
----------------------
   0 N :   -0.112400
   1 C :   -0.080038
   2 C :    0.102690
   3 O :   -0.283316
   4 C :   -0.239559
   5 C :   -0.240429
   6 C :   -0.134174
   7 H :    0.144661
   8 H :    0.136328
   9 H :    0.154925
  10 H :    0.127678
  11 H :    0.134250
  12 H :    0.131177
  13 H :    0.127706
  14 N :   -0.248827
  15 H :    0.267887
  16 C :   -0.254315
  17 H :    0.125127
  18 H :    0.142986
  19 H :    0.119437
  20 C :    0.117894
  21 O :   -0.304663
  22 C :   -0.387664
  23 H :    0.158335
  24 H :    0.146290
  25 H :    0.148012

  Mayer bond orders larger than 0.100000
B(  0-N ,  1-C ) :   0.9247 B(  0-N ,  6-C ) :   0.9416 B(  0-N , 20-C ) :   1.1917
B(  1-C ,  2-C ) :   0.8741 B(  1-C ,  4-C ) :   0.9659 B(  1-C ,  7-H ) :   0.8871
B(  2-C ,  3-O ) :   1.9629 B(  2-C , 14-N ) :   1.1878 B(  4-C ,  5-C ) :   0.9756
B(  4-C ,  8-H ) :   0.9243 B(  4-C ,  9-H ) :   0.8816 B(  5-C ,  6-C ) :   0.9572
B(  5-C , 10-H ) :   0.9172 B(  5-C , 11-H ) :   0.9228 B(  6-C , 12-H ) :   0.9096
B(  6-C , 13-H ) :   0.8987 B( 14-N , 15-H ) :   0.7302 B( 14-N , 16-C ) :   0.9623
B( 16-C , 17-H ) :   0.9261 B( 16-C , 18-H ) :   0.9106 B( 16-C , 19-H ) :   0.9182
B( 20-C , 21-O ) :   1.8601 B( 20-C , 22-C ) :   0.9370 B( 22-C , 23-H ) :   0.9124
B( 22-C , 24-H ) :   0.9087 B( 22-C , 25-H ) :   0.9081

Dispersion correction           -0.015640986
FINAL SINGLE POINT ENERGY      -572.043591231604

DIPOLE MOMENT
-------------
                                X             Y             Z
Electronic contribution:      3.60294      -0.22648       0.60896
Nuclear contribution   :     -4.71208      -0.07261      -1.30211
                        -----------------------------------------
Total Dipole Moment    :     -1.10915      -0.29909      -0.69315
                        -----------------------------------------
Magnitude (a.u.)       :      1.34168
Magnitude (Debye)      :      3.41029

Rotational constants in cm-1:     0.039743     0.028348     0.018777
Rotational constants in MHz :  1191.453660   849.844537   562.908332

                             ****ORCA TERMINATED NORMALLY****
TOTAL RUN TIME: 0 days 0 hours 2 minutes 49 seconds 228 msec
