                         Program Version 5.0.3 -  RELEASE  -
|  1> ! PBEh-3c def2/J TightSCF DefGrid3
|  2>
|  3> %maxcore 60000
|  4>
|  5> %pal
|  6> nprocs 4
|  7> end
|  8>
|  9> *xyzfile 0 1 25_benBr-mSHA.xyz
| 10>
| 11>                          ****END OF INPUT****

CARTESIAN COORDINATES (ANGSTROEM)
---------------------------------
  C     -0.189833   -0.645396    0.069808
  C      1.121636   -0.354066    0.439097
  C      1.486521    0.962573    0.712107
  C      0.549329    1.989209    0.617869
  C     -0.757627    1.681863    0.246857
  C     -1.138191    0.370552   -0.028582
  Br    -2.038463    3.070460    0.115165
  H      1.852935   -1.146435    0.514119
  H      0.825049    3.012177    0.829385
  H      2.502260    1.196434    1.000317
  H     -2.157140    0.151608   -0.313181
  H     -0.480820   -1.664984   -0.142918

 Total Charge           Charge          ....    0
 Multiplicity           Mult            ....    1
 Number of Electrons    NEL             ....   76
 Basis Dimension        Dim             ....  132

ORBITAL ENERGIES
----------------

  NO   OCC          E(Eh)            E(eV)
   0   2.0000    -484.528468    -13184.6899
   1   2.0000     -63.191641     -1719.5320
   2   2.0000     -56.895654     -1548.2094
   3   2.0000     -56.893821     -1548.1596
   4   2.0000     -56.893772     -1548.1583
   5   2.0000     -10.513008      -286.0735
   6   2.0000     -10.466153      -284.7985
   7   2.0000     -10.466117      -284.7975
   8   2.0000     -10.464288      -284.7478
   9   2.0000     -10.464222      -284.7460
  10   2.0000     -10.461224      -284.6644
  11   2.0000      -9.020844      -245.4696
  12   2.0000      -6.795190      -184.9065
  13   2.0000      -6.782860      -184.5710
  14   2.0000      -6.782765      -184.5684
  15   2.0000      -2.808880       -76.4335
  16   2.0000      -2.805078       -76.3300
  17   2.0000      -2.804964       -76.3270
  18   2.0000      -2.794390       -76.0392
  19   2.0000      -2.794384       -76.0391
  20   2.0000      -0.979197       -26.6453
  21   2.0000      -0.898877       -24.4597
  22   2.0000      -0.854023       -23.2391
  23   2.0000      -0.813681       -22.1414
  24   2.0000      -0.700673       -19.0663
  25   2.0000      -0.678939       -18.4749
  26   2.0000      -0.596175       -16.2227
  27   2.0000      -0.534284       -14.5386
  28   2.0000      -0.531106       -14.4521
  29   2.0000      -0.498924       -13.5764
  30   2.0000      -0.481651       -13.1064
  31   2.0000      -0.448935       -12.2162
  32   2.0000      -0.418836       -11.3971
  33   2.0000      -0.410509       -11.1705
  34   2.0000      -0.366583        -9.9752
  35   2.0000      -0.339507        -9.2385
  36   2.0000      -0.308669        -8.3993
  37   2.0000      -0.286611        -7.7991
  38   0.0000       0.002415         0.0657
  39   0.0000       0.003334         0.0907
  40   0.0000       0.039105         1.0641
  41   0.0000       0.152857         4.1595
  42   0.0000       0.177807         4.8384

MULLIKEN ATOMIC CHARGES
-----------------------
   0 C :   -0.217462
   1 C :   -0.220737
   2 C :   -0.217459
   3 C :   -0.205345
   4 C :   -0.084148
   5 C :   -0.205385
   6 Br:   -0.031727
   7 H :    0.227939
   8 H :    0.246583
   9 H :    0.230583
  10 H :    0.246569
  11 H :    0.230587
Sum of atomic charges:    0.0000000

LOEWDIN ATOMIC CHARGES
----------------------
   0 C :   -0.125968
   1 C :   -0.134666
   2 C :   -0.125968
   3 C :   -0.140662
   4 C :   -0.122298
   5 C :   -0.140654
   6 Br:    0.069152
   7 H :    0.140172
   8 H :    0.148803
   9 H :    0.141642
  10 H :    0.148806
  11 H :    0.141642

  Mayer bond orders larger than 0.100000
B(  0-C ,  1-C ) :   1.4209 B(  0-C ,  5-C ) :   1.4275 B(  0-C , 11-H ) :   0.9157
B(  1-C ,  2-C ) :   1.4209 B(  1-C ,  7-H ) :   0.9177 B(  2-C ,  3-C ) :   1.4275
B(  2-C ,  9-H ) :   0.9157 B(  3-C ,  4-C ) :   1.3719 B(  3-C ,  8-H ) :   0.9096
B(  4-C ,  5-C ) :   1.3720 B(  4-C ,  6-Br) :   1.0350 B(  5-C , 10-H ) :   0.9096

Dispersion correction           -0.006902833
FINAL SINGLE POINT ENERGY     -2804.138672276504

DIPOLE MOMENT
-------------
                                X             Y             Z
Electronic contribution:    -16.51728      17.90289      -1.69906
Nuclear contribution   :     16.99813     -18.42449       1.74962
                        -----------------------------------------
Total Dipole Moment    :      0.48085      -0.52160       0.05057
                        -----------------------------------------
Magnitude (a.u.)       :      0.71122
Magnitude (Debye)      :      1.80778

Rotational constants in cm-1:     0.189918     0.032947     0.028076
Rotational constants in MHz :  5693.598312   987.722788   841.704366

                             ****ORCA TERMINATED NORMALLY****
TOTAL RUN TIME: 0 days 0 hours 1 minutes 38 seconds 187 msec
