                         Program Version 5.0.3 -  RELEASE  -
|  1> ! PBEh-3c def2/J TightSCF DefGrid3
|  2>
|  3> %maxcore 60000
|  4>
|  5> %pal
|  6> nprocs 4
|  7> end
|  8>
|  9> *xyzfile 0 1 nh3.xyz
| 10>
| 11>                          ****END OF INPUT****

CARTESIAN COORDINATES (ANGSTROEM)
---------------------------------
  N     -0.000000    0.283246    0.000000
  H      0.936233   -0.094415    0.000000
  H     -0.468116   -0.094415    0.810801
  H     -0.468116   -0.094415   -0.810801

 Total Charge           Charge          ....    0
 Multiplicity           Mult            ....    1
 Number of Electrons    NEL             ....   10
 Basis Dimension        Dim             ....   21

ORBITAL ENERGIES
----------------

  NO   OCC          E(Eh)            E(eV)
   0   2.0000     -14.595188      -397.1553
   1   2.0000      -0.936050       -25.4712
   2   2.0000      -0.511867       -13.9286
   3   2.0000      -0.511866       -13.9286
   4   2.0000      -0.306005        -8.3268
   5   0.0000       0.142851         3.8872
   6   0.0000       0.226896         6.1741
   7   0.0000       0.226896         6.1742
   8   0.0000       0.761883        20.7319
   9   0.0000       0.761884        20.7319

MULLIKEN ATOMIC CHARGES
-----------------------
   0 N :   -0.944161
   1 H :    0.314722
   2 H :    0.314719
   3 H :    0.314719
Sum of atomic charges:   -0.0000000

LOEWDIN ATOMIC CHARGES
----------------------
   0 N :   -0.648972
   1 H :    0.216325
   2 H :    0.216324
   3 H :    0.216324

  Mayer bond orders larger than 0.100000
B(  0-N ,  1-H ) :   0.8803 B(  0-N ,  2-H ) :   0.8803 B(  0-N ,  3-H ) :   0.8803

Dispersion correction           -0.000444553
FINAL SINGLE POINT ENERGY       -56.428147111513

DIPOLE MOMENT
-------------
                                X             Y             Z
Electronic contribution:      0.00001       0.12538       0.00000
Nuclear contribution   :      0.00000      -0.87384       0.00000
                        -----------------------------------------
Total Dipole Moment    :      0.00001      -0.74846       0.00000
                        -----------------------------------------
Magnitude (a.u.)       :      0.74846
Magnitude (Debye)      :      1.90244

Rotational constants in cm-1:    10.034069    10.034062     6.359863
Rotational constants in MHz : 300813.807707 300813.623059 190663.897873

                             ****ORCA TERMINATED NORMALLY****
TOTAL RUN TIME: 0 days 0 hours 0 minutes 38 seconds 477 msec
