                         Program Version 5.0.3 -  RELEASE  -
|  1> ! PBEh-3c def2/J TightSCF DefGrid3
|  2>
|  3> %maxcore 60000
|  4>
|  5> %pal
|  6> nprocs 4
|  7> end
|  8>
|  9> *xyzfile 0 1 i7p.xyz
| 10>
| 11>                          ****END OF INPUT****

CARTESIAN COORDINATES (ANGSTROEM)
---------------------------------
  C     -4.153244   -1.688778    0.634182
  C     -5.429608   -0.823124    0.688598
  C     -5.078512    0.668236    0.751625
  C     -4.203864    1.056882   -0.457722
  C     -2.965474    0.187919   -0.573712
  C     -3.227402   -1.268415   -0.494669
  C      1.035679    2.063201   -1.196801
  C      0.756013    0.601997   -0.907833
  C     -0.466086    0.053840   -0.711551
  C     -1.733493    0.749834   -0.689632
  C      2.055964    2.679341   -0.203455
  C      2.031085   -0.190511   -0.835772
  C      3.332924    1.823969   -0.074093
  C      2.993276    0.365129    0.263697
  C      2.030720   -1.707726   -0.589778
  C      4.172254   -0.628372    0.117332
  C      2.356119    0.268215    1.664096
  C      3.474252   -2.008749   -0.076326
  C     -2.725674   -2.157460   -1.366909
  O     -6.248047    1.496756    0.845113
  C      5.213181   -0.610276    1.237381
  H     -4.411025   -2.750780    0.536787
  H     -3.616469   -1.565350    1.588805
  H     -6.032314   -1.001416   -0.216689
  H     -6.041776   -1.092621    1.558454
  H     -4.520192    0.869615    1.675441
  H     -4.829369    0.924358   -1.359449
  H     -3.932159    2.117242   -0.390947
  H      0.120859    2.664650   -1.206660
  H      1.471069    2.127404   -2.208649
  H     -0.514422   -1.019885   -0.542446
  H     -1.706013    1.839379   -0.731971
  H      2.315989    3.693000   -0.537150
  H      1.580389    2.778487    0.781177
  H      2.565387   -0.012821   -1.787138
  H      3.878151    1.838691   -1.031250
  H      3.997521    2.252815    0.689746
  H      1.774753   -2.269795   -1.495364
  H      1.292135   -1.968084    0.177522
  H      4.676775   -0.365061   -0.825425
  H      1.379377    0.762087    1.686471
  H      2.207770   -0.776381    1.961386
  H      3.006376    0.744277    2.408657
  H      4.038029   -2.636973   -0.776318
  H      3.438165   -2.546937    0.879960
  H     -2.957358   -3.218804   -1.279827
  H     -2.082133   -1.844035   -2.186005
  H     -6.761512    1.351739    0.036713
  H      4.763030   -0.907985    2.193202
  H      6.030930   -1.310113    1.018021
  H      5.647975    0.391390    1.359172

 Total Charge           Charge          ....    0
 Multiplicity           Mult            ....    1
 Number of Electrons    NEL             ....  158
 Basis Dimension        Dim             ....  375

ORBITAL ENERGIES
----------------

  NO   OCC          E(Eh)            E(eV)
   0   2.0000     -19.486229      -530.2473
   1   2.0000     -10.490956      -285.4734
   2   2.0000     -10.457430      -284.5611
   3   2.0000     -10.454199      -284.4732
   4   2.0000     -10.450070      -284.3609
   5   2.0000     -10.446714      -284.2695
   6   2.0000     -10.445535      -284.2375
   7   2.0000     -10.443604      -284.1849
   8   2.0000     -10.440761      -284.1075
   9   2.0000     -10.439515      -284.0737
  10   2.0000     -10.439508      -284.0735
  11   2.0000     -10.439211      -284.0654
  12   2.0000     -10.438520      -284.0466
  13   2.0000     -10.436975      -284.0045
  14   2.0000     -10.434429      -283.9352
  15   2.0000     -10.432407      -283.8802
  16   2.0000     -10.432387      -283.8797
  17   2.0000     -10.431007      -283.8421
  18   2.0000     -10.430829      -283.8373
  19   2.0000     -10.423657      -283.6421
  20   2.0000     -10.419110      -283.5184
  21   2.0000      -1.119150       -30.4536
  22   2.0000      -0.959824       -26.1181
  23   2.0000      -0.941125       -25.6093
  24   2.0000      -0.899448       -24.4752
  25   2.0000      -0.873529       -23.7699
  26   2.0000      -0.852568       -23.1995
  27   2.0000      -0.849043       -23.1036
  28   2.0000      -0.820204       -22.3189
  29   2.0000      -0.811540       -22.0831
  30   2.0000      -0.782729       -21.2991
  31   2.0000      -0.757319       -20.6077
  32   2.0000      -0.746549       -20.3146
  33   2.0000      -0.719767       -19.5859
  34   2.0000      -0.715202       -19.4616
  35   2.0000      -0.667282       -18.1577
  36   2.0000      -0.665819       -18.1179
  37   2.0000      -0.656684       -17.8693
  38   2.0000      -0.642370       -17.4798
  39   2.0000      -0.594484       -16.1767
  40   2.0000      -0.581214       -15.8156
  41   2.0000      -0.569979       -15.5099
  42   2.0000      -0.552150       -15.0248
  43   2.0000      -0.542877       -14.7724
  44   2.0000      -0.532624       -14.4934
  45   2.0000      -0.514258       -13.9937
  46   2.0000      -0.513979       -13.9861
  47   2.0000      -0.511972       -13.9315
  48   2.0000      -0.499558       -13.5937
  49   2.0000      -0.492969       -13.4144
  50   2.0000      -0.489520       -13.3205
  51   2.0000      -0.484215       -13.1762
  52   2.0000      -0.474018       -12.8987
  53   2.0000      -0.467864       -12.7312
  54   2.0000      -0.463865       -12.6224
  55   2.0000      -0.454161       -12.3583
  56   2.0000      -0.445613       -12.1257
  57   2.0000      -0.439540       -11.9605
  58   2.0000      -0.436005       -11.8643
  59   2.0000      -0.429608       -11.6902
  60   2.0000      -0.423148       -11.5145
  61   2.0000      -0.421691       -11.4748
  62   2.0000      -0.412887       -11.2352
  63   2.0000      -0.407703       -11.0942
  64   2.0000      -0.400877       -10.9084
  65   2.0000      -0.393401       -10.7050
  66   2.0000      -0.380084       -10.3426
  67   2.0000      -0.374085       -10.1794
  68   2.0000      -0.373076       -10.1519
  69   2.0000      -0.370760       -10.0889
  70   2.0000      -0.362488        -9.8638
  71   2.0000      -0.361276        -9.8308
  72   2.0000      -0.353495        -9.6191
  73   2.0000      -0.347341        -9.4516
  74   2.0000      -0.341509        -9.2929
  75   2.0000      -0.332306        -9.0425
  76   2.0000      -0.319448        -8.6926
  77   2.0000      -0.299338        -8.1454
  78   2.0000      -0.235434        -6.4065
  79   0.0000      -0.007195        -0.1958
  80   0.0000       0.045710         1.2438
  81   0.0000       0.110130         2.9968
  82   0.0000       0.122615         3.3365
  83   0.0000       0.131710         3.5840

MULLIKEN ATOMIC CHARGES
-----------------------
   0 C :   -0.493444
   1 C :   -0.455241
   2 C :    0.058702
   3 C :   -0.516971
   4 C :    0.095382
   5 C :    0.114388
   6 C :   -0.488794
   7 C :    0.157637
   8 C :   -0.332331
   9 C :   -0.256056
  10 C :   -0.425138
  11 C :   -0.239281
  12 C :   -0.399017
  13 C :   -0.056405
  14 C :   -0.440180
  15 C :   -0.192057
  16 C :   -0.652620
  17 C :   -0.419655
  18 C :   -0.554105
  19 O :   -0.623462
  20 C :   -0.647070
  21 H :    0.229425
  22 H :    0.229127
  23 H :    0.199173
  24 H :    0.239979
  25 H :    0.219604
  26 H :    0.207961
  27 H :    0.239404
  28 H :    0.227985
  29 H :    0.218739
  30 H :    0.229802
  31 H :    0.199438
  32 H :    0.222511
  33 H :    0.218523
  34 H :    0.213888
  35 H :    0.201219
  36 H :    0.215722
  37 H :    0.227034
  38 H :    0.217320
  39 H :    0.205341
  40 H :    0.238560
  41 H :    0.220867
  42 H :    0.218161
  43 H :    0.221330
  44 H :    0.211126
  45 H :    0.211628
  46 H :    0.232702
  47 H :    0.402955
  48 H :    0.211650
  49 H :    0.219739
  50 H :    0.214805
Sum of atomic charges:   -0.0000000

LOEWDIN ATOMIC CHARGES
----------------------
   0 C :   -0.221998
   1 C :   -0.250104
   2 C :   -0.020147
   3 C :   -0.232993
   4 C :   -0.055747
   5 C :   -0.047686
   6 C :   -0.224667
   7 C :   -0.036665
   8 C :   -0.169957
   9 C :   -0.134332
  10 C :   -0.231364
  11 C :   -0.124113
  12 C :   -0.222816
  13 C :   -0.081498
  14 C :   -0.232794
  15 C :   -0.139742
  16 C :   -0.345902
  17 C :   -0.230827
  18 C :   -0.268708
  19 O :   -0.397953
  20 C :   -0.353129
  21 H :    0.132299
  22 H :    0.134916
  23 H :    0.119174
  24 H :    0.134706
  25 H :    0.121802
  26 H :    0.124949
  27 H :    0.136731
  28 H :    0.127908
  29 H :    0.131508
  30 H :    0.142224
  31 H :    0.130220
  32 H :    0.125995
  33 H :    0.124582
  34 H :    0.127857
  35 H :    0.119230
  36 H :    0.123902
  37 H :    0.128183
  38 H :    0.125297
  39 H :    0.119024
  40 H :    0.134904
  41 H :    0.127672
  42 H :    0.127716
  43 H :    0.127056
  44 H :    0.122393
  45 H :    0.129626
  46 H :    0.138953
  47 H :    0.305428
  48 H :    0.125007
  49 H :    0.128512
  50 H :    0.125370

  Mayer bond orders larger than 0.100000
B(  0-C ,  1-C ) :   0.9584 B(  0-C ,  5-C ) :   0.9631 B(  0-C , 21-H ) :   0.9228
B(  0-C , 22-H ) :   0.9058 B(  1-C ,  2-C ) :   0.9677 B(  1-C , 23-H ) :   0.9162
B(  1-C , 24-H ) :   0.9149 B(  2-C ,  3-C ) :   0.9537 B(  2-C , 19-O ) :   1.0000
B(  2-C , 25-H ) :   0.8976 B(  3-C ,  4-C ) :   0.9405 B(  3-C , 26-H ) :   0.9068
B(  3-C , 27-H ) :   0.9189 B(  4-C ,  5-C ) :   1.0007 B(  4-C ,  9-C ) :   1.7408
B(  5-C , 18-C ) :   1.8436 B(  6-C ,  7-C ) :   0.9747 B(  6-C , 10-C ) :   0.9683
B(  6-C , 28-H ) :   0.9163 B(  6-C , 29-H ) :   0.9065 B(  7-C ,  8-C ) :   1.7592
B(  7-C , 11-C ) :   0.9872 B(  8-C ,  9-C ) :   1.1140 B(  8-C , 30-H ) :   0.9031
B(  9-C , 31-H ) :   0.9142 B( 10-C , 12-C ) :   0.9841 B( 10-C , 32-H ) :   0.9214
B( 10-C , 33-H ) :   0.9134 B( 11-C , 13-C ) :   0.9246 B( 11-C , 14-C ) :   0.9843
B( 11-C , 34-H ) :   0.8958 B( 12-C , 13-C ) :   0.9741 B( 12-C , 35-H ) :   0.9201
B( 12-C , 36-H ) :   0.9215 B( 13-C , 15-C ) :   0.9570 B( 13-C , 16-C ) :   0.9632
B( 14-C , 17-C ) :   0.9651 B( 14-C , 37-H ) :   0.9279 B( 14-C , 38-H ) :   0.9177
B( 15-C , 17-C ) :   0.9644 B( 15-C , 20-C ) :   0.9968 B( 15-C , 39-H ) :   0.9130
B( 16-C , 40-H ) :   0.9137 B( 16-C , 41-H ) :   0.9247 B( 16-C , 42-H ) :   0.9250
B( 17-C , 43-H ) :   0.9285 B( 17-C , 44-H ) :   0.9278 B( 18-C , 45-H ) :   0.9280
B( 18-C , 46-H ) :   0.9249 B( 19-O , 47-H ) :   0.7954 B( 20-C , 48-H ) :   0.9236
B( 20-C , 49-H ) :   0.9285 B( 20-C , 50-H ) :   0.9284

Dispersion correction           -0.037074537
FINAL SINGLE POINT ENERGY      -853.535054360328

DIPOLE MOMENT
-------------
                                X             Y             Z
Electronic contribution:    -15.71404       2.14661      -4.04596
Nuclear contribution   :     16.05129      -2.44693       3.67280
                        -----------------------------------------
Total Dipole Moment    :      0.33725      -0.30032      -0.37316
                        -----------------------------------------
Magnitude (a.u.)       :      0.58582
Magnitude (Debye)      :      1.48903

Rotational constants in cm-1:     0.021561     0.004381     0.004021
Rotational constants in MHz :   646.370802   131.351400   120.541259

                             ****ORCA TERMINATED NORMALLY****
TOTAL RUN TIME: 0 days 0 hours 7 minutes 9 seconds 294 msec
