                         Program Version 5.0.3 -  RELEASE  -
|  1> ! PBEh-3c def2/J TightSCF DefGrid3
|  2>
|  3> %maxcore 60000
|  4>
|  5> %pal
|  6> nprocs 4
|  7> end
|  8>
|  9> *xyzfile 0 2 33.xyz
| 10>
| 11>                          ****END OF INPUT****

CARTESIAN COORDINATES (ANGSTROEM)
---------------------------------
  H      1.580097    0.368326    1.076548
  H      0.183427    1.705775   -1.747028
  H     -0.315310   -0.246337   -3.096367
  N     -0.069008    0.918569   -1.147630
  Al    -0.644615    1.403238    0.571294
  C     -1.470431   -1.306278   -1.303907
  S      0.360485   -0.969750    2.567866
  F      2.305015    0.235044   -0.467214
  H     -1.678108   -2.225698   -1.838410
  S     -2.524611    0.214142    1.191651
  H      1.125152    1.221281    2.455274
  H      1.384113    0.453283   -0.849305
  H      1.626382   -1.311217    2.898840
  B     -0.612618   -0.214721   -1.932235
  N      0.804116    0.552888    1.752352
  B     -2.054085   -0.798543   -0.131730

 Total Charge           Charge          ....    0
 Multiplicity           Mult            ....    2
 Number of Electrons    NEL             ....   91
 Basis Dimension        Dim             ....  158

ORBITAL ENERGIES
----------------
                 SPIN UP ORBITALS
  NO   OCC          E(Eh)            E(eV)
   0   1.0000     -89.650750     -2439.5209
   1   1.0000     -89.586502     -2437.7727
   2   1.0000     -56.647978     -1541.4698
   3   1.0000     -25.045503      -681.5228
   4   1.0000     -14.737563      -401.0295
   5   1.0000     -14.628087      -398.0505
   6   1.0000     -10.386588      -282.6334
   7   1.0000      -8.287975      -225.5273
   8   1.0000      -8.227326      -223.8769
   9   1.0000      -7.004621      -190.6054
  10   1.0000      -6.955341      -189.2645
  11   1.0000      -6.181065      -168.1953
  12   1.0000      -6.175266      -168.0375
  13   1.0000      -6.168228      -167.8460
  14   1.0000      -6.116084      -166.4271
  15   1.0000      -6.115408      -166.4087
  16   1.0000      -6.111966      -166.3150
  17   1.0000      -4.380656      -119.2037
  18   1.0000      -2.871278       -78.1314
  19   1.0000      -2.868872       -78.0660
  20   1.0000      -2.866819       -78.0101
  21   1.0000      -1.263982       -34.3947
  22   1.0000      -1.060177       -28.8489
  23   1.0000      -0.936961       -25.4960
  24   1.0000      -0.824701       -22.4412
  25   1.0000      -0.819956       -22.3121
  26   1.0000      -0.743284       -20.2258
  27   1.0000      -0.637459       -17.3461
  28   1.0000      -0.589268       -16.0348
  29   1.0000      -0.578195       -15.7335
  30   1.0000      -0.552475       -15.0336
  31   1.0000      -0.535760       -14.5788
  32   1.0000      -0.508556       -13.8385
  33   1.0000      -0.473448       -12.8832
  34   1.0000      -0.457224       -12.4417
  35   1.0000      -0.447072       -12.1654
  36   1.0000      -0.440013       -11.9734
  37   1.0000      -0.432457       -11.7677
  38   1.0000      -0.420476       -11.4417
  39   1.0000      -0.387033       -10.5317
  40   1.0000      -0.368934       -10.0392
  41   1.0000      -0.350800        -9.5458
  42   1.0000      -0.340834        -9.2746
  43   1.0000      -0.331839        -9.0298
  44   1.0000      -0.251965        -6.8563
  45   1.0000      -0.232063        -6.3148
  46   0.0000      -0.027974        -0.7612
  47   0.0000      -0.009015        -0.2453
  48   0.0000       0.026398         0.7183
  49   0.0000       0.035956         0.9784
  50   0.0000       0.046893         1.2760

                 SPIN DOWN ORBITALS
  NO   OCC          E(Eh)            E(eV)
   0   1.0000     -89.650621     -2439.5174
   1   1.0000     -89.586205     -2437.7646
   2   1.0000     -56.644402     -1541.3725
   3   1.0000     -25.045501      -681.5227
   4   1.0000     -14.736168      -400.9915
   5   1.0000     -14.626787      -398.0151
   6   1.0000     -10.386651      -282.6351
   7   1.0000      -8.287828      -225.5233
   8   1.0000      -8.226939      -223.8664
   9   1.0000      -7.004133      -190.5921
  10   1.0000      -6.955041      -189.2563
  11   1.0000      -6.180658      -168.1843
  12   1.0000      -6.175174      -168.0350
  13   1.0000      -6.168135      -167.8435
  14   1.0000      -6.115690      -166.4164
  15   1.0000      -6.114887      -166.3945
  16   1.0000      -6.111704      -166.3079
  17   1.0000      -4.374846      -119.0456
  18   1.0000      -2.865803       -77.9825
  19   1.0000      -2.864589       -77.9494
  20   1.0000      -2.861466       -77.8644
  21   1.0000      -1.263960       -34.3941
  22   1.0000      -1.057891       -28.7867
  23   1.0000      -0.933948       -25.4140
  24   1.0000      -0.822938       -22.3933
  25   1.0000      -0.817698       -22.2507
  26   1.0000      -0.742879       -20.2148
  27   1.0000      -0.636021       -17.3070
  28   1.0000      -0.587230       -15.9793
  29   1.0000      -0.577952       -15.7269
  30   1.0000      -0.550528       -14.9806
  31   1.0000      -0.528703       -14.3868
  32   1.0000      -0.504238       -13.7210
  33   1.0000      -0.470082       -12.7916
  34   1.0000      -0.456375       -12.4186
  35   1.0000      -0.446868       -12.1599
  36   1.0000      -0.436357       -11.8739
  37   1.0000      -0.430765       -11.7217
  38   1.0000      -0.417308       -11.3555
  39   1.0000      -0.383531       -10.4364
  40   1.0000      -0.367621       -10.0035
  41   1.0000      -0.347355        -9.4520
  42   1.0000      -0.338776        -9.2186
  43   1.0000      -0.331124        -9.0104
  44   1.0000      -0.250239        -6.8094
  45   0.0000      -0.072341        -1.9685
  46   0.0000      -0.019168        -0.5216
  47   0.0000       0.004155         0.1131
  48   0.0000       0.027861         0.7581
  49   0.0000       0.045991         1.2515

MULLIKEN ATOMIC CHARGES AND SPIN POPULATIONS
--------------------------------------------
   0 H :    0.457726    0.001225
   1 H :    0.382839   -0.002523
   2 H :    0.038595    0.007651
   3 N :   -0.951301    0.025897
   4 Al:    0.669145    0.879803
   5 C :   -0.580505   -0.007734
   6 S :    0.059967    0.016578
   7 F :   -0.556574   -0.000107
   8 H :    0.240554    0.000824
   9 S :   -0.363703    0.009452
  10 H :    0.420002   -0.003546
  11 H :    0.533573   -0.000251
  12 H :    0.189146    0.001151
  13 B :    0.201615    0.010602
  14 N :   -0.961441    0.013451
  15 B :    0.220362    0.047528
Sum of atomic charges         :    0.0000000

LOEWDIN ATOMIC CHARGES AND SPIN POPULATIONS
-------------------------------------------
   0 H :    0.288938    0.000610
   1 H :    0.270361   -0.000529
   2 H :   -0.000138    0.005465
   3 N :   -0.478662    0.030438
   4 Al:    0.172881    0.845152
   5 C :   -0.441493   -0.002595
   6 S :    0.158800    0.015278
   7 F :   -0.457034    0.000065
   8 H :    0.182684    0.000355
   9 S :    0.059630    0.023226
  10 H :    0.272653    0.000802
  11 H :    0.379400    0.000123
  12 H :    0.100699    0.000875
  13 B :   -0.003691    0.011817
  14 N :   -0.465352    0.029552
  15 B :   -0.039676    0.039365

  Mayer bond orders larger than 0.100000
B(  0-H ,  7-F ) :   0.1641 B(  0-H , 14-N ) :   0.6407 B(  1-H ,  3-N ) :   0.8012
B(  2-H , 13-B ) :   0.9558 B(  3-N ,  4-Al) :   0.8100 B(  3-N , 11-H ) :   0.2192
B(  3-N , 13-B ) :   1.0231 B(  4-Al,  9-S ) :   0.7464 B(  4-Al, 14-N ) :   0.4326
B(  5-C ,  8-H ) :   0.8931 B(  5-C , 13-B ) :   1.1684 B(  5-C , 15-B ) :   1.6877
B(  6-S , 12-H ) :   0.9141 B(  6-S , 14-N ) :   0.9245 B(  7-F , 11-H ) :   0.4880
B(  9-S , 15-B ) :   1.3883 B( 10-H , 14-N ) :   0.7900 B( 13-B , 15-B ) :   0.1422

Dispersion correction           -0.010411588
FINAL SINGLE POINT ENERGY     -1338.402098460832

DIPOLE MOMENT
-------------
                                X             Y             Z
Electronic contribution:     -4.54025       1.52125       2.79885
Nuclear contribution   :      5.53137      -0.93735      -1.37551
                        -----------------------------------------
Total Dipole Moment    :      0.99112       0.58390       1.42334
                        -----------------------------------------
Magnitude (a.u.)       :      1.83007
Magnitude (Debye)      :      4.65167

Rotational constants in cm-1:     0.033494     0.031796     0.022078
Rotational constants in MHz :  1004.131154   953.210166   661.867925

                             ****ORCA TERMINATED NORMALLY****
TOTAL RUN TIME: 0 days 0 hours 5 minutes 51 seconds 406 msec
