                         Program Version 5.0.3 -  RELEASE  -
|  1> ! PBEh-3c def2/J TightSCF DefGrid3
|  2>
|  3> %maxcore 60000
|  4>
|  5> %pal
|  6> nprocs 4
|  7> end
|  8>
|  9> *xyzfile 0 1 furane.xyz
| 10>
| 11>                          ****END OF INPUT****

CARTESIAN COORDINATES (ANGSTROEM)
---------------------------------
  C      1.085973    0.000000    0.568510
  C      0.713684    0.000000   -0.732249
  C     -0.713684    0.000000   -0.732249
  C     -1.085973    0.000000    0.568510
  O      0.000000    0.000000    1.372588
  H      2.042090    0.000000    1.064801
  H      1.370301    0.000000   -1.587355
  H     -1.370301    0.000000   -1.587355
  H     -2.042090    0.000000    1.064801

 Total Charge           Charge          ....    0
 Multiplicity           Mult            ....    1
 Number of Electrons    NEL             ....   36
 Basis Dimension        Dim             ....   83

ORBITAL ENERGIES
----------------

  NO   OCC          E(Eh)            E(eV)
   0   2.0000     -19.566912      -532.4427
   1   2.0000     -10.492837      -285.5246
   2   2.0000     -10.492783      -285.5231
   3   2.0000     -10.442273      -284.1487
   4   2.0000     -10.441853      -284.1373
   5   2.0000      -1.231522       -33.5114
   6   2.0000      -0.895507       -24.3680
   7   2.0000      -0.835667       -22.7396
   8   2.0000      -0.674432       -18.3522
   9   2.0000      -0.641190       -17.4477
  10   2.0000      -0.614889       -16.7320
  11   2.0000      -0.520162       -14.1543
  12   2.0000      -0.505873       -13.7655
  13   2.0000      -0.469050       -12.7635
  14   2.0000      -0.457996       -12.4627
  15   2.0000      -0.433125       -11.7859
  16   2.0000      -0.327912        -8.9229
  17   2.0000      -0.271461        -7.3868
  18   0.0000       0.042574         1.1585
  19   0.0000       0.102916         2.8005
  20   0.0000       0.170186         4.6310
  21   0.0000       0.189845         5.1660
  22   0.0000       0.207298         5.6409

MULLIKEN ATOMIC CHARGES
-----------------------
   0 C :    0.032402
   1 C :   -0.306034
   2 C :   -0.306034
   3 C :    0.032403
   4 O :   -0.377620
   5 H :    0.237609
   6 H :    0.224833
   7 H :    0.224833
   8 H :    0.237609
Sum of atomic charges:    0.0000000

LOEWDIN ATOMIC CHARGES
----------------------
   0 C :   -0.047506
   1 C :   -0.197195
   2 C :   -0.197195
   3 C :   -0.047506
   4 O :   -0.072562
   5 H :    0.137537
   6 H :    0.143445
   7 H :    0.143445
   8 H :    0.137537

  Mayer bond orders larger than 0.100000
B(  0-C ,  1-C ) :   1.6273 B(  0-C ,  4-O ) :   1.1015 B(  0-C ,  5-H ) :   0.9153
B(  1-C ,  2-C ) :   1.2760 B(  1-C ,  6-H ) :   0.9216 B(  2-C ,  3-C ) :   1.6273
B(  2-C ,  7-H ) :   0.9216 B(  3-C ,  4-O ) :   1.1015 B(  3-C ,  8-H ) :   0.9153

Dispersion correction           -0.003418230
FINAL SINGLE POINT ENERGY      -229.519264767199

DIPOLE MOMENT
-------------
                                X             Y             Z
Electronic contribution:      0.00000       0.00000       1.67368
Nuclear contribution   :      0.00000       0.00000      -1.89955
                        -----------------------------------------
Total Dipole Moment    :      0.00000       0.00000      -0.22587
                        -----------------------------------------
Magnitude (a.u.)       :      0.22587
Magnitude (Debye)      :      0.57412

Rotational constants in cm-1:     0.319528     0.312642     0.158024
Rotational constants in MHz :  9579.200690  9372.786040  4737.434644

                             ****ORCA TERMINATED NORMALLY****
TOTAL RUN TIME: 0 days 0 hours 0 minutes 45 seconds 319 msec
