                         Program Version 5.0.3 -  RELEASE  -
|  1> ! PBEh-3c def2/J TightSCF DefGrid3
|  2>
|  3> %maxcore 60000
|  4>
|  5> %pal
|  6> nprocs 4
|  7> end
|  8>
|  9> *xyzfile 0 1 hf_2_ts.xyz
| 10>
| 11>                          ****END OF INPUT****

CARTESIAN COORDINATES (ANGSTROEM)
---------------------------------
  H      0.000000    0.588109    0.000000
  H      0.000000   -0.588109    0.000000
  F      0.000000    0.000000    1.037653
  F      0.000000    0.000000   -1.037653

 Total Charge           Charge          ....    0
 Multiplicity           Mult            ....    1
 Number of Electrons    NEL             ....   20
 Basis Dimension        Dim             ....   34

ORBITAL ENERGIES
----------------

  NO   OCC          E(Eh)            E(eV)
   0   2.0000     -25.098168      -682.9559
   1   2.0000     -25.098067      -682.9531
   2   2.0000      -1.360074       -37.0095
   3   2.0000      -1.268766       -34.5249
   4   2.0000      -0.678342       -18.4586
   5   2.0000      -0.591630       -16.0991
   6   2.0000      -0.512602       -13.9486
   7   2.0000      -0.488232       -13.2855
   8   2.0000      -0.476200       -12.9581
   9   2.0000      -0.459928       -12.5153
  10   0.0000       0.130512         3.5514
  11   0.0000       0.150313         4.0902
  12   0.0000       0.620861        16.8945
  13   0.0000       0.672462        18.2986
  14   0.0000       0.911125        24.7930

MULLIKEN ATOMIC CHARGES
-----------------------
   0 H :    0.556550
   1 H :    0.556550
   2 F :   -0.556550
   3 F :   -0.556550
Sum of atomic charges:    0.0000000

LOEWDIN ATOMIC CHARGES
----------------------
   0 H :    0.462344
   1 H :    0.462344
   2 F :   -0.462344
   3 F :   -0.462344

  Mayer bond orders larger than 0.100000
B(  0-H ,  2-F ) :   0.3458 B(  0-H ,  3-F ) :   0.3458 B(  1-H ,  2-F ) :   0.3458
B(  1-H ,  3-F ) :   0.3458

Dispersion correction           -0.000404735
FINAL SINGLE POINT ENERGY      -200.441752360688

DIPOLE MOMENT
-------------
                                X             Y             Z
Electronic contribution:      0.00000       0.00000       0.00000
Nuclear contribution   :      0.00000       0.00000       0.00000
                        -----------------------------------------
Total Dipole Moment    :      0.00000       0.00000       0.00000
                        -----------------------------------------
Magnitude (a.u.)       :      0.00000
Magnitude (Debye)      :      0.00000

Rotational constants in cm-1:    24.176349     0.412055     0.405149
Rotational constants in MHz : 724788.718792 12353.087471 12146.073340

                             ****ORCA TERMINATED NORMALLY****
TOTAL RUN TIME: 0 days 0 hours 0 minutes 49 seconds 743 msec
