                         Program Version 5.0.3 -  RELEASE  -
|  1> ! PBEh-3c def2/J TightSCF DefGrid3
|  2>
|  3> %maxcore 60000
|  4>
|  5> %pal
|  6> nprocs 4
|  7> end
|  8>
|  9> *xyzfile 0 1 03a.xyz
| 10>
| 11>                          ****END OF INPUT****

CARTESIAN COORDINATES (ANGSTROEM)
---------------------------------
  C     -0.282710   -0.294847    0.000000
  O      0.112906    0.958535    0.000000
  O      0.435751   -1.281745    0.000000
  H     -1.373302   -0.373984    0.000000
  H      1.107354    0.992041    0.000000

 Total Charge           Charge          ....    0
 Multiplicity           Mult            ....    1
 Number of Electrons    NEL             ....   24
 Basis Dimension        Dim             ....   49

ORBITAL ENERGIES
----------------

  NO   OCC          E(Eh)            E(eV)
   0   2.0000     -19.565240      -532.3973
   1   2.0000     -19.492893      -530.4286
   2   2.0000     -10.586993      -288.0867
   3   2.0000      -1.235517       -33.6201
   4   2.0000      -1.129389       -30.7322
   5   2.0000      -0.750837       -20.4313
   6   2.0000      -0.595324       -16.1996
   7   2.0000      -0.562669       -15.3110
   8   2.0000      -0.519530       -14.1371
   9   2.0000      -0.465501       -12.6669
  10   2.0000      -0.384289       -10.4570
  11   2.0000      -0.345882        -9.4119
  12   0.0000       0.036857         1.0029
  13   0.0000       0.108499         2.9524
  14   0.0000       0.197268         5.3679
  15   0.0000       0.305854         8.3227
  16   0.0000       0.323055         8.7908

MULLIKEN ATOMIC CHARGES
-----------------------
   0 C :    0.297317
   1 O :   -0.543778
   2 O :   -0.393256
   3 H :    0.193372
   4 H :    0.446345
Sum of atomic charges:    0.0000000

LOEWDIN ATOMIC CHARGES
----------------------
   0 C :    0.085908
   1 O :   -0.276374
   2 O :   -0.247701
   3 H :    0.097557
   4 H :    0.340610

  Mayer bond orders larger than 0.100000
B(  0-C ,  1-O ) :   1.1942 B(  0-C ,  2-O ) :   2.0419 B(  0-C ,  3-H ) :   0.8691
B(  1-O ,  4-H ) :   0.7514

Dispersion correction           -0.000998258
FINAL SINGLE POINT ENERGY      -189.356511983495

DIPOLE MOMENT
-------------
                                X             Y             Z
Electronic contribution:      0.41543      -0.18125       0.00000
Nuclear contribution   :     -0.45318       0.91006       0.00000
                        -----------------------------------------
Total Dipole Moment    :     -0.03775       0.72880       0.00000
                        -----------------------------------------
Magnitude (a.u.)       :      0.72978
Magnitude (Debye)      :      1.85495

Rotational constants in cm-1:     2.639082     0.400208     0.347509
Rotational constants in MHz : 79117.698723 11997.922839 10418.060353

                             ****ORCA TERMINATED NORMALLY****
TOTAL RUN TIME: 0 days 0 hours 1 minutes 32 seconds 542 msec
