                         Program Version 5.0.3 -  RELEASE  -
|  1> ! PBEh-3c def2/J TightSCF DefGrid3
|  2>
|  3> %maxcore 60000
|  4>
|  5> %pal
|  6> nprocs 4
|  7> end
|  8>
|  9> *xyzfile 0 1 teh2.xyz
| 10>
| 11>                          ****END OF INPUT****

CARTESIAN COORDINATES (ANGSTROEM)
---------------------------------
  Te     0.000000    0.000000    0.769549
  H     -1.155366    0.000000   -0.384775
  H      1.155366    0.000000   -0.384775

 Total Charge           Charge          ....    0
 Multiplicity           Mult            ....    1
 Number of Electrons    NEL             ....   26
 Basis Dimension        Dim             ....   30

ORBITAL ENERGIES
----------------

  NO   OCC          E(Eh)            E(eV)
   0   2.0000      -6.507466      -177.0772
   1   2.0000      -4.601273      -125.2070
   2   2.0000      -4.597050      -125.0921
   3   2.0000      -4.585621      -124.7811
   4   2.0000      -1.712231       -46.5922
   5   2.0000      -1.709156       -46.5085
   6   2.0000      -1.698613       -46.2216
   7   2.0000      -1.694935       -46.1215
   8   2.0000      -1.693619       -46.0857
   9   2.0000      -0.720746       -19.6125
  10   2.0000      -0.441866       -12.0238
  11   2.0000      -0.381116       -10.3707
  12   2.0000      -0.267686        -7.2841
  13   0.0000       0.005383         0.1465
  14   0.0000       0.066376         1.8062
  15   0.0000       0.259615         7.0645
  16   0.0000       0.337587         9.1862
  17   0.0000       0.347955         9.4683

MULLIKEN ATOMIC CHARGES
-----------------------
   0 Te:   -0.183637
   1 H :    0.091819
   2 H :    0.091819
Sum of atomic charges:    0.0000000

LOEWDIN ATOMIC CHARGES
----------------------
   0 Te:   -0.116316
   1 H :    0.058158
   2 H :    0.058158

  Mayer bond orders larger than 0.100000
B(  0-Te,  1-H ) :   0.9722 B(  0-Te,  2-H ) :   0.9722

Dispersion correction           -0.000489665
FINAL SINGLE POINT ENERGY      -269.226158524504

DIPOLE MOMENT
-------------
                                X             Y             Z
Electronic contribution:     -0.00000      -0.00000       3.30708
Nuclear contribution   :      0.00000       0.00000      -3.48058
                        -----------------------------------------
Total Dipole Moment    :     -0.00000      -0.00000      -0.17351
                        -----------------------------------------
Magnitude (a.u.)       :      0.17351
Magnitude (Debye)      :      0.44102

Rotational constants in cm-1:     6.374688     6.264224     3.159487
Rotational constants in MHz : 191108.340456 187796.712467 94719.027328

                             ****ORCA TERMINATED NORMALLY****
TOTAL RUN TIME: 0 days 0 hours 1 minutes 13 seconds 47 msec
