                         Program Version 5.0.3 -  RELEASE  -
|  1> ! PBEh-3c def2/J TightSCF DefGrid3
|  2>
|  3> %maxcore 60000
|  4>
|  5> %pal
|  6> nprocs 4
|  7> end
|  8>
|  9> *xyzfile 0 1 11_benF3-benAB.xyz
| 10>
| 11>                          ****END OF INPUT****

CARTESIAN COORDINATES (ANGSTROEM)
---------------------------------
  F     -1.914074   -1.171208   -0.110673
  H     -2.180665    1.398938   -0.409375
  C      0.373447   -0.776856    0.213048
  C     -0.901106   -0.295713   -0.038342
  C     -1.178591    1.051076   -0.215317
  C     -0.111215    1.930588   -0.127725
  C      1.187439    1.517318    0.123482
  C      1.394210    0.156585    0.290367
  F     -0.346665    3.242328   -0.288420
  H      2.000412    2.222856    0.189255
  H      0.559539   -1.828334    0.360286
  F      2.639006   -0.274021    0.541292
  H     -1.982728   -2.229711    3.302752
  H     -2.449489    0.193674    3.123491
  C      0.127581   -1.959603    3.614622
  C     -1.175738   -1.515819    3.395969
  C     -1.438430   -0.150604    3.294462
  C     -0.398879    0.770556    3.412258
  C      0.904160    0.325967    3.630272
  C      1.167830   -1.039033    3.731970
  H     -0.602955    1.829871    3.332691
  H      1.711481    1.040279    3.720125
  H      0.331418   -3.018852    3.696211
  H      2.179355   -1.382919    3.899513

 Total Charge           Charge          ....    0
 Multiplicity           Mult            ....    1
 Number of Electrons    NEL             ....  108
 Basis Dimension        Dim             ....  243

ORBITAL ENERGIES
----------------

  NO   OCC          E(Eh)            E(eV)
   0   2.0000     -25.122829      -683.6269
   1   2.0000     -25.121636      -683.5945
   2   2.0000     -25.121605      -683.5936
   3   2.0000     -10.559343      -287.3343
   4   2.0000     -10.558641      -287.3152
   5   2.0000     -10.558629      -287.3149
   6   2.0000     -10.465467      -284.7798
   7   2.0000     -10.465431      -284.7788
   8   2.0000     -10.463380      -284.7230
   9   2.0000     -10.450416      -284.3703
  10   2.0000     -10.450231      -284.3652
  11   2.0000     -10.450088      -284.3614
  12   2.0000     -10.449581      -284.3475
  13   2.0000     -10.449456      -284.3442
  14   2.0000     -10.449284      -284.3395
  15   2.0000      -1.364813       -37.1385
  16   2.0000      -1.363669       -37.1073
  17   2.0000      -1.363263       -37.0963
  18   2.0000      -0.987320       -26.8663
  19   2.0000      -0.953583       -25.9483
  20   2.0000      -0.865116       -23.5410
  21   2.0000      -0.864653       -23.5284
  22   2.0000      -0.836949       -22.7745
  23   2.0000      -0.836843       -22.7717
  24   2.0000      -0.726462       -19.7680
  25   2.0000      -0.726383       -19.7659
  26   2.0000      -0.680380       -18.5141
  27   2.0000      -0.680265       -18.5110
  28   2.0000      -0.654940       -17.8218
  29   2.0000      -0.623012       -16.9530
  30   2.0000      -0.593413       -16.1476
  31   2.0000      -0.588156       -16.0045
  32   2.0000      -0.580733       -15.8026
  33   2.0000      -0.580247       -15.7893
  34   2.0000      -0.565464       -15.3870
  35   2.0000      -0.547622       -14.9015
  36   2.0000      -0.546646       -14.8750
  37   2.0000      -0.527057       -14.3420
  38   2.0000      -0.515927       -14.0391
  39   2.0000      -0.514413       -13.9979
  40   2.0000      -0.509774       -13.8717
  41   2.0000      -0.483084       -13.1454
  42   2.0000      -0.482834       -13.1386
  43   2.0000      -0.456150       -12.4125
  44   2.0000      -0.455145       -12.3851
  45   2.0000      -0.445015       -12.1095
  46   2.0000      -0.430167       -11.7054
  47   2.0000      -0.407600       -11.0914
  48   2.0000      -0.399502       -10.8710
  49   2.0000      -0.399495       -10.8708
  50   2.0000      -0.308906        -8.4058
  51   2.0000      -0.304335        -8.2814
  52   2.0000      -0.292683        -7.9643
  53   2.0000      -0.289374        -7.8743
  54   0.0000       0.007298         0.1986
  55   0.0000       0.009306         0.2532
  56   0.0000       0.017102         0.4654
  57   0.0000       0.018402         0.5007
  58   0.0000       0.105529         2.8716

MULLIKEN ATOMIC CHARGES
-----------------------
   0 F :   -0.300064
   1 H :    0.270947
   2 C :   -0.530392
   3 C :    0.575805
   4 C :   -0.550733
   5 C :    0.564389
   6 C :   -0.550712
   7 C :    0.575754
   8 F :   -0.300859
   9 H :    0.270950
  10 H :    0.273741
  11 F :   -0.300084
  12 H :    0.222755
  13 H :    0.222889
  14 C :   -0.229889
  15 C :   -0.218795
  16 C :   -0.224923
  17 C :   -0.216912
  18 C :   -0.224919
  19 C :   -0.218655
  20 H :    0.223517
  21 H :    0.222857
  22 H :    0.220570
  23 H :    0.222764
Sum of atomic charges:   -0.0000000

LOEWDIN ATOMIC CHARGES
----------------------
   0 F :   -0.143859
   1 H :    0.166116
   2 C :   -0.191380
   3 C :    0.179421
   4 C :   -0.205341
   5 C :    0.173076
   6 C :   -0.205330
   7 C :    0.179443
   8 F :   -0.147335
   9 H :    0.166126
  10 H :    0.168885
  11 F :   -0.143882
  12 H :    0.136862
  13 H :    0.136443
  14 C :   -0.140102
  15 C :   -0.136146
  16 C :   -0.134627
  17 C :   -0.133305
  18 C :   -0.134637
  19 C :   -0.136095
  20 H :    0.136989
  21 H :    0.136431
  22 H :    0.135365
  23 H :    0.136881

  Mayer bond orders larger than 0.100000
B(  0-F ,  3-C ) :   0.9632 B(  1-H ,  4-C ) :   0.8958 B(  2-C ,  3-C ) :   1.3671
B(  2-C ,  7-C ) :   1.3671 B(  2-C , 10-H ) :   0.8924 B(  3-C ,  4-C ) :   1.3596
B(  4-C ,  5-C ) :   1.3641 B(  5-C ,  6-C ) :   1.3642 B(  5-C ,  8-F ) :   0.9662
B(  6-C ,  7-C ) :   1.3596 B(  6-C ,  9-H ) :   0.8958 B(  7-C , 11-F ) :   0.9632
B( 12-H , 15-C ) :   0.9191 B( 13-H , 16-C ) :   0.9185 B( 14-C , 15-C ) :   1.4239
B( 14-C , 19-C ) :   1.4239 B( 14-C , 22-H ) :   0.9199 B( 15-C , 16-C ) :   1.4267
B( 16-C , 17-C ) :   1.4261 B( 17-C , 18-C ) :   1.4262 B( 17-C , 20-H ) :   0.9182
B( 18-C , 19-C ) :   1.4266 B( 18-C , 21-H ) :   0.9185 B( 19-C , 23-H ) :   0.9191

Dispersion correction           -0.016615525
FINAL SINGLE POINT ENERGY      -760.616973846085

DIPOLE MOMENT
-------------
                                X             Y             Z
Electronic contribution:      0.92442       4.13590     -12.13277
Nuclear contribution   :     -0.92321      -4.20604      12.22077
                        -----------------------------------------
Total Dipole Moment    :      0.00121      -0.07014       0.08800
                        -----------------------------------------
Magnitude (a.u.)       :      0.11255
Magnitude (Debye)      :      0.28607

Rotational constants in cm-1:     0.026132     0.016212     0.014711
Rotational constants in MHz :   783.403154   486.036007   441.012221

                             ****ORCA TERMINATED NORMALLY****
TOTAL RUN TIME: 0 days 0 hours 3 minutes 24 seconds 630 msec
