                         Program Version 5.0.3 -  RELEASE  -
|  1> ! PBEh-3c def2/J TightSCF DefGrid3
|  2>
|  3> %maxcore 60000
|  4>
|  5> %pal
|  6> nprocs 4
|  7> end
|  8>
|  9> *xyzfile -1 1 1g.xyz
| 10>
| 11>                          ****END OF INPUT****

CARTESIAN COORDINATES (ANGSTROEM)
---------------------------------
  H     -1.371585    4.943585   -2.636495
  O     -1.278811    4.470828   -1.794490
  C      0.078968    4.615421   -1.350667
  H      0.246020    5.619224   -0.937979
  H      0.785070    4.451242   -2.174729
  C      0.367986    3.578551   -0.290534
  H      1.409990    3.700659    0.033815
  O     -0.499112    3.768830    0.867869
  C     -0.846801    2.517864    1.428584
  H     -0.610377    2.497194    2.493981
  N     -2.327122    2.324429    1.313983
  C     -3.107794    3.101979    0.497968
  H     -2.566238    3.847008   -0.074016
  C     -4.453538    2.942032    0.412163
  H     -5.044471    3.570476   -0.241132
  C     -5.114117    1.933669    1.199537
  O     -6.327157    1.689610    1.229535
  N     -4.235903    1.181038    1.996065
  H     -4.649600    0.451430    2.570649
  C     -2.867683    1.307575    2.093769
  O     -2.173350    0.583847    2.808587
  C      0.128340    2.124874   -0.694816
  H     -0.771193    2.050815   -1.314349
  C     -0.086489    1.434470    0.653508
  H     -0.663772    0.509968    0.577513
  O      1.156242    1.204509    1.317102
  H      1.790369    0.942112    0.622984
  O      1.253980    1.612964   -1.416428
  P      0.944675    0.600614   -2.679407
  O      2.281914    0.286601   -3.275598
  O     -0.185200    1.116384   -3.518847
  O      0.420132   -0.664552   -1.770076
  C     -0.278189   -1.758547   -2.391634
  H      0.158207   -1.989583   -3.369759
  H     -1.334425   -1.497876   -2.522846
  C     -0.170250   -2.967657   -1.487778
  H     -0.813666   -3.759636   -1.891833
  O      1.201361   -3.457005   -1.469838
  C      1.559758   -3.882730   -0.171562
  H      1.991320   -4.884031   -0.206811
  N      2.623131   -2.977905    0.368177
  C      2.882697   -1.751678   -0.184395
  H      2.253180   -1.488301   -1.025376
  C      3.850663   -0.927113    0.290209
  H      4.039250    0.029930   -0.179099
  C      4.660879   -1.334890    1.409006
  O      5.562348   -0.682341    1.948943
  N      4.351725   -2.620598    1.884662
  H      4.906615   -2.967087    2.663425
  C      3.381738   -3.482861    1.420279
  O      3.187914   -4.601254    1.896087
  C     -0.524423   -2.739762   -0.016810
  H     -0.183591   -1.751550    0.308773
  C      0.292999   -3.836963    0.688996
  H      0.513474   -3.609000    1.737411
  O     -0.367110   -5.096007    0.567395
  H     -1.324809   -4.898063    0.593969
  O     -1.933164   -2.878658    0.163602
  H     -2.171003   -2.504082    1.028760

 Total Charge           Charge          ....   -1
 Multiplicity           Mult            ....    1
 Number of Electrons    NEL             ....  286
 Basis Dimension        Dim             ....  602

ORBITAL ENERGIES
----------------

  NO   OCC          E(Eh)            E(eV)
   0   2.0000     -77.724476     -2114.9905
   1   2.0000     -19.449023      -529.2348
   2   2.0000     -19.444823      -529.1205
   3   2.0000     -19.441884      -529.0405
   4   2.0000     -19.428313      -528.6713
   5   2.0000     -19.423766      -528.5476
   6   2.0000     -19.409004      -528.1459
   7   2.0000     -19.404697      -528.0287
   8   2.0000     -19.403121      -527.9858
   9   2.0000     -19.397486      -527.8324
  10   2.0000     -19.397149      -527.8233
  11   2.0000     -19.395836      -527.7875
  12   2.0000     -19.380997      -527.3837
  13   2.0000     -19.284589      -524.7604
  14   2.0000     -19.277692      -524.5727
  15   2.0000     -14.639320      -398.3561
  16   2.0000     -14.627896      -398.0453
  17   2.0000     -14.625638      -397.9838
  18   2.0000     -14.611866      -397.6091
  19   2.0000     -10.532488      -286.6036
  20   2.0000     -10.520631      -286.2809
  21   2.0000     -10.494999      -285.5834
  22   2.0000     -10.479451      -285.1604
  23   2.0000     -10.469670      -284.8942
  24   2.0000     -10.468915      -284.8737
  25   2.0000     -10.443098      -284.1711
  26   2.0000     -10.431964      -283.8682
  27   2.0000     -10.428092      -283.7628
  28   2.0000     -10.425452      -283.6910
  29   2.0000     -10.423131      -283.6278
  30   2.0000     -10.422332      -283.6061
  31   2.0000     -10.420084      -283.5449
  32   2.0000     -10.413812      -283.3742
  33   2.0000     -10.407906      -283.2135
  34   2.0000     -10.404730      -283.1271
  35   2.0000     -10.380355      -282.4638
  36   2.0000     -10.361669      -281.9554
  37   2.0000      -6.769062      -184.1955
  38   2.0000      -4.864198      -132.3616
  39   2.0000      -4.862972      -132.3282
  40   2.0000      -4.860311      -132.2558
  41   2.0000      -1.120002       -30.4768
  42   2.0000      -1.112591       -30.2751
  43   2.0000      -1.097711       -29.8702
  44   2.0000      -1.096822       -29.8460
  45   2.0000      -1.077327       -29.3156
  46   2.0000      -1.070314       -29.1247
  47   2.0000      -1.060836       -28.8668
  48   2.0000      -1.056045       -28.7364
  49   2.0000      -1.055972       -28.7345
  50   2.0000      -1.049125       -28.5481
  51   2.0000      -1.036008       -28.1912
  52   2.0000      -1.012066       -27.5397
  53   2.0000      -1.005244       -27.3541
  54   2.0000      -0.993881       -27.0449
  55   2.0000      -0.957510       -26.0552
  56   2.0000      -0.944514       -25.7015
  57   2.0000      -0.914145       -24.8751
  58   2.0000      -0.869791       -23.6682
  59   2.0000      -0.819942       -22.3118
  60   2.0000      -0.806754       -21.9529
  61   2.0000      -0.796626       -21.6773
  62   2.0000      -0.789717       -21.4893
  63   2.0000      -0.769841       -20.9484
  64   2.0000      -0.768065       -20.9001
  65   2.0000      -0.698358       -19.0033
  66   2.0000      -0.695520       -18.9261
  67   2.0000      -0.690818       -18.7981
  68   2.0000      -0.681919       -18.5560
  69   2.0000      -0.650446       -17.6995
  70   2.0000      -0.643521       -17.5111
  71   2.0000      -0.612130       -16.6569
  72   2.0000      -0.606876       -16.5139
  73   2.0000      -0.591285       -16.0897
  74   2.0000      -0.586910       -15.9706
  75   2.0000      -0.563224       -15.3261
  76   2.0000      -0.559632       -15.2284
  77   2.0000      -0.550702       -14.9854
  78   2.0000      -0.543673       -14.7941
  79   2.0000      -0.534626       -14.5479
  80   2.0000      -0.527760       -14.3611
  81   2.0000      -0.513451       -13.9717
  82   2.0000      -0.508065       -13.8252
  83   2.0000      -0.505827       -13.7643
  84   2.0000      -0.498609       -13.5678
  85   2.0000      -0.495442       -13.4816
  86   2.0000      -0.481307       -13.0970
  87   2.0000      -0.475384       -12.9358
  88   2.0000      -0.471567       -12.8320
  89   2.0000      -0.469382       -12.7725
  90   2.0000      -0.464593       -12.6422
  91   2.0000      -0.456522       -12.4226
  92   2.0000      -0.453548       -12.3417
  93   2.0000      -0.446467       -12.1490
  94   2.0000      -0.441796       -12.0219
  95   2.0000      -0.437502       -11.9050
  96   2.0000      -0.431376       -11.7383
  97   2.0000      -0.422952       -11.5091
  98   2.0000      -0.421369       -11.4660
  99   2.0000      -0.414154       -11.2697
 100   2.0000      -0.409919       -11.1545
 101   2.0000      -0.405188       -11.0257
 102   2.0000      -0.400297       -10.8926
 103   2.0000      -0.396558       -10.7909
 104   2.0000      -0.391690       -10.6584
 105   2.0000      -0.389573       -10.6008
 106   2.0000      -0.386310       -10.5120
 107   2.0000      -0.382933       -10.4201
 108   2.0000      -0.377504       -10.2724
 109   2.0000      -0.374271       -10.1844
 110   2.0000      -0.366512        -9.9733
 111   2.0000      -0.362879        -9.8744
 112   2.0000      -0.352006        -9.5786
 113   2.0000      -0.349976        -9.5233
 114   2.0000      -0.342880        -9.3302
 115   2.0000      -0.338187        -9.2025
 116   2.0000      -0.332945        -9.0599
 117   2.0000      -0.325242        -8.8503
 118   2.0000      -0.324536        -8.8311
 119   2.0000      -0.314911        -8.5692
 120   2.0000      -0.299059        -8.1378
 121   2.0000      -0.297337        -8.0910
 122   2.0000      -0.285249        -7.7620
 123   2.0000      -0.281370        -7.6565
 124   2.0000      -0.276453        -7.5227
 125   2.0000      -0.273901        -7.4532
 126   2.0000      -0.266190        -7.2434
 127   2.0000      -0.264862        -7.2073
 128   2.0000      -0.263510        -7.1705
 129   2.0000      -0.262323        -7.1382
 130   2.0000      -0.259964        -7.0740
 131   2.0000      -0.257292        -7.0013
 132   2.0000      -0.250592        -6.8189
 133   2.0000      -0.247539        -6.7359
 134   2.0000      -0.243448        -6.6246
 135   2.0000      -0.237543        -6.4639
 136   2.0000      -0.233012        -6.3406
 137   2.0000      -0.210513        -5.7283
 138   2.0000      -0.208366        -5.6699
 139   2.0000      -0.198967        -5.4142
 140   2.0000      -0.194459        -5.2915
 141   2.0000      -0.173000        -4.7076
 142   2.0000      -0.156956        -4.2710
 143   0.0000       0.061256         1.6669
 144   0.0000       0.077444         2.1074
 145   0.0000       0.110738         3.0133
 146   0.0000       0.123003         3.3471
 147   0.0000       0.155831         4.2404

MULLIKEN ATOMIC CHARGES
-----------------------
   0 H :    0.428603
   1 O :   -0.636423
   2 C :   -0.178905
   3 H :    0.192806
   4 H :    0.229115
   5 C :    0.043730
   6 H :    0.234526
   7 O :   -0.505747
   8 C :    0.209352
   9 H :    0.272419
  10 N :   -0.573994
  11 C :    0.078738
  12 H :    0.335374
  13 C :   -0.479752
  14 H :    0.247394
  15 C :    0.558677
  16 O :   -0.433826
  17 N :   -0.731892
  18 H :    0.385070
  19 C :    0.713911
  20 O :   -0.454433
  21 C :   -0.044085
  22 H :    0.272280
  23 C :   -0.026845
  24 H :    0.235977
  25 O :   -0.649826
  26 H :    0.445181
  27 O :   -0.620772
  28 P :    1.367142
  29 O :   -0.714306
  30 O :   -0.738921
  31 O :   -0.649752
  32 C :   -0.150710
  33 H :    0.236369
  34 H :    0.219297
  35 C :    0.027502
  36 H :    0.224871
  37 O :   -0.483928
  38 C :    0.199699
  39 H :    0.275795
  40 N :   -0.576667
  41 C :    0.062256
  42 H :    0.367988
  43 C :   -0.512339
  44 H :    0.281540
  45 C :    0.563383
  46 O :   -0.432894
  47 N :   -0.732569
  48 H :    0.383966
  49 C :    0.714403
  50 O :   -0.456198
  51 C :   -0.079925
  52 H :    0.272836
  53 C :   -0.023767
  54 H :    0.237792
  55 O :   -0.638837
  56 H :    0.419647
  57 O :   -0.641641
  58 H :    0.431309
Sum of atomic charges:   -1.0000000

LOEWDIN ATOMIC CHARGES
----------------------
   0 H :    0.317245
   1 O :   -0.413224
   2 C :   -0.093174
   3 H :    0.106780
   4 H :    0.130415
   5 C :   -0.011924
   6 H :    0.130635
   7 O :   -0.238777
   8 C :    0.086271
   9 H :    0.142644
  10 N :   -0.091778
  11 C :    0.002350
  12 H :    0.174081
  13 C :   -0.259738
  14 H :    0.157114
  15 C :    0.125751
  16 O :   -0.286520
  17 N :   -0.200564
  18 H :    0.280420
  19 C :    0.155675
  20 O :   -0.292018
  21 C :   -0.041580
  22 H :    0.147907
  23 C :   -0.036805
  24 H :    0.117173
  25 O :   -0.398127
  26 H :    0.319672
  27 O :   -0.340632
  28 P :    0.802908
  29 O :   -0.598162
  30 O :   -0.608498
  31 O :   -0.371129
  32 C :   -0.080471
  33 H :    0.134526
  34 H :    0.127568
  35 C :   -0.013331
  36 H :    0.126181
  37 O :   -0.225344
  38 C :    0.085400
  39 H :    0.145356
  40 N :   -0.096870
  41 C :   -0.002444
  42 H :    0.182952
  43 C :   -0.259405
  44 H :    0.169248
  45 C :    0.126182
  46 O :   -0.284965
  47 N :   -0.201709
  48 H :    0.279785
  49 C :    0.156252
  50 O :   -0.293910
  51 C :   -0.044940
  52 H :    0.135562
  53 C :   -0.043447
  54 H :    0.120878
  55 O :   -0.398090
  56 H :    0.310637
  57 O :   -0.393242
  58 H :    0.323251

  Mayer bond orders larger than 0.100000
B(  0-H ,  1-O ) :   0.7839 B(  1-O ,  2-C ) :   0.9915 B(  2-C ,  3-H ) :   0.9017
B(  2-C ,  4-H ) :   0.8899 B(  2-C ,  5-C ) :   0.9767 B(  5-C ,  6-H ) :   0.8886
B(  5-C ,  7-O ) :   0.8966 B(  5-C , 21-C ) :   0.9210 B(  7-O ,  8-C ) :   1.0149
B(  8-C ,  9-H ) :   0.8816 B(  8-C , 10-N ) :   0.8266 B(  8-C , 23-C ) :   0.9196
B( 10-N , 11-C ) :   1.0936 B( 10-N , 19-C ) :   1.0409 B( 11-C , 12-H ) :   0.8251
B( 11-C , 13-C ) :   1.5805 B( 13-C , 14-H ) :   0.9184 B( 13-C , 15-C ) :   1.0867
B( 15-C , 16-O ) :   1.9971 B( 15-C , 17-N ) :   0.9790 B( 17-N , 18-H ) :   0.8060
B( 17-N , 19-C ) :   1.0690 B( 19-C , 20-O ) :   1.9495 B( 21-C , 22-H ) :   0.8372
B( 21-C , 23-C ) :   0.9322 B( 21-C , 27-O ) :   0.9389 B( 23-C , 24-H ) :   0.8900
B( 23-C , 25-O ) :   1.0171 B( 25-O , 26-H ) :   0.7360 B( 27-O , 28-P ) :   0.8401
B( 28-P , 29-O ) :   1.7821 B( 28-P , 30-O ) :   1.7093 B( 28-P , 31-O ) :   0.8037
B( 31-O , 32-C ) :   0.9268 B( 32-C , 33-H ) :   0.8915 B( 32-C , 34-H ) :   0.8958
B( 32-C , 35-C ) :   0.9651 B( 35-C , 36-H ) :   0.8901 B( 35-C , 37-O ) :   0.9136
B( 35-C , 51-C ) :   0.9225 B( 37-O , 38-C ) :   1.0241 B( 38-C , 39-H ) :   0.8796
B( 38-C , 40-N ) :   0.8379 B( 38-C , 53-C ) :   0.9268 B( 40-N , 41-C ) :   1.0720
B( 40-N , 49-C ) :   1.0386 B( 41-C , 42-H ) :   0.7954 B( 41-C , 43-C ) :   1.5923
B( 43-C , 44-H ) :   0.9003 B( 43-C , 45-C ) :   1.0775 B( 45-C , 46-O ) :   1.9988
B( 45-C , 47-N ) :   0.9736 B( 47-N , 48-H ) :   0.8069 B( 47-N , 49-C ) :   1.0729
B( 49-C , 50-O ) :   1.9518 B( 51-C , 52-H ) :   0.8483 B( 51-C , 53-C ) :   0.9321
B( 51-C , 57-O ) :   0.9950 B( 53-C , 54-H ) :   0.9001 B( 53-C , 55-O ) :   1.0022
B( 55-O , 56-H ) :   0.7575 B( 57-O , 58-H ) :   0.7792

Dispersion correction           -0.048673610
FINAL SINGLE POINT ENERGY     -2308.312214944227

DIPOLE MOMENT
-------------
                                X             Y             Z
Electronic contribution:      4.52271      -3.27073       2.77304
Nuclear contribution   :     -6.38767       3.90285      -1.08998
                        -----------------------------------------
Total Dipole Moment    :     -1.86496       0.63212       1.68306
                        -----------------------------------------
Magnitude (a.u.)       :      2.59043
Magnitude (Debye)      :      6.58436

Rotational constants in cm-1:     0.004474     0.002370     0.002085
Rotational constants in MHz :   134.132340    71.052832    62.509415

                             ****ORCA TERMINATED NORMALLY****
TOTAL RUN TIME: 0 days 0 hours 15 minutes 41 seconds 130 msec
