                         Program Version 5.0.3 -  RELEASE  -
|  1> ! PBEh-3c def2/J TightSCF DefGrid3
|  2>
|  3> %maxcore 60000
|  4>
|  5> %pal
|  6> nprocs 4
|  7> end
|  8>
|  9> *xyzfile 0 2 hn2.xyz
| 10>
| 11>                          ****END OF INPUT****

CARTESIAN COORDINATES (ANGSTROEM)
---------------------------------
  N     -0.312212    0.941057    0.000000
  N     -0.312212   -0.237145    0.000000
  H      0.624425   -0.703912    0.000000

 Total Charge           Charge          ....    0
 Multiplicity           Mult            ....    2
 Number of Electrons    NEL             ....   15
 Basis Dimension        Dim             ....   32

ORBITAL ENERGIES
----------------
                 SPIN UP ORBITALS
  NO   OCC          E(Eh)            E(eV)
   0   1.0000     -14.717261      -400.4770
   1   1.0000     -14.714997      -400.4154
   2   1.0000      -1.180870       -32.1331
   3   1.0000      -0.754413       -20.5286
   4   1.0000      -0.558994       -15.2110
   5   1.0000      -0.485299       -13.2056
   6   1.0000      -0.476920       -12.9776
   7   1.0000      -0.268930        -7.3180
   8   0.0000      -0.003743        -0.1018
   9   0.0000       0.132033         3.5928
  10   0.0000       0.414420        11.2769
  11   0.0000       0.692427        18.8419
  12   0.0000       0.720079        19.5943

                 SPIN DOWN ORBITALS
  NO   OCC          E(Eh)            E(eV)
   0   1.0000     -14.713999      -400.3883
   1   1.0000     -14.695864      -399.8948
   2   1.0000      -1.157034       -31.4845
   3   1.0000      -0.718656       -19.5556
   4   1.0000      -0.497445       -13.5362
   5   1.0000      -0.467104       -12.7105
   6   1.0000      -0.436101       -11.8669
   7   0.0000      -0.016152        -0.4395
   8   0.0000       0.013062         0.3554
   9   0.0000       0.153940         4.1889
  10   0.0000       0.430513        11.7148
  11   0.0000       0.700147        19.0520

MULLIKEN ATOMIC CHARGES AND SPIN POPULATIONS
--------------------------------------------
   0 N :   -0.056443    0.792701
   1 N :   -0.277483    0.061965
   2 H :    0.333926    0.145334
Sum of atomic charges         :   -0.0000000

LOEWDIN ATOMIC CHARGES AND SPIN POPULATIONS
-------------------------------------------
   0 N :   -0.053453    0.742247
   1 N :   -0.168511    0.140755
   2 H :    0.221964    0.116997

  Mayer bond orders larger than 0.100000
B(  0-N ,  1-N ) :   2.3212 B(  1-N ,  2-H ) :   0.7762

Dispersion correction           -0.000429118
FINAL SINGLE POINT ENERGY      -109.783575782277

DIPOLE MOMENT
-------------
                                X             Y             Z
Electronic contribution:     -0.24474       0.45726      -0.00000
Nuclear contribution   :      0.84785      -0.95578       0.00000
                        -----------------------------------------
Total Dipole Moment    :      0.60311      -0.49852      -0.00000
                        -----------------------------------------
Magnitude (a.u.)       :      0.78247
Magnitude (Debye)      :      1.98889

Rotational constants in cm-1:    22.139800     1.546731     1.445729
Rotational constants in MHz : 663734.492895 46369.819150 43341.869465

                             ****ORCA TERMINATED NORMALLY****
TOTAL RUN TIME: 0 days 0 hours 0 minutes 36 seconds 993 msec
