                         Program Version 5.0.3 -  RELEASE  -
|  1> ! PBEh-3c def2/J TightSCF DefGrid3
|  2>
|  3> %maxcore 60000
|  4>
|  5> %pal
|  6> nprocs 4
|  7> end
|  8>
|  9> *xyzfile 0 1 17b.xyz
| 10>
| 11>                          ****END OF INPUT****

CARTESIAN COORDINATES (ANGSTROEM)
---------------------------------
  H     -0.750811    0.000000    0.198879
  H      0.750811    0.000000    0.198879
  O      0.000000    0.000000   -0.397758

 Total Charge           Charge          ....    0
 Multiplicity           Mult            ....    1
 Number of Electrons    NEL             ....   10
 Basis Dimension        Dim             ....   19

ORBITAL ENERGIES
----------------

  NO   OCC          E(Eh)            E(eV)
   0   2.0000     -19.474741      -529.9346
   1   2.0000      -1.104390       -30.0520
   2   2.0000      -0.579909       -15.7801
   3   2.0000      -0.437432       -11.9031
   4   2.0000      -0.357061        -9.7161
   5   0.0000       0.131640         3.5821
   6   0.0000       0.209478         5.7002
   7   0.0000       0.868966        23.6458
   8   0.0000       0.986575        26.8461
   9   0.0000       0.991294        26.9745

MULLIKEN ATOMIC CHARGES
-----------------------
   0 H :    0.407558
   1 H :    0.407558
   2 O :   -0.815117
Sum of atomic charges:    0.0000000

LOEWDIN ATOMIC CHARGES
----------------------
   0 H :    0.298124
   1 H :    0.298124
   2 O :   -0.596248

  Mayer bond orders larger than 0.100000
B(  0-H ,  2-O ) :   0.8168 B(  1-H ,  2-O ) :   0.8168

Dispersion correction           -0.000209602
FINAL SINGLE POINT ENERGY       -76.257952082201

DIPOLE MOMENT
-------------
                                X             Y             Z
Electronic contribution:     -0.00000       0.00000      -0.13478
Nuclear contribution   :      0.00000       0.00000       0.99323
                        -----------------------------------------
Total Dipole Moment    :     -0.00000       0.00000       0.85845
                        -----------------------------------------
Magnitude (a.u.)       :      0.85845
Magnitude (Debye)      :      2.18201

Rotational constants in cm-1:    26.450081    14.833535     9.503727
Rotational constants in MHz : 792953.468036 444698.188050 284914.554681

                             ****ORCA TERMINATED NORMALLY****
TOTAL RUN TIME: 0 days 0 hours 0 minutes 37 seconds 79 msec
