                         Program Version 5.0.3 -  RELEASE  -
|  1> ! PBEh-3c def2/J TightSCF DefGrid3
|  2>
|  3> %maxcore 60000
|  4>
|  5> %pal
|  6> nprocs 4
|  7> end
|  8>
|  9> *xyzfile 0 1 C4H9SO2H.xyz
| 10>
| 11>                          ****END OF INPUT****

CARTESIAN COORDINATES (ANGSTROEM)
---------------------------------
  C     -2.038310   -0.704940   -1.558245
  H     -1.691855   -1.746368   -1.635205
  H     -1.727147   -0.182851   -2.475541
  H     -3.137022   -0.719466   -1.539085
  C     -1.468946   -0.022619   -0.312231
  H     -1.860177    1.006297   -0.241505
  H     -1.822511   -0.546372    0.591388
  C      0.065969    0.016250   -0.303751
  H      0.419934    0.545736   -1.205001
  H      0.463612   -1.008388   -0.365606
  C      0.622661    0.697372    0.943319
  H      0.402224    0.150021    1.872491
  H      0.253122    1.728869    1.051166
  S      2.442303    0.901850    0.934131
  O      2.787835    1.590272    2.198720
  O      2.673760   -0.769125    1.123721
  H      3.614548   -0.936537    0.921234

 Total Charge           Charge          ....    0
 Multiplicity           Mult            ....    1
 Number of Electrons    NEL             ....   66
 Basis Dimension        Dim             ....  128

ORBITAL ENERGIES
----------------

  NO   OCC          E(Eh)            E(eV)
   0   2.0000     -89.732067     -2441.7337
   1   2.0000     -19.529211      -531.4168
   2   2.0000     -19.463572      -529.6307
   3   2.0000     -10.472097      -284.9602
   4   2.0000     -10.455138      -284.4988
   5   2.0000     -10.449315      -284.3403
   6   2.0000     -10.435763      -283.9715
   7   2.0000      -8.351788      -227.2637
   8   2.0000      -6.244194      -169.9132
   9   2.0000      -6.240705      -169.8182
  10   2.0000      -6.235051      -169.6644
  11   2.0000      -1.174420       -31.9576
  12   2.0000      -1.100756       -29.9531
  13   2.0000      -0.910098       -24.7650
  14   2.0000      -0.846718       -23.0404
  15   2.0000      -0.762513       -20.7490
  16   2.0000      -0.689635       -18.7659
  17   2.0000      -0.665050       -18.0969
  18   2.0000      -0.590216       -16.0606
  19   2.0000      -0.540547       -14.7090
  20   2.0000      -0.525980       -14.3126
  21   2.0000      -0.509340       -13.8598
  22   2.0000      -0.485997       -13.2247
  23   2.0000      -0.475412       -12.9366
  24   2.0000      -0.463978       -12.6255
  25   2.0000      -0.436802       -11.8860
  26   2.0000      -0.421130       -11.4595
  27   2.0000      -0.413535       -11.2529
  28   2.0000      -0.397096       -10.8055
  29   2.0000      -0.387034       -10.5317
  30   2.0000      -0.380799       -10.3621
  31   2.0000      -0.343739        -9.3536
  32   2.0000      -0.288359        -7.8466
  33   0.0000       0.035376         0.9626
  34   0.0000       0.089027         2.4225
  35   0.0000       0.121607         3.3091
  36   0.0000       0.137758         3.7486
  37   0.0000       0.139861         3.8058

MULLIKEN ATOMIC CHARGES
-----------------------
   0 C :   -0.636956
   1 H :    0.213244
   2 H :    0.210755
   3 H :    0.224298
   4 C :   -0.406430
   5 H :    0.209518
   6 H :    0.214623
   7 C :   -0.417472
   8 H :    0.213665
   9 H :    0.239875
  10 C :   -0.611251
  11 H :    0.284251
  12 H :    0.258055
  13 S :    0.932404
  14 O :   -0.644378
  15 O :   -0.723765
  16 H :    0.439563
Sum of atomic charges:   -0.0000000

LOEWDIN ATOMIC CHARGES
----------------------
   0 C :   -0.360994
   1 H :    0.126059
   2 H :    0.124881
   3 H :    0.130112
   4 C :   -0.242926
   5 H :    0.121848
   6 H :    0.124329
   7 C :   -0.259208
   8 H :    0.124510
   9 H :    0.136108
  10 C :   -0.365522
  11 H :    0.153528
  12 H :    0.141971
  13 S :    0.881036
  14 O :   -0.596416
  15 O :   -0.552436
  16 H :    0.313119

  Mayer bond orders larger than 0.100000
B(  0-C ,  1-H ) :   0.9275 B(  0-C ,  2-H ) :   0.9282 B(  0-C ,  3-H ) :   0.9297
B(  0-C ,  4-C ) :   0.9942 B(  4-C ,  5-H ) :   0.9186 B(  4-C ,  6-H ) :   0.9174
B(  4-C ,  7-C ) :   0.9778 B(  7-C ,  8-H ) :   0.9156 B(  7-C ,  9-H ) :   0.9047
B(  7-C , 10-C ) :   0.9303 B( 10-C , 11-H ) :   0.8763 B( 10-C , 12-H ) :   0.8918
B( 10-C , 13-S ) :   0.9160 B( 13-S , 14-O ) :   1.6718 B( 13-S , 15-O ) :   0.8763
B( 15-O , 16-H ) :   0.7748

Dispersion correction           -0.007932142
FINAL SINGLE POINT ENERGY      -705.932399395722

DIPOLE MOMENT
-------------
                                X             Y             Z
Electronic contribution:     14.04483       4.16872       6.73068
Nuclear contribution   :    -14.49013      -4.70132      -7.82859
                        -----------------------------------------
Total Dipole Moment    :     -0.44530      -0.53259      -1.09791
                        -----------------------------------------
Magnitude (a.u.)       :      1.29898
Magnitude (Debye)      :      3.30174

Rotational constants in cm-1:     0.195191     0.028796     0.026672
Rotational constants in MHz :  5851.664207   863.272534   799.599474

                             ****ORCA TERMINATED NORMALLY****
TOTAL RUN TIME: 0 days 0 hours 1 minutes 48 seconds 315 msec
