                         Program Version 5.0.3 -  RELEASE  -
|  1> ! PBEh-3c def2/J TightSCF DefGrid3
|  2>
|  3> %maxcore 60000
|  4>
|  5> %pal
|  6> nprocs 4
|  7> end
|  8>
|  9> *xyzfile 0 2 EA_12n.xyz
| 10>
| 11>                          ****END OF INPUT****

CARTESIAN COORDINATES (ANGSTROEM)
---------------------------------
  N      0.000000    0.000000    0.426324
  H      0.804136    0.000000   -0.213162
  H     -0.804136    0.000000   -0.213162

 Total Charge           Charge          ....    0
 Multiplicity           Mult            ....    2
 Number of Electrons    NEL             ....    9
 Basis Dimension        Dim             ....   19

ORBITAL ENERGIES
----------------
                 SPIN UP ORBITALS
  NO   OCC          E(Eh)            E(eV)
   0   1.0000     -14.654027      -398.7563
   1   1.0000      -0.945924       -25.7399
   2   1.0000      -0.527254       -14.3473
   3   1.0000      -0.376818       -10.2537
   4   1.0000      -0.371758       -10.1160
   5   0.0000       0.135473         3.6864
   6   0.0000       0.206270         5.6129
   7   0.0000       0.744576        20.2610
   8   0.0000       0.760108        20.6836
   9   0.0000       0.812486        22.1089

                 SPIN DOWN ORBITALS
  NO   OCC          E(Eh)            E(eV)
   0   1.0000     -14.632199      -398.1624
   1   1.0000      -0.876097       -23.8398
   2   1.0000      -0.510025       -13.8785
   3   1.0000      -0.346426        -9.4267
   4   0.0000      -0.037595        -1.0230
   5   0.0000       0.148767         4.0482
   6   0.0000       0.214068         5.8251
   7   0.0000       0.765814        20.8389
   8   0.0000       0.831156        22.6169

MULLIKEN ATOMIC CHARGES AND SPIN POPULATIONS
--------------------------------------------
   0 N :   -0.614072    1.085883
   1 H :    0.307036   -0.042941
   2 H :    0.307036   -0.042941
Sum of atomic charges         :   -0.0000000

LOEWDIN ATOMIC CHARGES AND SPIN POPULATIONS
-------------------------------------------
   0 N :   -0.408783    1.054992
   1 H :    0.204392   -0.027496
   2 H :    0.204392   -0.027496

  Mayer bond orders larger than 0.100000
B(  0-N ,  1-H ) :   0.8714 B(  0-N ,  2-H ) :   0.8714

Dispersion correction           -0.000266104
FINAL SINGLE POINT ENERGY       -55.750940472878

DIPOLE MOMENT
-------------
                                X             Y             Z
Electronic contribution:      0.00000      -0.00000       0.22901
Nuclear contribution   :      0.00000       0.00000      -1.04849
                        -----------------------------------------
Total Dipole Moment    :      0.00000      -0.00000      -0.81948
                        -----------------------------------------
Magnitude (a.u.)       :      0.81948
Magnitude (Debye)      :      2.08296

Rotational constants in cm-1:    23.390688    12.931461     8.327584
Rotational constants in MHz : 701235.183407 387675.433901 249654.700462

                             ****ORCA TERMINATED NORMALLY****
TOTAL RUN TIME: 0 days 0 hours 1 minutes 6 seconds 590 msec
