                         Program Version 5.0.3 -  RELEASE  -
|  1> ! PBEh-3c def2/J TightSCF DefGrid3
|  2>
|  3> %maxcore 60000
|  4>
|  5> %pal
|  6> nprocs 4
|  7> end
|  8>
|  9> *xyzfile 0 1 13-Pentadiene.xyz
| 10>
| 11>                          ****END OF INPUT****

CARTESIAN COORDINATES (ANGSTROEM)
---------------------------------
  C     -1.869383   -0.820761    0.000000
  C     -1.224893    0.535231    0.000000
  C      0.089951    0.823964    0.000000
  C      1.198386   -0.121520    0.000000
  C      2.489564    0.243077    0.000000
  H     -1.919832    1.374953    0.000000
  H      0.378397    1.875464    0.000000
  H      0.956599   -1.182961    0.000000
  H      3.291174   -0.489435    0.000000
  H      2.786113    1.289939    0.000000
  H     -1.145134   -1.639537    0.000000
  H     -2.515471   -0.944207    0.879920
  H     -2.515471   -0.944207   -0.879920

 Total Charge           Charge          ....    0
 Multiplicity           Mult            ....    1
 Number of Electrons    NEL             ....   38
 Basis Dimension        Dim             ....   91

ORBITAL ENERGIES
----------------

  NO   OCC          E(Eh)            E(eV)
   0   2.0000     -10.450910      -284.3837
   1   2.0000     -10.449336      -284.3409
   2   2.0000     -10.443860      -284.1919
   3   2.0000     -10.438495      -284.0459
   4   2.0000     -10.437272      -284.0126
   5   2.0000      -0.903166       -24.5764
   6   2.0000      -0.844704       -22.9856
   7   2.0000      -0.767041       -20.8723
   8   2.0000      -0.666496       -18.1363
   9   2.0000      -0.599486       -16.3128
  10   2.0000      -0.542347       -14.7580
  11   2.0000      -0.508369       -13.8334
  12   2.0000      -0.469744       -12.7824
  13   2.0000      -0.463702       -12.6180
  14   2.0000      -0.436324       -11.8730
  15   2.0000      -0.424749       -11.5580
  16   2.0000      -0.384403       -10.4601
  17   2.0000      -0.362988        -9.8774
  18   2.0000      -0.262291        -7.1373
  19   0.0000       0.001283         0.0349
  20   0.0000       0.113100         3.0776
  21   0.0000       0.150164         4.0862
  22   0.0000       0.160878         4.3777
  23   0.0000       0.179995         4.8979

MULLIKEN ATOMIC CHARGES
-----------------------
   0 C :   -0.688926
   1 C :   -0.203508
   2 C :   -0.201427
   3 C :   -0.165798
   4 C :   -0.494518
   5 H :    0.214990
   6 H :    0.210399
   7 H :    0.211636
   8 H :    0.219098
   9 H :    0.214450
  10 H :    0.223848
  11 H :    0.229878
  12 H :    0.229878
Sum of atomic charges:    0.0000000

LOEWDIN ATOMIC CHARGES
----------------------
   0 C :   -0.361051
   1 C :   -0.142505
   2 C :   -0.158268
   3 C :   -0.141076
   4 C :   -0.263404
   5 H :    0.131908
   6 H :    0.134142
   7 H :    0.130374
   8 H :    0.133317
   9 H :    0.129922
  10 H :    0.130198
  11 H :    0.138222
  12 H :    0.138222

  Mayer bond orders larger than 0.100000
B(  0-C ,  1-C ) :   0.9992 B(  0-C , 10-H ) :   0.9235 B(  0-C , 11-H ) :   0.9140
B(  0-C , 12-H ) :   0.9140 B(  1-C ,  2-C ) :   1.8234 B(  1-C ,  4-C ) :   0.1133
B(  1-C ,  5-H ) :   0.9197 B(  2-C ,  3-C ) :   1.0953 B(  2-C ,  6-H ) :   0.9207
B(  3-C ,  4-C ) :   1.8423 B(  3-C ,  7-H ) :   0.9174 B(  4-C ,  8-H ) :   0.9291
B(  4-C ,  9-H ) :   0.9298

Dispersion correction           -0.005161672
FINAL SINGLE POINT ENERGY      -194.866327005190

DIPOLE MOMENT
-------------
                                X             Y             Z
Electronic contribution:      1.27891       1.33855      -0.00000
Nuclear contribution   :     -1.47013      -1.41931       0.00000
                        -----------------------------------------
Total Dipole Moment    :     -0.19123      -0.08076      -0.00000
                        -----------------------------------------
Magnitude (a.u.)       :      0.20758
Magnitude (Debye)      :      0.52763

Rotational constants in cm-1:     0.532447     0.087298     0.076057
Rotational constants in MHz : 15962.373677  2617.125786  2280.144396

                             ****ORCA TERMINATED NORMALLY****
TOTAL RUN TIME: 0 days 0 hours 1 minutes 19 seconds 5 msec
