                         Program Version 5.0.3 -  RELEASE  -
|  1> ! PBEh-3c def2/J TightSCF DefGrid3
|  2>
|  3> %maxcore 60000
|  4>
|  5> %pal
|  6> nprocs 4
|  7> end
|  8>
|  9> *xyzfile 0 1 GLY_xad.xyz
| 10>
| 11>                          ****END OF INPUT****

CARTESIAN COORDINATES (ANGSTROEM)
---------------------------------
  C      0.107563   -1.251815   -0.336002
  H      0.252912   -2.032327   -1.079085
  H     -0.176288   -1.722653    0.603952
  N     -0.969244   -0.373222   -0.733415
  H     -1.149752   -0.236418   -1.711974
  C      1.463448   -0.594224   -0.106194
  O      2.460716   -1.287254    0.042390
  C     -1.904930    0.061922    0.167729
  O     -1.798399   -0.142832    1.367030
  N      1.456474    0.758318   -0.077964
  H      0.561140    1.211750   -0.127148
  C      2.640945    1.517702    0.256366
  H      2.761154    2.355648   -0.426166
  H      3.491213    0.849542    0.161587
  H      2.601093    1.891427    1.278769
  C     -3.072801    0.808464   -0.430878
  H     -2.895644    1.132095   -1.453971
  H     -3.943838    0.155902   -0.414528
  H     -3.292213    1.670595    0.191864

 Total Charge           Charge          ....    0
 Multiplicity           Mult            ....    1
 Number of Electrons    NEL             ....   70
 Basis Dimension        Dim             ....  155

ORBITAL ENERGIES
----------------

  NO   OCC          E(Eh)            E(eV)
   0   2.0000     -19.469089      -529.7809
   1   2.0000     -19.450344      -529.2708
   2   2.0000     -14.681022      -399.4909
   3   2.0000     -14.660010      -398.9192
   4   2.0000     -10.562966      -287.4329
   5   2.0000     -10.542539      -286.8771
   6   2.0000     -10.484837      -285.3069
   7   2.0000     -10.464390      -284.7505
   8   2.0000     -10.455483      -284.5082
   9   2.0000      -1.157157       -31.4878
  10   2.0000      -1.137197       -30.9447
  11   2.0000      -1.042172       -28.3590
  12   2.0000      -1.016052       -27.6482
  13   2.0000      -0.864051       -23.5120
  14   2.0000      -0.814238       -22.1565
  15   2.0000      -0.771149       -20.9840
  16   2.0000      -0.675293       -18.3756
  17   2.0000      -0.652931       -17.7672
  18   2.0000      -0.606969       -16.5165
  19   2.0000      -0.577430       -15.7127
  20   2.0000      -0.553163       -15.0523
  21   2.0000      -0.520923       -14.1750
  22   2.0000      -0.517522       -14.0825
  23   2.0000      -0.502464       -13.6727
  24   2.0000      -0.485694       -13.2164
  25   2.0000      -0.472400       -12.8547
  26   2.0000      -0.469198       -12.7675
  27   2.0000      -0.465550       -12.6682
  28   2.0000      -0.444134       -12.0855
  29   2.0000      -0.426264       -11.5992
  30   2.0000      -0.407244       -11.0817
  31   2.0000      -0.340060        -9.2535
  32   2.0000      -0.322505        -8.7758
  33   2.0000      -0.302175        -8.2226
  34   2.0000      -0.292860        -7.9691
  35   0.0000       0.047227         1.2851
  36   0.0000       0.067920         1.8482
  37   0.0000       0.102421         2.7870
  38   0.0000       0.144818         3.9407
  39   0.0000       0.167787         4.5657

MULLIKEN ATOMIC CHARGES
-----------------------
   0 C :   -0.389475
   1 H :    0.262012
   2 H :    0.293769
   3 N :   -0.652053
   4 H :    0.361748
   5 C :    0.520808
   6 O :   -0.433601
   7 C :    0.502316
   8 O :   -0.407707
   9 N :   -0.627600
  10 H :    0.369949
  11 C :   -0.492428
  12 H :    0.215510
  13 H :    0.265236
  14 H :    0.225367
  15 C :   -0.756406
  16 H :    0.213166
  17 H :    0.263416
  18 H :    0.265973
Sum of atomic charges:   -0.0000000

LOEWDIN ATOMIC CHARGES
----------------------
   0 C :   -0.179492
   1 H :    0.149557
   2 H :    0.172199
   3 N :   -0.255287
   4 H :    0.255933
   5 C :    0.096913
   6 O :   -0.282234
   7 C :    0.099430
   8 O :   -0.266396
   9 N :   -0.245106
  10 H :    0.256056
  11 C :   -0.256473
  12 H :    0.121512
  13 H :    0.153744
  14 H :    0.123632
  15 C :   -0.391895
  16 H :    0.128271
  17 H :    0.160639
  18 H :    0.158997

  Mayer bond orders larger than 0.100000
B(  0-C ,  1-H ) :   0.9044 B(  0-C ,  2-H ) :   0.8772 B(  0-C ,  3-N ) :   0.9164
B(  0-C ,  5-C ) :   0.9081 B(  3-N ,  4-H ) :   0.8264 B(  3-N ,  7-C ) :   1.1042
B(  5-C ,  6-O ) :   1.9828 B(  5-C ,  9-N ) :   1.1624 B(  6-O ,  9-N ) :   0.1005
B(  7-C ,  8-O ) :   2.0198 B(  7-C , 15-C ) :   0.9281 B(  9-N , 10-H ) :   0.8040
B(  9-N , 11-C ) :   0.9518 B( 11-C , 12-H ) :   0.9251 B( 11-C , 13-H ) :   0.8993
B( 11-C , 14-H ) :   0.9182 B( 15-C , 16-H ) :   0.9206 B( 15-C , 17-H ) :   0.9052
B( 15-C , 18-H ) :   0.9097

Dispersion correction           -0.009283782
FINAL SINGLE POINT ENERGY      -455.558844268072

DIPOLE MOMENT
-------------
                                X             Y             Z
Electronic contribution:      1.06418      -4.20989       1.50600
Nuclear contribution   :     -2.13177       5.33997      -2.97837
                        -----------------------------------------
Total Dipole Moment    :     -1.06760       1.13008      -1.47237
                        -----------------------------------------
Magnitude (a.u.)       :      2.14120
Magnitude (Debye)      :      5.44249

Rotational constants in cm-1:     0.100082     0.029458     0.026335
Rotational constants in MHz :  3000.381866   883.114029   789.508432

                             ****ORCA TERMINATED NORMALLY****
TOTAL RUN TIME: 0 days 0 hours 1 minutes 46 seconds 344 msec
