                         Program Version 5.0.3 -  RELEASE  -
|  1> ! PBEh-3c def2/J TightSCF DefGrid3
|  2>
|  3> %maxcore 60000
|  4>
|  5> %pal
|  6> nprocs 4
|  7> end
|  8>
|  9> *xyzfile 0 1 alme2.xyz
| 10>
| 11>                          ****END OF INPUT****

CARTESIAN COORDINATES (ANGSTROEM)
---------------------------------
  C      0.000000    1.730008   -0.242608
  Al     0.000000    0.000000    0.697389
  C      0.000000   -1.730008   -0.242608
  H      0.000000    0.000000    2.285358
  H      0.000000    1.633962   -1.328443
  H      0.873443    2.323764    0.039839
  H     -0.873443    2.323764    0.039839
  H     -0.873443   -2.323764    0.039839
  H      0.873443   -2.323764    0.039839
  H      0.000000   -1.633962   -1.328443

 Total Charge           Charge          ....    0
 Multiplicity           Mult            ....    1
 Number of Electrons    NEL             ....   32
 Basis Dimension        Dim             ....   62

ORBITAL ENERGIES
----------------

  NO   OCC          E(Eh)            E(eV)
   0   2.0000     -56.586414     -1539.7946
   1   2.0000     -10.402975      -283.0794
   2   2.0000     -10.402969      -283.0792
   3   2.0000      -4.326401      -117.7273
   4   2.0000      -2.820474       -76.7490
   5   2.0000      -2.811871       -76.5149
   6   2.0000      -2.811514       -76.5052
   7   2.0000      -0.755987       -20.5715
   8   2.0000      -0.747088       -20.3293
   9   2.0000      -0.448953       -12.2166
  10   2.0000      -0.442003       -12.0275
  11   2.0000      -0.436926       -11.8894
  12   2.0000      -0.436021       -11.8647
  13   2.0000      -0.433434       -11.7943
  14   2.0000      -0.324443        -8.8285
  15   2.0000      -0.317078        -8.6281
  16   0.0000      -0.012566        -0.3419
  17   0.0000       0.057348         1.5605
  18   0.0000       0.093930         2.5560
  19   0.0000       0.153254         4.1703
  20   0.0000       0.174415         4.7461

MULLIKEN ATOMIC CHARGES
-----------------------
   0 C :   -1.046080
   1 Al:    0.808886
   2 C :   -1.046080
   3 H :   -0.128100
   4 H :    0.234677
   5 H :    0.235505
   6 H :    0.235505
   7 H :    0.235505
   8 H :    0.235505
   9 H :    0.234677
Sum of atomic charges:   -0.0000000

LOEWDIN ATOMIC CHARGES
----------------------
   0 C :   -0.647992
   1 Al:    0.503536
   2 C :   -0.647992
   3 H :   -0.094709
   4 H :    0.143544
   5 H :    0.150017
   6 H :    0.150017
   7 H :    0.150017
   8 H :    0.150017
   9 H :    0.143544

  Mayer bond orders larger than 0.100000
B(  0-C ,  1-Al) :   0.8778 B(  0-C ,  4-H ) :   0.9110 B(  0-C ,  5-H ) :   0.9077
B(  0-C ,  6-H ) :   0.9077 B(  1-Al,  2-C ) :   0.8778 B(  1-Al,  3-H ) :   0.9390
B(  2-C ,  7-H ) :   0.9077 B(  2-C ,  8-H ) :   0.9077 B(  2-C ,  9-H ) :   0.9110

Dispersion correction           -0.002728739
FINAL SINGLE POINT ENERGY      -322.352606211245

DIPOLE MOMENT
-------------
                                X             Y             Z
Electronic contribution:     -0.00000      -0.00000       1.85483
Nuclear contribution   :      0.00000       0.00000      -2.07584
                        -----------------------------------------
Total Dipole Moment    :     -0.00000      -0.00000      -0.22101
                        -----------------------------------------
Magnitude (a.u.)       :      0.22101
Magnitude (Debye)      :      0.56176

Rotational constants in cm-1:     0.713385     0.165066     0.140944
Rotational constants in MHz : 21386.748458  4948.548451  4225.394996

                             ****ORCA TERMINATED NORMALLY****
TOTAL RUN TIME: 0 days 0 hours 0 minutes 59 seconds 538 msec
