                         Program Version 5.0.3 -  RELEASE  -
|  1> ! PBEh-3c def2/J TightSCF DefGrid3
|  2>
|  3> %maxcore 60000
|  4>
|  5> %pal
|  6> nprocs 4
|  7> end
|  8>
|  9> *xyzfile 0 1 ed1.xyz
| 10>
| 11>                          ****END OF INPUT****

CARTESIAN COORDINATES (ANGSTROEM)
---------------------------------
  C     -2.118864    0.733915   -0.120355
  C     -0.831066    1.027746   -0.298682
  C      0.346268    0.196662   -0.060530
  C      1.517386    0.831558    0.040796
  H     -2.872627    1.481367   -0.350861
  H     -0.646970    2.040076   -0.642603
  H      1.583773    1.909748   -0.084135
  O      2.682972    0.193400    0.324251
  H      3.417371    0.805819    0.318367
  C      0.227135   -1.310847    0.062980
  H     -0.666494   -1.638084   -0.465969
  H      0.066950   -1.569179    1.120977
  O      1.281737   -2.037364   -0.502501
  H      2.113153   -1.771923   -0.108880
  O     -2.573712   -0.451183    0.348622
  H     -3.527013   -0.441713    0.418522

 Total Charge           Charge          ....    0
 Multiplicity           Mult            ....    1
 Number of Electrons    NEL             ....   62
 Basis Dimension        Dim             ....  136

ORBITAL ENERGIES
----------------

  NO   OCC          E(Eh)            E(eV)
   0   2.0000     -19.530068      -531.4402
   1   2.0000     -19.521718      -531.2130
   2   2.0000     -19.458209      -529.4848
   3   2.0000     -10.493646      -285.5466
   4   2.0000     -10.492893      -285.5261
   5   2.0000     -10.463690      -284.7315
   6   2.0000     -10.435526      -283.9651
   7   2.0000     -10.431494      -283.8554
   8   2.0000      -1.176585       -32.0165
   9   2.0000      -1.170410       -31.8485
  10   2.0000      -1.103249       -30.0209
  11   2.0000      -0.897965       -24.4349
  12   2.0000      -0.818938       -22.2844
  13   2.0000      -0.748214       -20.3599
  14   2.0000      -0.683921       -18.6104
  15   2.0000      -0.632516       -17.2116
  16   2.0000      -0.620771       -16.8920
  17   2.0000      -0.597008       -16.2454
  18   2.0000      -0.540248       -14.7009
  19   2.0000      -0.510786       -13.8992
  20   2.0000      -0.497042       -13.5252
  21   2.0000      -0.472122       -12.8471
  22   2.0000      -0.463142       -12.6027
  23   2.0000      -0.450821       -12.2675
  24   2.0000      -0.443118       -12.0579
  25   2.0000      -0.432380       -11.7657
  26   2.0000      -0.401427       -10.9234
  27   2.0000      -0.360476        -9.8091
  28   2.0000      -0.324379        -8.8268
  29   2.0000      -0.298757        -8.1296
  30   2.0000      -0.225253        -6.1295
  31   0.0000       0.033764         0.9188
  32   0.0000       0.102433         2.7873
  33   0.0000       0.113823         3.0973
  34   0.0000       0.125905         3.4261
  35   0.0000       0.180590         4.9141

MULLIKEN ATOMIC CHARGES
-----------------------
   0 C :    0.004606
   1 C :   -0.326067
   2 C :    0.000612
   3 C :   -0.004952
   4 H :    0.201839
   5 H :    0.213158
   6 H :    0.202132
   7 O :   -0.613882
   8 H :    0.441745
   9 C :   -0.188929
  10 H :    0.230349
  11 H :    0.189756
  12 O :   -0.629828
  13 H :    0.429700
  14 O :   -0.588025
  15 H :    0.437786
Sum of atomic charges:    0.0000000

LOEWDIN ATOMIC CHARGES
----------------------
   0 C :   -0.051457
   1 C :   -0.206711
   2 C :   -0.125834
   3 C :   -0.044105
   4 H :    0.114582
   5 H :    0.139479
   6 H :    0.115185
   7 O :   -0.332775
   8 H :    0.329713
   9 C :   -0.085212
  10 H :    0.133835
  11 H :    0.107388
  12 O :   -0.403264
  13 H :    0.306060
  14 O :   -0.324119
  15 H :    0.327235

  Mayer bond orders larger than 0.100000
B(  0-C ,  1-C ) :   1.7912 B(  0-C ,  4-H ) :   0.9030 B(  0-C , 14-O ) :   1.0921
B(  1-C ,  2-C ) :   1.0549 B(  1-C ,  5-H ) :   0.9220 B(  2-C ,  3-C ) :   1.7449
B(  2-C ,  9-C ) :   0.9200 B(  3-C ,  6-H ) :   0.9112 B(  3-C ,  7-O ) :   1.0506
B(  7-O ,  8-H ) :   0.7699 B(  9-C , 10-H ) :   0.9129 B(  9-C , 11-H ) :   0.9023
B(  9-C , 12-O ) :   1.0638 B( 12-O , 13-H ) :   0.7583 B( 14-O , 15-H ) :   0.7732

Dispersion correction           -0.007540235
FINAL SINGLE POINT ENERGY      -420.042219067442

DIPOLE MOMENT
-------------
                                X             Y             Z
Electronic contribution:      0.98490      -0.52718       0.05675
Nuclear contribution   :     -1.21958       1.91069       0.29802
                        -----------------------------------------
Total Dipole Moment    :     -0.23468       1.38351       0.35477
                        -----------------------------------------
Magnitude (a.u.)       :      1.44742
Magnitude (Debye)      :      3.67905

Rotational constants in cm-1:     0.118073     0.042829     0.032772
Rotational constants in MHz :  3539.725888  1283.977934   982.475039

                             ****ORCA TERMINATED NORMALLY****
TOTAL RUN TIME: 0 days 0 hours 2 minutes 11 seconds 856 msec
