                         Program Version 5.0.3 -  RELEASE  -
|  1> ! PBEh-3c def2/J TightSCF DefGrid3
|  2>
|  3> %maxcore 60000
|  4>
|  5> %pal
|  6> nprocs 4
|  7> end
|  8>
|  9> *xyzfile 0 1 04r.xyz
| 10>
| 11>                          ****END OF INPUT****

CARTESIAN COORDINATES (ANGSTROEM)
---------------------------------
  C     -0.717311    0.000000    0.735364
  C     -1.093987    0.000000   -0.569032
  O      0.000000    0.000000   -1.381214
  C      1.093987    0.000000   -0.569032
  C      0.717311    0.000000    0.735364
  H     -1.371992    0.000000    1.592139
  H     -2.048086    0.000000   -1.067865
  H      2.048086    0.000000   -1.067865
  H      1.371992    0.000000    1.592139

 Total Charge           Charge          ....    0
 Multiplicity           Mult            ....    1
 Number of Electrons    NEL             ....   36
 Basis Dimension        Dim             ....   83

ORBITAL ENERGIES
----------------

  NO   OCC          E(Eh)            E(eV)
   0   2.0000     -19.566017      -532.4184
   1   2.0000     -10.494715      -285.5757
   2   2.0000     -10.494660      -285.5742
   3   2.0000     -10.444573      -284.2113
   4   2.0000     -10.444177      -284.2005
   5   2.0000      -1.223379       -33.2898
   6   2.0000      -0.893375       -24.3100
   7   2.0000      -0.833120       -22.6703
   8   2.0000      -0.672037       -18.2870
   9   2.0000      -0.642031       -17.4705
  10   2.0000      -0.612616       -16.6701
  11   2.0000      -0.515221       -14.0199
  12   2.0000      -0.505180       -13.7467
  13   2.0000      -0.470031       -12.7902
  14   2.0000      -0.456763       -12.4292
  15   2.0000      -0.433308       -11.7909
  16   2.0000      -0.327168        -8.9027
  17   2.0000      -0.271533        -7.3888
  18   0.0000       0.039745         1.0815
  19   0.0000       0.100757         2.7417
  20   0.0000       0.169262         4.6058
  21   0.0000       0.187122         5.0918
  22   0.0000       0.204602         5.5675

MULLIKEN ATOMIC CHARGES
-----------------------
   0 C :   -0.305163
   1 C :    0.034387
   2 O :   -0.387508
   3 C :    0.034388
   4 C :   -0.305163
   5 H :    0.225756
   6 H :    0.238773
   7 H :    0.238774
   8 H :    0.225756
Sum of atomic charges:   -0.0000000

LOEWDIN ATOMIC CHARGES
----------------------
   0 C :   -0.196692
   1 C :   -0.043280
   2 O :   -0.084141
   3 C :   -0.043280
   4 C :   -0.196692
   5 H :    0.143770
   6 H :    0.138272
   7 H :    0.138272
   8 H :    0.143770

  Mayer bond orders larger than 0.100000
B(  0-C ,  1-C ) :   1.6309 B(  0-C ,  4-C ) :   1.2703 B(  0-C ,  5-H ) :   0.9209
B(  1-C ,  2-O ) :   1.0940 B(  1-C ,  6-H ) :   0.9146 B(  2-O ,  3-C ) :   1.0940
B(  3-C ,  4-C ) :   1.6309 B(  3-C ,  7-H ) :   0.9146 B(  4-C ,  8-H ) :   0.9209

Dispersion correction           -0.003430592
FINAL SINGLE POINT ENERGY      -229.518698008639

DIPOLE MOMENT
-------------
                                X             Y             Z
Electronic contribution:      0.00000      -0.00000      -1.66390
Nuclear contribution   :      0.00000       0.00000       1.90665
                        -----------------------------------------
Total Dipole Moment    :      0.00000      -0.00000       0.24275
                        -----------------------------------------
Magnitude (a.u.)       :      0.24275
Magnitude (Debye)      :      0.61702

Rotational constants in cm-1:     0.315916     0.309702     0.156389
Rotational constants in MHz :  9470.926683  9284.641898  4688.429589

                             ****ORCA TERMINATED NORMALLY****
TOTAL RUN TIME: 0 days 0 hours 1 minutes 19 seconds 677 msec
