                         Program Version 5.0.3 -  RELEASE  -
|  1> ! PBEh-3c def2/J TightSCF DefGrid3
|  2>
|  3> %maxcore 60000
|  4>
|  5> %pal
|  6> nprocs 4
|  7> end
|  8>
|  9> *xyzfile 0 1 sbh3_nh3.xyz
| 10>
| 11>                          ****END OF INPUT****

CARTESIAN COORDINATES (ANGSTROEM)
---------------------------------
  Sb     0.361063   -1.688854    0.000000
  H     -0.684404   -1.179926    1.212678
  H     -0.343185   -3.230787    0.000000
  H     -0.684404   -1.179926   -1.212678
  N      0.361063    1.537385    0.000000
  H     -0.137183    1.875937    0.811226
  H      1.264233    1.990235    0.000000
  H     -0.137183    1.875937   -0.811226

 Total Charge           Charge          ....    0
 Multiplicity           Mult            ....    1
 Number of Electrons    NEL             ....   36
 Basis Dimension        Dim             ....   53

ORBITAL ENERGIES
----------------

  NO   OCC          E(Eh)            E(eV)
   0   2.0000     -14.618577      -397.7917
   1   2.0000      -5.910818      -160.8415
   2   2.0000      -4.097243      -111.4917
   3   2.0000      -4.097161      -111.4894
   4   2.0000      -4.092091      -111.3515
   5   2.0000      -1.370027       -37.2803
   6   2.0000      -1.369920       -37.2774
   7   2.0000      -1.364988       -37.1432
   8   2.0000      -1.364560       -37.1316
   9   2.0000      -1.361351       -37.0442
  10   2.0000      -0.956292       -26.0220
  11   2.0000      -0.623551       -16.9677
  12   2.0000      -0.531456       -14.4616
  13   2.0000      -0.531421       -14.4607
  14   2.0000      -0.372230       -10.1289
  15   2.0000      -0.369495       -10.0545
  16   2.0000      -0.323596        -8.8055
  17   2.0000      -0.274728        -7.4757
  18   0.0000       0.051215         1.3936
  19   0.0000       0.069611         1.8942
  20   0.0000       0.121687         3.3113
  21   0.0000       0.161951         4.4069
  22   0.0000       0.211622         5.7585

MULLIKEN ATOMIC CHARGES
-----------------------
   0 Sb:   -0.024221
   1 H :   -0.003459
   2 H :   -0.023477
   3 H :   -0.003459
   4 N :   -0.936195
   5 H :    0.329806
   6 H :    0.331200
   7 H :    0.329806
Sum of atomic charges:    0.0000000

LOEWDIN ATOMIC CHARGES
----------------------
   0 Sb:   -0.037409
   1 H :   -0.001265
   2 H :   -0.022702
   3 H :   -0.001265
   4 N :   -0.611976
   5 H :    0.224759
   6 H :    0.225101
   7 H :    0.224759

  Mayer bond orders larger than 0.100000
B(  0-Sb,  1-H ) :   0.9821 B(  0-Sb,  2-H ) :   0.9666 B(  0-Sb,  3-H ) :   0.9821
B(  4-N ,  5-H ) :   0.8694 B(  4-N ,  6-H ) :   0.8691 B(  4-N ,  7-H ) :   0.8694

Dispersion correction           -0.002120167
FINAL SINGLE POINT ENERGY      -298.476035403459

DIPOLE MOMENT
-------------
                                X             Y             Z
Electronic contribution:      4.04930     -34.23549       0.00000
Nuclear contribution   :     -4.06165      35.45896       0.00000
                        -----------------------------------------
Total Dipole Moment    :     -0.01235       1.22347       0.00000
                        -----------------------------------------
Magnitude (a.u.)       :      1.22353
Magnitude (Debye)      :      3.10997

Rotational constants in cm-1:     2.042753     0.099061     0.098869
Rotational constants in MHz : 61240.203363  2969.760914  2964.006127

                             ****ORCA TERMINATED NORMALLY****
TOTAL RUN TIME: 0 days 0 hours 1 minutes 17 seconds 463 msec
