                         Program Version 5.0.3 -  RELEASE  -
|  1> ! PBEh-3c def2/J TightSCF DefGrid3
|  2>
|  3> %maxcore 60000
|  4>
|  5> %pal
|  6> nprocs 4
|  7> end
|  8>
|  9> *xyzfile 0 1 reac8.xyz
| 10>
| 11>                          ****END OF INPUT****

CARTESIAN COORDINATES (ANGSTROEM)
---------------------------------
  C      0.000000    0.767849    0.000000
  H     -0.822901    1.486989    0.000000
  H      1.367800    2.070612    0.000000
  H      0.602469   -1.464838    0.000000
  N      1.228728    1.061969    0.000000
  S     -0.609279   -0.883352    0.000000

 Total Charge           Charge          ....    0
 Multiplicity           Mult            ....    1
 Number of Electrons    NEL             ....   32
 Basis Dimension        Dim             ....   54

ORBITAL ENERGIES
----------------

  NO   OCC          E(Eh)            E(eV)
   0   2.0000     -89.598125     -2438.0889
   1   2.0000     -14.632920      -398.1820
   2   2.0000     -10.527039      -286.4553
   3   2.0000      -8.241023      -224.2496
   4   2.0000      -6.131887      -166.8571
   5   2.0000      -6.128109      -166.7543
   6   2.0000      -6.123795      -166.6369
   7   2.0000      -1.020977       -27.7822
   8   2.0000      -0.851643       -23.1744
   9   2.0000      -0.666341       -18.1321
  10   2.0000      -0.588989       -16.0272
  11   2.0000      -0.488383       -13.2896
  12   2.0000      -0.419890       -11.4258
  13   2.0000      -0.419157       -11.4058
  14   2.0000      -0.329527        -8.9669
  15   2.0000      -0.297547        -8.0967
  16   0.0000       0.023244         0.6325
  17   0.0000       0.060669         1.6509
  18   0.0000       0.125729         3.4213
  19   0.0000       0.140847         3.8326
  20   0.0000       0.228543         6.2190

MULLIKEN ATOMIC CHARGES
-----------------------
   0 C :   -0.157791
   1 H :    0.225397
   2 H :    0.319852
   3 H :    0.213542
   4 N :   -0.468404
   5 S :   -0.132595
Sum of atomic charges:    0.0000000

LOEWDIN ATOMIC CHARGES
----------------------
   0 C :   -0.181320
   1 H :    0.108179
   2 H :    0.233821
   3 H :    0.125542
   4 N :   -0.335913
   5 S :    0.049691

  Mayer bond orders larger than 0.100000
B(  0-C ,  1-H ) :   0.8634 B(  0-C ,  4-N ) :   2.0151 B(  0-C ,  5-S ) :   1.0676
B(  2-H ,  4-N ) :   0.8382 B(  3-H ,  5-S ) :   0.9108

Dispersion correction           -0.001964228
FINAL SINGLE POINT ENERGY      -492.164037053331

DIPOLE MOMENT
-------------
                                X             Y             Z
Electronic contribution:     -1.38768      -1.61183       0.00000
Nuclear contribution   :      1.15411       2.09133       0.00000
                        -----------------------------------------
Total Dipole Moment    :     -0.23357       0.47950       0.00000
                        -----------------------------------------
Magnitude (a.u.)       :      0.53336
Magnitude (Debye)      :      1.35570

Rotational constants in cm-1:     1.962034     0.200915     0.182252
Rotational constants in MHz : 58820.301517  6023.278560  5463.780078

                             ****ORCA TERMINATED NORMALLY****
TOTAL RUN TIME: 0 days 0 hours 0 minutes 41 seconds 878 msec
