                         Program Version 5.0.3 -  RELEASE  -
|  1> ! PBEh-3c def2/J TightSCF DefGrid3
|  2>
|  3> %maxcore 60000
|  4>
|  5> %pal
|  6> nprocs 4
|  7> end
|  8>
|  9> *xyzfile 0 1 30.xyz
| 10>
| 11>                          ****END OF INPUT****

CARTESIAN COORDINATES (ANGSTROEM)
---------------------------------
  O      0.000000    0.000000   -0.562805
  C      0.000000    0.000000    0.562805

 Total Charge           Charge          ....    0
 Multiplicity           Mult            ....    1
 Number of Electrons    NEL             ....   14
 Basis Dimension        Dim             ....   30

ORBITAL ENERGIES
----------------

  NO   OCC          E(Eh)            E(eV)
   0   2.0000     -19.605353      -533.4888
   1   2.0000     -10.566761      -287.5362
   2   2.0000      -1.280107       -34.8335
   3   2.0000      -0.648261       -17.6401
   4   2.0000      -0.534814       -14.5530
   5   2.0000      -0.534814       -14.5530
   6   2.0000      -0.432385       -11.7658
   7   0.0000       0.016988         0.4623
   8   0.0000       0.016988         0.4623
   9   0.0000       0.287775         7.8308
  10   0.0000       0.507274        13.8036
  11   0.0000       0.507274        13.8036

MULLIKEN ATOMIC CHARGES
-----------------------
   0 O :   -0.135425
   1 C :    0.135425
Sum of atomic charges:   -0.0000000

LOEWDIN ATOMIC CHARGES
----------------------
   0 O :    0.025353
   1 C :   -0.025353

  Mayer bond orders larger than 0.100000
B(  0-O ,  1-C ) :   2.5016

Dispersion correction           -0.000210089
FINAL SINGLE POINT ENERGY      -113.066065592035

DIPOLE MOMENT
-------------
                                X             Y             Z
Electronic contribution:      0.00000       0.00000      -0.00797
Nuclear contribution   :      0.00000       0.00000      -0.00714
                        -----------------------------------------
Total Dipole Moment    :      0.00000       0.00000      -0.01511
                        -----------------------------------------
Magnitude (a.u.)       :      0.01511
Magnitude (Debye)      :      0.03840

Rotational constants in cm-1:     0.000000     1.939375     1.939375
Rotational constants in MHz :     0.000000 58141.002151 58141.002151

                             ****ORCA TERMINATED NORMALLY****
TOTAL RUN TIME: 0 days 0 hours 0 minutes 17 seconds 36 msec
