                         Program Version 5.0.3 -  RELEASE  -
|  1> ! PBEh-3c def2/J TightSCF DefGrid3
|  2>
|  3> %maxcore 60000
|  4>
|  5> %pal
|  6> nprocs 4
|  7> end
|  8>
|  9> *xyzfile 0 1 P20.xyz
| 10>
| 11>                          ****END OF INPUT****

CARTESIAN COORDINATES (ANGSTROEM)
---------------------------------
  C     -0.389334    0.345849    0.000000
  C      0.270631    1.546002    0.642437
  C      0.270631    1.546002   -0.642437
  C      0.270631   -0.975810    0.000000
  C     -0.368279   -2.141046    0.000000
  H     -1.477322    0.294937    0.000000
  H      0.540308    2.004320    1.576127
  H      0.540308    2.004320   -1.576127
  H      1.357028   -0.957393    0.000000
  H     -1.450608   -2.190688    0.000000
  H      0.164600   -3.081473    0.000000

 Total Charge           Charge          ....    0
 Multiplicity           Mult            ....    1
 Number of Electrons    NEL             ....   36
 Basis Dimension        Dim             ....   87

ORBITAL ENERGIES
----------------

  NO   OCC          E(Eh)            E(eV)
   0   2.0000     -10.465375      -284.7773
   1   2.0000     -10.464330      -284.7489
   2   2.0000     -10.463910      -284.7375
   3   2.0000     -10.438371      -284.0425
   4   2.0000     -10.425351      -283.6882
   5   2.0000      -0.981056       -26.6959
   6   2.0000      -0.851971       -23.1833
   7   2.0000      -0.698510       -19.0074
   8   2.0000      -0.641133       -17.4461
   9   2.0000      -0.620415       -16.8823
  10   2.0000      -0.576832       -15.6964
  11   2.0000      -0.501147       -13.6369
  12   2.0000      -0.494704       -13.4616
  13   2.0000      -0.410559       -11.1719
  14   2.0000      -0.400370       -10.8946
  15   2.0000      -0.384904       -10.4738
  16   2.0000      -0.308299        -8.3893
  17   2.0000      -0.278771        -7.5857
  18   0.0000       0.020217         0.5501
  19   0.0000       0.064366         1.7515
  20   0.0000       0.166019         4.5176
  21   0.0000       0.181826         4.9477
  22   0.0000       0.185434         5.0459

MULLIKEN ATOMIC CHARGES
-----------------------
   0 C :   -0.282363
   1 C :   -0.191750
   2 C :   -0.191750
   3 C :   -0.103656
   4 C :   -0.505794
   5 H :    0.212150
   6 H :    0.217117
   7 H :    0.217117
   8 H :    0.207905
   9 H :    0.207474
  10 H :    0.213550
Sum of atomic charges:    0.0000000

LOEWDIN ATOMIC CHARGES
----------------------
   0 C :   -0.141359
   1 C :   -0.114983
   2 C :   -0.114983
   3 C :   -0.140600
   4 C :   -0.284684
   5 H :    0.116435
   6 H :    0.145995
   7 H :    0.145995
   8 H :    0.129034
   9 H :    0.127500
  10 H :    0.131649

  Mayer bond orders larger than 0.100000
B(  0-C ,  1-C ) :   0.9285 B(  0-C ,  2-C ) :   0.9285 B(  0-C ,  3-C ) :   1.0090
B(  0-C ,  5-H ) :   0.9085 B(  1-C ,  2-C ) :   1.8479 B(  1-C ,  6-H ) :   0.9217
B(  2-C ,  7-H ) :   0.9217 B(  3-C ,  4-C ) :   1.9009 B(  3-C ,  8-H ) :   0.9210
B(  4-C ,  9-H ) :   0.9310 B(  4-C , 10-H ) :   0.9295

Dispersion correction           -0.004272843
FINAL SINGLE POINT ENERGY      -193.577793731414

DIPOLE MOMENT
-------------
                                X             Y             Z
Electronic contribution:      0.46781       2.29894      -0.00000
Nuclear contribution   :     -0.33311      -1.96990       0.00000
                        -----------------------------------------
Total Dipole Moment    :      0.13470       0.32903      -0.00000
                        -----------------------------------------
Magnitude (a.u.)       :      0.35554
Magnitude (Debye)      :      0.90370

Rotational constants in cm-1:     0.661130     0.104257     0.101528
Rotational constants in MHz : 19820.188334  3125.553534  3043.725912

                             ****ORCA TERMINATED NORMALLY****
TOTAL RUN TIME: 0 days 0 hours 0 minutes 49 seconds 304 msec
