                         Program Version 5.0.3 -  RELEASE  -
|  1> ! PBEh-3c def2/J TightSCF DefGrid3
|  2>
|  3> %maxcore 60000
|  4>
|  5> %pal
|  6> nprocs 4
|  7> end
|  8>
|  9> *xyzfile 0 1 ed9.xyz
| 10>
| 11>                          ****END OF INPUT****

CARTESIAN COORDINATES (ANGSTROEM)
---------------------------------
  Si    -1.341862   -0.820630   -0.338346
  C      0.536662   -0.801903   -0.178407
  C      1.175474    0.492256    0.226787
  H      0.965240   -1.129975   -1.133405
  H      0.829391   -1.584541    0.532441
  C      0.555134    1.630873    0.504407
  H      2.260896    0.474052    0.295911
  H     -0.523216    1.743283    0.461002
  H      1.109407    2.516154    0.788402
  H     -1.802056    0.141922   -1.357699
  H     -1.993716   -0.488515    0.943094
  H     -1.771355   -2.172977   -0.744187

 Total Charge           Charge          ....    0
 Multiplicity           Mult            ....    1
 Number of Electrons    NEL             ....   40
 Basis Dimension        Dim             ....   79

ORBITAL ENERGIES
----------------

  NO   OCC          E(Eh)            E(eV)
   0   2.0000     -66.724370     -1815.6624
   1   2.0000     -10.453979      -284.4672
   2   2.0000     -10.439262      -284.0668
   3   2.0000     -10.435635      -283.9681
   4   2.0000      -5.506035      -149.8268
   5   2.0000      -3.796889      -103.3186
   6   2.0000      -3.796775      -103.3155
   7   2.0000      -3.796576      -103.3101
   8   2.0000      -0.883689       -24.0464
   9   2.0000      -0.774488       -21.0749
  10   2.0000      -0.638209       -17.3665
  11   2.0000      -0.575364       -15.6565
  12   2.0000      -0.532948       -14.5022
  13   2.0000      -0.484670       -13.1885
  14   2.0000      -0.475287       -12.9332
  15   2.0000      -0.416071       -11.3219
  16   2.0000      -0.387167       -10.5354
  17   2.0000      -0.386000       -10.5036
  18   2.0000      -0.359956        -9.7949
  19   2.0000      -0.306036        -8.3277
  20   0.0000       0.044923         1.2224
  21   0.0000       0.078587         2.1385
  22   0.0000       0.098540         2.6814
  23   0.0000       0.110980         3.0199
  24   0.0000       0.155552         4.2328

MULLIKEN ATOMIC CHARGES
-----------------------
   0 Si:    0.274832
   1 C :   -0.764364
   2 C :   -0.124594
   3 H :    0.248642
   4 H :    0.249262
   5 C :   -0.488687
   6 H :    0.218359
   7 H :    0.222336
   8 H :    0.221276
   9 H :   -0.018235
  10 H :   -0.018894
  11 H :   -0.019934
Sum of atomic charges:    0.0000000

LOEWDIN ATOMIC CHARGES
----------------------
   0 Si:    0.232778
   1 C :   -0.429797
   2 C :   -0.138707
   3 H :    0.152068
   4 H :    0.152346
   5 C :   -0.277783
   6 H :    0.129221
   7 H :    0.131699
   8 H :    0.134071
   9 H :   -0.028187
  10 H :   -0.028480
  11 H :   -0.029230

  Mayer bond orders larger than 0.100000
B(  0-Si,  1-C ) :   0.9515 B(  0-Si,  9-H ) :   0.9648 B(  0-Si, 10-H ) :   0.9645
B(  0-Si, 11-H ) :   0.9675 B(  1-C ,  2-C ) :   0.9808 B(  1-C ,  3-H ) :   0.8876
B(  1-C ,  4-H ) :   0.8871 B(  2-C ,  5-C ) :   1.9447 B(  2-C ,  6-H ) :   0.9189
B(  5-C ,  7-H ) :   0.9165 B(  5-C ,  8-H ) :   0.9255

Dispersion correction           -0.004879161
FINAL SINGLE POINT ENERGY      -407.965401701177

DIPOLE MOMENT
-------------
                                X             Y             Z
Electronic contribution:     -0.08129      -0.47033      -0.13974
Nuclear contribution   :      0.38336       0.36995       0.13585
                        -----------------------------------------
Total Dipole Moment    :      0.30207      -0.10038      -0.00389
                        -----------------------------------------
Magnitude (a.u.)       :      0.31833
Magnitude (Debye)      :      0.80914

Rotational constants in cm-1:     0.396772     0.115989     0.094164
Rotational constants in MHz : 11894.926818  3477.271965  2822.955443

                             ****ORCA TERMINATED NORMALLY****
TOTAL RUN TIME: 0 days 0 hours 1 minutes 38 seconds 507 msec
