                         Program Version 5.0.3 -  RELEASE  -
|  1> ! PBEh-3c def2/J TightSCF DefGrid3
|  2>
|  3> %maxcore 60000
|  4>
|  5> %pal
|  6> nprocs 4
|  7> end
|  8>
|  9> *xyzfile 0 1 S4O4_2.xyz
| 10>
| 11>                          ****END OF INPUT****

CARTESIAN COORDINATES (ANGSTROEM)
---------------------------------
  O     -1.918403    0.199985    0.000000
  S     -1.322454   -0.367333   -1.471855
  O     -0.007133    0.654838   -1.660614
  S      1.556606    0.012585   -1.470766
  O      1.464366   -0.800163    0.000000
  S      1.556606    0.012585    1.470766
  O     -0.007133    0.654838    1.660614
  S     -1.322454   -0.367333    1.471855

 Total Charge           Charge          ....    0
 Multiplicity           Mult            ....    1
 Number of Electrons    NEL             ....   96
 Basis Dimension        Dim             ....  132

ORBITAL ENERGIES
----------------

  NO   OCC          E(Eh)            E(eV)
   0   2.0000     -89.699626     -2440.8509
   1   2.0000     -89.699589     -2440.8499
   2   2.0000     -89.698031     -2440.8075
   3   2.0000     -89.697994     -2440.8065
   4   2.0000     -19.599071      -533.3178
   5   2.0000     -19.588542      -533.0313
   6   2.0000     -19.588533      -533.0311
   7   2.0000     -19.588112      -533.0196
   8   2.0000      -8.328834      -226.6391
   9   2.0000      -8.328821      -226.6387
  10   2.0000      -8.326795      -226.5836
  11   2.0000      -8.326782      -226.5832
  12   2.0000      -6.222997      -169.3364
  13   2.0000      -6.222996      -169.3363
  14   2.0000      -6.220598      -169.2711
  15   2.0000      -6.220597      -169.2711
  16   2.0000      -6.218171      -169.2050
  17   2.0000      -6.218161      -169.2048
  18   2.0000      -6.216405      -169.1570
  19   2.0000      -6.216398      -169.1568
  20   2.0000      -6.206205      -168.8794
  21   2.0000      -6.206200      -168.8793
  22   2.0000      -6.204449      -168.8316
  23   2.0000      -6.204441      -168.8314
  24   2.0000      -1.229885       -33.4669
  25   2.0000      -1.192879       -32.4599
  26   2.0000      -1.189540       -32.3690
  27   2.0000      -1.143748       -31.1230
  28   2.0000      -0.887715       -24.1560
  29   2.0000      -0.806869       -21.9560
  30   2.0000      -0.801897       -21.8207
  31   2.0000      -0.682559       -18.5734
  32   2.0000      -0.630887       -17.1673
  33   2.0000      -0.576519       -15.6879
  34   2.0000      -0.560293       -15.2464
  35   2.0000      -0.560258       -15.2454
  36   2.0000      -0.528227       -14.3738
  37   2.0000      -0.508210       -13.8291
  38   2.0000      -0.508040       -13.8245
  39   2.0000      -0.463129       -12.6024
  40   2.0000      -0.450225       -12.2512
  41   2.0000      -0.438022       -11.9192
  42   2.0000      -0.428144       -11.6504
  43   2.0000      -0.418136       -11.3781
  44   2.0000      -0.313380        -8.5275
  45   2.0000      -0.305738        -8.3195
  46   2.0000      -0.303497        -8.2586
  47   2.0000      -0.290124        -7.8947
  48   0.0000      -0.045028        -1.2253
  49   0.0000      -0.044343        -1.2066
  50   0.0000      -0.023251        -0.6327
  51   0.0000      -0.001930        -0.0525
  52   0.0000       0.030450         0.8286

MULLIKEN ATOMIC CHARGES
-----------------------
   0 O :   -0.610556
   1 S :    0.616973
   2 O :   -0.616615
   3 S :    0.613288
   4 O :   -0.616737
   5 S :    0.613288
   6 O :   -0.616615
   7 S :    0.616973
Sum of atomic charges:    0.0000000

LOEWDIN ATOMIC CHARGES
----------------------
   0 O :   -0.482127
   1 S :    0.488733
   2 O :   -0.489801
   3 S :    0.486101
   4 O :   -0.487940
   5 S :    0.486101
   6 O :   -0.489801
   7 S :    0.488733

  Mayer bond orders larger than 0.100000
B(  0-O ,  1-S ) :   0.9168 B(  0-O ,  7-S ) :   0.9168 B(  1-S ,  2-O ) :   0.9277
B(  2-O ,  3-S ) :   0.8884 B(  3-S ,  4-O ) :   0.9059 B(  4-O ,  5-S ) :   0.9059
B(  5-S ,  6-O ) :   0.8884 B(  6-O ,  7-S ) :   0.9277

Dispersion correction           -0.006013231
FINAL SINGLE POINT ENERGY     -1891.065117811931

DIPOLE MOMENT
-------------
                                X             Y             Z
Electronic contribution:      0.39561      -0.59098      -0.00000
Nuclear contribution   :     -0.01827       0.02767       0.00000
                        -----------------------------------------
Total Dipole Moment    :      0.37734      -0.56331      -0.00000
                        -----------------------------------------
Magnitude (a.u.)       :      0.67801
Magnitude (Debye)      :      1.72337

Rotational constants in cm-1:     0.042896     0.042329     0.023206
Rotational constants in MHz :  1285.986885  1268.994064   695.701156

                             ****ORCA TERMINATED NORMALLY****
TOTAL RUN TIME: 0 days 0 hours 1 minutes 53 seconds 853 msec
