                         Program Version 5.0.3 -  RELEASE  -
|  1> ! PBEh-3c def2/J TightSCF DefGrid3
|  2>
|  3> %maxcore 60000
|  4>
|  5> %pal
|  6> nprocs 4
|  7> end
|  8>
|  9> *xyzfile 0 1 E34.xyz
| 10>
| 11>                          ****END OF INPUT****

CARTESIAN COORDINATES (ANGSTROEM)
---------------------------------
  C     -0.965514    0.393092    0.000000
  C     -1.620921   -0.835425    0.000000
  C     -0.885029   -2.012840    0.000000
  C      0.506128   -1.967537    0.000000
  C      1.148701   -0.734392    0.000000
  C      0.435105    0.465016    0.000000
  O     -1.754942    1.515552    0.000000
  C      1.136706    1.799653    0.000000
  H     -2.703625   -0.846537    0.000000
  H     -1.400803   -2.965613    0.000000
  H      1.085439   -2.882391    0.000000
  H      2.232651   -0.694578    0.000000
  H     -1.204834    2.306429    0.000000
  H      2.218427    1.666616    0.000000
  H      0.886255    2.396477   -0.884656
  H      0.886255    2.396477    0.884656

 Total Charge           Charge          ....    0
 Multiplicity           Mult            ....    1
 Number of Electrons    NEL             ....   58
 Basis Dimension        Dim             ....  136

ORBITAL ENERGIES
----------------

  NO   OCC          E(Eh)            E(eV)
   0   2.0000     -19.522516      -531.2347
   1   2.0000     -10.507305      -285.9183
   2   2.0000     -10.456740      -284.5424
   3   2.0000     -10.450176      -284.3637
   4   2.0000     -10.447554      -284.2924
   5   2.0000     -10.445807      -284.2449
   6   2.0000     -10.439313      -284.0681
   7   2.0000     -10.438342      -284.0417
   8   2.0000      -1.167120       -31.7589
   9   2.0000      -0.951738       -25.8981
  10   2.0000      -0.868577       -23.6352
  11   2.0000      -0.828044       -22.5322
  12   2.0000      -0.777784       -21.1646
  13   2.0000      -0.682031       -18.5590
  14   2.0000      -0.678684       -18.4679
  15   2.0000      -0.607078       -16.5194
  16   2.0000      -0.559717       -15.2307
  17   2.0000      -0.529488       -14.4081
  18   2.0000      -0.497924       -13.5492
  19   2.0000      -0.496336       -13.5060
  20   2.0000      -0.473264       -12.8782
  21   2.0000      -0.456374       -12.4186
  22   2.0000      -0.452453       -12.3119
  23   2.0000      -0.449196       -12.2232
  24   2.0000      -0.408957       -11.1283
  25   2.0000      -0.390395       -10.6232
  26   2.0000      -0.388657       -10.5759
  27   2.0000      -0.287333        -7.8187
  28   2.0000      -0.260179        -7.0798
  29   0.0000       0.021807         0.5934
  30   0.0000       0.034793         0.9468
  31   0.0000       0.109357         2.9758
  32   0.0000       0.145746         3.9659
  33   0.0000       0.177417         4.8278

MULLIKEN ATOMIC CHARGES
-----------------------
   0 C :    0.314987
   1 C :   -0.288527
   2 C :   -0.224301
   3 C :   -0.228389
   4 C :   -0.261839
   5 C :    0.020195
   6 O :   -0.610189
   7 C :   -0.757541
   8 H :    0.236071
   9 H :    0.218683
  10 H :    0.215181
  11 H :    0.210666
  12 H :    0.441130
  13 H :    0.252207
  14 H :    0.230833
  15 H :    0.230833
Sum of atomic charges:   -0.0000000

LOEWDIN ATOMIC CHARGES
----------------------
   0 C :    0.068607
   1 C :   -0.161098
   2 C :   -0.126417
   3 C :   -0.161213
   4 C :   -0.125819
   5 C :   -0.104097
   6 O :   -0.318542
   7 C :   -0.361332
   8 H :    0.146341
   9 H :    0.136538
  10 H :    0.135051
  11 H :    0.133297
  12 H :    0.324909
  13 H :    0.145258
  14 H :    0.134259
  15 H :    0.134259

  Mayer bond orders larger than 0.100000
B(  0-C ,  1-C ) :   1.3734 B(  0-C ,  5-C ) :   1.3006 B(  0-C ,  6-O ) :   1.1125
B(  1-C ,  2-C ) :   1.4408 B(  1-C ,  8-H ) :   0.9088 B(  2-C ,  3-C ) :   1.4232
B(  2-C ,  9-H ) :   0.9204 B(  3-C ,  4-C ) :   1.4388 B(  3-C , 10-H ) :   0.9196
B(  4-C ,  5-C ) :   1.4198 B(  4-C , 11-H ) :   0.9206 B(  5-C ,  7-C ) :   0.9439
B(  6-O , 12-H ) :   0.7629 B(  7-C , 13-H ) :   0.9252 B(  7-C , 14-H ) :   0.9138
B(  7-C , 15-H ) :   0.9138

Dispersion correction           -0.008596495
FINAL SINGLE POINT ENERGY      -346.028608634371

DIPOLE MOMENT
-------------
                                X             Y             Z
Electronic contribution:     -3.31429      -1.52908      -0.00000
Nuclear contribution   :      3.86703       1.94740       0.00000
                        -----------------------------------------
Total Dipole Moment    :      0.55273       0.41832      -0.00000
                        -----------------------------------------
Magnitude (a.u.)       :      0.69319
Magnitude (Debye)      :      1.76194

Rotational constants in cm-1:     0.108395     0.073575     0.044189
Rotational constants in MHz :  3249.599180  2205.719525  1324.760857

                             ****ORCA TERMINATED NORMALLY****
TOTAL RUN TIME: 0 days 0 hours 1 minutes 29 seconds 434 msec
