                         Program Version 5.0.3 -  RELEASE  -
|  1> ! PBEh-3c def2/J TightSCF DefGrid3
|  2>
|  3> %maxcore 60000
|  4>
|  5> %pal
|  6> nprocs 4
|  7> end
|  8>
|  9> *xyzfile 0 1 alf3.xyz
| 10>
| 11>                          ****END OF INPUT****

CARTESIAN COORDINATES (ANGSTROEM)
---------------------------------
  Al     0.000000    0.000000    0.000000
  F      0.817580    1.416090    0.000000
  F      0.817580   -1.416090    0.000000
  F     -1.635160    0.000000    0.000000

 Total Charge           Charge          ....    0
 Multiplicity           Mult            ....    1
 Number of Electrons    NEL             ....   40
 Basis Dimension        Dim             ....   63

ORBITAL ENERGIES
----------------

  NO   OCC          E(Eh)            E(eV)
   0   2.0000     -56.681008     -1542.3686
   1   2.0000     -25.079595      -682.4505
   2   2.0000     -25.079591      -682.4504
   3   2.0000     -25.079487      -682.4475
   4   2.0000      -4.415922      -120.1634
   5   2.0000      -2.910467       -79.1978
   6   2.0000      -2.903748       -79.0150
   7   2.0000      -2.903747       -79.0150
   8   2.0000      -1.291400       -35.1408
   9   2.0000      -1.278852       -34.7993
  10   2.0000      -1.278844       -34.7991
  11   2.0000      -0.573740       -15.6123
  12   2.0000      -0.530200       -14.4275
  13   2.0000      -0.530199       -14.4274
  14   2.0000      -0.509089       -13.8530
  15   2.0000      -0.496154       -13.5010
  16   2.0000      -0.496150       -13.5009
  17   2.0000      -0.487772       -13.2729
  18   2.0000      -0.487759       -13.2726
  19   2.0000      -0.471236       -12.8230
  20   0.0000      -0.023248        -0.6326
  21   0.0000       0.025347         0.6897
  22   0.0000       0.133161         3.6235
  23   0.0000       0.133167         3.6237
  24   0.0000       0.215199         5.8559

MULLIKEN ATOMIC CHARGES
-----------------------
   0 Al:    1.572190
   1 F :   -0.524053
   2 F :   -0.524053
   3 F :   -0.524083
Sum of atomic charges:   -0.0000000

LOEWDIN ATOMIC CHARGES
----------------------
   0 Al:    0.728540
   1 F :   -0.242841
   2 F :   -0.242841
   3 F :   -0.242857

  Mayer bond orders larger than 0.100000
B(  0-Al,  1-F ) :   0.8637 B(  0-Al,  2-F ) :   0.8637 B(  0-Al,  3-F ) :   0.8636

Dispersion correction           -0.000646168
FINAL SINGLE POINT ENERGY      -541.306106103218

DIPOLE MOMENT
-------------
                                X             Y             Z
Electronic contribution:      0.00014       0.00000      -0.00000
Nuclear contribution   :      0.00000       0.00000       0.00000
                        -----------------------------------------
Total Dipole Moment    :      0.00014       0.00000      -0.00000
                        -----------------------------------------
Magnitude (a.u.)       :      0.00014
Magnitude (Debye)      :      0.00034

Rotational constants in cm-1:     0.221247     0.221247     0.110623
Rotational constants in MHz :  6632.817119  6632.816967  3316.408521

                             ****ORCA TERMINATED NORMALLY****
TOTAL RUN TIME: 0 days 0 hours 0 minutes 57 seconds 307 msec
