                         Program Version 5.0.3 -  RELEASE  -
|  1> ! PBEh-3c def2/J TightSCF DefGrid3
|  2>
|  3> %maxcore 60000
|  4>
|  5> %pal
|  6> nprocs 4
|  7> end
|  8>
|  9> *xyzfile 0 3 EA_9n.xyz
| 10>
| 11>                          ****END OF INPUT****

CARTESIAN COORDINATES (ANGSTROEM)
---------------------------------
  C      0.000000    0.000000    0.274256
  H      0.996045    0.000000   -0.137128
  H     -0.996045    0.000000   -0.137128

 Total Charge           Charge          ....    0
 Multiplicity           Mult            ....    3
 Number of Electrons    NEL             ....    8
 Basis Dimension        Dim             ....   19

ORBITAL ENERGIES
----------------
                 SPIN UP ORBITALS
  NO   OCC          E(Eh)            E(eV)
   0   1.0000     -10.480412      -285.1865
   1   1.0000      -0.765118       -20.8199
   2   1.0000      -0.515005       -14.0140
   3   1.0000      -0.335083        -9.1181
   4   1.0000      -0.299662        -8.1542
   5   0.0000       0.151790         4.1304
   6   0.0000       0.246173         6.6987
   7   0.0000       0.505141        13.7456
   8   0.0000       0.512592        13.9483
   9   0.0000       0.514902        14.0112

                 SPIN DOWN ORBITALS
  NO   OCC          E(Eh)            E(eV)
   0   1.0000     -10.447199      -284.2827
   1   1.0000      -0.664355       -18.0780
   2   1.0000      -0.490043       -13.3347
   3   0.0000      -0.026009        -0.7078
   4   0.0000      -0.000629        -0.0171
   5   0.0000       0.180373         4.9082
   6   0.0000       0.275904         7.5077
   7   0.0000       0.539217        14.6728

MULLIKEN ATOMIC CHARGES AND SPIN POPULATIONS
--------------------------------------------
   0 C :   -0.442987    2.146830
   1 H :    0.221493   -0.073415
   2 H :    0.221493   -0.073415
Sum of atomic charges         :    0.0000000

LOEWDIN ATOMIC CHARGES AND SPIN POPULATIONS
-------------------------------------------
   0 C :   -0.268852    2.067052
   1 H :    0.134426   -0.033526
   2 H :    0.134426   -0.033526

  Mayer bond orders larger than 0.100000
B(  0-C ,  1-H ) :   0.9120 B(  0-C ,  2-H ) :   0.9120

Dispersion correction           -0.000282874
FINAL SINGLE POINT ENERGY       -39.062982641731

DIPOLE MOMENT
-------------
                                X             Y             Z
Electronic contribution:      0.00000      -0.00000       0.39373
Nuclear contribution   :      0.00000       0.00000      -0.66096
                        -----------------------------------------
Total Dipole Moment    :      0.00000      -0.00000      -0.26723
                        -----------------------------------------
Magnitude (a.u.)       :      0.26723
Magnitude (Debye)      :      0.67924

Rotational constants in cm-1:    57.702871     8.428463     7.354252
Rotational constants in MHz : 1729888.549822 252678.953494 220474.928445

                             ****ORCA TERMINATED NORMALLY****
TOTAL RUN TIME: 0 days 0 hours 0 minutes 16 seconds 25 msec
