                         Program Version 5.0.3 -  RELEASE  -
|  1> ! PBEh-3c def2/J TightSCF DefGrid3
|  2>
|  3> %maxcore 60000
|  4>
|  5> %pal
|  6> nprocs 4
|  7> end
|  8>
|  9> *xyzfile 0 1 20_benBr-acetoneAB.xyz
| 10>
| 11>                          ****END OF INPUT****

CARTESIAN COORDINATES (ANGSTROEM)
---------------------------------
  C      1.217120    0.000086   -0.737292
  C      2.232688    0.000175    0.216500
  C      1.925210    0.000130    1.575499
  C      0.592512    0.000178    1.981958
  C     -0.433049    0.000070    1.038767
  H      1.448302   -0.000020   -1.792785
  H      3.264633    0.000102   -0.107052
  H      2.717094   -0.000023    2.311239
  H      0.345708    0.000110    3.034933
  H     -1.468501   -0.000093    1.347575
  C     -0.111082   -0.000109   -0.316811
  Br    -1.493756   -0.001748   -1.606463
  O     -3.785038    0.000867   -3.641620
  C     -4.942505    0.030473   -3.262526
  C     -5.268278    0.030763   -1.784860
  C     -6.074814    0.067570   -4.266102
  H     -5.949426    0.944115   -4.899332
  H     -5.998004   -0.807301   -4.909326
  H     -7.056301    0.092129   -3.803512
  H     -6.334374    0.058880   -1.583056
  H     -4.834293   -0.858956   -1.331613
  H     -4.786131    0.889882   -1.321375

 Total Charge           Charge          ....    0
 Multiplicity           Mult            ....    1
 Number of Electrons    NEL             ....  108
 Basis Dimension        Dim             ....  204

ORBITAL ENERGIES
----------------

  NO   OCC          E(Eh)            E(eV)
   0   2.0000    -484.515579    -13184.3392
   1   2.0000     -63.178166     -1719.1653
   2   2.0000     -56.882319     -1547.8466
   3   2.0000     -56.880234     -1547.7898
   4   2.0000     -56.880230     -1547.7897
   5   2.0000     -19.486121      -530.2443
   6   2.0000     -10.542587      -286.8784
   7   2.0000     -10.500343      -285.7289
   8   2.0000     -10.457487      -284.5627
   9   2.0000     -10.456751      -284.5427
  10   2.0000     -10.456628      -284.5393
  11   2.0000     -10.456136      -284.5259
  12   2.0000     -10.453425      -284.4522
  13   2.0000     -10.442200      -284.1467
  14   2.0000     -10.440027      -284.0876
  15   2.0000      -9.007193      -245.0982
  16   2.0000      -6.781635      -184.5377
  17   2.0000      -6.769075      -184.1959
  18   2.0000      -6.768947      -184.1924
  19   2.0000      -2.795355       -76.0655
  20   2.0000      -2.791454       -75.9593
  21   2.0000      -2.791309       -75.9554
  22   2.0000      -2.780544       -75.6624
  23   2.0000      -2.780536       -75.6622
  24   2.0000      -1.150282       -31.3008
  25   2.0000      -0.969845       -26.3908
  26   2.0000      -0.888030       -24.1645
  27   2.0000      -0.858100       -23.3501
  28   2.0000      -0.845550       -23.0086
  29   2.0000      -0.803599       -21.8670
  30   2.0000      -0.800454       -21.7815
  31   2.0000      -0.692144       -18.8342
  32   2.0000      -0.670146       -18.2356
  33   2.0000      -0.605646       -16.4805
  34   2.0000      -0.587542       -15.9878
  35   2.0000      -0.526598       -14.3295
  36   2.0000      -0.525503       -14.2997
  37   2.0000      -0.522025       -14.2050
  38   2.0000      -0.520040       -14.1510
  39   2.0000      -0.518616       -14.1123
  40   2.0000      -0.490692       -13.3524
  41   2.0000      -0.473204       -12.8765
  42   2.0000      -0.465547       -12.6682
  43   2.0000      -0.457388       -12.4462
  44   2.0000      -0.439829       -11.9684
  45   2.0000      -0.434961       -11.8359
  46   2.0000      -0.410467       -11.1694
  47   2.0000      -0.399482       -10.8705
  48   2.0000      -0.394675       -10.7396
  49   2.0000      -0.355577        -9.6757
  50   2.0000      -0.326487        -8.8842
  51   2.0000      -0.306258        -8.3337
  52   2.0000      -0.300703        -8.1826
  53   2.0000      -0.275849        -7.5062
  54   0.0000       0.008701         0.2368
  55   0.0000       0.011232         0.3057
  56   0.0000       0.012769         0.3475
  57   0.0000       0.057507         1.5648
  58   0.0000       0.141280         3.8444

MULLIKEN ATOMIC CHARGES
-----------------------
   0 C :   -0.209246
   1 C :   -0.216655
   2 C :   -0.223663
   3 C :   -0.216636
   4 C :   -0.209014
   5 H :    0.245758
   6 H :    0.226866
   7 H :    0.223951
   8 H :    0.225499
   9 H :    0.238380
  10 C :   -0.086878
  11 Br:   -0.016709
  12 O :   -0.354499
  13 C :    0.360709
  14 C :   -0.745460
  15 C :   -0.738110
  16 H :    0.261506
  17 H :    0.261446
  18 H :    0.221309
  19 H :    0.221187
  20 H :    0.264986
  21 H :    0.265274
Sum of atomic charges:   -0.0000000

LOEWDIN ATOMIC CHARGES
----------------------
   0 C :   -0.142230
   1 C :   -0.127608
   2 C :   -0.138742
   3 C :   -0.128559
   4 C :   -0.144607
   5 H :    0.148042
   6 H :    0.139860
   7 H :    0.138275
   8 H :    0.139214
   9 H :    0.144842
  10 C :   -0.129286
  11 Br:    0.087210
  12 O :   -0.206541
  13 C :    0.109470
  14 C :   -0.401659
  15 C :   -0.397315
  16 H :    0.160717
  17 H :    0.160695
  18 H :    0.132325
  19 H :    0.131392
  20 H :    0.162220
  21 H :    0.162285

  Mayer bond orders larger than 0.100000
B(  0-C ,  1-C ) :   1.4287 B(  0-C ,  5-H ) :   0.9099 B(  0-C , 10-C ) :   1.3720
B(  1-C ,  2-C ) :   1.4212 B(  1-C ,  6-H ) :   0.9171 B(  2-C ,  3-C ) :   1.4218
B(  2-C ,  7-H ) :   0.9189 B(  3-C ,  4-C ) :   1.4292 B(  3-C ,  8-H ) :   0.9175
B(  4-C ,  9-H ) :   0.9130 B(  4-C , 10-C ) :   1.3703 B( 10-C , 11-Br) :   1.0246
B( 12-O , 13-C ) :   2.0815 B( 13-C , 14-C ) :   0.9380 B( 13-C , 15-C ) :   0.9340
B( 14-C , 19-H ) :   0.9190 B( 14-C , 20-H ) :   0.9059 B( 14-C , 21-H ) :   0.9055
B( 15-C , 16-H ) :   0.9090 B( 15-C , 17-H ) :   0.9090 B( 15-C , 18-H ) :   0.9205

Dispersion correction           -0.011431721
FINAL SINGLE POINT ENERGY     -2996.878112970133

DIPOLE MOMENT
-------------
                                X             Y             Z
Electronic contribution:     10.65194      -0.28035      -3.34162
Nuclear contribution   :    -11.41069       0.30682       3.91555
                        -----------------------------------------
Total Dipole Moment    :     -0.75875       0.02647       0.57393
                        -----------------------------------------
Magnitude (a.u.)       :      0.95173
Magnitude (Debye)      :      2.41912

Rotational constants in cm-1:     0.106896     0.009305     0.008587
Rotational constants in MHz :  3204.663875   278.960790   257.439709

                             ****ORCA TERMINATED NORMALLY****
TOTAL RUN TIME: 0 days 0 hours 2 minutes 51 seconds 382 msec
