                         Program Version 5.0.3 -  RELEASE  -
|  1> ! PBEh-3c def2/J TightSCF DefGrid3
|  2>
|  3> %maxcore 60000
|  4>
|  5> %pal
|  6> nprocs 4
|  7> end
|  8>
|  9> *xyzfile 0 1 S8_2.xyz
| 10>
| 11>                          ****END OF INPUT****

CARTESIAN COORDINATES (ANGSTROEM)
---------------------------------
  S     -2.367310    0.159126    0.000000
  S     -1.427168   -0.511838   -1.727093
  S     -0.033919    0.930674   -2.152450
  S      1.851103    0.026505   -1.719913
  S      1.587277   -1.049808    0.000000
  S      1.851103    0.026505    1.719913
  S     -0.033919    0.930674    2.152450
  S     -1.427168   -0.511838    1.727093

 Total Charge           Charge          ....    0
 Multiplicity           Mult            ....    1
 Number of Electrons    NEL             ....  128
 Basis Dimension        Dim             ....  144

ORBITAL ENERGIES
----------------

  NO   OCC          E(Eh)            E(eV)
   0   2.0000     -89.667576     -2439.9788
   1   2.0000     -89.665697     -2439.9276
   2   2.0000     -89.665653     -2439.9265
   3   2.0000     -89.659112     -2439.7485
   4   2.0000     -89.655663     -2439.6546
   5   2.0000     -89.655632     -2439.6538
   6   2.0000     -89.655577     -2439.6523
   7   2.0000     -89.655526     -2439.6509
   8   2.0000      -8.304514      -225.9773
   9   2.0000      -8.302970      -225.9353
  10   2.0000      -8.302942      -225.9345
  11   2.0000      -8.296814      -225.7678
  12   2.0000      -8.293661      -225.6820
  13   2.0000      -8.293624      -225.6810
  14   2.0000      -8.293484      -225.6772
  15   2.0000      -8.293470      -225.6768
  16   2.0000      -6.196015      -168.6021
  17   2.0000      -6.194108      -168.5502
  18   2.0000      -6.194096      -168.5499
  19   2.0000      -6.191556      -168.4808
  20   2.0000      -6.190484      -168.4516
  21   2.0000      -6.190470      -168.4513
  22   2.0000      -6.188236      -168.3904
  23   2.0000      -6.185711      -168.3217
  24   2.0000      -6.184972      -168.3016
  25   2.0000      -6.184963      -168.3014
  26   2.0000      -6.184832      -168.2978
  27   2.0000      -6.184831      -168.2978
  28   2.0000      -6.184315      -168.2838
  29   2.0000      -6.184184      -168.2802
  30   2.0000      -6.184176      -168.2800
  31   2.0000      -6.181447      -168.2057
  32   2.0000      -6.181436      -168.2054
  33   2.0000      -6.181398      -168.2044
  34   2.0000      -6.181389      -168.2042
  35   2.0000      -6.177533      -168.0992
  36   2.0000      -6.174304      -168.0113
  37   2.0000      -6.174291      -168.0110
  38   2.0000      -6.173961      -168.0020
  39   2.0000      -6.173954      -168.0018
  40   2.0000      -0.980493       -26.6806
  41   2.0000      -0.943672       -25.6786
  42   2.0000      -0.941346       -25.6153
  43   2.0000      -0.850121       -23.1330
  44   2.0000      -0.846639       -23.0382
  45   2.0000      -0.730955       -19.8903
  46   2.0000      -0.724875       -19.7249
  47   2.0000      -0.638454       -17.3732
  48   2.0000      -0.544145       -14.8070
  49   2.0000      -0.505985       -13.7685
  50   2.0000      -0.496326       -13.5057
  51   2.0000      -0.476608       -12.9692
  52   2.0000      -0.460176       -12.5220
  53   2.0000      -0.448403       -12.2017
  54   2.0000      -0.440129       -11.9765
  55   2.0000      -0.422252       -11.4901
  56   2.0000      -0.380381       -10.3507
  57   2.0000      -0.374051       -10.1784
  58   2.0000      -0.347055        -9.4438
  59   2.0000      -0.338421        -9.2089
  60   2.0000      -0.329219        -8.9585
  61   2.0000      -0.322684        -8.7807
  62   2.0000      -0.313080        -8.5193
  63   2.0000      -0.283132        -7.7044
  64   0.0000      -0.068162        -1.8548
  65   0.0000      -0.067909        -1.8479
  66   0.0000      -0.048878        -1.3301
  67   0.0000      -0.044579        -1.2131
  68   0.0000      -0.027451        -0.7470

MULLIKEN ATOMIC CHARGES
-----------------------
   0 S :    0.006862
   1 S :    0.007737
   2 S :   -0.009485
   3 S :   -0.008437
   4 S :    0.013509
   5 S :   -0.008437
   6 S :   -0.009485
   7 S :    0.007737
Sum of atomic charges:   -0.0000000

LOEWDIN ATOMIC CHARGES
----------------------
   0 S :   -0.002545
   1 S :    0.017617
   2 S :   -0.013574
   3 S :   -0.013985
   4 S :    0.022429
   5 S :   -0.013985
   6 S :   -0.013574
   7 S :    0.017617

  Mayer bond orders larger than 0.100000
B(  0-S ,  1-S ) :   1.0222 B(  0-S ,  7-S ) :   1.0222 B(  1-S ,  2-S ) :   1.0720
B(  2-S ,  3-S ) :   0.9274 B(  3-S ,  4-S ) :   1.0612 B(  3-S ,  5-S ) :   0.1066
B(  4-S ,  5-S ) :   1.0612 B(  5-S ,  6-S ) :   0.9274 B(  6-S ,  7-S ) :   1.0720

Dispersion correction           -0.010197956
FINAL SINGLE POINT ENERGY     -3181.974605328077

DIPOLE MOMENT
-------------
                                X             Y             Z
Electronic contribution:     -0.02650      -0.05273      -0.00000
Nuclear contribution   :      0.00000      -0.00000      -0.00000
                        -----------------------------------------
Total Dipole Moment    :     -0.02650      -0.05273      -0.00000
                        -----------------------------------------
Magnitude (a.u.)       :      0.05902
Magnitude (Debye)      :      0.15001

Rotational constants in cm-1:     0.023434     0.021450     0.013074
Rotational constants in MHz :   702.545441   643.043134   391.935660

                             ****ORCA TERMINATED NORMALLY****
TOTAL RUN TIME: 0 days 0 hours 1 minutes 54 seconds 432 msec
