                         Program Version 5.0.3 -  RELEASE  -
|  1> ! PBEh-3c def2/J TightSCF DefGrid3
|  2>
|  3> %maxcore 60000
|  4>
|  5> %pal
|  6> nprocs 4
|  7> end
|  8>
|  9> *xyzfile 0 2 P18.xyz
| 10>
| 11>                          ****END OF INPUT****

CARTESIAN COORDINATES (ANGSTROEM)
---------------------------------
  C     -1.067224   -0.152743    0.000000
  C      0.298232    0.310379    0.000000
  O      1.203329   -0.709830    0.000000
  H     -1.299889   -1.207659    0.000000
  H     -1.854500    0.585679    0.000000
  O      0.635521    1.479999    0.000000
  H      2.084532   -0.305826    0.000000

 Total Charge           Charge          ....    0
 Multiplicity           Mult            ....    2
 Number of Electrons    NEL             ....   31
 Basis Dimension        Dim             ....   66

ORBITAL ENERGIES
----------------
                 SPIN UP ORBITALS
  NO   OCC          E(Eh)            E(eV)
   0   1.0000     -19.540180      -531.7153
   1   1.0000     -19.494363      -530.4686
   2   1.0000     -10.584359      -288.0151
   3   1.0000     -10.489488      -285.4335
   4   1.0000      -1.218391       -33.1541
   5   1.0000      -1.127979       -30.6939
   6   1.0000      -0.860761       -23.4225
   7   1.0000      -0.683841       -18.6083
   8   1.0000      -0.578407       -15.7393
   9   1.0000      -0.554079       -15.0772
  10   1.0000      -0.521452       -14.1894
  11   1.0000      -0.501172       -13.6376
  12   1.0000      -0.468158       -12.7392
  13   1.0000      -0.392352       -10.6764
  14   1.0000      -0.348167        -9.4741
  15   1.0000      -0.320488        -8.7209
  16   0.0000       0.075604         2.0573
  17   0.0000       0.127485         3.4690
  18   0.0000       0.175616         4.7787
  19   0.0000       0.209293         5.6952
  20   0.0000       0.250555         6.8179

                 SPIN DOWN ORBITALS
  NO   OCC          E(Eh)            E(eV)
   0   1.0000     -19.539952      -531.7091
   1   1.0000     -19.488045      -530.2967
   2   1.0000     -10.586709      -288.0790
   3   1.0000     -10.475002      -285.0393
   4   1.0000      -1.214731       -33.0545
   5   1.0000      -1.118814       -30.4445
   6   1.0000      -0.823890       -22.4192
   7   1.0000      -0.673576       -18.3289
   8   1.0000      -0.569330       -15.4923
   9   1.0000      -0.549281       -14.9467
  10   1.0000      -0.503624       -13.7043
  11   1.0000      -0.491866       -13.3843
  12   1.0000      -0.463389       -12.6094
  13   1.0000      -0.366286        -9.9672
  14   1.0000      -0.340601        -9.2682
  15   0.0000      -0.090309        -2.4574
  16   0.0000       0.110990         3.0202
  17   0.0000       0.130161         3.5419
  18   0.0000       0.188276         5.1233
  19   0.0000       0.215021         5.8510

MULLIKEN ATOMIC CHARGES AND SPIN POPULATIONS
--------------------------------------------
   0 C :   -0.476424    1.017518
   1 C :    0.507709   -0.123614
   2 O :   -0.604074    0.009275
   3 H :    0.254983   -0.053689
   4 H :    0.262926   -0.055662
   5 O :   -0.386671    0.208410
   6 H :    0.441552   -0.002237
Sum of atomic charges         :   -0.0000000

LOEWDIN ATOMIC CHARGES AND SPIN POPULATIONS
-------------------------------------------
   0 C :   -0.196747    0.897488
   1 C :    0.096662   -0.048997
   2 O :   -0.316176    0.008971
   3 H :    0.151064   -0.026406
   4 H :    0.154838   -0.026397
   5 O :   -0.222189    0.196903
   6 H :    0.332549   -0.001562

  Mayer bond orders larger than 0.100000
B(  0-C ,  1-C ) :   1.0657 B(  0-C ,  3-H ) :   0.8978 B(  0-C ,  4-H ) :   0.9101
B(  1-C ,  2-O ) :   1.1113 B(  1-C ,  5-O ) :   1.9881 B(  2-O ,  6-H ) :   0.7626

Dispersion correction           -0.001981620
FINAL SINGLE POINT ENERGY      -227.937934591688

DIPOLE MOMENT
-------------
                                X             Y             Z
Electronic contribution:      1.70408       0.89142       0.00000
Nuclear contribution   :     -1.89679      -1.49875       0.00000
                        -----------------------------------------
Total Dipole Moment    :     -0.19271      -0.60733       0.00000
                        -----------------------------------------
Magnitude (a.u.)       :      0.63717
Magnitude (Debye)      :      1.61955

Rotational constants in cm-1:     0.387836     0.353078     0.184821
Rotational constants in MHz : 11627.027149 10584.999195  5540.785478

                             ****ORCA TERMINATED NORMALLY****
TOTAL RUN TIME: 0 days 0 hours 2 minutes 57 seconds 859 msec
