                         Program Version 5.0.3 -  RELEASE  -
|  1> ! PBEh-3c def2/J TightSCF DefGrid3
|  2>
|  3> %maxcore 60000
|  4>
|  5> %pal
|  6> nprocs 4
|  7> end
|  8>
|  9> *xyzfile 0 1 i1p.xyz
| 10>
| 11>                          ****END OF INPUT****

CARTESIAN COORDINATES (ANGSTROEM)
---------------------------------
  C     -0.935051    1.363146    0.362071
  C     -0.890162   -0.180308    0.092609
  C      0.638927   -0.038823    0.192393
  C      0.338610    1.480590   -0.143069
  C      1.152140    2.583725   -0.791938
  C      1.843723    3.520783    0.226853
  C      2.227002    1.937157   -1.689555
  C      0.243310    3.432913   -1.710921
  C     -2.091381    2.233855    0.792382
  C     -1.600465    3.519831    1.489529
  C     -2.999292    2.613196   -0.406041
  C     -2.941005    1.420952    1.796556
  C     -0.637602   -1.710733    0.245239
  C      0.630690   -1.547037   -0.291582
  C      1.313535   -0.078779    1.685442
  C      0.883852    1.081323    2.608874
  C      2.837008    0.023368    1.470938
  C      1.040388   -1.363498    2.504620
  C      1.565949   -2.442406   -1.067018
  C      2.311091   -3.438646   -0.145078
  C      0.737425   -3.241509   -2.106063
  C      2.585529   -1.584400   -1.839592
  C     -1.371220   -0.201503   -1.391119
  O     -0.722461    0.023166   -2.395138
  O     -2.683599   -0.539149   -1.411066
  C     -3.295086   -0.624904   -2.721761
  C     -1.514204   -2.797903    0.661369
  O     -2.644832   -2.646198    1.090938
  O     -0.898663   -4.025548    0.585496
  C     -1.700401   -5.144428    1.028885
  H      2.360220    4.323578   -0.317222
  H      1.115413    3.975622    0.906840
  H      2.587471    2.984420    0.826288
  H      2.906141    1.304743   -1.110415
  H      1.750579    1.316684   -2.455249
  H      2.814569    2.725088   -2.179733
  H     -0.286487    2.785557   -2.418291
  H     -0.491414    4.005480   -1.138097
  H      0.861906    4.144855   -2.274385
  H     -0.944010    3.276964    2.332425
  H     -1.054444    4.173918    0.803085
  H     -2.466944    4.077062    1.870275
  H     -2.438420    3.145841   -1.180153
  H     -3.446547    1.716958   -0.845844
  H     -3.810367    3.263583   -0.049700
  H     -2.361430    1.181600    2.697040
  H     -3.817875    2.009828    2.097637
  H     -3.277179    0.480588    1.345381
  H      1.412327    0.970412    3.565661
  H      1.120483    2.064726    2.202363
  H     -0.193201    1.045923    2.805334
  H      3.344429    0.034277    2.445308
  H      3.217939   -0.831734    0.904174
  H      3.107620    0.940022    0.938241
  H     -0.031530   -1.483569    2.704995
  H      1.399294   -2.273646    2.019871
  H      1.557726   -1.267116    3.468809
  H      2.971436   -2.916573    0.556638
  H      1.599960   -4.047955    0.421346
  H      2.928402   -4.098716   -0.769450
  H      0.019400   -3.901046   -1.612056
  H      0.202090   -2.551311   -2.768312
  H      1.420556   -3.851988   -2.712376
  H      3.207111   -0.986453   -1.166516
  H      3.239825   -2.243901   -2.424819
  H      2.065792   -0.904330   -2.521664
  H     -3.252021    0.348671   -3.224432
  H     -2.774771   -1.370147   -3.334473
  H     -4.329345   -0.924654   -2.536307
  H     -1.066040   -6.024798    0.894960
  H     -1.979298   -5.020941    2.082213
  H     -2.613122   -5.225758    0.426357

 Total Charge           Charge          ....    0
 Multiplicity           Mult            ....    1
 Number of Electrons    NEL             ....  230
 Basis Dimension        Dim             ....  534

ORBITAL ENERGIES
----------------

  NO   OCC          E(Eh)            E(eV)
   0   2.0000     -19.539648      -531.7009
   1   2.0000     -19.538206      -531.6616
   2   2.0000     -19.480560      -530.0930
   3   2.0000     -19.477627      -530.0132
   4   2.0000     -10.575051      -287.7618
   5   2.0000     -10.570571      -287.6399
   6   2.0000     -10.492635      -285.5191
   7   2.0000     -10.492244      -285.5085
   8   2.0000     -10.491699      -285.4936
   9   2.0000     -10.476076      -285.0685
  10   2.0000     -10.475126      -285.0427
  11   2.0000     -10.470617      -284.9200
  12   2.0000     -10.467047      -284.8228
  13   2.0000     -10.464963      -284.7661
  14   2.0000     -10.464008      -284.7401
  15   2.0000     -10.462887      -284.7096
  16   2.0000     -10.461904      -284.6829
  17   2.0000     -10.461681      -284.6768
  18   2.0000     -10.429354      -283.7972
  19   2.0000     -10.427991      -283.7601
  20   2.0000     -10.426197      -283.7112
  21   2.0000     -10.425626      -283.6957
  22   2.0000     -10.422625      -283.6141
  23   2.0000     -10.422409      -283.6082
  24   2.0000     -10.422144      -283.6010
  25   2.0000     -10.421997      -283.5969
  26   2.0000     -10.419937      -283.5409
  27   2.0000     -10.419289      -283.5233
  28   2.0000     -10.418766      -283.5090
  29   2.0000     -10.418109      -283.4912
  30   2.0000      -1.207733       -32.8641
  31   2.0000      -1.201061       -32.6825
  32   2.0000      -1.115533       -30.3552
  33   2.0000      -1.111771       -30.2528
  34   2.0000      -1.011657       -27.5286
  35   2.0000      -0.935009       -25.4429
  36   2.0000      -0.906227       -24.6597
  37   2.0000      -0.904643       -24.6166
  38   2.0000      -0.892989       -24.2995
  39   2.0000      -0.864078       -23.5127
  40   2.0000      -0.815865       -22.2008
  41   2.0000      -0.813485       -22.1360
  42   2.0000      -0.770387       -20.9633
  43   2.0000      -0.768102       -20.9011
  44   2.0000      -0.764765       -20.8103
  45   2.0000      -0.762512       -20.7490
  46   2.0000      -0.760581       -20.6965
  47   2.0000      -0.758007       -20.6264
  48   2.0000      -0.754010       -20.5177
  49   2.0000      -0.751723       -20.4554
  50   2.0000      -0.734503       -19.9868
  51   2.0000      -0.720709       -19.6115
  52   2.0000      -0.692094       -18.8328
  53   2.0000      -0.667262       -18.1571
  54   2.0000      -0.649628       -17.6773
  55   2.0000      -0.633728       -17.2446
  56   2.0000      -0.608853       -16.5677
  57   2.0000      -0.602379       -16.3916
  58   2.0000      -0.571131       -15.5413
  59   2.0000      -0.565161       -15.3788
  60   2.0000      -0.556260       -15.1366
  61   2.0000      -0.546854       -14.8807
  62   2.0000      -0.541072       -14.7233
  63   2.0000      -0.536335       -14.5944
  64   2.0000      -0.533468       -14.5164
  65   2.0000      -0.529821       -14.4172
  66   2.0000      -0.515500       -14.0275
  67   2.0000      -0.513177       -13.9642
  68   2.0000      -0.505617       -13.7585
  69   2.0000      -0.499334       -13.5876
  70   2.0000      -0.496793       -13.5184
  71   2.0000      -0.493560       -13.4305
  72   2.0000      -0.490636       -13.3509
  73   2.0000      -0.486823       -13.2471
  74   2.0000      -0.484619       -13.1872
  75   2.0000      -0.481576       -13.1044
  76   2.0000      -0.474571       -12.9137
  77   2.0000      -0.471014       -12.8170
  78   2.0000      -0.468249       -12.7417
  79   2.0000      -0.460863       -12.5407
  80   2.0000      -0.451812       -12.2944
  81   2.0000      -0.445706       -12.1283
  82   2.0000      -0.444548       -12.0968
  83   2.0000      -0.440134       -11.9767
  84   2.0000      -0.437085       -11.8937
  85   2.0000      -0.433341       -11.7918
  86   2.0000      -0.431573       -11.7437
  87   2.0000      -0.429863       -11.6972
  88   2.0000      -0.427506       -11.6330
  89   2.0000      -0.421911       -11.4808
  90   2.0000      -0.416327       -11.3288
  91   2.0000      -0.415691       -11.3115
  92   2.0000      -0.413819       -11.2606
  93   2.0000      -0.412993       -11.2381
  94   2.0000      -0.410765       -11.1775
  95   2.0000      -0.407339       -11.0842
  96   2.0000      -0.401307       -10.9201
  97   2.0000      -0.396245       -10.7824
  98   2.0000      -0.388070       -10.5599
  99   2.0000      -0.386799       -10.5253
 100   2.0000      -0.379203       -10.3186
 101   2.0000      -0.377137       -10.2624
 102   2.0000      -0.370538       -10.0829
 103   2.0000      -0.366070        -9.9613
 104   2.0000      -0.365149        -9.9362
 105   2.0000      -0.361191        -9.8285
 106   2.0000      -0.360477        -9.8091
 107   2.0000      -0.354320        -9.6415
 108   2.0000      -0.351682        -9.5698
 109   2.0000      -0.350375        -9.5342
 110   2.0000      -0.334838        -9.1114
 111   2.0000      -0.327295        -8.9062
 112   2.0000      -0.285600        -7.7716
 113   2.0000      -0.268780        -7.3139
 114   2.0000      -0.249654        -6.7934
 115   0.0000      -0.032177        -0.8756
 116   0.0000       0.015577         0.4239
 117   0.0000       0.065421         1.7802
 118   0.0000       0.078156         2.1267
 119   0.0000       0.102036         2.7765

MULLIKEN ATOMIC CHARGES
-----------------------
   0 C :    0.130145
   1 C :   -0.128609
   2 C :    0.030149
   3 C :    0.114299
   4 C :   -0.215009
   5 C :   -0.639697
   6 C :   -0.636320
   7 C :   -0.637182
   8 C :   -0.213985
   9 C :   -0.635194
  10 C :   -0.635636
  11 C :   -0.629453
  12 C :   -0.074918
  13 C :    0.177387
  14 C :   -0.042487
  15 C :   -0.658905
  16 C :   -0.637421
  17 C :   -0.652567
  18 C :   -0.221551
  19 C :   -0.641041
  20 C :   -0.638558
  21 C :   -0.632765
  22 C :    0.651819
  23 O :   -0.418319
  24 O :   -0.455877
  25 C :   -0.399598
  26 C :    0.472305
  27 O :   -0.393562
  28 O :   -0.487432
  29 C :   -0.390518
  30 H :    0.222479
  31 H :    0.226007
  32 H :    0.222241
  33 H :    0.219969
  34 H :    0.249826
  35 H :    0.211642
  36 H :    0.245792
  37 H :    0.214812
  38 H :    0.214758
  39 H :    0.227245
  40 H :    0.219426
  41 H :    0.220550
  42 H :    0.226747
  43 H :    0.238780
  44 H :    0.213167
  45 H :    0.217342
  46 H :    0.210827
  47 H :    0.259994
  48 H :    0.213790
  49 H :    0.245799
  50 H :    0.233249
  51 H :    0.220012
  52 H :    0.221705
  53 H :    0.224867
  54 H :    0.235804
  55 H :    0.244239
  56 H :    0.214712
  57 H :    0.219365
  58 H :    0.244995
  59 H :    0.222298
  60 H :    0.240229
  61 H :    0.238935
  62 H :    0.209605
  63 H :    0.220277
  64 H :    0.215844
  65 H :    0.248013
  66 H :    0.224344
  67 H :    0.230374
  68 H :    0.232265
  69 H :    0.223195
  70 H :    0.228637
  71 H :    0.226345
Sum of atomic charges:   -0.0000000

LOEWDIN ATOMIC CHARGES
----------------------
   0 C :   -0.006418
   1 C :   -0.049127
   2 C :   -0.006882
   3 C :    0.010546
   4 C :   -0.099670
   5 C :   -0.341948
   6 C :   -0.335901
   7 C :   -0.337717
   8 C :   -0.100504
   9 C :   -0.338339
  10 C :   -0.342421
  11 C :   -0.336193
  12 C :   -0.090636
  13 C :    0.089030
  14 C :   -0.071970
  15 C :   -0.343874
  16 C :   -0.341498
  17 C :   -0.345290
  18 C :   -0.103334
  19 C :   -0.341232
  20 C :   -0.341290
  21 C :   -0.336514
  22 C :    0.168053
  23 O :   -0.243633
  24 O :   -0.171561
  25 C :   -0.177602
  26 C :    0.142849
  27 O :   -0.222468
  28 O :   -0.200550
  29 C :   -0.178724
  30 H :    0.127642
  31 H :    0.127317
  32 H :    0.124214
  33 H :    0.123026
  34 H :    0.140149
  35 H :    0.122648
  36 H :    0.139600
  37 H :    0.119871
  38 H :    0.124185
  39 H :    0.130377
  40 H :    0.122190
  41 H :    0.127384
  42 H :    0.128278
  43 H :    0.133850
  44 H :    0.125105
  45 H :    0.124112
  46 H :    0.123418
  47 H :    0.145478
  48 H :    0.123956
  49 H :    0.129750
  50 H :    0.128733
  51 H :    0.127302
  52 H :    0.122020
  53 H :    0.123286
  54 H :    0.134549
  55 H :    0.129615
  56 H :    0.124814
  57 H :    0.123341
  58 H :    0.137804
  59 H :    0.128683
  60 H :    0.134758
  61 H :    0.136202
  62 H :    0.123817
  63 H :    0.124291
  64 H :    0.125467
  65 H :    0.139983
  66 H :    0.126278
  67 H :    0.128426
  68 H :    0.131055
  69 H :    0.126643
  70 H :    0.128128
  71 H :    0.127070

  Mayer bond orders larger than 0.100000
B(  0-C ,  1-C ) :   0.9548 B(  0-C ,  3-C ) :   1.6729 B(  0-C ,  8-C ) :   0.9090
B(  1-C ,  2-C ) :   0.8692 B(  1-C , 12-C ) :   0.9378 B(  1-C , 22-C ) :   0.8549
B(  2-C ,  3-C ) :   0.9694 B(  2-C , 13-C ) :   0.9511 B(  2-C , 14-C ) :   0.8947
B(  3-C ,  4-C ) :   0.9165 B(  4-C ,  5-C ) :   0.9830 B(  4-C ,  6-C ) :   0.9992
B(  4-C ,  7-C ) :   0.9908 B(  5-C , 30-H ) :   0.9191 B(  5-C , 31-H ) :   0.9143
B(  5-C , 32-H ) :   0.9146 B(  6-C , 33-H ) :   0.9120 B(  6-C , 34-H ) :   0.9075
B(  6-C , 35-H ) :   0.9239 B(  7-C , 36-H ) :   0.9132 B(  7-C , 37-H ) :   0.9099
B(  7-C , 38-H ) :   0.9217 B(  8-C ,  9-C ) :   0.9906 B(  8-C , 10-C ) :   0.9840
B(  8-C , 11-C ) :   1.0000 B(  9-C , 39-H ) :   0.9188 B(  9-C , 40-H ) :   0.9102
B(  9-C , 41-H ) :   0.9218 B( 10-C , 42-H ) :   0.9156 B( 10-C , 43-H ) :   0.9090
B( 10-C , 44-H ) :   0.9223 B( 11-C , 45-H ) :   0.9194 B( 11-C , 46-H ) :   0.9245
B( 11-C , 47-H ) :   0.9037 B( 12-C , 13-C ) :   1.5422 B( 12-C , 26-C ) :   1.0216
B( 13-C , 18-C ) :   0.9211 B( 14-C , 15-C ) :   0.9800 B( 14-C , 16-C ) :   0.9773
B( 14-C , 17-C ) :   0.9808 B( 15-C , 48-H ) :   0.9196 B( 15-C , 49-H ) :   0.9003
B( 15-C , 50-H ) :   0.9063 B( 16-C , 51-H ) :   0.9233 B( 16-C , 52-H ) :   0.9065
B( 16-C , 53-H ) :   0.9061 B( 17-C , 54-H ) :   0.9151 B( 17-C , 55-H ) :   0.9031
B( 17-C , 56-H ) :   0.9209 B( 18-C , 19-C ) :   0.9802 B( 18-C , 20-C ) :   0.9868
B( 18-C , 21-C ) :   0.9978 B( 19-C , 57-H ) :   0.9146 B( 19-C , 58-H ) :   0.9062
B( 19-C , 59-H ) :   0.9189 B( 20-C , 60-H ) :   0.9056 B( 20-C , 61-H ) :   0.9143
B( 20-C , 62-H ) :   0.9230 B( 21-C , 63-H ) :   0.9134 B( 21-C , 64-H ) :   0.9232
B( 21-C , 65-H ) :   0.9088 B( 22-C , 23-O ) :   1.9464 B( 22-C , 24-O ) :   1.0788
B( 24-O , 25-C ) :   0.8900 B( 25-C , 66-H ) :   0.9130 B( 25-C , 67-H ) :   0.9134
B( 25-C , 68-H ) :   0.9211 B( 26-C , 27-O ) :   1.9801 B( 26-C , 28-O ) :   1.0339
B( 28-O , 29-C ) :   0.8988 B( 29-C , 69-H ) :   0.9226 B( 29-C , 70-H ) :   0.9124
B( 29-C , 71-H ) :   0.9131

Dispersion correction           -0.061330358
FINAL SINGLE POINT ENERGY     -1313.940557189800

DIPOLE MOMENT
-------------
                                X             Y             Z
Electronic contribution:    -15.21594     -15.43822      -3.43487
Nuclear contribution   :     15.50067      15.18276       3.28930
                        -----------------------------------------
Total Dipole Moment    :      0.28473      -0.25546      -0.14556
                        -----------------------------------------
Magnitude (a.u.)       :      0.40929
Magnitude (Debye)      :      1.04034

Rotational constants in cm-1:     0.007072     0.005079     0.004395
Rotational constants in MHz :   212.010621   152.268154   131.750873

                             ****ORCA TERMINATED NORMALLY****
TOTAL RUN TIME: 0 days 0 hours 16 minutes 14 seconds 836 msec
