                         Program Version 5.0.3 -  RELEASE  -
|  1> ! PBEh-3c def2/J TightSCF DefGrid3
|  2>
|  3> %maxcore 60000
|  4>
|  5> %pal
|  6> nprocs 4
|  7> end
|  8>
|  9> *xyzfile 0 1 h3.xyz
| 10>
| 11>                          ****END OF INPUT****

CARTESIAN COORDINATES (ANGSTROEM)
---------------------------------
  C     -1.584705    1.458948    0.000000
  C     -1.203642   -0.017066    0.000000
  C      0.301407   -0.321346    0.000000
  C      0.970302    0.253135    1.247061
  C      0.476256   -1.838659    0.000000
  C      0.970302    0.253135   -1.247061
  H     -1.203123    1.972613   -0.880771
  H     -2.667963    1.571783    0.000000
  H     -1.203123    1.972613    0.880771
  H     -1.646095   -0.501358   -0.875362
  H     -1.646095   -0.501358    0.875362
  H      0.488782   -0.118945    2.153061
  H      0.927839    1.341696    1.261531
  H      2.021277   -0.037482    1.280961
  H      0.013608   -2.282355    0.882912
  H      1.533466   -2.108266    0.000000
  H      0.013608   -2.282355   -0.882912
  H      0.927839    1.341696   -1.261531
  H      0.488782   -0.118945   -2.153061
  H      2.021277   -0.037482   -1.280961

 Total Charge           Charge          ....    0
 Multiplicity           Mult            ....    1
 Number of Electrons    NEL             ....   50
 Basis Dimension        Dim             ....  118

ORBITAL ENERGIES
----------------

  NO   OCC          E(Eh)            E(eV)
   0   2.0000     -10.444590      -284.2117
   1   2.0000     -10.425871      -283.7024
   2   2.0000     -10.418359      -283.4980
   3   2.0000     -10.416867      -283.4574
   4   2.0000     -10.416798      -283.4555
   5   2.0000     -10.416728      -283.4536
   6   2.0000      -0.918804       -25.0019
   7   2.0000      -0.820873       -22.3371
   8   2.0000      -0.762204       -20.7406
   9   2.0000      -0.762153       -20.7392
  10   2.0000      -0.696485       -18.9523
  11   2.0000      -0.590746       -16.0750
  12   2.0000      -0.517955       -14.0943
  13   2.0000      -0.515908       -14.0386
  14   2.0000      -0.493358       -13.4250
  15   2.0000      -0.478633       -13.0243
  16   2.0000      -0.451572       -12.2879
  17   2.0000      -0.431798       -11.7498
  18   2.0000      -0.425987       -11.5917
  19   2.0000      -0.411102       -11.1867
  20   2.0000      -0.405996       -11.0477
  21   2.0000      -0.390437       -10.6243
  22   2.0000      -0.360492        -9.8095
  23   2.0000      -0.359159        -9.7732
  24   2.0000      -0.352683        -9.5970
  25   0.0000       0.119523         3.2524
  26   0.0000       0.171066         4.6549
  27   0.0000       0.183016         4.9801
  28   0.0000       0.185147         5.0381
  29   0.0000       0.189109         5.1459

MULLIKEN ATOMIC CHARGES
-----------------------
   0 C :   -0.655349
   1 C :   -0.376957
   2 C :   -0.098272
   3 C :   -0.618176
   4 C :   -0.607859
   5 C :   -0.618176
   6 H :    0.213614
   7 H :    0.222531
   8 H :    0.213614
   9 H :    0.205602
  10 H :    0.205602
  11 H :    0.210740
  12 H :    0.215338
  13 H :    0.213808
  14 H :    0.211302
  15 H :    0.211450
  16 H :    0.211302
  17 H :    0.215338
  18 H :    0.210740
  19 H :    0.213808
Sum of atomic charges:   -0.0000000

LOEWDIN ATOMIC CHARGES
----------------------
   0 C :   -0.364211
   1 C :   -0.230819
   2 C :   -0.112368
   3 C :   -0.344290
   4 C :   -0.341157
   5 C :   -0.344290
   6 H :    0.123868
   7 H :    0.128390
   8 H :    0.123868
   9 H :    0.120388
  10 H :    0.120388
  11 H :    0.124345
  12 H :    0.124251
  13 H :    0.125604
  14 H :    0.124072
  15 H :    0.123692
  16 H :    0.124072
  17 H :    0.124251
  18 H :    0.124345
  19 H :    0.125604

  Mayer bond orders larger than 0.100000
B(  0-C ,  1-C ) :   0.9967 B(  0-C ,  6-H ) :   0.9259 B(  0-C ,  7-H ) :   0.9296
B(  0-C ,  8-H ) :   0.9259 B(  1-C ,  2-C ) :   0.9687 B(  1-C ,  9-H ) :   0.9220
B(  1-C , 10-H ) :   0.9220 B(  2-C ,  3-C ) :   0.9785 B(  2-C ,  4-C ) :   0.9885
B(  2-C ,  5-C ) :   0.9785 B(  3-C , 11-H ) :   0.9304 B(  3-C , 12-H ) :   0.9274
B(  3-C , 13-H ) :   0.9289 B(  4-C , 14-H ) :   0.9295 B(  4-C , 15-H ) :   0.9299
B(  4-C , 16-H ) :   0.9295 B(  5-C , 17-H ) :   0.9274 B(  5-C , 18-H ) :   0.9304
B(  5-C , 19-H ) :   0.9289

Dispersion correction           -0.009935236
FINAL SINGLE POINT ENERGY      -236.566807726366

DIPOLE MOMENT
-------------
                                X             Y             Z
Electronic contribution:     -0.19940      -0.55796       0.00000
Nuclear contribution   :      0.18327       0.55403      -0.00000
                        -----------------------------------------
Total Dipole Moment    :     -0.01613      -0.00393       0.00000
                        -----------------------------------------
Magnitude (a.u.)       :      0.01661
Magnitude (Debye)      :      0.04221

Rotational constants in cm-1:     0.144737     0.084257     0.083976
Rotational constants in MHz :  4339.113295  2525.963212  2517.529303

                             ****ORCA TERMINATED NORMALLY****
TOTAL RUN TIME: 0 days 0 hours 1 minutes 22 seconds 403 msec
