                         Program Version 5.0.3 -  RELEASE  -
|  1> ! PBEh-3c def2/J TightSCF DefGrid3
|  2>
|  3> %maxcore 60000
|  4>
|  5> %pal
|  6> nprocs 4
|  7> end
|  8>
|  9> *xyzfile 0 1 4O_A.xyz
| 10>
| 11>                          ****END OF INPUT****

CARTESIAN COORDINATES (ANGSTROEM)
---------------------------------
  C     -0.047504    0.951824    0.000000
  C      0.055330   -1.208511    0.672147
  C      0.055330   -1.208511   -0.672147
  N     -0.006829    0.113419   -1.055894
  N     -0.006829    0.113419    1.055894
  H      0.096476   -2.028608    1.371041
  H      0.096476   -2.028608   -1.371041
  C     -0.026896    0.565512   -2.423768
  C     -0.026896    0.565512    2.423768
  H      0.860439    0.229142   -2.961347
  H     -0.912104    0.201177   -2.946882
  H     -0.042663    1.651957   -2.419803
  H     -0.912104    0.201177    2.946882
  H      0.860439    0.229142    2.961347
  H     -0.042663    1.651957    2.419803

 Total Charge           Charge          ....    0
 Multiplicity           Mult            ....    1
 Number of Electrons    NEL             ....   52
 Basis Dimension        Dim             ....  121

ORBITAL ENERGIES
----------------

  NO   OCC          E(Eh)            E(eV)
   0   2.0000     -14.676931      -399.3796
   1   2.0000     -14.676868      -399.3779
   2   2.0000     -10.465176      -284.7719
   3   2.0000     -10.465164      -284.7716
   4   2.0000     -10.463974      -284.7392
   5   2.0000     -10.463113      -284.7158
   6   2.0000     -10.433767      -283.9172
   7   2.0000      -1.129934       -30.7471
   8   2.0000      -1.011526       -27.5250
   9   2.0000      -0.862007       -23.4564
  10   2.0000      -0.808176       -21.9916
  11   2.0000      -0.764071       -20.7914
  12   2.0000      -0.667253       -18.1569
  13   2.0000      -0.636677       -17.3249
  14   2.0000      -0.588000       -16.0003
  15   2.0000      -0.533963       -14.5299
  16   2.0000      -0.513951       -13.9853
  17   2.0000      -0.500434       -13.6175
  18   2.0000      -0.491446       -13.3729
  19   2.0000      -0.489655       -13.3242
  20   2.0000      -0.443845       -12.0776
  21   2.0000      -0.432942       -11.7810
  22   2.0000      -0.430097       -11.7035
  23   2.0000      -0.315183        -8.5766
  24   2.0000      -0.263758        -7.1772
  25   2.0000      -0.246238        -6.7005
  26   0.0000       0.067912         1.8480
  27   0.0000       0.095484         2.5982
  28   0.0000       0.157856         4.2955
  29   0.0000       0.160226         4.3600
  30   0.0000       0.176760         4.8099

MULLIKEN ATOMIC CHARGES
-----------------------
   0 C :    0.071337
   1 C :   -0.086894
   2 C :   -0.086894
   3 N :   -0.399571
   4 N :   -0.399571
   5 H :    0.240522
   6 H :    0.240522
   7 C :   -0.491773
   8 C :   -0.491773
   9 H :    0.219871
  10 H :    0.220800
  11 H :    0.261376
  12 H :    0.220800
  13 H :    0.219871
  14 H :    0.261376
Sum of atomic charges:   -0.0000000

LOEWDIN ATOMIC CHARGES
----------------------
   0 C :   -0.222981
   1 C :   -0.132372
   2 C :   -0.132372
   3 N :   -0.049422
   4 N :   -0.049422
   5 H :    0.139244
   6 H :    0.139244
   7 C :   -0.244183
   8 C :   -0.244183
   9 H :    0.123382
  10 H :    0.123520
  11 H :    0.151322
  12 H :    0.123520
  13 H :    0.123382
  14 H :    0.151322

  Mayer bond orders larger than 0.100000
B(  0-C ,  3-N ) :   1.2603 B(  0-C ,  4-N ) :   1.2603 B(  1-C ,  2-C ) :   1.6974
B(  1-C ,  4-N ) :   1.0886 B(  1-C ,  5-H ) :   0.9049 B(  2-C ,  3-N ) :   1.0886
B(  2-C ,  6-H ) :   0.9049 B(  3-N ,  7-C ) :   0.9477 B(  4-N ,  8-C ) :   0.9477
B(  7-C ,  9-H ) :   0.9173 B(  7-C , 10-H ) :   0.9166 B(  7-C , 11-H ) :   0.9118
B(  8-C , 12-H ) :   0.9166 B(  8-C , 13-H ) :   0.9173 B(  8-C , 14-H ) :   0.9118

Dispersion correction           -0.007029278
FINAL SINGLE POINT ENERGY      -304.125573985043

DIPOLE MOMENT
-------------
                                X             Y             Z
Electronic contribution:      0.04011      -1.07879      -0.00000
Nuclear contribution   :      0.00978       0.15889       0.00000
                        -----------------------------------------
Total Dipole Moment    :      0.04989      -0.91991      -0.00000
                        -----------------------------------------
Magnitude (a.u.)       :      0.92126
Magnitude (Debye)      :      2.34165

Rotational constants in cm-1:     0.236434     0.071083     0.055798
Rotational constants in MHz :  7088.101116  2131.001896  1672.783334

                             ****ORCA TERMINATED NORMALLY****
TOTAL RUN TIME: 0 days 0 hours 1 minutes 3 seconds 379 msec
