                         Program Version 5.0.3 -  RELEASE  -
|  1> ! PBEh-3c def2/J TightSCF DefGrid3
|  2>
|  3> %maxcore 60000
|  4>
|  5> %pal
|  6> nprocs 4
|  7> end
|  8>
|  9> *xyzfile 0 1 h2.xyz
| 10>
| 11>                          ****END OF INPUT****

CARTESIAN COORDINATES (ANGSTROEM)
---------------------------------
  C     -2.304421   -0.584937   -0.152921
  C     -1.048675    0.257511   -0.347692
  C      0.192082   -0.550624    0.027849
  C      1.518652    0.139172   -0.264534
  C      2.712102   -0.759592    0.033385
  C     -1.154773    1.547657    0.458582
  H     -2.410848   -0.864097    0.897001
  H     -3.199428   -0.035701   -0.444395
  H     -2.261943   -1.501836   -0.740235
  H     -0.969677    0.518427   -1.408127
  H      0.139385   -0.799876    1.093538
  H      0.167086   -1.502069   -0.511690
  H      1.600568    1.053850    0.323792
  H      1.538523    0.442240   -1.314539
  H      2.715178   -1.062631    1.080428
  H      3.655625   -0.256055   -0.171285
  H      2.676874   -1.665071   -0.572088
  H     -1.193234    1.320381    1.526137
  H     -2.063258    2.091654    0.200745
  H     -0.309820    2.211599    0.286048

 Total Charge           Charge          ....    0
 Multiplicity           Mult            ....    1
 Number of Electrons    NEL             ....   50
 Basis Dimension        Dim             ....  118

ORBITAL ENERGIES
----------------

  NO   OCC          E(Eh)            E(eV)
   0   2.0000     -10.435484      -283.9639
   1   2.0000     -10.426570      -283.7214
   2   2.0000     -10.423970      -283.6507
   3   2.0000     -10.418946      -283.5139
   4   2.0000     -10.417498      -283.4745
   5   2.0000     -10.417377      -283.4712
   6   2.0000      -0.906291       -24.6614
   7   2.0000      -0.849154       -23.1067
   8   2.0000      -0.760577       -20.6964
   9   2.0000      -0.753596       -20.5064
  10   2.0000      -0.663668       -18.0593
  11   2.0000      -0.623915       -16.9776
  12   2.0000      -0.533398       -14.5145
  13   2.0000      -0.503203       -13.6928
  14   2.0000      -0.497523       -13.5383
  15   2.0000      -0.473151       -12.8751
  16   2.0000      -0.449284       -12.2256
  17   2.0000      -0.432925       -11.7805
  18   2.0000      -0.429835       -11.6964
  19   2.0000      -0.413277       -11.2458
  20   2.0000      -0.396645       -10.7933
  21   2.0000      -0.379927       -10.3383
  22   2.0000      -0.363560        -9.8930
  23   2.0000      -0.361509        -9.8372
  24   2.0000      -0.354392        -9.6435
  25   0.0000       0.132326         3.6008
  26   0.0000       0.154497         4.2041
  27   0.0000       0.177888         4.8406
  28   0.0000       0.182005         4.9526
  29   0.0000       0.199006         5.4152

MULLIKEN ATOMIC CHARGES
-----------------------
   0 C :   -0.624824
   1 C :   -0.234946
   2 C :   -0.377396
   3 C :   -0.419207
   4 C :   -0.636881
   5 C :   -0.633074
   6 H :    0.204228
   7 H :    0.214914
   8 H :    0.214416
   9 H :    0.203631
  10 H :    0.195171
  11 H :    0.204191
  12 H :    0.209889
  13 H :    0.203966
  14 H :    0.209185
  15 H :    0.218372
  16 H :    0.208624
  17 H :    0.203213
  18 H :    0.216706
  19 H :    0.219824
Sum of atomic charges:   -0.0000000

LOEWDIN ATOMIC CHARGES
----------------------
   0 C :   -0.352168
   1 C :   -0.163581
   2 C :   -0.233682
   3 C :   -0.246857
   4 C :   -0.360682
   5 C :   -0.354859
   6 H :    0.123138
   7 H :    0.124515
   8 H :    0.124334
   9 H :    0.117340
  10 H :    0.117961
  11 H :    0.119940
  12 H :    0.120028
  13 H :    0.119235
  14 H :    0.123605
  15 H :    0.125586
  16 H :    0.122883
  17 H :    0.122832
  18 H :    0.125596
  19 H :    0.124835

  Mayer bond orders larger than 0.100000
B(  0-C ,  1-C ) :   0.9956 B(  0-C ,  6-H ) :   0.9271 B(  0-C ,  7-H ) :   0.9312
B(  0-C ,  8-H ) :   0.9313 B(  1-C ,  2-C ) :   0.9815 B(  1-C ,  5-C ) :   0.9856
B(  1-C ,  9-H ) :   0.9097 B(  2-C ,  3-C ) :   0.9885 B(  2-C , 10-H ) :   0.9157
B(  2-C , 11-H ) :   0.9220 B(  3-C ,  4-C ) :   0.9984 B(  3-C , 12-H ) :   0.9174
B(  3-C , 13-H ) :   0.9206 B(  4-C , 14-H ) :   0.9294 B(  4-C , 15-H ) :   0.9325
B(  4-C , 16-H ) :   0.9299 B(  5-C , 17-H ) :   0.9274 B(  5-C , 18-H ) :   0.9301
B(  5-C , 19-H ) :   0.9276

Dispersion correction           -0.009106044
FINAL SINGLE POINT ENERGY      -236.563334332349

DIPOLE MOMENT
-------------
                                X             Y             Z
Electronic contribution:     -0.21657       0.13933      -0.67163
Nuclear contribution   :      0.22238      -0.12863       0.64158
                        -----------------------------------------
Total Dipole Moment    :      0.00581       0.01070      -0.03005
                        -----------------------------------------
Magnitude (a.u.)       :      0.03242
Magnitude (Debye)      :      0.08240

Rotational constants in cm-1:     0.223385     0.057675     0.049614
Rotational constants in MHz :  6696.917318  1729.052592  1487.387070

                             ****ORCA TERMINATED NORMALLY****
TOTAL RUN TIME: 0 days 0 hours 1 minutes 23 seconds 347 msec
