                         Program Version 5.0.3 -  RELEASE  -
|  1> ! PBEh-3c def2/J TightSCF DefGrid3
|  2>
|  3> %maxcore 60000
|  4>
|  5> %pal
|  6> nprocs 4
|  7> end
|  8>
|  9> *xyzfile 0 1 21A.xyz
| 10>
| 11>                          ****END OF INPUT****

CARTESIAN COORDINATES (ANGSTROEM)
---------------------------------
  C      0.459100    0.347732    0.181811
  O      1.043549    1.322704    0.659695
  N      1.103229   -0.737389   -0.285013
  H      2.123432   -0.780996   -0.252328
  H      0.585223   -1.506044   -0.663775
  C     -1.047869    0.323554    0.096376
  H     -1.451779    0.430097    1.100064
  H     -1.440578   -0.583810   -0.354919
  H     -1.374308    1.184151   -0.481912

 Total Charge           Charge          ....    0
 Multiplicity           Mult            ....    1
 Number of Electrons    NEL             ....   32
 Basis Dimension        Dim             ....   70

ORBITAL ENERGIES
----------------

  NO   OCC          E(Eh)            E(eV)
   0   2.0000     -19.444091      -529.1006
   1   2.0000     -14.660195      -398.9242
   2   2.0000     -10.546362      -286.9811
   3   2.0000     -10.440584      -284.1027
   4   2.0000      -1.127897       -30.6916
   5   2.0000      -1.004964       -27.3465
   6   2.0000      -0.826240       -22.4831
   7   2.0000      -0.664094       -18.0709
   8   2.0000      -0.608915       -16.5694
   9   2.0000      -0.533169       -14.5083
  10   2.0000      -0.505572       -13.7573
  11   2.0000      -0.459717       -12.5095
  12   2.0000      -0.452791       -12.3211
  13   2.0000      -0.419366       -11.4115
  14   2.0000      -0.315218        -8.5775
  15   2.0000      -0.299607        -8.1527
  16   0.0000       0.070022         1.9054
  17   0.0000       0.117645         3.2013
  18   0.0000       0.162280         4.4159
  19   0.0000       0.187008         5.0887
  20   0.0000       0.221762         6.0344

MULLIKEN ATOMIC CHARGES
-----------------------
   0 C :    0.502035
   1 O :   -0.430158
   2 N :   -0.788503
   3 H :    0.374996
   4 H :    0.361732
   5 C :   -0.745793
   6 H :    0.261119
   7 H :    0.203028
   8 H :    0.261543
Sum of atomic charges:   -0.0000000

LOEWDIN ATOMIC CHARGES
----------------------
   0 C :    0.098309
   1 O :   -0.294120
   2 N :   -0.365086
   3 H :    0.263464
   4 H :    0.251708
   5 C :   -0.393100
   6 H :    0.158244
   7 H :    0.122265
   8 H :    0.158315

  Mayer bond orders larger than 0.100000
B(  0-C ,  1-O ) :   2.0205 B(  0-C ,  2-N ) :   1.1559 B(  0-C ,  5-C ) :   0.9253
B(  2-N ,  3-H ) :   0.8221 B(  2-N ,  4-H ) :   0.8304 B(  5-C ,  6-H ) :   0.9096
B(  5-C ,  7-H ) :   0.9218 B(  5-C ,  8-H ) :   0.9099

Dispersion correction           -0.002888047
FINAL SINGLE POINT ENERGY      -208.766552167655

DIPOLE MOMENT
-------------
                                X             Y             Z
Electronic contribution:      2.88679       1.18540       0.68672
Nuclear contribution   :     -3.31502      -2.56951      -1.34173
                        -----------------------------------------
Total Dipole Moment    :     -0.42824      -1.38411      -0.65501
                        -----------------------------------------
Magnitude (a.u.)       :      1.59003
Magnitude (Debye)      :      4.04153

Rotational constants in cm-1:     0.361430     0.312716     0.172993
Rotational constants in MHz : 10835.385944  9374.979122  5186.200174

                             ****ORCA TERMINATED NORMALLY****
TOTAL RUN TIME: 0 days 0 hours 1 minutes 16 seconds 215 msec
