                         Program Version 5.0.3 -  RELEASE  -
|  1> ! PBEh-3c def2/J TightSCF DefGrid3
|  2>
|  3> %maxcore 60000
|  4>
|  5> %pal
|  6> nprocs 4
|  7> end
|  8>
|  9> *xyzfile 0 1 57.xyz
| 10>
| 11>                          ****END OF INPUT****

CARTESIAN COORDINATES (ANGSTROEM)
---------------------------------
  B      0.000000    0.000000    0.000000
  F      0.658367    1.140325    0.000000
  F      0.658367   -1.140325    0.000000
  F     -1.316734    0.000000    0.000000

 Total Charge           Charge          ....    0
 Multiplicity           Mult            ....    1
 Number of Electrons    NEL             ....   32
 Basis Dimension        Dim             ....   60

ORBITAL ENERGIES
----------------

  NO   OCC          E(Eh)            E(eV)
   0   2.0000     -25.135598      -683.9744
   1   2.0000     -25.135522      -683.9723
   2   2.0000     -25.135519      -683.9722
   3   2.0000      -7.145647      -194.4429
   4   2.0000      -1.399527       -38.0831
   5   2.0000      -1.358391       -36.9637
   6   2.0000      -1.358390       -36.9637
   7   2.0000      -0.687464       -18.7068
   8   2.0000      -0.646397       -17.5893
   9   2.0000      -0.646396       -17.5893
  10   2.0000      -0.605865       -16.4864
  11   2.0000      -0.540695       -14.7131
  12   2.0000      -0.540693       -14.7130
  13   2.0000      -0.529509       -14.4087
  14   2.0000      -0.529503       -14.4085
  15   2.0000      -0.499101       -13.5812
  16   0.0000       0.060193         1.6379
  17   0.0000       0.112304         3.0559
  18   0.0000       0.232782         6.3343
  19   0.0000       0.232786         6.3344
  20   0.0000       0.281110         7.6494

MULLIKEN ATOMIC CHARGES
-----------------------
   0 B :    0.828189
   1 F :   -0.276067
   2 F :   -0.276067
   3 F :   -0.276054
Sum of atomic charges:   -0.0000000

LOEWDIN ATOMIC CHARGES
----------------------
   0 B :    0.309692
   1 F :   -0.103234
   2 F :   -0.103234
   3 F :   -0.103225

  Mayer bond orders larger than 0.100000
B(  0-B ,  1-F ) :   1.1249 B(  0-B ,  2-F ) :   1.1249 B(  0-B ,  3-F ) :   1.1249

Dispersion correction           -0.000612282
FINAL SINGLE POINT ENERGY      -323.937632977238

DIPOLE MOMENT
-------------
                                X             Y             Z
Electronic contribution:     -0.00004      -0.00000       0.00000
Nuclear contribution   :      0.00000       0.00000       0.00000
                        -----------------------------------------
Total Dipole Moment    :     -0.00004      -0.00000       0.00000
                        -----------------------------------------
Magnitude (a.u.)       :      0.00004
Magnitude (Debye)      :      0.00010

Rotational constants in cm-1:     0.341194     0.341194     0.170597
Rotational constants in MHz : 10228.748343 10228.746922  5114.373816

                             ****ORCA TERMINATED NORMALLY****
TOTAL RUN TIME: 0 days 0 hours 0 minutes 13 seconds 888 msec
