                         Program Version 5.0.3 -  RELEASE  -
|  1> ! PBEh-3c def2/J TightSCF DefGrid3
|  2>
|  3> %maxcore 60000
|  4>
|  5> %pal
|  6> nprocs 4
|  7> end
|  8>
|  9> *xyzfile 0 1 i9p.xyz
| 10>
| 11>                          ****END OF INPUT****

CARTESIAN COORDINATES (ANGSTROEM)
---------------------------------
  C     -2.956005   -0.589973   -0.548313
  C     -1.820075    0.344713   -1.032491
  C     -0.471060   -0.407692   -0.901561
  C     -0.254596   -0.464167    0.664935
  C     -1.502877    0.273618    1.212438
  C     -2.739582   -0.635179    1.006272
  C     -1.735330    1.356937    0.134077
  C      0.689567    0.298151   -1.614599
  C      2.051483   -0.309995   -1.234475
  C      2.258345   -0.438891    0.311553
  C      1.076372    0.170845    1.085611
  C      3.590643    0.178478    0.756626
  H     -2.887115   -1.582799   -1.010501
  H     -3.938608   -0.169500   -0.796586
  H     -1.985893    0.767680   -2.030314
  H     -0.561519   -1.424438   -1.308860
  H     -0.254149   -1.508615    1.007089
  H     -1.379438    0.632140    2.241144
  H     -2.560377   -1.652711    1.375875
  H     -3.611520   -0.231520    1.536091
  H     -0.900935    2.061452    0.039506
  H     -2.665468    1.920789    0.283369
  H      0.544362    0.243444   -2.702252
  H      0.680538    1.364429   -1.349574
  H      2.852680    0.306537   -1.666356
  H      2.139452   -1.303217   -1.696760
  H      2.280056   -1.510080    0.562970
  H      1.229506    0.028965    2.164679
  H      1.046938    1.256500    0.910248
  H      3.599788    1.256449    0.537887
  H      4.436259   -0.280453    0.225998
  H      3.748558    0.048106    1.836273

 Total Charge           Charge          ....    0
 Multiplicity           Mult            ....    1
 Number of Electrons    NEL             ....   92
 Basis Dimension        Dim             ....  220

ORBITAL ENERGIES
----------------

  NO   OCC          E(Eh)            E(eV)
   0   2.0000     -10.437598      -284.0215
   1   2.0000     -10.434724      -283.9433
   2   2.0000     -10.434585      -283.9395
   3   2.0000     -10.433395      -283.9071
   4   2.0000     -10.433242      -283.9030
   5   2.0000     -10.428367      -283.7703
   6   2.0000     -10.428206      -283.7659
   7   2.0000     -10.427787      -283.7545
   8   2.0000     -10.427163      -283.7375
   9   2.0000     -10.426477      -283.7189
  10   2.0000     -10.425516      -283.6927
  11   2.0000     -10.421294      -283.5778
  12   2.0000      -0.965930       -26.2843
  13   2.0000      -0.903369       -24.5819
  14   2.0000      -0.840401       -22.8685
  15   2.0000      -0.822985       -22.3946
  16   2.0000      -0.785136       -21.3646
  17   2.0000      -0.772505       -21.0209
  18   2.0000      -0.738034       -20.0829
  19   2.0000      -0.688259       -18.7285
  20   2.0000      -0.653734       -17.7890
  21   2.0000      -0.613685       -16.6992
  22   2.0000      -0.600304       -16.3351
  23   2.0000      -0.577428       -15.7126
  24   2.0000      -0.562017       -15.2933
  25   2.0000      -0.540132       -14.6977
  26   2.0000      -0.524445       -14.2709
  27   2.0000      -0.508003       -13.8235
  28   2.0000      -0.479285       -13.0420
  29   2.0000      -0.463122       -12.6022
  30   2.0000      -0.454570       -12.3695
  31   2.0000      -0.438435       -11.9304
  32   2.0000      -0.429958       -11.6998
  33   2.0000      -0.414772       -11.2865
  34   2.0000      -0.411095       -11.1865
  35   2.0000      -0.395705       -10.7677
  36   2.0000      -0.394734       -10.7413
  37   2.0000      -0.388196       -10.5633
  38   2.0000      -0.380875       -10.3641
  39   2.0000      -0.373850       -10.1730
  40   2.0000      -0.363954        -9.9037
  41   2.0000      -0.360250        -9.8029
  42   2.0000      -0.351807        -9.5732
  43   2.0000      -0.335455        -9.1282
  44   2.0000      -0.329921        -8.9776
  45   2.0000      -0.315163        -8.5760
  46   0.0000       0.121442         3.3046
  47   0.0000       0.131958         3.5907
  48   0.0000       0.142460         3.8765
  49   0.0000       0.159599         4.3429
  50   0.0000       0.170617         4.6427

MULLIKEN ATOMIC CHARGES
-----------------------
   0 C :   -0.418761
   1 C :   -0.238910
   2 C :   -0.197847
   3 C :   -0.203367
   4 C :   -0.239339
   5 C :   -0.419919
   6 C :   -0.423561
   7 C :   -0.428352
   8 C :   -0.417451
   9 C :   -0.207794
  10 C :   -0.406251
  11 C :   -0.639703
  12 H :    0.214635
  13 H :    0.219264
  14 H :    0.206912
  15 H :    0.210072
  16 H :    0.209695
  17 H :    0.206957
  18 H :    0.214727
  19 H :    0.219095
  20 H :    0.218442
  21 H :    0.219137
  22 H :    0.219609
  23 H :    0.203231
  24 H :    0.215329
  25 H :    0.210059
  26 H :    0.206861
  27 H :    0.216227
  28 H :    0.198121
  29 H :    0.204591
  30 H :    0.216472
  31 H :    0.211822
Sum of atomic charges:   -0.0000000

LOEWDIN ATOMIC CHARGES
----------------------
   0 C :   -0.231182
   1 C :   -0.139517
   2 C :   -0.134141
   3 C :   -0.133710
   4 C :   -0.139306
   5 C :   -0.231194
   6 C :   -0.228040
   7 C :   -0.232245
   8 C :   -0.232018
   9 C :   -0.152663
  10 C :   -0.225966
  11 C :   -0.353011
  12 H :    0.121456
  13 H :    0.123510
  14 H :    0.120032
  15 H :    0.118691
  16 H :    0.118836
  17 H :    0.120158
  18 H :    0.121322
  19 H :    0.123378
  20 H :    0.120127
  21 H :    0.123608
  22 H :    0.125974
  23 H :    0.117626
  24 H :    0.123953
  25 H :    0.122585
  26 H :    0.118365
  27 H :    0.125051
  28 H :    0.117311
  29 H :    0.122205
  30 H :    0.125057
  31 H :    0.123750

  Mayer bond orders larger than 0.100000
B(  0-C ,  1-C ) :   0.9820 B(  0-C ,  5-C ) :   0.9484 B(  0-C , 12-H ) :   0.9286
B(  0-C , 13-H ) :   0.9280 B(  1-C ,  2-C ) :   0.9653 B(  1-C ,  6-C ) :   0.9456
B(  1-C , 14-H ) :   0.9288 B(  2-C ,  3-C ) :   0.9389 B(  2-C ,  7-C ) :   0.9780
B(  2-C , 15-H ) :   0.9185 B(  3-C ,  4-C ) :   0.9633 B(  3-C , 10-C ) :   0.9865
B(  3-C , 16-H ) :   0.9178 B(  4-C ,  5-C ) :   0.9832 B(  4-C ,  6-C ) :   0.9463
B(  4-C , 17-H ) :   0.9290 B(  5-C , 18-H ) :   0.9286 B(  5-C , 19-H ) :   0.9278
B(  6-C , 20-H ) :   0.9204 B(  6-C , 21-H ) :   0.9259 B(  7-C ,  8-C ) :   0.9919
B(  7-C , 22-H ) :   0.9228 B(  7-C , 23-H ) :   0.9162 B(  8-C ,  9-C ) :   0.9358
B(  8-C , 24-H ) :   0.9277 B(  8-C , 25-H ) :   0.9273 B(  9-C , 10-C ) :   0.9823
B(  9-C , 11-C ) :   0.9926 B(  9-C , 26-H ) :   0.9183 B( 10-C , 27-H ) :   0.9210
B( 10-C , 28-H ) :   0.9145 B( 11-C , 29-H ) :   0.9285 B( 11-C , 30-H ) :   0.9311
B( 11-C , 31-H ) :   0.9296

Dispersion correction           -0.021213978
FINAL SINGLE POINT ENERGY      -468.317797593481

DIPOLE MOMENT
-------------
                                X             Y             Z
Electronic contribution:     -3.98955      -0.51633      -0.36147
Nuclear contribution   :      3.97945       0.48978       0.35101
                        -----------------------------------------
Total Dipole Moment    :     -0.01010      -0.02655      -0.01046
                        -----------------------------------------
Magnitude (a.u.)       :      0.03027
Magnitude (Debye)      :      0.07695

Rotational constants in cm-1:     0.068213     0.021520     0.018986
Rotational constants in MHz :  2044.979991   645.150383   569.185453

                             ****ORCA TERMINATED NORMALLY****
TOTAL RUN TIME: 0 days 0 hours 3 minutes 3 seconds 941 msec
