                         Program Version 5.0.3 -  RELEASE  -
|  1> ! PBEh-3c def2/J TightSCF DefGrid3
|  2>
|  3> %maxcore 60000
|  4>
|  5> %pal
|  6> nprocs 4
|  7> end
|  8>
|  9> *xyzfile 1 1 150A.xyz
| 10>
| 11>                          ****END OF INPUT****

CARTESIAN COORDINATES (ANGSTROEM)
---------------------------------
  C      1.254560    0.045170   -0.223190
  N     -0.030320    0.045060    0.316690
  C      0.075120    0.044970    1.665660
  N      1.369860    0.045000    1.990010
  C      2.126280    0.045140    0.835920
  C     -1.296170    0.045070   -0.434770
  H      1.687550    0.045000    2.956340
  H     -0.722900    0.044890    2.397230
  H      3.207050    0.045200    0.858490
  H      1.426950    0.045260   -1.290400
  H     -1.070740    0.045150   -1.504290
  H     -1.877110   -0.850350   -0.188430
  H     -1.877160    0.940420   -0.188310

 Total Charge           Charge          ....    1
 Multiplicity           Mult            ....    1
 Number of Electrons    NEL             ....   44
 Basis Dimension        Dim             ....  104

ORBITAL ENERGIES
----------------

  NO   OCC          E(Eh)            E(eV)
   0   2.0000     -14.926170      -406.1617
   1   2.0000     -14.920585      -406.0098
   2   2.0000     -10.738286      -292.2036
   3   2.0000     -10.684371      -290.7365
   4   2.0000     -10.683360      -290.7090
   5   2.0000     -10.659160      -290.0505
   6   2.0000      -1.362981       -37.0886
   7   2.0000      -1.231693       -33.5161
   8   2.0000      -1.065467       -28.9928
   9   2.0000      -1.010729       -27.5033
  10   2.0000      -0.912621       -24.8337
  11   2.0000      -0.879021       -23.9194
  12   2.0000      -0.846234       -23.0272
  13   2.0000      -0.744982       -20.2720
  14   2.0000      -0.739388       -20.1198
  15   2.0000      -0.714245       -19.4356
  16   2.0000      -0.706875       -19.2350
  17   2.0000      -0.688958       -18.7475
  18   2.0000      -0.662422       -18.0254
  19   2.0000      -0.637440       -17.3456
  20   2.0000      -0.553405       -15.0589
  21   2.0000      -0.487413       -13.2632
  22   0.0000      -0.176654        -4.8070
  23   0.0000      -0.129909        -3.5350
  24   0.0000      -0.066580        -1.8117
  25   0.0000      -0.029742        -0.8093
  26   0.0000      -0.011013        -0.2997

MULLIKEN ATOMIC CHARGES
-----------------------
   0 C :   -0.049394
   1 N :   -0.419041
   2 C :    0.276273
   3 N :   -0.565167
   4 C :   -0.033743
   5 C :   -0.516635
   6 H :    0.437907
   7 H :    0.342088
   8 H :    0.329256
   9 H :    0.329002
  10 H :    0.286018
  11 H :    0.291719
  12 H :    0.291719
Sum of atomic charges:    1.0000000

LOEWDIN ATOMIC CHARGES
----------------------
   0 C :   -0.057202
   1 N :    0.009258
   2 C :    0.055176
   3 N :   -0.069644
   4 C :   -0.060817
   5 C :   -0.232682
   6 H :    0.309877
   7 H :    0.184216
   8 H :    0.183100
   9 H :    0.182789
  10 H :    0.166419
  11 H :    0.164755
  12 H :    0.164754

  Mayer bond orders larger than 0.100000
B(  0-C ,  1-N ) :   1.1405 B(  0-C ,  4-C ) :   1.6384 B(  0-C ,  9-H ) :   0.8662
B(  1-N ,  2-C ) :   1.3085 B(  1-N ,  5-C ) :   0.8616 B(  2-C ,  3-N ) :   1.2914
B(  2-C ,  7-H ) :   0.8610 B(  3-N ,  4-C ) :   1.1251 B(  3-N ,  6-H ) :   0.7779
B(  4-C ,  8-H ) :   0.8696 B(  5-C , 10-H ) :   0.9006 B(  5-C , 11-H ) :   0.8897
B(  5-C , 12-H ) :   0.8897

Dispersion correction           -0.005734235
FINAL SINGLE POINT ENERGY      -265.321075156187

DIPOLE MOMENT
-------------
                                X             Y             Z
Electronic contribution:      2.74638      -0.00009       2.29187
Nuclear contribution   :     -2.86675       0.00009      -1.68709
                        -----------------------------------------
Total Dipole Moment    :     -0.12037       0.00000       0.60477
                        -----------------------------------------
Magnitude (a.u.)       :      0.61663
Magnitude (Debye)      :      1.56736

Rotational constants in cm-1:     0.291109     0.116027     0.084302
Rotational constants in MHz :  8727.214860  3478.389516  2527.312324

                             ****ORCA TERMINATED NORMALLY****
TOTAL RUN TIME: 0 days 0 hours 1 minutes 11 seconds 755 msec
