                         Program Version 5.0.3 -  RELEASE  -
|  1> ! PBEh-3c def2/J TightSCF DefGrid3
|  2>
|  3> %maxcore 60000
|  4>
|  5> %pal
|  6> nprocs 4
|  7> end
|  8>
|  9> *xyzfile 0 1 99.xyz
| 10>
| 11>                          ****END OF INPUT****

CARTESIAN COORDINATES (ANGSTROEM)
---------------------------------
  O      1.171757    0.200027   -1.164216
  C      2.183757    0.244027   -0.503216
  O      3.304757   -0.435973   -0.811216
  H      3.088757   -0.953973   -1.601216
  C      2.376757    1.056027    0.761784
  H      3.261757    1.676027    0.628784
  H      2.563757    0.370027    1.584784
  N      1.235757    1.879027    1.043784
  H      0.427757    1.451027    1.478784
  C      0.979757    2.911027    0.184784
  O      1.815757    3.372027   -0.578216
  C     -0.466243    3.384027    0.210784
  H     -0.537243    4.307027   -0.355216
  H     -0.812243    3.539027    1.230784
  N     -1.302243    2.368027   -0.400216
  H     -1.297243    2.237027   -1.403216
  C     -1.731243    1.304027    0.306784
  O     -1.605243    1.207027    1.530784
  C     -2.427243    0.235027   -0.533216
  N     -1.878243    0.261027   -1.885216
  H     -0.930243   -0.104973   -1.876216
  H     -2.430243   -0.321973   -2.501216
  H     -3.473243    0.549027   -0.603216
  C     -2.408243   -1.122973    0.189784
  H     -2.824243   -0.980973    1.186784
  H     -3.072243   -1.793973   -0.358216
  C     -1.044243   -1.745973    0.284784
  C     -0.551243   -2.539973   -0.755216
  H     -1.173243   -2.724973   -1.622216
  C      0.713757   -3.120973   -0.680216
  H      1.070757   -3.740973   -1.492216
  C      1.506757   -2.920973    0.447784
  H      2.484757   -3.376973    0.515784
  C      1.021757   -2.140973    1.497784
  H      1.619757   -2.005973    2.389784
  C     -0.241243   -1.557973    1.415784
  H     -0.622243   -0.959973    2.233784

 Total Charge           Charge          ....    0
 Multiplicity           Mult            ....    1
 Number of Electrons    NEL             ....  148
 Basis Dimension        Dim             ....  334

ORBITAL ENERGIES
----------------

  NO   OCC          E(Eh)            E(eV)
   0   2.0000     -19.549104      -531.9582
   1   2.0000     -19.495187      -530.4910
   2   2.0000     -19.470380      -529.8160
   3   2.0000     -19.459868      -529.5299
   4   2.0000     -14.664628      -399.0448
   5   2.0000     -14.652881      -398.7252
   6   2.0000     -14.626838      -398.0165
   7   2.0000     -10.588368      -288.1241
   8   2.0000     -10.552356      -287.1442
   9   2.0000     -10.543640      -286.9070
  10   2.0000     -10.488663      -285.4110
  11   2.0000     -10.487379      -285.3761
  12   2.0000     -10.480371      -285.1854
  13   2.0000     -10.460916      -284.6560
  14   2.0000     -10.455085      -284.4973
  15   2.0000     -10.454300      -284.4760
  16   2.0000     -10.453698      -284.4596
  17   2.0000     -10.453310      -284.4490
  18   2.0000     -10.448643      -284.3220
  19   2.0000     -10.446696      -284.2691
  20   2.0000      -1.227685       -33.4070
  21   2.0000      -1.155212       -31.4349
  22   2.0000      -1.142975       -31.1019
  23   2.0000      -1.130916       -30.7738
  24   2.0000      -1.035891       -28.1880
  25   2.0000      -1.022105       -27.8129
  26   2.0000      -0.996930       -27.1279
  27   2.0000      -0.959911       -26.1205
  28   2.0000      -0.875831       -23.8326
  29   2.0000      -0.853519       -23.2254
  30   2.0000      -0.840434       -22.8694
  31   2.0000      -0.818779       -22.2801
  32   2.0000      -0.799670       -21.7601
  33   2.0000      -0.730257       -19.8713
  34   2.0000      -0.698216       -18.9994
  35   2.0000      -0.688649       -18.7391
  36   2.0000      -0.666174       -18.1275
  37   2.0000      -0.647048       -17.6071
  38   2.0000      -0.645680       -17.5698
  39   2.0000      -0.615237       -16.7415
  40   2.0000      -0.587580       -15.9889
  41   2.0000      -0.582132       -15.8406
  42   2.0000      -0.573721       -15.6118
  43   2.0000      -0.569545       -15.4981
  44   2.0000      -0.552020       -15.0212
  45   2.0000      -0.547004       -14.8847
  46   2.0000      -0.533095       -14.5063
  47   2.0000      -0.530043       -14.4232
  48   2.0000      -0.525735       -14.3060
  49   2.0000      -0.520093       -14.1525
  50   2.0000      -0.496932       -13.5222
  51   2.0000      -0.487987       -13.2788
  52   2.0000      -0.485370       -13.2076
  53   2.0000      -0.479602       -13.0506
  54   2.0000      -0.476784       -12.9739
  55   2.0000      -0.471324       -12.8254
  56   2.0000      -0.458079       -12.4650
  57   2.0000      -0.455796       -12.4028
  58   2.0000      -0.443381       -12.0650
  59   2.0000      -0.433273       -11.7900
  60   2.0000      -0.428117       -11.6497
  61   2.0000      -0.424224       -11.5437
  62   2.0000      -0.416343       -11.3293
  63   2.0000      -0.396117       -10.7789
  64   2.0000      -0.392627       -10.6839
  65   2.0000      -0.382469       -10.4075
  66   2.0000      -0.351244        -9.5578
  67   2.0000      -0.334823        -9.1110
  68   2.0000      -0.325361        -8.8535
  69   2.0000      -0.310974        -8.4620
  70   2.0000      -0.307558        -8.3691
  71   2.0000      -0.297020        -8.0823
  72   2.0000      -0.293748        -7.9933
  73   2.0000      -0.283638        -7.7182
  74   0.0000       0.009184         0.2499
  75   0.0000       0.010814         0.2943
  76   0.0000       0.033650         0.9157
  77   0.0000       0.042759         1.1635
  78   0.0000       0.064375         1.7517

MULLIKEN ATOMIC CHARGES
-----------------------
   0 O :   -0.411730
   1 C :    0.569721
   2 O :   -0.583316
   3 H :    0.442743
   4 C :   -0.411382
   5 H :    0.291951
   6 H :    0.269608
   7 N :   -0.627815
   8 H :    0.405666
   9 C :    0.527978
  10 O :   -0.417492
  11 C :   -0.424226
  12 H :    0.269157
  13 H :    0.267316
  14 N :   -0.612217
  15 H :    0.401916
  16 C :    0.575925
  17 O :   -0.479269
  18 C :   -0.217108
  19 N :   -0.789504
  20 H :    0.381839
  21 H :    0.328904
  22 H :    0.260703
  23 C :   -0.517296
  24 H :    0.260581
  25 H :    0.227483
  26 C :    0.153161
  27 C :   -0.283318
  28 H :    0.206723
  29 C :   -0.213178
  30 H :    0.217158
  31 C :   -0.246107
  32 H :    0.222377
  33 C :   -0.226138
  34 H :    0.221748
  35 C :   -0.294058
  36 H :    0.251495
Sum of atomic charges:   -0.0000000

LOEWDIN ATOMIC CHARGES
----------------------
   0 O :   -0.234841
   1 C :    0.143076
   2 O :   -0.288608
   3 H :    0.335138
   4 C :   -0.184159
   5 H :    0.166597
   6 H :    0.153258
   7 N :   -0.242524
   8 H :    0.268169
   9 C :    0.104141
  10 O :   -0.262783
  11 C :   -0.169723
  12 H :    0.147933
  13 H :    0.152707
  14 N :   -0.210635
  15 H :    0.276417
  16 C :    0.113977
  17 O :   -0.307250
  18 C :   -0.103862
  19 N :   -0.462614
  20 H :    0.245190
  21 H :    0.228013
  22 H :    0.144789
  23 C :   -0.232916
  24 H :    0.151870
  25 H :    0.131451
  26 C :   -0.044903
  27 C :   -0.137467
  28 H :    0.129673
  29 C :   -0.140723
  30 H :    0.134058
  31 C :   -0.144051
  32 H :    0.136181
  33 C :   -0.145322
  34 H :    0.134732
  35 C :   -0.133425
  36 H :    0.148434

  Mayer bond orders larger than 0.100000
B(  0-O ,  1-C ) :   1.9988 B(  1-C ,  2-O ) :   1.1430 B(  1-C ,  4-C ) :   0.8983
B(  2-O ,  3-H ) :   0.7582 B(  4-C ,  5-H ) :   0.8765 B(  4-C ,  6-H ) :   0.8942
B(  4-C ,  7-N ) :   0.9973 B(  7-N ,  8-H ) :   0.7430 B(  7-N ,  9-C ) :   1.1347
B(  9-C , 10-O ) :   2.0056 B(  9-C , 11-C ) :   0.8884 B( 11-C , 12-H ) :   0.9093
B( 11-C , 13-H ) :   0.8879 B( 11-C , 14-N ) :   0.9530 B( 14-N , 15-H ) :   0.7635
B( 14-N , 16-C ) :   1.2024 B( 16-C , 17-O ) :   1.8397 B( 16-C , 18-C ) :   0.9087
B( 18-C , 19-N ) :   1.0607 B( 18-C , 22-H ) :   0.8886 B( 18-C , 23-C ) :   0.9419
B( 19-N , 20-H ) :   0.7912 B( 19-N , 21-H ) :   0.8546 B( 23-C , 24-H ) :   0.8990
B( 23-C , 25-H ) :   0.9210 B( 23-C , 26-C ) :   0.9580 B( 26-C , 27-C ) :   1.3941
B( 26-C , 35-C ) :   1.4109 B( 27-C , 28-H ) :   0.9240 B( 27-C , 29-C ) :   1.4229
B( 29-C , 30-H ) :   0.9203 B( 29-C , 31-C ) :   1.4287 B( 31-C , 32-H ) :   0.9183
B( 31-C , 33-C ) :   1.4179 B( 33-C , 34-H ) :   0.9185 B( 33-C , 35-C ) :   1.4180
B( 35-C , 36-H ) :   0.8970

Dispersion correction           -0.029577896
FINAL SINGLE POINT ENERGY      -968.750122915939

DIPOLE MOMENT
-------------
                                X             Y             Z
Electronic contribution:      4.55150       4.61417       0.02652
Nuclear contribution   :     -4.95830      -5.87128      -0.53040
                        -----------------------------------------
Total Dipole Moment    :     -0.40680      -1.25712      -0.50388
                        -----------------------------------------
Magnitude (a.u.)       :      1.41411
Magnitude (Debye)      :      3.59439

Rotational constants in cm-1:     0.015330     0.012192     0.008627
Rotational constants in MHz :   459.577579   365.496944   258.631036

                             ****ORCA TERMINATED NORMALLY****
TOTAL RUN TIME: 0 days 0 hours 6 minutes 28 seconds 685 msec
