                         Program Version 5.0.3 -  RELEASE  -
|  1> ! PBEh-3c def2/J TightSCF DefGrid3
|  2>
|  3> %maxcore 60000
|  4>
|  5> %pal
|  6> nprocs 4
|  7> end
|  8>
|  9> *xyzfile 0 1 224.xyz
| 10>
| 11>                          ****END OF INPUT****

CARTESIAN COORDINATES (ANGSTROEM)
---------------------------------
  O      3.625459   -1.215432    1.593730
  C      3.479459   -0.444432    0.672730
  O      3.552459   -0.835432   -0.602270
  H      3.323459   -0.067432   -1.182270
  C      3.210459    1.041568    0.880730
  H      3.998459    1.614568    0.387730
  H      3.235460    1.236568    1.946730
  N      1.921460    1.469568    0.366730
  H      1.173460    1.759568    0.996730
  C      1.695459    1.603568   -0.946270
  O      2.515459    1.281568   -1.818270
  C      0.362459    2.241568   -1.314270
  H      0.316460    2.276568   -2.397270
  H      0.352459    3.259568   -0.921270
  N     -0.806540    1.545568   -0.819270
  H     -1.394540    1.002568   -1.437270
  C     -1.220541    1.625568    0.456730
  O     -0.577541    2.185568    1.352730
  C     -2.549541    0.951568    0.747730
  N     -3.323541    0.792568   -0.481270
  H     -3.707541    1.687568   -0.765270
  H     -4.116541    0.185568   -0.307270
  H     -3.034541    1.582568    1.497730
  C     -2.282541   -0.417432    1.398730
  H     -1.821541   -0.232432    2.369730
  H     -3.251541   -0.888432    1.584730
  C     -1.402540   -1.323432    0.585730
  C     -0.059541   -1.500432    0.938730
  H      0.330459   -1.003432    1.818730
  C      0.776459   -2.327432    0.189730
  H      1.803459   -2.469432    0.491730
  C      0.279460   -2.975432   -0.939270
  H      0.928459   -3.612432   -1.524270
  C     -1.056541   -2.812432   -1.300270
  H     -1.452540   -3.326432   -2.166270
  C     -1.891541   -1.998432   -0.538270
  H     -2.931541   -1.893432   -0.817270

 Total Charge           Charge          ....    0
 Multiplicity           Mult            ....    1
 Number of Electrons    NEL             ....  148
 Basis Dimension        Dim             ....  334

ORBITAL ENERGIES
----------------

  NO   OCC          E(Eh)            E(eV)
   0   2.0000     -19.513779      -530.9969
   1   2.0000     -19.489651      -530.3404
   2   2.0000     -19.486222      -530.2470
   3   2.0000     -19.470267      -529.8129
   4   2.0000     -14.685771      -399.6201
   5   2.0000     -14.678148      -399.4127
   6   2.0000     -14.651129      -398.6775
   7   2.0000     -10.570710      -287.6436
   8   2.0000     -10.570007      -287.6245
   9   2.0000     -10.568337      -287.5791
  10   2.0000     -10.505193      -285.8608
  11   2.0000     -10.502009      -285.7742
  12   2.0000     -10.494878      -285.5801
  13   2.0000     -10.462739      -284.7056
  14   2.0000     -10.458341      -284.5859
  15   2.0000     -10.447036      -284.2783
  16   2.0000     -10.446123      -284.2535
  17   2.0000     -10.443700      -284.1875
  18   2.0000     -10.441625      -284.1311
  19   2.0000     -10.437945      -284.0309
  20   2.0000      -1.199972       -32.6529
  21   2.0000      -1.172321       -31.9005
  22   2.0000      -1.163689       -31.6656
  23   2.0000      -1.109839       -30.2003
  24   2.0000      -1.054747       -28.7011
  25   2.0000      -1.042939       -28.3798
  26   2.0000      -1.017037       -27.6750
  27   2.0000      -0.954732       -25.9796
  28   2.0000      -0.883947       -24.0534
  29   2.0000      -0.865295       -23.5459
  30   2.0000      -0.831989       -22.6396
  31   2.0000      -0.823203       -22.4005
  32   2.0000      -0.805971       -21.9316
  33   2.0000      -0.739993       -20.1362
  34   2.0000      -0.691765       -18.8239
  35   2.0000      -0.681010       -18.5312
  36   2.0000      -0.671611       -18.2755
  37   2.0000      -0.661527       -18.0011
  38   2.0000      -0.658314       -17.9136
  39   2.0000      -0.622046       -16.9267
  40   2.0000      -0.613898       -16.7050
  41   2.0000      -0.592608       -16.1257
  42   2.0000      -0.583616       -15.8810
  43   2.0000      -0.572789       -15.5864
  44   2.0000      -0.568595       -15.4723
  45   2.0000      -0.555282       -15.1100
  46   2.0000      -0.540151       -14.6982
  47   2.0000      -0.525776       -14.3071
  48   2.0000      -0.521302       -14.1854
  49   2.0000      -0.509277       -13.8581
  50   2.0000      -0.503804       -13.7092
  51   2.0000      -0.499043       -13.5796
  52   2.0000      -0.490967       -13.3599
  53   2.0000      -0.483253       -13.1500
  54   2.0000      -0.479961       -13.0604
  55   2.0000      -0.471935       -12.8420
  56   2.0000      -0.460284       -12.5250
  57   2.0000      -0.455754       -12.4017
  58   2.0000      -0.448827       -12.2132
  59   2.0000      -0.443888       -12.0788
  60   2.0000      -0.438578       -11.9343
  61   2.0000      -0.430251       -11.7077
  62   2.0000      -0.408238       -11.1087
  63   2.0000      -0.393774       -10.7151
  64   2.0000      -0.388635       -10.5753
  65   2.0000      -0.360951        -9.8220
  66   2.0000      -0.355871        -9.6837
  67   2.0000      -0.346580        -9.4309
  68   2.0000      -0.344113        -9.3638
  69   2.0000      -0.324976        -8.8430
  70   2.0000      -0.319619        -8.6973
  71   2.0000      -0.304762        -8.2930
  72   2.0000      -0.287950        -7.8355
  73   2.0000      -0.282586        -7.6895
  74   0.0000       0.014664         0.3990
  75   0.0000       0.017412         0.4738
  76   0.0000       0.026613         0.7242
  77   0.0000       0.035417         0.9638
  78   0.0000       0.049792         1.3549

MULLIKEN ATOMIC CHARGES
-----------------------
   0 O :   -0.401640
   1 C :    0.554074
   2 O :   -0.592931
   3 H :    0.476301
   4 C :   -0.443073
   5 H :    0.263175
   6 H :    0.273166
   7 N :   -0.637106
   8 H :    0.430743
   9 C :    0.566469
  10 O :   -0.487644
  11 C :   -0.403792
  12 H :    0.277029
  13 H :    0.264572
  14 N :   -0.608792
  15 H :    0.408000
  16 C :    0.557830
  17 O :   -0.479668
  18 C :   -0.188890
  19 N :   -0.771178
  20 H :    0.336160
  21 H :    0.338536
  22 H :    0.248948
  23 C :   -0.534033
  24 H :    0.265378
  25 H :    0.240037
  26 C :    0.144465
  27 C :   -0.295913
  28 H :    0.221607
  29 C :   -0.219991
  30 H :    0.277005
  31 C :   -0.237747
  32 H :    0.226805
  33 C :   -0.209085
  34 H :    0.215853
  35 C :   -0.268147
  36 H :    0.193478
Sum of atomic charges:    0.0000000

LOEWDIN ATOMIC CHARGES
----------------------
   0 O :   -0.226179
   1 C :    0.117724
   2 O :   -0.299559
   3 H :    0.328197
   4 C :   -0.185032
   5 H :    0.147376
   6 H :    0.154926
   7 N :   -0.221379
   8 H :    0.279696
   9 C :    0.116576
  10 O :   -0.301775
  11 C :   -0.160579
  12 H :    0.155017
  13 H :    0.152319
  14 N :   -0.209776
  15 H :    0.279336
  16 C :    0.116460
  17 O :   -0.307357
  18 C :   -0.100479
  19 N :   -0.459388
  20 H :    0.232227
  21 H :    0.231973
  22 H :    0.130411
  23 C :   -0.215208
  24 H :    0.149985
  25 H :    0.134978
  26 C :   -0.062898
  27 C :   -0.138249
  28 H :    0.137309
  29 C :   -0.125412
  30 H :    0.157630
  31 C :   -0.133082
  32 H :    0.139265
  33 C :   -0.137051
  34 H :    0.134626
  35 C :   -0.140768
  36 H :    0.128141

  Mayer bond orders larger than 0.100000
B(  0-O ,  1-C ) :   2.0163 B(  1-C ,  2-O ) :   1.2094 B(  1-C ,  4-C ) :   0.9028
B(  2-O ,  3-H ) :   0.6274 B(  3-H , 10-O ) :   0.1455 B(  4-C ,  5-H ) :   0.8888
B(  4-C ,  6-H ) :   0.9021 B(  4-C ,  7-N ) :   0.9405 B(  7-N ,  8-H ) :   0.6927
B(  7-N ,  9-C ) :   1.2481 B(  8-H , 17-O ) :   0.1169 B(  9-C , 10-O ) :   1.8063
B(  9-C , 11-C ) :   0.8980 B( 11-C , 12-H ) :   0.9071 B( 11-C , 13-H ) :   0.8924
B( 11-C , 14-N ) :   0.9516 B( 14-N , 15-H ) :   0.7654 B( 14-N , 16-C ) :   1.1999
B( 16-C , 17-O ) :   1.8373 B( 16-C , 18-C ) :   0.9107 B( 18-C , 19-N ) :   1.0059
B( 18-C , 22-H ) :   0.8871 B( 18-C , 23-C ) :   0.9599 B( 19-N , 20-H ) :   0.8529
B( 19-N , 21-H ) :   0.8456 B( 23-C , 24-H ) :   0.9076 B( 23-C , 25-H ) :   0.9131
B( 23-C , 26-C ) :   0.9366 B( 26-C , 27-C ) :   1.4006 B( 26-C , 35-C ) :   1.3881
B( 27-C , 28-H ) :   0.9169 B( 27-C , 29-C ) :   1.4247 B( 29-C , 30-H ) :   0.8760
B( 29-C , 31-C ) :   1.4245 B( 31-C , 32-H ) :   0.9180 B( 31-C , 33-C ) :   1.4158
B( 33-C , 34-H ) :   0.9210 B( 33-C , 35-C ) :   1.4336 B( 35-C , 36-H ) :   0.9277

Dispersion correction           -0.028101029
FINAL SINGLE POINT ENERGY      -968.744790214975

DIPOLE MOMENT
-------------
                                X             Y             Z
Electronic contribution:      8.92521       0.49396       0.08290
Nuclear contribution   :    -11.51661       1.02650      -0.67715
                        -----------------------------------------
Total Dipole Moment    :     -2.59141       1.52046      -0.59425
                        -----------------------------------------
Magnitude (a.u.)       :      3.06273
Magnitude (Debye)      :      7.78484

Rotational constants in cm-1:     0.015346     0.010095     0.007840
Rotational constants in MHz :   460.050825   302.646327   235.043843

                             ****ORCA TERMINATED NORMALLY****
TOTAL RUN TIME: 0 days 0 hours 5 minutes 43 seconds 686 msec
