                         Program Version 5.0.3 -  RELEASE  -
|  1> ! PBEh-3c def2/J TightSCF DefGrid3
|  2>
|  3> %maxcore 60000
|  4>
|  5> %pal
|  6> nprocs 4
|  7> end
|  8>
|  9> *xyzfile 0 1 HIS_xah.xyz
| 10>
| 11>                          ****END OF INPUT****

CARTESIAN COORDINATES (ANGSTROEM)
---------------------------------
  N      1.675463   -1.009969    0.528872
  H      1.710190   -1.396510    1.457280
  C      0.413467   -0.457329    0.056304
  H      0.374467   -0.629300   -1.019961
  C     -0.742730   -1.174459    0.743926
  C      0.385808    1.054592    0.320664
  H     -0.597659   -2.247175    0.612965
  H     -0.701624   -0.954485    1.813477
  C     -2.076388   -0.819204    0.190250
  O     -0.285523    1.553608    1.228583
  N     -2.678205    0.396530    0.389912
  C     -2.978958   -1.533705   -0.574298
  H     -2.226815    1.157373    0.881367
  C     -3.878160    0.373895   -0.247068
  N     -4.097124   -0.788608   -0.843717
  H     -2.874488   -2.545177   -0.930054
  H     -4.548169    1.216182   -0.247653
  C      2.807893   -0.971130   -0.216319
  C      4.015306   -1.643790    0.382710
  O      2.847013   -0.427539   -1.320329
  H      4.816595   -0.913140    0.461007
  H      4.345262   -2.423987   -0.299037
  H      3.824978   -2.078732    1.360462
  N      1.174715    1.754593   -0.511340
  C      1.374483    3.180649   -0.362619
  H      1.770668    1.213708   -1.129305
  H      1.387611    3.654808   -1.340270
  H      0.551496    3.576874    0.223227
  H      2.308730    3.401224    0.152736

 Total Charge           Charge          ....    0
 Multiplicity           Mult            ....    1
 Number of Electrons    NEL             ....  112
 Basis Dimension        Dim             ....  253

ORBITAL ENERGIES
----------------

  NO   OCC          E(Eh)            E(eV)
   0   2.0000     -19.482370      -530.1422
   1   2.0000     -19.474322      -529.9232
   2   2.0000     -14.690714      -399.7546
   3   2.0000     -14.676808      -399.3762
   4   2.0000     -14.666918      -399.1071
   5   2.0000     -14.604663      -397.4131
   6   2.0000     -10.574532      -287.7476
   7   2.0000     -10.558337      -287.3070
   8   2.0000     -10.505767      -285.8765
   9   2.0000     -10.482906      -285.2544
  10   2.0000     -10.471353      -284.9400
  11   2.0000     -10.468637      -284.8661
  12   2.0000     -10.465097      -284.7698
  13   2.0000     -10.461383      -284.6687
  14   2.0000     -10.441417      -284.1254
  15   2.0000      -1.169528       -31.8245
  16   2.0000      -1.154020       -31.4025
  17   2.0000      -1.108747       -30.1706
  18   2.0000      -1.052569       -28.6418
  19   2.0000      -1.029615       -28.0173
  20   2.0000      -0.954295       -25.9677
  21   2.0000      -0.903394       -24.5826
  22   2.0000      -0.852474       -23.1970
  23   2.0000      -0.821472       -22.3534
  24   2.0000      -0.793871       -21.6023
  25   2.0000      -0.733549       -19.9609
  26   2.0000      -0.689536       -18.7632
  27   2.0000      -0.675785       -18.3891
  28   2.0000      -0.659197       -17.9377
  29   2.0000      -0.649938       -17.6857
  30   2.0000      -0.616108       -16.7651
  31   2.0000      -0.596482       -16.2311
  32   2.0000      -0.580535       -15.7972
  33   2.0000      -0.565911       -15.3992
  34   2.0000      -0.542035       -14.7495
  35   2.0000      -0.526992       -14.3402
  36   2.0000      -0.516677       -14.0595
  37   2.0000      -0.506069       -13.7708
  38   2.0000      -0.491471       -13.3736
  39   2.0000      -0.490982       -13.3603
  40   2.0000      -0.483268       -13.1504
  41   2.0000      -0.481001       -13.0887
  42   2.0000      -0.465599       -12.6696
  43   2.0000      -0.456001       -12.4084
  44   2.0000      -0.452237       -12.3060
  45   2.0000      -0.443382       -12.0650
  46   2.0000      -0.440853       -11.9962
  47   2.0000      -0.434299       -11.8179
  48   2.0000      -0.424221       -11.5437
  49   2.0000      -0.353299        -9.6138
  50   2.0000      -0.335411        -9.1270
  51   2.0000      -0.318579        -8.6690
  52   2.0000      -0.314954        -8.5703
  53   2.0000      -0.312715        -8.5094
  54   2.0000      -0.306229        -8.3329
  55   2.0000      -0.252630        -6.8744
  56   0.0000       0.026735         0.7275
  57   0.0000       0.047216         1.2848
  58   0.0000       0.064912         1.7663
  59   0.0000       0.101397         2.7592
  60   0.0000       0.114251         3.1089

MULLIKEN ATOMIC CHARGES
-----------------------
   0 N :   -0.629589
   1 H :    0.367604
   2 C :   -0.193184
   3 H :    0.290152
   4 C :   -0.541834
   5 C :    0.580212
   6 H :    0.252273
   7 H :    0.250274
   8 C :    0.295492
   9 O :   -0.481091
  10 N :   -0.623797
  11 C :   -0.213604
  12 H :    0.403505
  13 C :    0.105443
  14 N :   -0.379323
  15 H :    0.211577
  16 H :    0.229983
  17 C :    0.544242
  18 C :   -0.743593
  19 O :   -0.459938
  20 H :    0.263336
  21 H :    0.268405
  22 H :    0.218031
  23 N :   -0.639134
  24 C :   -0.494899
  25 H :    0.411491
  26 H :    0.228966
  27 H :    0.255108
  28 H :    0.223894
Sum of atomic charges:   -0.0000000

LOEWDIN ATOMIC CHARGES
----------------------
   0 N :   -0.214962
   1 H :    0.261422
   2 C :   -0.090344
   3 H :    0.156561
   4 C :   -0.231266
   5 C :    0.111096
   6 H :    0.148075
   7 H :    0.145263
   8 C :   -0.055659
   9 O :   -0.312324
  10 N :   -0.136925
  11 C :   -0.143703
  12 H :    0.275558
  13 C :   -0.054177
  14 N :   -0.189837
  15 H :    0.126200
  16 H :    0.128419
  17 C :    0.116591
  18 C :   -0.383193
  19 O :   -0.298306
  20 H :    0.160019
  21 H :    0.163143
  22 H :    0.130371
  23 N :   -0.229450
  24 C :   -0.254613
  25 H :    0.271306
  26 H :    0.129035
  27 H :    0.148087
  28 H :    0.123612

  Mayer bond orders larger than 0.100000
B(  0-N ,  1-H ) :   0.8175 B(  0-N ,  2-C ) :   0.9093 B(  0-N , 17-C ) :   1.1662
B(  2-C ,  3-H ) :   0.8713 B(  2-C ,  4-C ) :   0.9704 B(  2-C ,  5-C ) :   0.8748
B(  4-C ,  6-H ) :   0.9131 B(  4-C ,  7-H ) :   0.8930 B(  4-C ,  8-C ) :   0.9687
B(  5-C ,  9-O ) :   1.8617 B(  5-C , 23-N ) :   1.2235 B(  8-C , 10-N ) :   1.1249
B(  8-C , 11-C ) :   1.5236 B(  9-O , 23-N ) :   0.1025 B( 10-N , 12-H ) :   0.7483
B( 10-N , 13-C ) :   1.2073 B( 11-C , 14-N ) :   1.3788 B( 11-C , 15-H ) :   0.9321
B( 13-C , 14-N ) :   1.6054 B( 13-C , 16-H ) :   0.9134 B( 17-C , 18-C ) :   0.9330
B( 17-C , 19-O ) :   1.8842 B( 18-C , 20-H ) :   0.9061 B( 18-C , 21-H ) :   0.9044
B( 18-C , 22-H ) :   0.9208 B( 23-N , 24-C ) :   0.9539 B( 23-N , 25-H ) :   0.7323
B( 24-C , 26-H ) :   0.9209 B( 24-C , 27-H ) :   0.9058 B( 24-C , 28-H ) :   0.9182

Dispersion correction           -0.017987998
FINAL SINGLE POINT ENERGY      -719.333827875828

DIPOLE MOMENT
-------------
                                X             Y             Z
Electronic contribution:     -8.18673      -0.93010      -0.95954
Nuclear contribution   :     10.27909       0.98106       1.99706
                        -----------------------------------------
Total Dipole Moment    :      2.09236       0.05096       1.03752
                        -----------------------------------------
Magnitude (a.u.)       :      2.33603
Magnitude (Debye)      :      5.93771

Rotational constants in cm-1:     0.032649     0.012094     0.009886
Rotational constants in MHz :   978.789954   362.569095   296.380523

                             ****ORCA TERMINATED NORMALLY****
TOTAL RUN TIME: 0 days 0 hours 4 minutes 25 seconds 586 msec
