                         Program Version 5.0.3 -  RELEASE  -
|  1> ! PBEh-3c def2/J TightSCF DefGrid3
|  2>
|  3> %maxcore 60000
|  4>
|  5> %pal
|  6> nprocs 4
|  7> end
|  8>
|  9> *xyzfile 0 1 2.xyz
| 10>
| 11>                          ****END OF INPUT****

CARTESIAN COORDINATES (ANGSTROEM)
---------------------------------
  C     -2.669080   -0.737321   -2.586284
  C     -1.419566   -1.197412   -3.029449
  C     -0.679186    0.000000   -3.455696
  C     -2.669080    0.737321   -2.586284
  C     -1.419566    1.197412   -3.029449
  C     -3.269103    1.182844   -1.382081
  C     -3.269103   -1.182844   -1.382081
  C     -3.688232    0.000000   -0.623429
  C     -2.664579   -2.263025   -0.719291
  C     -0.736039   -2.257444   -2.330595
  C     -1.428707   -2.827795   -1.219569
  C      0.736039   -2.257444   -2.330595
  C      0.679186    0.000000   -3.455696
  C      1.419566   -1.197412   -3.029449
  C      1.419566    1.197412   -3.029449
  C     -0.736039    2.257444   -2.330595
  C      0.736039    2.257444   -2.330595
  C     -2.664579    2.263025   -0.719291
  C     -1.428707    2.827795   -1.219569
  C     -2.626261    2.289144    0.732370
  C     -3.569843    0.000000    0.762212
  C     -3.071225    1.178408    1.462012
  C     -2.626261   -2.289144    0.732370
  C     -3.071225   -1.178408    1.462012
  C     -0.692920   -3.335154   -0.071249
  C     -1.422634   -2.983526    1.137114
  C      1.428707   -2.827795   -1.219569
  C      0.692920   -3.335154   -0.071249
  C      2.664579   -2.263025   -0.719291
  C      2.669080   -0.737321   -2.586284
  C      2.669080    0.737321   -2.586284
  C      3.269103   -1.182844   -1.382081
  C      3.269103    1.182844   -1.382081
  C      3.688232    0.000000   -0.623429
  C      1.428707    2.827795   -1.219569
  C      2.664579    2.263025   -0.719291
  C     -0.692920    3.335154   -0.071249
  C     -1.422634    2.983526    1.137114
  C      0.692920    3.335154   -0.071249
  C     -0.725881    2.582554    2.279677
  C     -2.319101    0.728010    2.617360
  C     -2.319101   -0.728010    2.617360
  C     -1.177355    1.423847    3.029120
  C     -0.725881   -2.582554    2.279677
  C     -1.177355   -1.423847    3.029120
  C      1.422634   -2.983526    1.137114
  C      2.626261   -2.289144    0.732370
  C      0.725881   -2.582554    2.279677
  C      3.569843    0.000000    0.762212
  C      3.071225   -1.178408    1.462012
  C      2.626261    2.289144    0.732370
  C      1.422634    2.983526    1.137114
  C      0.725881    2.582554    2.279677
  C      3.071225    1.178408    1.462012
  C      0.000000    0.699552    3.478644
  C      0.000000   -0.699552    3.478644
  C      1.177355   -1.423847    3.029120
  C      2.319101   -0.728010    2.617360
  C      1.177355    1.423847    3.029120
  C      2.319101    0.728010    2.617360

 Total Charge           Charge          ....    0
 Multiplicity           Mult            ....    1
 Number of Electrons    NEL             ....  360
 Basis Dimension        Dim             ....  900

ORBITAL ENERGIES
----------------

  NO   OCC          E(Eh)            E(eV)
   0   2.0000     -10.527577      -286.4699
   1   2.0000     -10.527577      -286.4699
   2   2.0000     -10.527264      -286.4614
   3   2.0000     -10.527263      -286.4614
   4   2.0000     -10.520455      -286.2761
   5   2.0000     -10.520452      -286.2760
   6   2.0000     -10.518215      -286.2152
   7   2.0000     -10.518209      -286.2150
   8   2.0000     -10.518147      -286.2133
   9   2.0000     -10.518144      -286.2132
  10   2.0000     -10.517171      -286.1868
  11   2.0000     -10.517022      -286.1827
  12   2.0000     -10.517014      -286.1825
  13   2.0000     -10.516927      -286.1801
  14   2.0000     -10.516924      -286.1800
  15   2.0000     -10.516475      -286.1678
  16   2.0000     -10.516474      -286.1678
  17   2.0000     -10.516429      -286.1666
  18   2.0000     -10.516276      -286.1624
  19   2.0000     -10.515981      -286.1544
  20   2.0000     -10.515830      -286.1503
  21   2.0000     -10.515771      -286.1487
  22   2.0000     -10.515716      -286.1472
  23   2.0000     -10.515573      -286.1433
  24   2.0000     -10.515521      -286.1419
  25   2.0000     -10.515491      -286.1410
  26   2.0000     -10.515429      -286.1394
  27   2.0000     -10.515417      -286.1390
  28   2.0000     -10.515411      -286.1389
  29   2.0000     -10.515410      -286.1388
  30   2.0000     -10.515402      -286.1386
  31   2.0000     -10.515380      -286.1380
  32   2.0000     -10.515302      -286.1359
  33   2.0000     -10.515261      -286.1348
  34   2.0000     -10.515064      -286.1294
  35   2.0000     -10.515042      -286.1288
  36   2.0000     -10.514912      -286.1253
  37   2.0000     -10.514903      -286.1251
  38   2.0000     -10.514601      -286.1168
  39   2.0000     -10.514597      -286.1167
  40   2.0000     -10.514303      -286.1087
  41   2.0000     -10.514299      -286.1086
  42   2.0000     -10.514292      -286.1084
  43   2.0000     -10.514289      -286.1084
  44   2.0000     -10.514006      -286.1007
  45   2.0000     -10.514004      -286.1006
  46   2.0000     -10.513755      -286.0938
  47   2.0000     -10.513746      -286.0936
  48   2.0000     -10.513569      -286.0888
  49   2.0000     -10.513548      -286.0882
  50   2.0000     -10.513548      -286.0882
  51   2.0000     -10.513526      -286.0876
  52   2.0000     -10.513486      -286.0865
  53   2.0000     -10.513476      -286.0862
  54   2.0000     -10.513216      -286.0792
  55   2.0000     -10.513216      -286.0791
  56   2.0000     -10.507810      -285.9320
  57   2.0000     -10.507800      -285.9318
  58   2.0000     -10.507476      -285.9229
  59   2.0000     -10.507462      -285.9226
  60   2.0000      -1.097071       -29.8528
  61   2.0000      -1.079735       -29.3811
  62   2.0000      -1.076705       -29.2986
  63   2.0000      -1.072607       -29.1871
  64   2.0000      -1.044530       -28.4231
  65   2.0000      -1.036226       -28.1971
  66   2.0000      -1.034812       -28.1587
  67   2.0000      -1.032518       -28.0962
  68   2.0000      -1.024535       -27.8790
  69   2.0000      -0.993533       -27.0354
  70   2.0000      -0.990665       -26.9574
  71   2.0000      -0.973565       -26.4921
  72   2.0000      -0.972552       -26.4645
  73   2.0000      -0.957802       -26.0631
  74   2.0000      -0.956994       -26.0411
  75   2.0000      -0.956044       -26.0153
  76   2.0000      -0.914327       -24.8801
  77   2.0000      -0.904512       -24.6130
  78   2.0000      -0.902253       -24.5515
  79   2.0000      -0.901442       -24.5295
  80   2.0000      -0.891339       -24.2546
  81   2.0000      -0.889465       -24.2036
  82   2.0000      -0.885885       -24.1062
  83   2.0000      -0.885102       -24.0848
  84   2.0000      -0.875988       -23.8369
  85   2.0000      -0.832394       -22.6506
  86   2.0000      -0.828294       -22.5390
  87   2.0000      -0.827844       -22.5268
  88   2.0000      -0.819973       -22.3126
  89   2.0000      -0.818829       -22.2815
  90   2.0000      -0.813058       -22.1244
  91   2.0000      -0.803645       -21.8683
  92   2.0000      -0.790501       -21.5106
  93   2.0000      -0.778903       -21.1950
  94   2.0000      -0.755122       -20.5479
  95   2.0000      -0.754353       -20.5270
  96   2.0000      -0.739100       -20.1119
  97   2.0000      -0.726286       -19.7633
  98   2.0000      -0.723391       -19.6845
  99   2.0000      -0.722446       -19.6588
 100   2.0000      -0.717571       -19.5261
 101   2.0000      -0.714483       -19.4421
 102   2.0000      -0.714259       -19.4360
 103   2.0000      -0.695629       -18.9290
 104   2.0000      -0.676283       -18.4026
 105   2.0000      -0.669585       -18.2203
 106   2.0000      -0.650775       -17.7085
 107   2.0000      -0.649141       -17.6640
 108   2.0000      -0.640100       -17.4180
 109   2.0000      -0.627008       -17.0618
 110   2.0000      -0.625890       -17.0313
 111   2.0000      -0.623700       -16.9717
 112   2.0000      -0.620554       -16.8861
 113   2.0000      -0.608481       -16.5576
 114   2.0000      -0.604871       -16.4594
 115   2.0000      -0.597176       -16.2500
 116   2.0000      -0.588727       -16.0201
 117   2.0000      -0.579234       -15.7618
 118   2.0000      -0.572841       -15.5878
 119   2.0000      -0.570124       -15.5139
 120   2.0000      -0.563984       -15.3468
 121   2.0000      -0.558577       -15.1997
 122   2.0000      -0.550708       -14.9855
 123   2.0000      -0.549844       -14.9620
 124   2.0000      -0.544460       -14.8155
 125   2.0000      -0.539657       -14.6848
 126   2.0000      -0.537835       -14.6352
 127   2.0000      -0.535258       -14.5651
 128   2.0000      -0.533486       -14.5169
 129   2.0000      -0.528517       -14.3817
 130   2.0000      -0.526945       -14.3389
 131   2.0000      -0.524367       -14.2687
 132   2.0000      -0.522073       -14.2063
 133   2.0000      -0.514622       -14.0036
 134   2.0000      -0.513916       -13.9844
 135   2.0000      -0.509873       -13.8744
 136   2.0000      -0.505167       -13.7463
 137   2.0000      -0.499413       -13.5897
 138   2.0000      -0.498182       -13.5562
 139   2.0000      -0.497104       -13.5269
 140   2.0000      -0.492984       -13.4148
 141   2.0000      -0.489013       -13.3067
 142   2.0000      -0.488221       -13.2852
 143   2.0000      -0.486875       -13.2485
 144   2.0000      -0.485817       -13.2198
 145   2.0000      -0.480955       -13.0875
 146   2.0000      -0.476739       -12.9727
 147   2.0000      -0.475575       -12.9410
 148   2.0000      -0.471038       -12.8176
 149   2.0000      -0.441986       -12.0271
 150   2.0000      -0.438077       -11.9207
 151   2.0000      -0.437483       -11.9045
 152   2.0000      -0.436321       -11.8729
 153   2.0000      -0.429031       -11.6745
 154   2.0000      -0.426937       -11.6176
 155   2.0000      -0.426767       -11.6129
 156   2.0000      -0.425622       -11.5818
 157   2.0000      -0.424789       -11.5591
 158   2.0000      -0.423031       -11.5113
 159   2.0000      -0.420374       -11.4390
 160   2.0000      -0.416532       -11.3344
 161   2.0000      -0.416081       -11.3221
 162   2.0000      -0.412501       -11.2247
 163   2.0000      -0.407242       -11.0816
 164   2.0000      -0.404002       -10.9935
 165   2.0000      -0.401889       -10.9360
 166   2.0000      -0.341391        -9.2897
 167   2.0000      -0.330635        -8.9970
 168   2.0000      -0.330554        -8.9948
 169   2.0000      -0.329669        -8.9708
 170   2.0000      -0.327592        -8.9142
 171   2.0000      -0.327348        -8.9076
 172   2.0000      -0.326804        -8.8928
 173   2.0000      -0.326377        -8.8812
 174   2.0000      -0.307581        -8.3697
 175   2.0000      -0.274986        -7.4827
 176   2.0000      -0.273668        -7.4469
 177   2.0000      -0.271680        -7.3928
 178   2.0000      -0.270439        -7.3590
 179   2.0000      -0.259735        -7.0678
 180   0.0000      -0.150794        -4.1033
 181   0.0000      -0.129137        -3.5140
 182   0.0000      -0.114708        -3.1214
 183   0.0000      -0.093539        -2.5453
 184   0.0000      -0.084945        -2.3115

MULLIKEN ATOMIC CHARGES
-----------------------
   0 C :   -0.019258
   1 C :    0.011112
   2 C :   -0.019896
   3 C :   -0.019262
   4 C :    0.011124
   5 C :    0.002289
   6 C :    0.002281
   7 C :   -0.015695
   8 C :   -0.009466
   9 C :    0.029006
  10 C :   -0.003689
  11 C :    0.029013
  12 C :   -0.019898
  13 C :    0.011110
  14 C :    0.011111
  15 C :    0.029000
  16 C :    0.029003
  17 C :   -0.009472
  18 C :   -0.003689
  19 C :    0.012788
  20 C :   -0.002499
  21 C :    0.004240
  22 C :    0.012786
  23 C :    0.004243
  24 C :   -0.004755
  25 C :   -0.002349
  26 C :   -0.003693
  27 C :   -0.004758
  28 C :   -0.009464
  29 C :   -0.019246
  30 C :   -0.019266
  31 C :    0.002282
  32 C :    0.002288
  33 C :   -0.015696
  34 C :   -0.003684
  35 C :   -0.009471
  36 C :   -0.004751
  37 C :   -0.002346
  38 C :   -0.004758
  39 C :    0.000200
  40 C :   -0.001343
  41 C :   -0.001330
  42 C :   -0.000085
  43 C :    0.000201
  44 C :   -0.000093
  45 C :   -0.002353
  46 C :    0.012794
  47 C :    0.000199
  48 C :   -0.002498
  49 C :    0.004238
  50 C :    0.012792
  51 C :   -0.002350
  52 C :    0.000192
  53 C :    0.004243
  54 C :    0.000714
  55 C :    0.000708
  56 C :   -0.000080
  57 C :   -0.001344
  58 C :   -0.000088
  59 C :   -0.001330
Sum of atomic charges:   -0.0000000

LOEWDIN ATOMIC CHARGES
----------------------
   0 C :    0.002927
   1 C :   -0.004576
   2 C :    0.009069
   3 C :    0.002927
   4 C :   -0.004576
   5 C :   -0.007119
   6 C :   -0.007119
   7 C :    0.009139
   8 C :   -0.003303
   9 C :   -0.000954
  10 C :    0.003804
  11 C :   -0.000954
  12 C :    0.009069
  13 C :   -0.004576
  14 C :   -0.004576
  15 C :   -0.000954
  16 C :   -0.000954
  17 C :   -0.003303
  18 C :    0.003804
  19 C :    0.002479
  20 C :   -0.000823
  21 C :    0.000353
  22 C :    0.002479
  23 C :    0.000353
  24 C :   -0.000437
  25 C :   -0.001738
  26 C :    0.003804
  27 C :   -0.000437
  28 C :   -0.003303
  29 C :    0.002927
  30 C :    0.002927
  31 C :   -0.007119
  32 C :   -0.007119
  33 C :    0.009139
  34 C :    0.003804
  35 C :   -0.003303
  36 C :   -0.000437
  37 C :   -0.001738
  38 C :   -0.000437
  39 C :    0.001500
  40 C :   -0.002699
  41 C :   -0.002699
  42 C :    0.000970
  43 C :    0.001500
  44 C :    0.000970
  45 C :   -0.001738
  46 C :    0.002479
  47 C :    0.001500
  48 C :   -0.000823
  49 C :    0.000353
  50 C :    0.002479
  51 C :   -0.001738
  52 C :    0.001500
  53 C :    0.000353
  54 C :    0.000202
  55 C :    0.000202
  56 C :    0.000970
  57 C :   -0.002699
  58 C :    0.000969
  59 C :   -0.002699

  Mayer bond orders larger than 0.100000
B(  0-C ,  1-C ) :   1.3639 B(  0-C ,  3-C ) :   1.0928 B(  0-C ,  6-C ) :   1.2403
B(  1-C ,  2-C ) :   1.1001 B(  1-C ,  9-C ) :   1.2228 B(  2-C ,  4-C ) :   1.1001
B(  2-C , 12-C ) :   1.4872 B(  3-C ,  4-C ) :   1.3639 B(  3-C ,  5-C ) :   1.2403
B(  4-C , 15-C ) :   1.2228 B(  5-C ,  7-C ) :   1.1433 B(  5-C , 17-C ) :   1.3160
B(  6-C ,  7-C ) :   1.1433 B(  6-C ,  8-C ) :   1.3160 B(  7-C , 20-C ) :   1.4086
B(  8-C , 10-C ) :   1.2292 B(  8-C , 22-C ) :   1.1571 B(  9-C , 10-C ) :   1.3150
B(  9-C , 11-C ) :   1.1312 B( 10-C , 24-C ) :   1.1415 B( 11-C , 13-C ) :   1.2228
B( 11-C , 26-C ) :   1.3150 B( 12-C , 13-C ) :   1.1001 B( 12-C , 14-C ) :   1.1001
B( 13-C , 29-C ) :   1.3639 B( 14-C , 16-C ) :   1.2228 B( 14-C , 30-C ) :   1.3639
B( 15-C , 16-C ) :   1.1312 B( 15-C , 18-C ) :   1.3150 B( 16-C , 34-C ) :   1.3150
B( 17-C , 18-C ) :   1.2292 B( 17-C , 19-C ) :   1.1571 B( 18-C , 36-C ) :   1.1415
B( 19-C , 21-C ) :   1.3760 B( 19-C , 37-C ) :   1.1620 B( 20-C , 21-C ) :   1.1465
B( 20-C , 23-C ) :   1.1465 B( 21-C , 40-C ) :   1.1727 B( 22-C , 23-C ) :   1.3760
B( 22-C , 25-C ) :   1.1620 B( 23-C , 41-C ) :   1.1727 B( 24-C , 25-C ) :   1.1634
B( 24-C , 27-C ) :   1.3920 B( 25-C , 43-C ) :   1.3747 B( 26-C , 27-C ) :   1.1415
B( 26-C , 28-C ) :   1.2292 B( 27-C , 45-C ) :   1.1634 B( 28-C , 31-C ) :   1.3160
B( 28-C , 46-C ) :   1.1571 B( 29-C , 30-C ) :   1.0928 B( 29-C , 31-C ) :   1.2403
B( 30-C , 32-C ) :   1.2403 B( 31-C , 33-C ) :   1.1433 B( 32-C , 33-C ) :   1.1433
B( 32-C , 35-C ) :   1.3160 B( 33-C , 48-C ) :   1.4086 B( 34-C , 35-C ) :   1.2292
B( 34-C , 38-C ) :   1.1416 B( 35-C , 50-C ) :   1.1571 B( 36-C , 37-C ) :   1.1634
B( 36-C , 38-C ) :   1.3920 B( 37-C , 39-C ) :   1.3747 B( 38-C , 51-C ) :   1.1634
B( 39-C , 42-C ) :   1.1692 B( 39-C , 52-C ) :   1.1571 B( 40-C , 41-C ) :   1.1603
B( 40-C , 42-C ) :   1.3684 B( 41-C , 44-C ) :   1.3684 B( 42-C , 54-C ) :   1.1611
B( 43-C , 44-C ) :   1.1692 B( 43-C , 47-C ) :   1.1571 B( 44-C , 55-C ) :   1.1611
B( 45-C , 46-C ) :   1.1620 B( 45-C , 47-C ) :   1.3747 B( 46-C , 49-C ) :   1.3760
B( 47-C , 56-C ) :   1.1692 B( 48-C , 49-C ) :   1.1465 B( 48-C , 53-C ) :   1.1465
B( 49-C , 57-C ) :   1.1727 B( 50-C , 51-C ) :   1.1620 B( 50-C , 53-C ) :   1.3760
B( 51-C , 52-C ) :   1.3747 B( 52-C , 58-C ) :   1.1692 B( 53-C , 59-C ) :   1.1727
B( 54-C , 55-C ) :   1.3766 B( 54-C , 58-C ) :   1.1611 B( 55-C , 56-C ) :   1.1611
B( 56-C , 57-C ) :   1.3684 B( 57-C , 59-C ) :   1.1603 B( 58-C , 59-C ) :   1.3684

Dispersion correction           -0.097004656
FINAL SINGLE POINT ENERGY     -2281.161411116629

DIPOLE MOMENT
-------------
                                X             Y             Z
Electronic contribution:     -0.00000      -0.00000       0.03752
Nuclear contribution   :      0.00000      -0.00000       0.00000
                        -----------------------------------------
Total Dipole Moment    :     -0.00000      -0.00000       0.03752
                        -----------------------------------------
Magnitude (a.u.)       :      0.03752
Magnitude (Debye)      :      0.09536

Rotational constants in cm-1:     0.002909     0.002768     0.002659
Rotational constants in MHz :    87.201585    82.988523    79.718872

                             ****ORCA TERMINATED NORMALLY****
TOTAL RUN TIME: 0 days 0 hours 49 minutes 56 seconds 0 msec
