                         Program Version 5.0.3 -  RELEASE  -
|  1> ! PBEh-3c def2/J TightSCF DefGrid3
|  2>
|  3> %maxcore 60000
|  4>
|  5> %pal
|  6> nprocs 4
|  7> end
|  8>
|  9> *xyzfile 0 1 hcnts.xyz
| 10>
| 11>                          ****END OF INPUT****

CARTESIAN COORDINATES (ANGSTROEM)
---------------------------------
  C      0.374822    0.517830    0.000000
  N      0.374822   -0.670522    0.000000
  H     -0.749643    0.152692    0.000000

 Total Charge           Charge          ....    0
 Multiplicity           Mult            ....    1
 Number of Electrons    NEL             ....   14
 Basis Dimension        Dim             ....   32

ORBITAL ENERGIES
----------------

  NO   OCC          E(Eh)            E(eV)
   0   2.0000     -14.717681      -400.4885
   1   2.0000     -10.509916      -285.9894
   2   2.0000      -1.093114       -29.7451
   3   2.0000      -0.588820       -16.0226
   4   2.0000      -0.514155       -13.9909
   5   2.0000      -0.440447       -11.9852
   6   2.0000      -0.391432       -10.6514
   7   0.0000      -0.024157        -0.6574
   8   0.0000       0.041346         1.1251
   9   0.0000       0.107606         2.9281
  10   0.0000       0.318468         8.6660
  11   0.0000       0.502324        13.6689

MULLIKEN ATOMIC CHARGES
-----------------------
   0 C :   -0.130221
   1 N :   -0.177225
   2 H :    0.307446
Sum of atomic charges:   -0.0000000

LOEWDIN ATOMIC CHARGES
----------------------
   0 C :   -0.216373
   1 N :   -0.064706
   2 H :    0.281079

  Mayer bond orders larger than 0.100000
B(  0-C ,  1-N ) :   2.4378 B(  0-C ,  2-H ) :   0.5595 B(  1-N ,  2-H ) :   0.3521

Dispersion correction           -0.000445025
FINAL SINGLE POINT ENERGY       -93.125415238594

DIPOLE MOMENT
-------------
                                X             Y             Z
Electronic contribution:      0.48132      -0.20290       0.00000
Nuclear contribution   :     -1.01537       0.24496       0.00000
                        -----------------------------------------
Total Dipole Moment    :     -0.53405       0.04206       0.00000
                        -----------------------------------------
Magnitude (a.u.)       :      0.53570
Magnitude (Debye)      :      1.36164

Rotational constants in cm-1:    13.865933     1.829193     1.616009
Rotational constants in MHz : 415690.203141 54837.812936 48446.725424

                             ****ORCA TERMINATED NORMALLY****
TOTAL RUN TIME: 0 days 0 hours 0 minutes 12 seconds 166 msec
