                         Program Version 5.0.3 -  RELEASE  -
|  1> ! PBEh-3c def2/J TightSCF DefGrid3
|  2>
|  3> %maxcore 60000
|  4>
|  5> %pal
|  6> nprocs 4
|  7> end
|  8>
|  9> *xyzfile 0 1 56A.xyz
| 10>
| 11>                          ****END OF INPUT****

CARTESIAN COORDINATES (ANGSTROEM)
---------------------------------
  C      1.207297    0.697033    0.000000
  H      2.143842    1.237748    0.000000
  C      1.207297   -0.697033    0.000000
  H      2.143842   -1.237748    0.000000
  C      0.000000   -1.394067    0.000000
  H      0.000000   -2.475496    0.000000
  C     -1.207297   -0.697033    0.000000
  H     -2.143842   -1.237748    0.000000
  C     -1.207297    0.697033    0.000000
  H     -2.143842    1.237748    0.000000
  C      0.000000    1.394067    0.000000
  H      0.000000    2.475496    0.000000

 Total Charge           Charge          ....    0
 Multiplicity           Mult            ....    1
 Number of Electrons    NEL             ....   42
 Basis Dimension        Dim             ....  102

ORBITAL ENERGIES
----------------

  NO   OCC          E(Eh)            E(eV)
   0   2.0000     -10.448790      -284.3260
   1   2.0000     -10.448572      -284.3201
   2   2.0000     -10.448570      -284.3200
   3   2.0000     -10.447959      -284.3034
   4   2.0000     -10.447957      -284.3034
   5   2.0000     -10.447729      -284.2972
   6   2.0000      -0.951992       -25.9050
   7   2.0000      -0.835430       -22.7332
   8   2.0000      -0.835430       -22.7332
   9   2.0000      -0.678983       -18.4761
  10   2.0000      -0.678983       -18.4761
  11   2.0000      -0.591974       -16.1084
  12   2.0000      -0.526020       -14.3137
  13   2.0000      -0.508390       -13.8340
  14   2.0000      -0.481782       -13.1100
  15   2.0000      -0.481780       -13.1099
  16   2.0000      -0.420792       -11.4503
  17   2.0000      -0.398339       -10.8394
  18   2.0000      -0.398338       -10.8393
  19   2.0000      -0.292441        -7.9577
  20   2.0000      -0.292438        -7.9577
  21   0.0000       0.019134         0.5207
  22   0.0000       0.019135         0.5207
  23   0.0000       0.140831         3.8322
  24   0.0000       0.196132         5.3370
  25   0.0000       0.201834         5.4922

MULLIKEN ATOMIC CHARGES
-----------------------
   0 C :   -0.219875
   1 H :    0.219874
   2 C :   -0.219874
   3 H :    0.219874
   4 C :   -0.219887
   5 H :    0.219887
   6 C :   -0.219874
   7 H :    0.219875
   8 C :   -0.219874
   9 H :    0.219874
  10 C :   -0.219887
  11 H :    0.219887
Sum of atomic charges:   -0.0000000

LOEWDIN ATOMIC CHARGES
----------------------
   0 C :   -0.135683
   1 H :    0.135685
   2 C :   -0.135683
   3 H :    0.135685
   4 C :   -0.135689
   5 H :    0.135684
   6 C :   -0.135683
   7 H :    0.135685
   8 C :   -0.135683
   9 H :    0.135685
  10 C :   -0.135689
  11 H :    0.135684

  Mayer bond orders larger than 0.100000
B(  0-C ,  1-H ) :   0.9200 B(  0-C ,  2-C ) :   1.4265 B(  0-C , 10-C ) :   1.4265
B(  2-C ,  3-H ) :   0.9200 B(  2-C ,  4-C ) :   1.4265 B(  4-C ,  5-H ) :   0.9200
B(  4-C ,  6-C ) :   1.4265 B(  6-C ,  7-H ) :   0.9200 B(  6-C ,  8-C ) :   1.4265
B(  8-C ,  9-H ) :   0.9200 B(  8-C , 10-C ) :   1.4265 B( 10-C , 11-H ) :   0.9200

Dispersion correction           -0.005880371
FINAL SINGLE POINT ENERGY      -231.725783182720

DIPOLE MOMENT
-------------
                                X             Y             Z
Electronic contribution:     -0.00000      -0.00000       0.00000
Nuclear contribution   :     -0.00000      -0.00000       0.00000
                        -----------------------------------------
Total Dipole Moment    :     -0.00000      -0.00000       0.00000
                        -----------------------------------------
Magnitude (a.u.)       :      0.00000
Magnitude (Debye)      :      0.00000

Rotational constants in cm-1:     0.190356     0.190356     0.095178
Rotational constants in MHz :  5706.722047  5706.721999  2853.361011

                             ****ORCA TERMINATED NORMALLY****
TOTAL RUN TIME: 0 days 0 hours 1 minutes 16 seconds 499 msec
