                         Program Version 5.0.3 -  RELEASE  -
|  1> ! PBEh-3c def2/J TightSCF DefGrid3
|  2>
|  3> %maxcore 60000
|  4>
|  5> %pal
|  6> nprocs 4
|  7> end
|  8>
|  9> *xyzfile 0 1 10p2.xyz
| 10>
| 11>                          ****END OF INPUT****

CARTESIAN COORDINATES (ANGSTROEM)
---------------------------------
  C      0.000000    0.000000   -0.025665
  N      0.000000    0.000000    1.119941
  H      0.000000    0.000000   -1.094276

 Total Charge           Charge          ....    0
 Multiplicity           Mult            ....    1
 Number of Electrons    NEL             ....   14
 Basis Dimension        Dim             ....   32

ORBITAL ENERGIES
----------------

  NO   OCC          E(Eh)            E(eV)
   0   2.0000     -14.667889      -399.1336
   1   2.0000     -10.502567      -285.7894
   2   2.0000      -1.028199       -27.9787
   3   2.0000      -0.677658       -18.4400
   4   2.0000      -0.447623       -12.1804
   5   2.0000      -0.417797       -11.3688
   6   2.0000      -0.417797       -11.3688
   7   0.0000       0.055027         1.4974
   8   0.0000       0.055027         1.4974
   9   0.0000       0.130455         3.5499
  10   0.0000       0.356867         9.7108
  11   0.0000       0.511628        13.9221

MULLIKEN ATOMIC CHARGES
-----------------------
   0 C :   -0.140745
   1 N :   -0.159697
   2 H :    0.300442
Sum of atomic charges:   -0.0000000

LOEWDIN ATOMIC CHARGES
----------------------
   0 C :   -0.112727
   1 N :   -0.046411
   2 H :    0.159137

  Mayer bond orders larger than 0.100000
B(  0-C ,  1-N ) :   3.1544 B(  0-C ,  2-H ) :   0.8595

Dispersion correction           -0.000447338
FINAL SINGLE POINT ENERGY       -93.206597383230

DIPOLE MOMENT
-------------
                                X             Y             Z
Electronic contribution:      0.00000       0.00000       0.33999
Nuclear contribution   :      0.00000       0.00000      -1.51893
                        -----------------------------------------
Total Dipole Moment    :      0.00000       0.00000      -1.17894
                        -----------------------------------------
Magnitude (a.u.)       :      1.17894
Magnitude (Debye)      :      2.99663

Rotational constants in cm-1:     0.000000     1.499429     1.499429
Rotational constants in MHz :     0.000000 44951.735756 44951.735756

                             ****ORCA TERMINATED NORMALLY****
TOTAL RUN TIME: 0 days 0 hours 1 minutes 7 seconds 717 msec
