                         Program Version 5.0.3 -  RELEASE  -
|  1> ! PBEh-3c def2/J TightSCF DefGrid3
|  2>
|  3> %maxcore 60000
|  4>
|  5> %pal
|  6> nprocs 4
|  7> end
|  8>
|  9> *xyzfile -1 1 aa.xyz
| 10>
| 11>                          ****END OF INPUT****

CARTESIAN COORDINATES (ANGSTROEM)
---------------------------------
  H      3.102120   -5.076482    1.850756
  O      2.665019   -4.245841    1.603984
  C      1.662956   -3.963938    2.593348
  H      2.072193   -4.074038    3.604714
  H      0.809047   -4.646957    2.485645
  C      1.154390   -2.552250    2.410185
  H      0.309261   -2.390194    3.089923
  O      2.214211   -1.602429    2.749297
  C      2.157561   -0.471442    1.899584
  H      2.133916    0.448422    2.484873
  N      3.402290   -0.413253    1.074522
  C      4.149094   -1.532600    0.810976
  H      3.771899   -2.449973    1.253546
  C      5.278864   -1.494814    0.059412
  H      5.846378   -2.396179   -0.130303
  C      5.739298   -0.248179   -0.494835
  O      6.747648   -0.072959   -1.190908
  N      4.911807    0.842397   -0.180211
  H      5.185704    1.749211   -0.550086
  C      3.757880    0.838836    0.576675
  O      3.092745    1.850049    0.792835
  C      0.754792   -2.151112    0.992526
  H      1.464856   -2.551418    0.262010
  C      0.897171   -0.616485    1.034641
  H      1.027410   -0.177931    0.042507
  O     -0.162371    0.021258    1.747819
  H     -0.934051    0.103497    1.157720
  O     -0.552738   -2.644998    0.714547
  P     -1.127633   -2.565863   -0.828488
  O     -2.083437   -3.710431   -0.969412
  O     -0.007947   -2.308274   -1.787276
  O     -1.975109   -1.156436   -0.753886
  C     -3.124138   -1.107071    0.118817
  H     -2.819560   -1.307561    1.152429
  H     -3.857738   -1.861080   -0.185690
  C     -3.738304    0.265415    0.011465
  H     -4.642885    0.297779    0.631716
  O     -2.779252    1.238685    0.522437
  C     -2.908541    2.471991   -0.174318
  H     -3.089878    3.291190    0.521429
  N     -1.626098    2.773591   -0.866209
  C     -0.778792    1.779915   -1.289099
  H     -1.108667    0.770737   -1.065327
  C      0.382355    2.037547   -1.938765
  H      1.031658    1.232577   -2.255830
  C      0.759993    3.397441   -2.229932
  O      1.782330    3.773789   -2.813152
  N     -0.187834    4.344066   -1.804646
  H      0.016352    5.319524   -2.007655
  C     -1.374445    4.115181   -1.142396
  O     -2.156970    5.012984   -0.832007
  C     -4.063859    0.775992   -1.390384
  H     -3.282069    0.482562   -2.097367
  C     -4.059318    2.300324   -1.175603
  H     -3.885552    2.869676   -2.095021
  O     -5.272899    2.701813   -0.542010
  H     -5.963244    2.106044   -0.897118
  O     -5.332915    0.266505   -1.796382
  H     -5.384956    0.311189   -2.766021

 Total Charge           Charge          ....   -1
 Multiplicity           Mult            ....    1
 Number of Electrons    NEL             ....  286
 Basis Dimension        Dim             ....  602

ORBITAL ENERGIES
----------------

  NO   OCC          E(Eh)            E(eV)
   0   2.0000     -77.718408     -2114.8254
   1   2.0000     -19.456359      -529.4344
   2   2.0000     -19.451642      -529.3061
   3   2.0000     -19.433151      -528.8029
   4   2.0000     -19.430940      -528.7428
   5   2.0000     -19.430548      -528.7321
   6   2.0000     -19.400141      -527.9047
   7   2.0000     -19.398383      -527.8568
   8   2.0000     -19.396102      -527.7948
   9   2.0000     -19.389806      -527.6234
  10   2.0000     -19.386427      -527.5315
  11   2.0000     -19.383759      -527.4589
  12   2.0000     -19.380478      -527.3696
  13   2.0000     -19.279265      -524.6155
  14   2.0000     -19.273321      -524.4537
  15   2.0000     -14.632284      -398.1647
  16   2.0000     -14.623499      -397.9256
  17   2.0000     -14.614065      -397.6689
  18   2.0000     -14.606888      -397.4736
  19   2.0000     -10.523895      -286.3697
  20   2.0000     -10.514211      -286.1062
  21   2.0000     -10.481941      -285.2281
  22   2.0000     -10.479385      -285.1586
  23   2.0000     -10.475237      -285.0457
  24   2.0000     -10.455832      -284.5177
  25   2.0000     -10.439263      -284.0668
  26   2.0000     -10.436337      -283.9872
  27   2.0000     -10.430704      -283.8339
  28   2.0000     -10.428965      -283.7866
  29   2.0000     -10.428458      -283.7728
  30   2.0000     -10.418702      -283.5073
  31   2.0000     -10.414892      -283.4036
  32   2.0000     -10.402920      -283.0778
  33   2.0000     -10.402747      -283.0731
  34   2.0000     -10.397707      -282.9360
  35   2.0000     -10.366296      -282.0813
  36   2.0000     -10.366159      -282.0775
  37   2.0000      -6.762872      -184.0271
  38   2.0000      -4.857921      -132.1907
  39   2.0000      -4.856713      -132.1579
  40   2.0000      -4.854409      -132.0952
  41   2.0000      -1.117833       -30.4178
  42   2.0000      -1.103014       -30.0145
  43   2.0000      -1.101693       -29.9786
  44   2.0000      -1.084591       -29.5132
  45   2.0000      -1.083996       -29.4970
  46   2.0000      -1.058893       -28.8139
  47   2.0000      -1.057663       -28.7805
  48   2.0000      -1.057162       -28.7668
  49   2.0000      -1.053940       -28.6792
  50   2.0000      -1.050463       -28.5846
  51   2.0000      -1.025631       -27.9088
  52   2.0000      -1.006276       -27.3822
  53   2.0000      -0.998144       -27.1609
  54   2.0000      -0.989011       -26.9124
  55   2.0000      -0.947898       -25.7936
  56   2.0000      -0.939703       -25.5706
  57   2.0000      -0.908790       -24.7294
  58   2.0000      -0.866586       -23.5810
  59   2.0000      -0.811917       -22.0934
  60   2.0000      -0.805558       -21.9203
  61   2.0000      -0.802371       -21.8336
  62   2.0000      -0.781484       -21.2653
  63   2.0000      -0.773936       -21.0599
  64   2.0000      -0.757956       -20.6250
  65   2.0000      -0.694795       -18.9063
  66   2.0000      -0.687786       -18.7156
  67   2.0000      -0.685741       -18.6600
  68   2.0000      -0.680144       -18.5076
  69   2.0000      -0.647830       -17.6283
  70   2.0000      -0.636205       -17.3120
  71   2.0000      -0.617581       -16.8052
  72   2.0000      -0.598740       -16.2925
  73   2.0000      -0.589940       -16.0531
  74   2.0000      -0.578370       -15.7382
  75   2.0000      -0.564376       -15.3574
  76   2.0000      -0.551559       -15.0087
  77   2.0000      -0.548821       -14.9342
  78   2.0000      -0.540889       -14.7183
  79   2.0000      -0.534974       -14.5574
  80   2.0000      -0.525895       -14.3103
  81   2.0000      -0.514834       -14.0093
  82   2.0000      -0.506775       -13.7901
  83   2.0000      -0.502454       -13.6725
  84   2.0000      -0.498424       -13.5628
  85   2.0000      -0.487100       -13.2547
  86   2.0000      -0.476051       -12.9540
  87   2.0000      -0.472307       -12.8521
  88   2.0000      -0.466511       -12.6944
  89   2.0000      -0.463454       -12.6112
  90   2.0000      -0.459915       -12.5149
  91   2.0000      -0.451993       -12.2994
  92   2.0000      -0.448571       -12.2062
  93   2.0000      -0.445203       -12.1146
  94   2.0000      -0.435323       -11.8457
  95   2.0000      -0.432205       -11.7609
  96   2.0000      -0.427003       -11.6193
  97   2.0000      -0.424526       -11.5519
  98   2.0000      -0.417620       -11.3640
  99   2.0000      -0.409153       -11.1336
 100   2.0000      -0.406418       -11.0592
 101   2.0000      -0.404490       -11.0067
 102   2.0000      -0.393958       -10.7201
 103   2.0000      -0.391127       -10.6431
 104   2.0000      -0.388411       -10.5692
 105   2.0000      -0.386929       -10.5289
 106   2.0000      -0.384171       -10.4538
 107   2.0000      -0.381586       -10.3835
 108   2.0000      -0.372091       -10.1251
 109   2.0000      -0.369796       -10.0627
 110   2.0000      -0.367492       -10.0000
 111   2.0000      -0.359532        -9.7834
 112   2.0000      -0.349651        -9.5145
 113   2.0000      -0.345028        -9.3887
 114   2.0000      -0.337855        -9.1935
 115   2.0000      -0.333741        -9.0815
 116   2.0000      -0.333444        -9.0735
 117   2.0000      -0.328302        -8.9336
 118   2.0000      -0.324103        -8.8193
 119   2.0000      -0.311318        -8.4714
 120   2.0000      -0.299538        -8.1508
 121   2.0000      -0.287807        -7.8316
 122   2.0000      -0.281920        -7.6714
 123   2.0000      -0.279034        -7.5929
 124   2.0000      -0.273365        -7.4386
 125   2.0000      -0.269935        -7.3453
 126   2.0000      -0.265504        -7.2247
 127   2.0000      -0.262813        -7.1515
 128   2.0000      -0.256927        -6.9913
 129   2.0000      -0.255138        -6.9427
 130   2.0000      -0.253239        -6.8910
 131   2.0000      -0.251605        -6.8465
 132   2.0000      -0.246685        -6.7126
 133   2.0000      -0.245955        -6.6928
 134   2.0000      -0.236275        -6.4294
 135   2.0000      -0.231612        -6.3025
 136   2.0000      -0.220537        -6.0011
 137   2.0000      -0.204800        -5.5729
 138   2.0000      -0.198221        -5.3939
 139   2.0000      -0.194078        -5.2811
 140   2.0000      -0.190479        -5.1832
 141   2.0000      -0.168592        -4.5876
 142   2.0000      -0.157493        -4.2856
 143   0.0000       0.071776         1.9531
 144   0.0000       0.075623         2.0578
 145   0.0000       0.120606         3.2819
 146   0.0000       0.128581         3.4989
 147   0.0000       0.154165         4.1950

MULLIKEN ATOMIC CHARGES
-----------------------
   0 H :    0.420980
   1 O :   -0.629560
   2 C :   -0.176947
   3 H :    0.193291
   4 H :    0.218941
   5 C :    0.027831
   6 H :    0.236730
   7 O :   -0.505647
   8 C :    0.196102
   9 H :    0.274519
  10 N :   -0.573133
  11 C :    0.079094
  12 H :    0.330266
  13 C :   -0.485229
  14 H :    0.239085
  15 C :    0.561984
  16 O :   -0.436542
  17 N :   -0.733695
  18 H :    0.392045
  19 C :    0.718728
  20 O :   -0.441682
  21 C :    0.018156
  22 H :    0.258203
  23 C :   -0.074529
  24 H :    0.265417
  25 O :   -0.662774
  26 H :    0.456484
  27 O :   -0.633235
  28 P :    1.389909
  29 O :   -0.726542
  30 O :   -0.734177
  31 O :   -0.634158
  32 C :   -0.198452
  33 H :    0.228044
  34 H :    0.249937
  35 C :    0.028186
  36 H :    0.227794
  37 O :   -0.504221
  38 C :    0.199525
  39 H :    0.285537
  40 N :   -0.573707
  41 C :    0.050970
  42 H :    0.346556
  43 C :   -0.481763
  44 H :    0.280398
  45 C :    0.570209
  46 O :   -0.426757
  47 N :   -0.734004
  48 H :    0.385519
  49 C :    0.716267
  50 O :   -0.455809
  51 C :   -0.065489
  52 H :    0.263393
  53 C :   -0.024534
  54 H :    0.228388
  55 O :   -0.636868
  56 H :    0.421490
  57 O :   -0.637985
  58 H :    0.427458
Sum of atomic charges:   -1.0000000

LOEWDIN ATOMIC CHARGES
----------------------
   0 H :    0.312285
   1 O :   -0.408606
   2 C :   -0.093910
   3 H :    0.107926
   4 H :    0.123325
   5 C :   -0.011259
   6 H :    0.131670
   7 O :   -0.244512
   8 C :    0.083518
   9 H :    0.145757
  10 N :   -0.092853
  11 C :   -0.002612
  12 H :    0.168510
  13 C :   -0.261687
  14 H :    0.153644
  15 C :    0.126469
  16 O :   -0.288474
  17 N :   -0.200559
  18 H :    0.284384
  19 C :    0.159637
  20 O :   -0.279882
  21 C :   -0.034281
  22 H :    0.142130
  23 C :   -0.039211
  24 H :    0.130275
  25 O :   -0.400420
  26 H :    0.315897
  27 O :   -0.343732
  28 P :    0.809256
  29 O :   -0.602117
  30 O :   -0.602182
  31 O :   -0.370308
  32 C :   -0.097141
  33 H :    0.126505
  34 H :    0.139964
  35 C :   -0.015441
  36 H :    0.127453
  37 O :   -0.236097
  38 C :    0.086290
  39 H :    0.150856
  40 N :   -0.095295
  41 C :   -0.015464
  42 H :    0.170137
  43 C :   -0.238867
  44 H :    0.171147
  45 C :    0.130097
  46 O :   -0.276995
  47 N :   -0.200845
  48 H :    0.280765
  49 C :    0.158004
  50 O :   -0.294109
  51 C :   -0.045586
  52 H :    0.138193
  53 C :   -0.043364
  54 H :    0.116536
  55 O :   -0.397452
  56 H :    0.311692
  57 O :   -0.390634
  58 H :    0.321573

  Mayer bond orders larger than 0.100000
B(  0-H ,  1-O ) :   0.7885 B(  1-O ,  2-C ) :   0.9858 B(  2-C ,  3-H ) :   0.9054
B(  2-C ,  4-H ) :   0.8916 B(  2-C ,  5-C ) :   0.9724 B(  5-C ,  6-H ) :   0.8865
B(  5-C ,  7-O ) :   0.9008 B(  5-C , 21-C ) :   0.9193 B(  7-O ,  8-C ) :   1.0124
B(  8-C ,  9-H ) :   0.8766 B(  8-C , 10-N ) :   0.8434 B(  8-C , 23-C ) :   0.9283
B( 10-N , 11-C ) :   1.0881 B( 10-N , 19-C ) :   1.0301 B( 11-C , 12-H ) :   0.8172
B( 11-C , 13-C ) :   1.5858 B( 13-C , 14-H ) :   0.9218 B( 13-C , 15-C ) :   1.0845
B( 15-C , 16-O ) :   1.9944 B( 15-C , 17-N ) :   0.9860 B( 17-N , 18-H ) :   0.8020
B( 17-N , 19-C ) :   1.0632 B( 19-C , 20-O ) :   1.9653 B( 21-C , 22-H ) :   0.8572
B( 21-C , 23-C ) :   0.9087 B( 21-C , 27-O ) :   0.9485 B( 23-C , 24-H ) :   0.8819
B( 23-C , 25-O ) :   1.0153 B( 25-O , 26-H ) :   0.7185 B( 27-O , 28-P ) :   0.8455
B( 28-P , 29-O ) :   1.7555 B( 28-P , 30-O ) :   1.7160 B( 28-P , 31-O ) :   0.8082
B( 31-O , 32-C ) :   0.9270 B( 32-C , 33-H ) :   0.8888 B( 32-C , 34-H ) :   0.8829
B( 32-C , 35-C ) :   0.9654 B( 35-C , 36-H ) :   0.8884 B( 35-C , 37-O ) :   0.9093
B( 35-C , 51-C ) :   0.9198 B( 37-O , 38-C ) :   0.9914 B( 38-C , 39-H ) :   0.8739
B( 38-C , 40-N ) :   0.8622 B( 38-C , 53-C ) :   0.9248 B( 40-N , 41-C ) :   1.0496
B( 40-N , 49-C ) :   1.0361 B( 41-C , 42-H ) :   0.8019 B( 41-C , 43-C ) :   1.6161
B( 43-C , 44-H ) :   0.9028 B( 43-C , 45-C ) :   1.0734 B( 45-C , 46-O ) :   2.0029
B( 45-C , 47-N ) :   0.9727 B( 47-N , 48-H ) :   0.8060 B( 47-N , 49-C ) :   1.0741
B( 49-C , 50-O ) :   1.9544 B( 51-C , 52-H ) :   0.8643 B( 51-C , 53-C ) :   0.9337
B( 51-C , 57-O ) :   0.9932 B( 53-C , 54-H ) :   0.9041 B( 53-C , 55-O ) :   1.0041
B( 55-O , 56-H ) :   0.7560 B( 57-O , 58-H ) :   0.7838

Dispersion correction           -0.049124569
FINAL SINGLE POINT ENERGY     -2308.306920531533

DIPOLE MOMENT
-------------
                                X             Y             Z
Electronic contribution:      7.62501       7.50054      -5.94772
Nuclear contribution   :     -9.12404      -6.96863       7.76782
                        -----------------------------------------
Total Dipole Moment    :     -1.49903       0.53191       1.82010
                        -----------------------------------------
Magnitude (a.u.)       :      2.41719
Magnitude (Debye)      :      6.14400

Rotational constants in cm-1:     0.004430     0.002583     0.001886
Rotational constants in MHz :   132.793674    77.447753    56.540831

                             ****ORCA TERMINATED NORMALLY****
TOTAL RUN TIME: 0 days 0 hours 12 minutes 43 seconds 765 msec
