                         Program Version 5.0.3 -  RELEASE  -
|  1> ! PBEh-3c def2/J TightSCF DefGrid3
|  2>
|  3> %maxcore 60000
|  4>
|  5> %pal
|  6> nprocs 4
|  7> end
|  8>
|  9> *xyzfile 0 1 227.xyz
| 10>
| 11>                          ****END OF INPUT****

CARTESIAN COORDINATES (ANGSTROEM)
---------------------------------
  C      0.750320    1.275040    1.974860
  C      0.137240   -0.046900    1.513570
  N      0.041500   -0.071740    0.002980
  H      0.999920   -0.072190   -0.377000
  H     -0.441480   -0.908760   -0.356050
  H     -0.438140    0.758100   -0.377470
  H     -0.861500   -0.218680    1.931850
  H      0.790980   -0.888720    1.768240
  H      0.875680    1.258690    3.064070
  H      1.731060    1.410480    1.502850
  H      0.102470    2.126510    1.721280
  Cl     2.794820   -0.088140   -0.729910

 Total Charge           Charge          ....    0
 Multiplicity           Mult            ....    1
 Number of Electrons    NEL             ....   44
 Basis Dimension        Dim             ....   79

ORBITAL ENERGIES
----------------

  NO   OCC          E(Eh)            E(eV)
   0   2.0000    -102.127338     -2779.0261
   1   2.0000     -14.751579      -401.4109
   2   2.0000     -10.530623      -286.5528
   3   2.0000     -10.460909      -284.6558
   4   2.0000      -9.592557      -261.0267
   5   2.0000      -7.276776      -198.0111
   6   2.0000      -7.274571      -197.9511
   7   2.0000      -7.274422      -197.9471
   8   2.0000      -1.106789       -30.1173
   9   2.0000      -0.879045       -23.9200
  10   2.0000      -0.748326       -20.3630
  11   2.0000      -0.734139       -19.9769
  12   2.0000      -0.655198       -17.8288
  13   2.0000      -0.644137       -17.5279
  14   2.0000      -0.571038       -15.5387
  15   2.0000      -0.528747       -14.3879
  16   2.0000      -0.473033       -12.8719
  17   2.0000      -0.459986       -12.5169
  18   2.0000      -0.440229       -11.9793
  19   2.0000      -0.247426        -6.7328
  20   2.0000      -0.231503        -6.2995
  21   2.0000      -0.230499        -6.2722
  22   0.0000       0.060664         1.6508
  23   0.0000       0.112207         3.0533
  24   0.0000       0.127732         3.4758
  25   0.0000       0.159041         4.3277
  26   0.0000       0.167813         4.5664

MULLIKEN ATOMIC CHARGES
-----------------------
   0 C :   -0.660951
   1 C :   -0.318832
   2 N :   -0.780279
   3 H :    0.382651
   4 H :    0.406239
   5 H :    0.399011
   6 H :    0.239459
   7 H :    0.285913
   8 H :    0.242292
   9 H :    0.294303
  10 H :    0.208144
  11 Cl:   -0.697951
Sum of atomic charges:   -0.0000000

LOEWDIN ATOMIC CHARGES
----------------------
   0 C :   -0.378795
   1 C :   -0.150034
   2 N :   -0.273626
   3 H :    0.240711
   4 H :    0.280367
   5 H :    0.277634
   6 H :    0.128710
   7 H :    0.156479
   8 H :    0.145988
   9 H :    0.166636
  10 H :    0.126140
  11 Cl:   -0.720210

  Mayer bond orders larger than 0.100000
B(  0-C ,  1-C ) :   0.9869 B(  0-C ,  8-H ) :   0.9163 B(  0-C ,  9-H ) :   0.8672
B(  0-C , 10-H ) :   0.9236 B(  1-C ,  2-N ) :   0.8753 B(  1-C ,  6-H ) :   0.9072
B(  1-C ,  7-H ) :   0.8870 B(  2-N ,  3-H ) :   0.4830 B(  2-N ,  4-H ) :   0.8125
B(  2-N ,  5-H ) :   0.8119 B(  3-H , 11-Cl) :   0.4710

Dispersion correction           -0.004789343
FINAL SINGLE POINT ENERGY      -595.182755354607

DIPOLE MOMENT
-------------
                                X             Y             Z
Electronic contribution:      6.14788      -2.21437      -6.15109
Nuclear contribution   :     -9.71883       2.30136       7.41650
                        -----------------------------------------
Total Dipole Moment    :     -3.57095       0.08700       1.26541
                        -----------------------------------------
Magnitude (a.u.)       :      3.78952
Magnitude (Debye)      :      9.63220

Rotational constants in cm-1:     0.281859     0.076655     0.065198
Rotational constants in MHz :  8449.909255  2298.044610  1954.599477

                             ****ORCA TERMINATED NORMALLY****
TOTAL RUN TIME: 0 days 0 hours 0 minutes 58 seconds 896 msec
