                         Program Version 5.0.3 -  RELEASE  -
|  1> ! PBEh-3c def2/J TightSCF DefGrid3
|  2>
|  3> %maxcore 60000
|  4>
|  5> %pal
|  6> nprocs 4
|  7> end
|  8>
|  9> *xyzfile 0 1 4B.xyz
| 10>
| 11>                          ****END OF INPUT****

CARTESIAN COORDINATES (ANGSTROEM)
---------------------------------
  N     -1.103461   -0.082763    1.641265
  H     -0.607464   -0.964033    1.559767
  H     -0.586034    0.445829    2.335639
  H     -0.908471    0.402652    0.753707

 Total Charge           Charge          ....    0
 Multiplicity           Mult            ....    1
 Number of Electrons    NEL             ....   10
 Basis Dimension        Dim             ....   21

ORBITAL ENERGIES
----------------

  NO   OCC          E(Eh)            E(eV)
   0   2.0000     -14.600652      -397.3039
   1   2.0000      -0.936527       -25.4842
   2   2.0000      -0.508523       -13.8376
   3   2.0000      -0.503626       -13.7044
   4   2.0000      -0.312412        -8.5012
   5   0.0000       0.138508         3.7690
   6   0.0000       0.219595         5.9755
   7   0.0000       0.223988         6.0950
   8   0.0000       0.759105        20.6563
   9   0.0000       0.759899        20.6779

MULLIKEN ATOMIC CHARGES
-----------------------
   0 N :   -0.930809
   1 H :    0.311751
   2 H :    0.311759
   3 H :    0.307299
Sum of atomic charges:   -0.0000000

LOEWDIN ATOMIC CHARGES
----------------------
   0 N :   -0.644588
   1 H :    0.214730
   2 H :    0.214735
   3 H :    0.215123

  Mayer bond orders larger than 0.100000
B(  0-N ,  1-H ) :   0.8812 B(  0-N ,  2-H ) :   0.8812 B(  0-N ,  3-H ) :   0.8849

Dispersion correction           -0.000444663
FINAL SINGLE POINT ENERGY       -56.427568623206

DIPOLE MOMENT
-------------
                                X             Y             Z
Electronic contribution:     -0.15665      -0.02317       0.04648
Nuclear contribution   :      0.93201       0.10238      -0.21185
                        -----------------------------------------
Total Dipole Moment    :      0.77536       0.07921      -0.16538
                        -----------------------------------------
Magnitude (a.u.)       :      0.79675
Magnitude (Debye)      :      2.02518

Rotational constants in cm-1:     9.719788     9.650314     6.425983
Rotational constants in MHz : 291391.918701 289309.138143 192646.134236

                             ****ORCA TERMINATED NORMALLY****
TOTAL RUN TIME: 0 days 0 hours 0 minutes 12 seconds 764 msec
