                         Program Version 5.0.3 -  RELEASE  -
|  1> ! PBEh-3c def2/J TightSCF DefGrid3
|  2>
|  3> %maxcore 60000
|  4>
|  5> %pal
|  6> nprocs 4
|  7> end
|  8>
|  9> *xyzfile 1 1 his2.xyz
| 10>
| 11>                          ****END OF INPUT****

CARTESIAN COORDINATES (ANGSTROEM)
---------------------------------
  N      2.629397    0.792328    0.783874
  C      1.462587    0.272542    0.102961
  C      1.479401    0.816482   -1.339280
  O      0.523735    0.775007   -2.084757
  H      3.040910    0.137496    1.433221
  O      2.613551    1.306544   -1.722097
  H      2.455439    1.663513    1.269993
  H      1.593476   -0.812673    0.007001
  C      0.133147    0.547881    0.838621
  C     -1.043947   -0.262955    0.406876
  H     -0.116099    1.612454    0.765568
  H      0.294116    0.343831    1.899295
  C     -1.943286   -0.979174    1.130796
  N     -1.437144   -0.367499   -0.901687
  H     -2.016203   -1.156957    2.190952
  H     -3.644225   -2.067480    0.467709
  C     -2.519689   -1.109399   -0.992143
  N     -2.848608   -1.489676    0.235554
  H     -3.043283   -1.367263   -1.898817
  H      3.222143    1.269747   -0.949507
  H     -0.835419    0.075250   -1.644132

 Total Charge           Charge          ....    1
 Multiplicity           Mult            ....    1
 Number of Electrons    NEL             ....   82
 Basis Dimension        Dim             ....  185

ORBITAL ENERGIES
----------------

  NO   OCC          E(Eh)            E(eV)
   0   2.0000     -19.669050      -535.2220
   1   2.0000     -19.630111      -534.1625
   2   2.0000     -14.898505      -405.4089
   3   2.0000     -14.874052      -404.7435
   4   2.0000     -14.785269      -402.3276
   5   2.0000     -10.723615      -291.8044
   6   2.0000     -10.715233      -291.5763
   7   2.0000     -10.668610      -290.3076
   8   2.0000     -10.661069      -290.1024
   9   2.0000     -10.650312      -289.8097
  10   2.0000     -10.622817      -289.0616
  11   2.0000      -1.368017       -37.2256
  12   2.0000      -1.352693       -36.8086
  13   2.0000      -1.276060       -34.7234
  14   2.0000      -1.201990       -32.7078
  15   2.0000      -1.158917       -31.5357
  16   2.0000      -1.067236       -29.0410
  17   2.0000      -0.997357       -27.1395
  18   2.0000      -0.929351       -25.2889
  19   2.0000      -0.913440       -24.8560
  20   2.0000      -0.866068       -23.5669
  21   2.0000      -0.824600       -22.4385
  22   2.0000      -0.816711       -22.2238
  23   2.0000      -0.764554       -20.8046
  24   2.0000      -0.759384       -20.6639
  25   2.0000      -0.716656       -19.5012
  26   2.0000      -0.716330       -19.4923
  27   2.0000      -0.707507       -19.2523
  28   2.0000      -0.691478       -18.8161
  29   2.0000      -0.675955       -18.3937
  30   2.0000      -0.657577       -17.8936
  31   2.0000      -0.649452       -17.6725
  32   2.0000      -0.641764       -17.4633
  33   2.0000      -0.625912       -17.0319
  34   2.0000      -0.582192       -15.8422
  35   2.0000      -0.563639       -15.3374
  36   2.0000      -0.552919       -15.0457
  37   2.0000      -0.511370       -13.9151
  38   2.0000      -0.499436       -13.5903
  39   2.0000      -0.471392       -12.8272
  40   2.0000      -0.454822       -12.3763
  41   0.0000      -0.145780        -3.9669
  42   0.0000      -0.108830        -2.9614
  43   0.0000      -0.098923        -2.6918
  44   0.0000      -0.041868        -1.1393
  45   0.0000      -0.014429        -0.3926

MULLIKEN ATOMIC CHARGES
-----------------------
   0 N :   -0.803886
   1 C :   -0.245195
   2 C :    0.618160
   3 O :   -0.447710
   4 H :    0.375745
   5 O :   -0.511281
   6 H :    0.366648
   7 H :    0.297123
   8 C :   -0.551137
   9 C :    0.317141
  10 H :    0.290537
  11 H :    0.279957
  12 C :   -0.098093
  13 N :   -0.608841
  14 H :    0.312245
  15 H :    0.427983
  16 C :    0.245036
  17 N :   -0.555062
  18 H :    0.333513
  19 H :    0.480012
  20 H :    0.477104
Sum of atomic charges:    1.0000000

LOEWDIN ATOMIC CHARGES
----------------------
   0 N :   -0.442713
   1 C :   -0.127606
   2 C :    0.140762
   3 O :   -0.244655
   4 H :    0.256644
   5 O :   -0.215241
   6 H :    0.250201
   7 H :    0.163109
   8 C :   -0.238104
   9 C :    0.000768
  10 H :    0.165945
  11 H :    0.163250
  12 C :   -0.081335
  13 N :   -0.086673
  14 H :    0.173817
  15 H :    0.302133
  16 C :    0.047834
  17 N :   -0.072110
  18 H :    0.181130
  19 H :    0.346368
  20 H :    0.316476

  Mayer bond orders larger than 0.100000
B(  0-N ,  1-C ) :   1.0068 B(  0-N ,  4-H ) :   0.8320 B(  0-N ,  6-H ) :   0.8352
B(  0-N , 19-H ) :   0.1051 B(  1-C ,  2-C ) :   0.9048 B(  1-C ,  7-H ) :   0.8742
B(  1-C ,  8-C ) :   0.9389 B(  2-C ,  3-O ) :   1.8226 B(  2-C ,  5-O ) :   1.3043
B(  3-O , 20-H ) :   0.1794 B(  5-O , 19-H ) :   0.6644 B(  8-C ,  9-C ) :   0.9289
B(  8-C , 10-H ) :   0.8841 B(  8-C , 11-H ) :   0.9032 B(  9-C , 12-C ) :   1.6078
B(  9-C , 13-N ) :   1.1440 B( 12-C , 14-H ) :   0.8820 B( 12-C , 17-N ) :   1.1253
B( 13-N , 16-C ) :   1.3625 B( 13-N , 20-H ) :   0.5918 B( 15-H , 17-N ) :   0.7862
B( 16-C , 17-N ) :   1.2898 B( 16-C , 18-H ) :   0.8676

Dispersion correction           -0.012130776
FINAL SINGLE POINT ENERGY      -547.990137769934

DIPOLE MOMENT
-------------
                                X             Y             Z
Electronic contribution:     -2.90917      -0.74133      -4.43511
Nuclear contribution   :      1.00522      -0.83199       6.52139
                        -----------------------------------------
Total Dipole Moment    :     -1.90395      -1.57332       2.08628
                        -----------------------------------------
Magnitude (a.u.)       :      3.23309
Magnitude (Debye)      :      8.21787

Rotational constants in cm-1:     0.083302     0.022786     0.018454
Rotational constants in MHz :  2497.342492   683.112776   553.223053

                             ****ORCA TERMINATED NORMALLY****
TOTAL RUN TIME: 0 days 0 hours 2 minutes 30 seconds 832 msec
