                         Program Version 5.0.3 -  RELEASE  -
|  1> ! PBEh-3c def2/J TightSCF DefGrid3
|  2>
|  3> %maxcore 60000
|  4>
|  5> %pal
|  6> nprocs 4
|  7> end
|  8>
|  9> *xyzfile 0 1 P3.xyz
| 10>
| 11>                          ****END OF INPUT****

CARTESIAN COORDINATES (ANGSTROEM)
---------------------------------
  C     -0.434661    0.752855    0.000000
  C     -0.434661   -0.752855    0.000000
  C      0.869322    0.000000    0.000000
  H     -0.728671    1.262095    0.909129
  H     -0.728671    1.262095   -0.909129
  H     -0.728671   -1.262095    0.909129
  H     -0.728671   -1.262095   -0.909129
  H      1.457342    0.000000   -0.909129
  H      1.457342    0.000000    0.909129

 Total Charge           Charge          ....    0
 Multiplicity           Mult            ....    1
 Number of Electrons    NEL             ....   24
 Basis Dimension        Dim             ....   57

ORBITAL ENERGIES
----------------

  NO   OCC          E(Eh)            E(eV)
   0   2.0000     -10.435959      -283.9769
   1   2.0000     -10.435598      -283.9670
   2   2.0000     -10.435597      -283.9670
   3   2.0000      -0.941401       -25.6168
   4   2.0000      -0.669421       -18.2159
   5   2.0000      -0.669420       -18.2159
   6   2.0000      -0.554829       -15.0977
   7   2.0000      -0.522697       -14.2233
   8   2.0000      -0.413893       -11.2626
   9   2.0000      -0.413893       -11.2626
  10   2.0000      -0.340916        -9.2768
  11   2.0000      -0.340915        -9.2768
  12   0.0000       0.149737         4.0746
  13   0.0000       0.162032         4.4091
  14   0.0000       0.180101         4.9008
  15   0.0000       0.194002         5.2791
  16   0.0000       0.194008         5.2792

MULLIKEN ATOMIC CHARGES
-----------------------
   0 C :   -0.459493
   1 C :   -0.459493
   2 C :   -0.459530
   3 H :    0.229750
   4 H :    0.229750
   5 H :    0.229750
   6 H :    0.229750
   7 H :    0.229758
   8 H :    0.229758
Sum of atomic charges:    0.0000000

LOEWDIN ATOMIC CHARGES
----------------------
   0 C :   -0.265222
   1 C :   -0.265222
   2 C :   -0.265232
   3 H :    0.132612
   4 H :    0.132612
   5 H :    0.132612
   6 H :    0.132612
   7 H :    0.132614
   8 H :    0.132614

  Mayer bond orders larger than 0.100000
B(  0-C ,  1-C ) :   0.9460 B(  0-C ,  2-C ) :   0.9461 B(  0-C ,  3-H ) :   0.9271
B(  0-C ,  4-H ) :   0.9271 B(  1-C ,  2-C ) :   0.9461 B(  1-C ,  5-H ) :   0.9271
B(  1-C ,  6-H ) :   0.9271 B(  2-C ,  7-H ) :   0.9271 B(  2-C ,  8-H ) :   0.9271

Dispersion correction           -0.002597836
FINAL SINGLE POINT ENERGY      -117.633821549027

DIPOLE MOMENT
-------------
                                X             Y             Z
Electronic contribution:     -0.00000      -0.00000       0.00000
Nuclear contribution   :      0.00000       0.00000       0.00000
                        -----------------------------------------
Total Dipole Moment    :     -0.00000      -0.00000       0.00000
                        -----------------------------------------
Magnitude (a.u.)       :      0.00000
Magnitude (Debye)      :      0.00001

Rotational constants in cm-1:     0.673317     0.673317     0.420643
Rotational constants in MHz : 20185.529605 20185.528730 12610.558206

                             ****ORCA TERMINATED NORMALLY****
TOTAL RUN TIME: 0 days 0 hours 0 minutes 44 seconds 551 msec
