                         Program Version 5.0.3 -  RELEASE  -
|  1> ! PBEh-3c def2/J TightSCF DefGrid3
|  2>
|  3> %maxcore 60000
|  4>
|  5> %pal
|  6> nprocs 4
|  7> end
|  8>
|  9> *xyzfile 0 1 B44.xyz
| 10>
| 11>                          ****END OF INPUT****

CARTESIAN COORDINATES (ANGSTROEM)
---------------------------------
  C     -1.269829   -0.385900    0.257633
  H     -1.227609   -0.480555    1.343423
  O     -2.660656   -0.361126   -0.065574
  C     -0.567481    0.899205   -0.171284
  H     -0.571867    0.966626   -1.264194
  H     -1.167488    1.733550    0.196987
  C      0.869976    1.048819    0.336645
  H      0.897495    0.900334    1.421633
  H      1.199104    2.076789    0.161990
  H     -2.731301   -0.411931   -1.022283
  H     -0.781289   -1.260257   -0.171030
  C      1.891663    0.127746   -0.320297
  H      1.818212    0.206172   -1.405168
  H      2.902049    0.436634   -0.035511
  O      1.696485   -1.255712   -0.029140
  H      1.830092   -1.371882    0.915686

 Total Charge           Charge          ....    0
 Multiplicity           Mult            ....    1
 Number of Electrons    NEL             ....   50
 Basis Dimension        Dim             ....  110

ORBITAL ENERGIES
----------------

  NO   OCC          E(Eh)            E(eV)
   0   2.0000     -19.490851      -530.3730
   1   2.0000     -19.476856      -529.9922
   2   2.0000     -10.485281      -285.3190
   3   2.0000     -10.470246      -284.9099
   4   2.0000     -10.441366      -284.1240
   5   2.0000     -10.432469      -283.8819
   6   2.0000      -1.126474       -30.6529
   7   2.0000      -1.112682       -30.2776
   8   2.0000      -0.882764       -24.0212
   9   2.0000      -0.794779       -21.6270
  10   2.0000      -0.712854       -19.3977
  11   2.0000      -0.661871       -18.0104
  12   2.0000      -0.568437       -15.4680
  13   2.0000      -0.560707       -15.2576
  14   2.0000      -0.532811       -14.4985
  15   2.0000      -0.502962       -13.6863
  16   2.0000      -0.491694       -13.3797
  17   2.0000      -0.463265       -12.6061
  18   2.0000      -0.428670       -11.6647
  19   2.0000      -0.419999       -11.4287
  20   2.0000      -0.406721       -11.0675
  21   2.0000      -0.379216       -10.3190
  22   2.0000      -0.370189       -10.0734
  23   2.0000      -0.327257        -8.9051
  24   2.0000      -0.313751        -8.5376
  25   0.0000       0.118505         3.2247
  26   0.0000       0.134344         3.6557
  27   0.0000       0.161024         4.3817
  28   0.0000       0.174263         4.7419
  29   0.0000       0.189118         5.1462

MULLIKEN ATOMIC CHARGES
-----------------------
   0 C :   -0.152639
   1 H :    0.192806
   2 O :   -0.626804
   3 C :   -0.454412
   4 H :    0.195699
   5 H :    0.232495
   6 C :   -0.466137
   7 H :    0.202891
   8 H :    0.222165
   9 H :    0.407841
  10 H :    0.213823
  11 C :   -0.158964
  12 H :    0.207603
  13 H :    0.193973
  14 O :   -0.621383
  15 H :    0.411043
Sum of atomic charges:    0.0000000

LOEWDIN ATOMIC CHARGES
----------------------
   0 C :   -0.104756
   1 H :    0.112667
   2 O :   -0.415080
   3 C :   -0.264078
   4 H :    0.116604
   5 H :    0.132113
   6 C :   -0.265920
   7 H :    0.119104
   8 H :    0.132279
   9 H :    0.305162
  10 H :    0.112337
  11 C :   -0.096967
  12 H :    0.118670
  13 H :    0.102321
  14 O :   -0.410771
  15 H :    0.306314

  Mayer bond orders larger than 0.100000
B(  0-C ,  1-H ) :   0.9194 B(  0-C ,  2-O ) :   1.0091 B(  0-C ,  3-C ) :   0.9762
B(  0-C , 10-H ) :   0.8959 B(  2-O ,  9-H ) :   0.7973 B(  3-C ,  4-H ) :   0.9215
B(  3-C ,  5-H ) :   0.9144 B(  3-C ,  6-C ) :   0.9722 B(  6-C ,  7-H ) :   0.9177
B(  6-C ,  8-H ) :   0.9124 B(  6-C , 11-C ) :   0.9605 B( 11-C , 12-H ) :   0.9160
B( 11-C , 13-H ) :   0.9148 B( 11-C , 14-O ) :   1.0138 B( 14-O , 15-H ) :   0.7932

Dispersion correction           -0.006691181
FINAL SINGLE POINT ENERGY      -308.206253659396

DIPOLE MOMENT
-------------
                                X             Y             Z
Electronic contribution:     -1.55255      -2.43314      -0.15011
Nuclear contribution   :      2.24251       2.88623       0.14592
                        -----------------------------------------
Total Dipole Moment    :      0.68995       0.45309      -0.00420
                        -----------------------------------------
Magnitude (a.u.)       :      0.82544
Magnitude (Debye)      :      2.09809

Rotational constants in cm-1:     0.214379     0.060929     0.051267
Rotational constants in MHz :  6426.912269  1826.613566  1536.949059

                             ****ORCA TERMINATED NORMALLY****
TOTAL RUN TIME: 0 days 0 hours 1 minutes 27 seconds 946 msec
