                         Program Version 5.0.3 -  RELEASE  -
|  1> ! PBEh-3c def2/J TightSCF DefGrid3
|  2>
|  3> %maxcore 60000
|  4>
|  5> %pal
|  6> nprocs 4
|  7> end
|  8>
|  9> *xyzfile 0 1 13ts_1a.xyz
| 10>
| 11>                          ****END OF INPUT****

CARTESIAN COORDINATES (ANGSTROEM)
---------------------------------
  C      0.646439    0.662048    0.000000
  C      0.620592   -0.727353    0.000000
  O     -1.437620   -1.048034    0.000000
  N     -1.814313    0.126674    0.000000
  N     -1.282716    1.172894    0.000000
  H      0.879691    1.191362    0.915543
  H      0.879691    1.191362   -0.915543
  H      0.754118   -1.284476    0.917630
  H      0.754118   -1.284476   -0.917630

 Total Charge           Charge          ....    0
 Multiplicity           Mult            ....    1
 Number of Electrons    NEL             ....   38
 Basis Dimension        Dim             ....   83

ORBITAL ENERGIES
----------------

  NO   OCC          E(Eh)            E(eV)
   0   2.0000     -19.568534      -532.4869
   1   2.0000     -14.798395      -402.6848
   2   2.0000     -14.720482      -400.5647
   3   2.0000     -10.488114      -285.3961
   4   2.0000     -10.471760      -284.9511
   5   2.0000      -1.301706       -35.4212
   6   2.0000      -1.104386       -30.0519
   7   2.0000      -0.877362       -23.8742
   8   2.0000      -0.694047       -18.8860
   9   2.0000      -0.661060       -17.9884
  10   2.0000      -0.580638       -15.8000
  11   2.0000      -0.579981       -15.7821
  12   2.0000      -0.537721       -14.6321
  13   2.0000      -0.523823       -14.2539
  14   2.0000      -0.489662       -13.3244
  15   2.0000      -0.440358       -11.9827
  16   2.0000      -0.360870        -9.8198
  17   2.0000      -0.354565        -9.6482
  18   2.0000      -0.317310        -8.6344
  19   0.0000      -0.035802        -0.9742
  20   0.0000       0.028814         0.7841
  21   0.0000       0.071348         1.9415
  22   0.0000       0.150788         4.1031
  23   0.0000       0.174940         4.7603

MULLIKEN ATOMIC CHARGES
-----------------------
   0 C :   -0.496220
   1 C :   -0.389555
   2 O :   -0.326656
   3 N :    0.305847
   4 N :   -0.123458
   5 H :    0.258707
   6 H :    0.258707
   7 H :    0.256314
   8 H :    0.256314
Sum of atomic charges:   -0.0000000

LOEWDIN ATOMIC CHARGES
----------------------
   0 C :   -0.271580
   1 C :   -0.194588
   2 O :   -0.169707
   3 N :    0.135237
   4 N :   -0.081146
   5 H :    0.145901
   6 H :    0.145901
   7 H :    0.144991
   8 H :    0.144991

  Mayer bond orders larger than 0.100000
B(  0-C ,  1-C ) :   1.4486 B(  0-C ,  4-N ) :   0.4678 B(  0-C ,  5-H ) :   0.9085
B(  0-C ,  6-H ) :   0.9085 B(  1-C ,  2-O ) :   0.3586 B(  1-C ,  7-H ) :   0.9121
B(  1-C ,  8-H ) :   0.9121 B(  2-O ,  3-N ) :   1.4546 B(  2-O ,  4-N ) :   0.3054
B(  3-N ,  4-N ) :   2.1051

Dispersion correction           -0.003641006
FINAL SINGLE POINT ENERGY      -262.624612687474

DIPOLE MOMENT
-------------
                                X             Y             Z
Electronic contribution:     -4.78984       0.13120       0.00000
Nuclear contribution   :      5.53706      -0.20736       0.00000
                        -----------------------------------------
Total Dipole Moment    :      0.74722      -0.07616       0.00000
                        -----------------------------------------
Magnitude (a.u.)       :      0.75109
Magnitude (Debye)      :      1.90911

Rotational constants in cm-1:     0.289364     0.195647     0.122471
Rotational constants in MHz :  8674.902953  5865.354484  3671.579741

                             ****ORCA TERMINATED NORMALLY****
TOTAL RUN TIME: 0 days 0 hours 1 minutes 36 seconds 517 msec
