                         Program Version 5.0.3 -  RELEASE  -
|  1> ! PBEh-3c def2/J TightSCF DefGrid3
|  2>
|  3> %maxcore 60000
|  4>
|  5> %pal
|  6> nprocs 4
|  7> end
|  8>
|  9> *xyzfile 0 2 oh.xyz
| 10>
| 11>                          ****END OF INPUT****

CARTESIAN COORDINATES (ANGSTROEM)
---------------------------------
  O      0.000000    0.000000    0.484448
  H      0.000000    0.000000   -0.484448

 Total Charge           Charge          ....    0
 Multiplicity           Mult            ....    2
 Number of Electrons    NEL             ....    9
 Basis Dimension        Dim             ....   17

ORBITAL ENERGIES
----------------
                 SPIN UP ORBITALS
  NO   OCC          E(Eh)            E(eV)
   0   1.0000     -19.550354      -531.9922
   1   1.0000      -1.119446       -30.4617
   2   1.0000      -0.532925       -14.5016
   3   1.0000      -0.477902       -13.0044
   4   1.0000      -0.397430       -10.8146
   5   0.0000       0.133271         3.6265
   6   0.0000       0.888300        24.1719
   7   0.0000       0.910765        24.7832
   8   0.0000       0.962995        26.2044
   9   0.0000       1.026346        27.9283

                 SPIN DOWN ORBITALS
  NO   OCC          E(Eh)            E(eV)
   0   1.0000     -19.522391      -531.2313
   1   1.0000      -1.028520       -27.9874
   2   1.0000      -0.501657       -13.6508
   3   1.0000      -0.365504        -9.9459
   4   0.0000      -0.082612        -2.2480
   5   0.0000       0.144779         3.9396
   6   0.0000       0.899519        24.4772
   7   0.0000       0.982353        26.7312
   8   0.0000       1.037035        28.2192

MULLIKEN ATOMIC CHARGES AND SPIN POPULATIONS
--------------------------------------------
   0 O :   -0.420467    1.035589
   1 H :    0.420467   -0.035589
Sum of atomic charges         :   -0.0000000

LOEWDIN ATOMIC CHARGES AND SPIN POPULATIONS
-------------------------------------------
   0 O :   -0.290721    1.026108
   1 H :    0.290721   -0.026108

  Mayer bond orders larger than 0.100000
B(  0-O ,  1-H ) :   0.8028

Dispersion correction           -0.000087278
FINAL SINGLE POINT ENERGY       -75.573086921444

DIPOLE MOMENT
-------------
                                X             Y             Z
Electronic contribution:     -0.00000       0.00000       0.13308
Nuclear contribution   :      0.00000       0.00000      -0.85427
                        -----------------------------------------
Total Dipole Moment    :     -0.00000       0.00000      -0.72119
                        -----------------------------------------
Magnitude (a.u.)       :      0.72119
Magnitude (Debye)      :      1.83312

Rotational constants in cm-1:     0.000000    18.937235    18.937235
Rotational constants in MHz :     0.000000 567724.008661 567724.008661

                             ****ORCA TERMINATED NORMALLY****
TOTAL RUN TIME: 0 days 0 hours 0 minutes 38 seconds 398 msec
