                         Program Version 5.0.3 -  RELEASE  -
|  1> ! PBEh-3c def2/J TightSCF DefGrid3
|  2>
|  3> %maxcore 60000
|  4>
|  5> %pal
|  6> nprocs 4
|  7> end
|  8>
|  9> *xyzfile 0 1 h2o_5_ts.xyz
| 10>
| 11>                          ****END OF INPUT****

CARTESIAN COORDINATES (ANGSTROEM)
---------------------------------
  O     -0.035780   -0.636382    1.949889
  H     -0.035649    0.518096    1.612107
  O     -0.035780    1.658768    1.206823
  H      0.021069   -1.374305    0.995487
  O      0.072669   -2.052065    0.000000
  H      0.021069   -1.374305   -0.995487
  H      0.678573    2.159363    1.608860
  H     -0.816587   -0.829109    2.475892
  H      0.863288   -2.598008    0.000000
  O     -0.035780   -0.636382   -1.949889
  H      0.005498    1.708271    0.000000
  H     -0.816587   -0.829109   -2.475892
  O     -0.035780    1.658768   -1.206823
  H     -0.035649    0.518096   -1.612107
  H      0.678573    2.159363   -1.608860

 Total Charge           Charge          ....    0
 Multiplicity           Mult            ....    1
 Number of Electrons    NEL             ....   50
 Basis Dimension        Dim             ....   95

ORBITAL ENERGIES
----------------

  NO   OCC          E(Eh)            E(eV)
   0   2.0000     -19.468095      -529.7538
   1   2.0000     -19.467812      -529.7461
   2   2.0000     -19.467769      -529.7449
   3   2.0000     -19.466242      -529.7034
   4   2.0000     -19.466168      -529.7014
   5   2.0000      -1.117397       -30.4059
   6   2.0000      -1.094345       -29.7787
   7   2.0000      -1.093665       -29.7601
   8   2.0000      -1.052718       -28.6459
   9   2.0000      -1.051575       -28.6148
  10   2.0000      -0.596400       -16.2289
  11   2.0000      -0.587847       -15.9961
  12   2.0000      -0.587181       -15.9780
  13   2.0000      -0.586761       -15.9666
  14   2.0000      -0.584670       -15.9097
  15   2.0000      -0.492130       -13.3915
  16   2.0000      -0.483921       -13.1682
  17   2.0000      -0.417595       -11.3633
  18   2.0000      -0.410979       -11.1833
  19   2.0000      -0.383430       -10.4337
  20   2.0000      -0.353483        -9.6188
  21   2.0000      -0.351085        -9.5535
  22   2.0000      -0.350860        -9.5474
  23   2.0000      -0.342610        -9.3229
  24   2.0000      -0.324888        -8.8407
  25   0.0000       0.123281         3.3546
  26   0.0000       0.153984         4.1901
  27   0.0000       0.158460         4.3119
  28   0.0000       0.185416         5.0454
  29   0.0000       0.188054         5.1172

MULLIKEN ATOMIC CHARGES
-----------------------
   0 O :   -0.910459
   1 H :    0.489331
   2 O :   -0.906754
   3 H :    0.489911
   4 O :   -0.910159
   5 H :    0.489911
   6 H :    0.415819
   7 H :    0.422219
   8 H :    0.421209
   9 O :   -0.910459
  10 H :    0.488817
  11 H :    0.422219
  12 O :   -0.906754
  13 H :    0.489331
  14 H :    0.415819
Sum of atomic charges:   -0.0000000

LOEWDIN ATOMIC CHARGES
----------------------
   0 O :   -0.652553
   1 H :    0.348582
   2 O :   -0.653178
   3 H :    0.348794
   4 O :   -0.652428
   5 H :    0.348794
   6 H :    0.301282
   7 H :    0.306061
   8 H :    0.305308
   9 O :   -0.652553
  10 H :    0.349146
  11 H :    0.306061
  12 O :   -0.653178
  13 H :    0.348582
  14 H :    0.301282

  Mayer bond orders larger than 0.100000
B(  0-O ,  1-H ) :   0.3809 B(  0-O ,  3-H ) :   0.3780 B(  0-O ,  7-H ) :   0.7953
B(  1-H ,  2-O ) :   0.3770 B(  2-O ,  6-H ) :   0.7994 B(  2-O , 10-H ) :   0.3780
B(  3-H ,  4-O ) :   0.3792 B(  4-O ,  5-H ) :   0.3792 B(  4-O ,  8-H ) :   0.7957
B(  5-H ,  9-O ) :   0.3780 B(  9-O , 11-H ) :   0.7953 B(  9-O , 13-H ) :   0.3809
B( 10-H , 12-O ) :   0.3780 B( 12-O , 13-H ) :   0.3770 B( 12-O , 14-H ) :   0.7994

Dispersion correction           -0.004449812
FINAL SINGLE POINT ENERGY      -381.331433763994

DIPOLE MOMENT
-------------
                                X             Y             Z
Electronic contribution:     -0.08516      -0.03920      -0.00000
Nuclear contribution   :      0.58640       0.06071      -0.00000
                        -----------------------------------------
Total Dipole Moment    :      0.50124       0.02151      -0.00000
                        -----------------------------------------
Magnitude (a.u.)       :      0.50170
Magnitude (Debye)      :      1.27522

Rotational constants in cm-1:     0.085898     0.085814     0.043634
Rotational constants in MHz :  2575.158651  2572.650734  1308.118301

                             ****ORCA TERMINATED NORMALLY****
TOTAL RUN TIME: 0 days 0 hours 1 minutes 13 seconds 119 msec
