                         Program Version 5.0.3 -  RELEASE  -
|  1> ! PBEh-3c def2/J TightSCF DefGrid3
|  2>
|  3> %maxcore 60000
|  4>
|  5> %pal
|  6> nprocs 4
|  7> end
|  8>
|  9> *xyzfile 0 1 P26.xyz
| 10>
| 11>                          ****END OF INPUT****

CARTESIAN COORDINATES (ANGSTROEM)
---------------------------------
  C     -0.262860    0.402752    0.433597
  C      0.776831    1.338616   -0.144624
  C      1.174649    0.130030    0.044054
  C     -1.377859   -0.102391   -0.392630
  C      2.185895   -0.937271   -0.016300
  C     -2.571755   -0.457638    0.071705
  H      0.958769    2.343898   -0.478031
  H     -1.173100   -0.177613   -1.457589
  H      2.382725   -1.331283    0.983411
  H      1.821580   -1.771272   -0.619713
  H     -2.808297   -0.391968    1.127085
  H     -3.351201   -0.822312   -0.582553
  H      3.122844   -0.578310   -0.441880
  H     -0.502730    0.484268    1.494450

 Total Charge           Charge          ....    0
 Multiplicity           Mult            ....    1
 Number of Electrons    NEL             ....   44
 Basis Dimension        Dim             ....  106

ORBITAL ENERGIES
----------------

  NO   OCC          E(Eh)            E(eV)
   0   2.0000     -10.466527      -284.8087
   1   2.0000     -10.455854      -284.5183
   2   2.0000     -10.452500      -284.4270
   3   2.0000     -10.449589      -284.3478
   4   2.0000     -10.434765      -283.9444
   5   2.0000     -10.421239      -283.5763
   6   2.0000      -0.978247       -26.6194
   7   2.0000      -0.851337       -23.1661
   8   2.0000      -0.819685       -22.3048
   9   2.0000      -0.690260       -18.7829
  10   2.0000      -0.620029       -16.8719
  11   2.0000      -0.599840       -16.3225
  12   2.0000      -0.539155       -14.6711
  13   2.0000      -0.505179       -13.7466
  14   2.0000      -0.500390       -13.6163
  15   2.0000      -0.475853       -12.9486
  16   2.0000      -0.471732       -12.8365
  17   2.0000      -0.403078       -10.9683
  18   2.0000      -0.384801       -10.4710
  19   2.0000      -0.371759       -10.1161
  20   2.0000      -0.293145        -7.9769
  21   2.0000      -0.271982        -7.4010
  22   0.0000       0.031468         0.8563
  23   0.0000       0.069812         1.8997
  24   0.0000       0.161796         4.4027
  25   0.0000       0.175113         4.7651
  26   0.0000       0.184735         5.0269

MULLIKEN ATOMIC CHARGES
-----------------------
   0 C :   -0.292933
   1 C :   -0.263154
   2 C :    0.170334
   3 C :   -0.101899
   4 C :   -0.760937
   5 C :   -0.508737
   6 H :    0.210938
   7 H :    0.204902
   8 H :    0.240798
   9 H :    0.242532
  10 H :    0.205436
  11 H :    0.210902
  12 H :    0.236353
  13 H :    0.205466
Sum of atomic charges:   -0.0000000

LOEWDIN ATOMIC CHARGES
----------------------
   0 C :   -0.142564
   1 C :   -0.137213
   2 C :   -0.019412
   3 C :   -0.139110
   4 C :   -0.356187
   5 C :   -0.290007
   6 H :    0.144121
   7 H :    0.127460
   8 H :    0.148974
   9 H :    0.149699
  10 H :    0.126542
  11 H :    0.130309
  12 H :    0.143602
  13 H :    0.113786

  Mayer bond orders larger than 0.100000
B(  0-C ,  1-C ) :   0.9336 B(  0-C ,  2-C ) :   0.9062 B(  0-C ,  3-C ) :   1.0099
B(  0-C , 13-H ) :   0.9097 B(  1-C ,  2-C ) :   1.7884 B(  1-C ,  6-H ) :   0.9298
B(  2-C ,  4-C ) :   0.9787 B(  3-C ,  5-C ) :   1.9005 B(  3-C ,  7-H ) :   0.9216
B(  4-C ,  8-H ) :   0.9131 B(  4-C ,  9-H ) :   0.9131 B(  4-C , 12-H ) :   0.9204
B(  5-C , 10-H ) :   0.9313 B(  5-C , 11-H ) :   0.9302

Dispersion correction           -0.005848863
FINAL SINGLE POINT ENERGY      -232.818725974640

DIPOLE MOMENT
-------------
                                X             Y             Z
Electronic contribution:      0.05749       2.22483      -0.10280
Nuclear contribution   :      0.46468      -2.31477       0.02597
                        -----------------------------------------
Total Dipole Moment    :      0.52217      -0.08994      -0.07683
                        -----------------------------------------
Magnitude (a.u.)       :      0.53540
Magnitude (Debye)      :      1.36089

Rotational constants in cm-1:     0.276548     0.071040     0.061579
Rotational constants in MHz :  8290.707893  2129.734308  1846.106865

                             ****ORCA TERMINATED NORMALLY****
TOTAL RUN TIME: 0 days 0 hours 0 minutes 54 seconds 709 msec
