                         Program Version 5.0.3 -  RELEASE  -
|  1> ! PBEh-3c def2/J TightSCF DefGrid3
|  2>
|  3> %maxcore 60000
|  4>
|  5> %pal
|  6> nprocs 4
|  7> end
|  8>
|  9> *xyzfile 0 1 h4.xyz
| 10>
| 11>                          ****END OF INPUT****

CARTESIAN COORDINATES (ANGSTROEM)
---------------------------------
  C      0.296785    0.128402   -2.559754
  C      0.445546   -0.637657   -1.250647
  C      0.115139    0.177493    0.000000
  C      0.445546   -0.637657    1.250647
  C      0.296785    0.128402    2.559754
  C     -1.339947    0.633497    0.000000
  H      0.891510    1.042118   -2.541275
  H      0.634400   -0.470989   -3.403863
  H     -0.737643    0.407297   -2.750346
  H      1.472511   -1.000341   -1.164030
  H     -0.194009   -1.525357   -1.266731
  H      0.756939    1.066408    0.000000
  H      1.472511   -1.000341    1.164030
  H     -0.194009   -1.525357    1.266731
  H      0.891510    1.042118    2.541275
  H      0.634400   -0.470989    3.403863
  H     -0.737643    0.407297    2.750346
  H     -2.003916   -0.233885    0.000000
  H     -1.573207    1.234772   -0.876554
  H     -1.573207    1.234772    0.876554

 Total Charge           Charge          ....    0
 Multiplicity           Mult            ....    1
 Number of Electrons    NEL             ....   50
 Basis Dimension        Dim             ....  118

ORBITAL ENERGIES
----------------

  NO   OCC          E(Eh)            E(eV)
   0   2.0000     -10.433737      -283.9164
   1   2.0000     -10.425833      -283.7013
   2   2.0000     -10.425791      -283.7002
   3   2.0000     -10.418667      -283.5064
   4   2.0000     -10.418656      -283.5060
   5   2.0000     -10.416741      -283.4539
   6   2.0000      -0.908202       -24.7134
   7   2.0000      -0.836407       -22.7598
   8   2.0000      -0.790275       -21.5045
   9   2.0000      -0.730924       -19.8894
  10   2.0000      -0.669164       -18.2089
  11   2.0000      -0.621293       -16.9062
  12   2.0000      -0.528495       -14.3811
  13   2.0000      -0.515342       -14.0232
  14   2.0000      -0.488238       -13.2856
  15   2.0000      -0.471086       -12.8189
  16   2.0000      -0.449268       -12.2252
  17   2.0000      -0.443386       -12.0651
  18   2.0000      -0.422962       -11.5094
  19   2.0000      -0.412603       -11.2275
  20   2.0000      -0.399410       -10.8685
  21   2.0000      -0.381750       -10.3880
  22   2.0000      -0.362590        -9.8666
  23   2.0000      -0.358341        -9.7509
  24   2.0000      -0.353476        -9.6186
  25   0.0000       0.131247         3.5714
  26   0.0000       0.168074         4.5735
  27   0.0000       0.172917         4.7053
  28   0.0000       0.178080         4.8458
  29   0.0000       0.196209         5.3391

MULLIKEN ATOMIC CHARGES
-----------------------
   0 C :   -0.648368
   1 C :   -0.394584
   2 C :   -0.217418
   3 C :   -0.394585
   4 C :   -0.648368
   5 C :   -0.645238
   6 H :    0.208548
   7 H :    0.221073
   8 H :    0.212792
   9 H :    0.208967
  10 H :    0.200175
  11 H :    0.197213
  12 H :    0.208967
  13 H :    0.200175
  14 H :    0.208549
  15 H :    0.221073
  16 H :    0.212792
  17 H :    0.203033
  18 H :    0.222601
  19 H :    0.222601
Sum of atomic charges:    0.0000000

LOEWDIN ATOMIC CHARGES
----------------------
   0 C :   -0.363125
   1 C :   -0.238546
   2 C :   -0.159677
   3 C :   -0.238546
   4 C :   -0.363125
   5 C :   -0.355387
   6 H :    0.123436
   7 H :    0.127291
   8 H :    0.123255
   9 H :    0.120650
  10 H :    0.119068
  11 H :    0.115716
  12 H :    0.120650
  13 H :    0.119068
  14 H :    0.123436
  15 H :    0.127291
  16 H :    0.123255
  17 H :    0.122951
  18 H :    0.126169
  19 H :    0.126169

  Mayer bond orders larger than 0.100000
B(  0-C ,  1-C ) :   0.9962 B(  0-C ,  6-H ) :   0.9294 B(  0-C ,  7-H ) :   0.9309
B(  0-C ,  8-H ) :   0.9264 B(  1-C ,  2-C ) :   0.9846 B(  1-C ,  9-H ) :   0.9235
B(  1-C , 10-H ) :   0.9174 B(  2-C ,  3-C ) :   0.9846 B(  2-C ,  5-C ) :   0.9812
B(  2-C , 11-H ) :   0.9076 B(  3-C ,  4-C ) :   0.9962 B(  3-C , 12-H ) :   0.9235
B(  3-C , 13-H ) :   0.9174 B(  4-C , 14-H ) :   0.9294 B(  4-C , 15-H ) :   0.9309
B(  4-C , 16-H ) :   0.9264 B(  5-C , 17-H ) :   0.9273 B(  5-C , 18-H ) :   0.9258
B(  5-C , 19-H ) :   0.9258

Dispersion correction           -0.009323068
FINAL SINGLE POINT ENERGY      -236.562477316041

DIPOLE MOMENT
-------------
                                X             Y             Z
Electronic contribution:      0.71182      -0.55319       0.00000
Nuclear contribution   :     -0.67955       0.54270       0.00000
                        -----------------------------------------
Total Dipole Moment    :      0.03227      -0.01050       0.00000
                        -----------------------------------------
Magnitude (a.u.)       :      0.03393
Magnitude (Debye)      :      0.08624

Rotational constants in cm-1:     0.223746     0.062441     0.053756
Rotational constants in MHz :  6707.740446  1871.935303  1611.549375

                             ****ORCA TERMINATED NORMALLY****
TOTAL RUN TIME: 0 days 0 hours 1 minutes 5 seconds 964 msec
