                         Program Version 5.0.3 -  RELEASE  -
|  1> ! PBEh-3c def2/J TightSCF DefGrid3
|  2>
|  3> %maxcore 60000
|  4>
|  5> %pal
|  6> nprocs 4
|  7> end
|  8>
|  9> *xyzfile 0 1 H2O20fs.xyz
| 10>
| 11>                          ****END OF INPUT****

CARTESIAN COORDINATES (ANGSTROEM)
---------------------------------
  O     -0.467434   -1.415643    2.342483
  H     -0.510388   -0.532779    2.738351
  H     -1.154371   -1.413542    1.639060
  O     -1.180495   -4.411489   -2.021788
  H     -1.600595   -5.080500   -2.568406
  H     -1.629659   -4.444349   -1.130692
  O     -0.389082   -4.341619    2.364922
  H     -0.412232   -3.425437    2.678030
  H      0.495447   -4.451681    1.976641
  O     -2.370827   -1.401075    0.331739
  H     -2.768705   -0.519060    0.376439
  H     -1.900813   -1.431278   -0.531456
  O     -1.041222   -1.577343   -2.089865
  H     -0.074095   -1.547858   -1.918298
  H     -1.221083   -2.502889   -2.333427
  O      1.640303   -4.351985   -1.603097
  H      0.690764   -4.479118   -1.786460
  H      1.823443   -3.433249   -1.854859
  O     -2.332464   -4.319111    0.371066
  H     -1.674916   -4.416150    1.094567
  H     -2.663344   -3.413059    0.458713
  O      1.678740   -1.467658   -1.589550
  H      1.804249   -1.468381   -0.613522
  H      1.969128   -0.592186   -1.887104
  O      2.017779   -1.570024    1.145734
  H      1.134326   -1.536778    1.576431
  H      2.318717   -2.489902    1.254194
  O      2.182462   -4.393074    1.031174
  H      2.855435   -5.046347    1.238449
  H      2.003113   -4.462731    0.057371
  O     -0.415240    4.384251    2.287614
  H     -0.567983    5.065370    2.947930
  H     -1.112770    4.487654    1.603826
  O     -1.104661    1.276004   -2.078681
  H     -1.273794    0.386059   -2.427893
  H     -1.542140    1.297394   -1.198466
  O     -0.334342    1.482161    2.315784
  H      0.534803    1.410140    1.860664
  H     -0.379716    2.398601    2.629491
  O     -2.274991    4.376895    0.233996
  H     -1.798852    4.346289   -0.642755
  H     -2.981257    5.021348    0.137148
  O     -0.993382    4.143164   -2.084363
  H     -0.029885    4.270106   -2.002275
  H     -1.108788    3.221619   -2.368804
  O      1.634439    1.395429   -1.691829
  H      0.663806    1.360846   -1.841299
  H      1.893681    2.307681   -1.904030
  O     -2.321508    1.478516    0.392927
  H     -2.625009    2.400109    0.387831
  H     -1.619261    1.452532    1.081206
  O      1.814541    4.249110   -1.649936
  H      2.402091    4.890029   -2.058514
  H      1.980937    4.284310   -0.672115
  O      2.169295    4.132017    1.012479
  H      2.381020    3.201111    1.193355
  H      1.337287    4.300834    1.486628
  O      2.095811    1.269599    1.022727
  H      2.418326    0.376853    1.228476
  H      1.935362    1.270263    0.052036

 Total Charge           Charge          ....    0
 Multiplicity           Mult            ....    1
 Number of Electrons    NEL             ....  200
 Basis Dimension        Dim             ....  380

ORBITAL ENERGIES
----------------

  NO   OCC          E(Eh)            E(eV)
   0   2.0000     -19.516236      -531.0638
   1   2.0000     -19.511492      -530.9347
   2   2.0000     -19.502868      -530.7000
   3   2.0000     -19.489440      -530.3346
   4   2.0000     -19.489290      -530.3306
   5   2.0000     -19.488999      -530.3226
   6   2.0000     -19.488912      -530.3202
   7   2.0000     -19.488251      -530.3023
   8   2.0000     -19.487090      -530.2707
   9   2.0000     -19.486247      -530.2478
  10   2.0000     -19.484283      -530.1943
  11   2.0000     -19.483851      -530.1825
  12   2.0000     -19.482993      -530.1592
  13   2.0000     -19.482073      -530.1342
  14   2.0000     -19.481610      -530.1216
  15   2.0000     -19.480337      -530.0869
  16   2.0000     -19.479989      -530.0775
  17   2.0000     -19.467677      -529.7424
  18   2.0000     -19.458080      -529.4813
  19   2.0000     -19.455583      -529.4133
  20   2.0000      -1.142834       -31.0981
  21   2.0000      -1.130860       -30.7723
  22   2.0000      -1.128933       -30.7198
  23   2.0000      -1.124429       -30.5973
  24   2.0000      -1.117597       -30.4114
  25   2.0000      -1.116805       -30.3898
  26   2.0000      -1.114656       -30.3313
  27   2.0000      -1.111113       -30.2349
  28   2.0000      -1.109345       -30.1868
  29   2.0000      -1.105928       -30.0938
  30   2.0000      -1.104845       -30.0644
  31   2.0000      -1.103412       -30.0254
  32   2.0000      -1.100807       -29.9545
  33   2.0000      -1.098190       -29.8833
  34   2.0000      -1.096481       -29.8368
  35   2.0000      -1.089751       -29.6536
  36   2.0000      -1.088698       -29.6250
  37   2.0000      -1.086075       -29.5536
  38   2.0000      -1.080715       -29.4078
  39   2.0000      -1.070694       -29.1351
  40   2.0000      -0.626706       -17.0535
  41   2.0000      -0.616165       -16.7667
  42   2.0000      -0.612818       -16.6756
  43   2.0000      -0.604147       -16.4397
  44   2.0000      -0.603154       -16.4127
  45   2.0000      -0.599150       -16.3037
  46   2.0000      -0.598541       -16.2871
  47   2.0000      -0.597271       -16.2526
  48   2.0000      -0.596395       -16.2287
  49   2.0000      -0.594948       -16.1894
  50   2.0000      -0.587092       -15.9756
  51   2.0000      -0.585534       -15.9332
  52   2.0000      -0.584791       -15.9130
  53   2.0000      -0.584552       -15.9065
  54   2.0000      -0.582713       -15.8564
  55   2.0000      -0.579029       -15.7562
  56   2.0000      -0.577213       -15.7068
  57   2.0000      -0.569898       -15.5077
  58   2.0000      -0.561450       -15.2778
  59   2.0000      -0.559258       -15.2182
  60   2.0000      -0.513913       -13.9843
  61   2.0000      -0.513076       -13.9615
  62   2.0000      -0.495998       -13.4968
  63   2.0000      -0.494439       -13.4544
  64   2.0000      -0.478569       -13.0225
  65   2.0000      -0.474528       -12.9126
  66   2.0000      -0.473211       -12.8767
  67   2.0000      -0.467737       -12.7278
  68   2.0000      -0.460088       -12.5196
  69   2.0000      -0.452998       -12.3267
  70   2.0000      -0.452097       -12.3022
  71   2.0000      -0.449822       -12.2403
  72   2.0000      -0.447935       -12.1889
  73   2.0000      -0.439842       -11.9687
  74   2.0000      -0.433787       -11.8040
  75   2.0000      -0.430934       -11.7263
  76   2.0000      -0.419281       -11.4092
  77   2.0000      -0.417268       -11.3544
  78   2.0000      -0.413425       -11.2499
  79   2.0000      -0.399983       -10.8841
  80   2.0000      -0.396002       -10.7758
  81   2.0000      -0.395130       -10.7520
  82   2.0000      -0.387928       -10.5561
  83   2.0000      -0.377446       -10.2708
  84   2.0000      -0.377157       -10.2630
  85   2.0000      -0.374834       -10.1998
  86   2.0000      -0.374073       -10.1790
  87   2.0000      -0.373615       -10.1666
  88   2.0000      -0.372196       -10.1280
  89   2.0000      -0.371580       -10.1112
  90   2.0000      -0.370174       -10.0729
  91   2.0000      -0.369610       -10.0576
  92   2.0000      -0.368773       -10.0348
  93   2.0000      -0.366821        -9.9817
  94   2.0000      -0.366735        -9.9794
  95   2.0000      -0.364533        -9.9194
  96   2.0000      -0.363240        -9.8843
  97   2.0000      -0.353667        -9.6238
  98   2.0000      -0.346989        -9.4420
  99   2.0000      -0.337667        -9.1884
 100   0.0000       0.070359         1.9146
 101   0.0000       0.097492         2.6529
 102   0.0000       0.111851         3.0436
 103   0.0000       0.118606         3.2274
 104   0.0000       0.132897         3.6163

MULLIKEN ATOMIC CHARGES
-----------------------
   0 O :   -0.902685
   1 H :    0.453113
   2 H :    0.453285
   3 O :   -0.888500
   4 H :    0.428290
   5 H :    0.465959
   6 O :   -0.885570
   7 H :    0.438682
   8 H :    0.439084
   9 O :   -0.903441
  10 H :    0.453391
  11 H :    0.449504
  12 O :   -0.917574
  13 H :    0.450200
  14 H :    0.454071
  15 O :   -0.895426
  16 H :    0.448473
  17 H :    0.446346
  18 O :   -0.899913
  19 H :    0.453890
  20 H :    0.442343
  21 O :   -0.907544
  22 H :    0.451135
  23 H :    0.456541
  24 O :   -0.919191
  25 H :    0.451380
  26 H :    0.455467
  27 O :   -0.883881
  28 H :    0.429032
  29 H :    0.464156
  30 O :   -0.872672
  31 H :    0.431780
  32 H :    0.461580
  33 O :   -0.910908
  34 H :    0.461457
  35 H :    0.451083
  36 O :   -0.907935
  37 H :    0.450928
  38 H :    0.446584
  39 O :   -0.888369
  40 H :    0.468968
  41 H :    0.431186
  42 O :   -0.898392
  43 H :    0.450792
  44 H :    0.452206
  45 O :   -0.913032
  46 H :    0.450235
  47 H :    0.451082
  48 O :   -0.908249
  49 H :    0.446080
  50 H :    0.450017
  51 O :   -0.884862
  52 H :    0.431748
  53 H :    0.464535
  54 O :   -0.893157
  55 H :    0.451363
  56 H :    0.443949
  57 O :   -0.912525
  58 H :    0.461926
  59 H :    0.451986
Sum of atomic charges:    0.0000000

LOEWDIN ATOMIC CHARGES
----------------------
   0 O :   -0.607792
   1 H :    0.310267
   2 H :    0.301112
   3 O :   -0.611775
   4 H :    0.310224
   5 H :    0.308510
   6 O :   -0.608856
   7 H :    0.301016
   8 H :    0.296434
   9 O :   -0.608929
  10 H :    0.309358
  11 H :    0.299343
  12 O :   -0.619726
  13 H :    0.299433
  14 H :    0.306400
  15 O :   -0.608490
  16 H :    0.300967
  17 H :    0.304342
  18 O :   -0.611422
  19 H :    0.304209
  20 H :    0.303707
  21 O :   -0.609907
  22 H :    0.300119
  23 H :    0.310496
  24 O :   -0.619373
  25 H :    0.300234
  26 H :    0.306428
  27 O :   -0.606996
  28 H :    0.310808
  29 H :    0.307184
  30 O :   -0.596425
  31 H :    0.312870
  32 H :    0.304934
  33 O :   -0.611167
  34 H :    0.313178
  35 H :    0.299849
  36 O :   -0.614815
  37 H :    0.299928
  38 H :    0.303962
  39 O :   -0.608822
  40 H :    0.310136
  41 H :    0.312253
  42 O :   -0.606136
  43 H :    0.301850
  44 H :    0.307360
  45 O :   -0.615783
  46 H :    0.299570
  47 H :    0.305011
  48 O :   -0.614623
  49 H :    0.304064
  50 H :    0.299940
  51 O :   -0.606121
  52 H :    0.312562
  53 H :    0.307252
  54 O :   -0.605735
  55 H :    0.306577
  56 H :    0.299427
  57 O :   -0.611523
  58 H :    0.312759
  59 H :    0.300346

  Mayer bond orders larger than 0.100000
B(  0-O ,  1-H ) :   0.7311 B(  0-O ,  2-H ) :   0.6644 B(  0-O , 25-H ) :   0.1527
B(  2-H ,  9-O ) :   0.1508 B(  3-O ,  4-H ) :   0.7954 B(  3-O ,  5-H ) :   0.6152
B(  3-O , 14-H ) :   0.1073 B(  3-O , 16-H ) :   0.1157 B(  5-H , 18-O ) :   0.1927
B(  6-O ,  7-H ) :   0.7426 B(  6-O ,  8-H ) :   0.7203 B(  6-O , 19-H ) :   0.1476
B(  8-H , 27-O ) :   0.1029 B(  9-O , 10-H ) :   0.7296 B(  9-O , 11-H ) :   0.6638
B( 11-H , 12-O ) :   0.1543 B( 12-O , 13-H ) :   0.6679 B( 12-O , 14-H ) :   0.7022
B( 13-H , 21-O ) :   0.1501 B( 15-O , 16-H ) :   0.7026 B( 15-O , 17-H ) :   0.7291
B( 15-O , 29-H ) :   0.1772 B( 18-O , 19-H ) :   0.6737 B( 18-O , 20-H ) :   0.7387
B( 21-O , 22-H ) :   0.6598 B( 21-O , 23-H ) :   0.7237 B( 22-H , 24-O ) :   0.1571
B( 24-O , 25-H ) :   0.6645 B( 24-O , 26-H ) :   0.6997 B( 26-H , 27-O ) :   0.1084
B( 27-O , 28-H ) :   0.7950 B( 27-O , 29-H ) :   0.6314 B( 30-O , 31-H ) :   0.7932
B( 30-O , 32-H ) :   0.6670 B( 30-O , 56-H ) :   0.1037 B( 32-H , 39-O ) :   0.1372
B( 33-O , 34-H ) :   0.7151 B( 33-O , 35-H ) :   0.6628 B( 33-O , 46-H ) :   0.1505
B( 35-H , 48-O ) :   0.1534 B( 36-O , 37-H ) :   0.6641 B( 36-O , 38-H ) :   0.7247
B( 36-O , 50-H ) :   0.1543 B( 37-H , 57-O ) :   0.1535 B( 39-O , 40-H ) :   0.6148
B( 39-O , 41-H ) :   0.7938 B( 40-H , 42-O ) :   0.1903 B( 42-O , 43-H ) :   0.6997
B( 42-O , 44-H ) :   0.7199 B( 43-H , 51-O ) :   0.1159 B( 45-O , 46-H ) :   0.6669
B( 45-O , 47-H ) :   0.7103 B( 45-O , 59-H ) :   0.1559 B( 48-O , 49-H ) :   0.7221
B( 48-O , 50-H ) :   0.6653 B( 51-O , 52-H ) :   0.7928 B( 51-O , 53-H ) :   0.6309
B( 53-H , 54-O ) :   0.1769 B( 54-O , 55-H ) :   0.7198 B( 54-O , 56-H ) :   0.7153
B( 57-O , 58-H ) :   0.7126 B( 57-O , 59-H ) :   0.6598

Dispersion correction           -0.028829179
FINAL SINGLE POINT ENERGY     -1525.559501041332

DIPOLE MOMENT
-------------
                                X             Y             Z
Electronic contribution:      0.01914       0.06048       0.01496
Nuclear contribution   :     -0.01928       2.65159      -0.10871
                        -----------------------------------------
Total Dipole Moment    :     -0.00014       2.71207      -0.09376
                        -----------------------------------------
Magnitude (a.u.)       :      2.71369
Magnitude (Debye)      :      6.89765

Rotational constants in cm-1:     0.008401     0.003574     0.003545
Rotational constants in MHz :   251.866664   107.140456   106.290274

                             ****ORCA TERMINATED NORMALLY****
TOTAL RUN TIME: 0 days 0 hours 5 minutes 8 seconds 788 msec
