                         Program Version 5.0.3 -  RELEASE  -
|  1> ! PBEh-3c def2/J TightSCF DefGrid3
|  2>
|  3> %maxcore 60000
|  4>
|  5> %pal
|  6> nprocs 4
|  7> end
|  8>
|  9> *xyzfile 0 1 25.xyz
| 10>
| 11>                          ****END OF INPUT****

CARTESIAN COORDINATES (ANGSTROEM)
---------------------------------
  N      1.667601    0.151920   -2.052050
  C      1.064479   -1.005789   -1.751043
  H      1.708758   -1.874810   -1.693223
  C     -0.303039   -1.131448   -1.514608
  H     -0.723305   -2.094366   -1.262005
  C     -1.100686    0.003928   -1.600171
  H     -2.165570   -0.053091   -1.422126
  C     -0.492009    1.214783   -1.915674
  H     -1.066693    2.126871   -1.996031
  C      0.883667    1.237076   -2.127809
  H      1.383551    2.166165   -2.374096
  N     -0.438604   -1.618491    2.048575
  C     -1.371082   -0.657861    2.122426
  H     -2.373871   -0.988816    2.364619
  C     -1.109079    0.693207    1.913047
  H     -1.907636    1.417712    1.991318
  C      0.190349    1.082448    1.602778
  H      0.432333    2.121447    1.426907
  C      1.169908    0.099550    1.519417
  H      2.192209    0.346296    1.270980
  C      0.807428   -1.225588    1.752610
  H      1.551289   -2.011142    1.696161

 Total Charge           Charge          ....    0
 Multiplicity           Mult            ....    1
 Number of Electrons    NEL             ....   84
 Basis Dimension        Dim             ....  200

ORBITAL ENERGIES
----------------

  NO   OCC          E(Eh)            E(eV)
   0   2.0000     -14.638475      -398.3332
   1   2.0000     -14.638413      -398.3315
   2   2.0000     -10.481478      -285.2155
   3   2.0000     -10.481422      -285.2140
   4   2.0000     -10.480801      -285.1971
   5   2.0000     -10.480731      -285.1952
   6   2.0000     -10.467784      -284.8429
   7   2.0000     -10.467720      -284.8411
   8   2.0000     -10.457257      -284.5564
   9   2.0000     -10.457188      -284.5546
  10   2.0000     -10.455402      -284.5060
  11   2.0000     -10.455328      -284.5039
  12   2.0000      -1.044845       -28.4317
  13   2.0000      -1.043439       -28.3934
  14   2.0000      -0.900058       -24.4918
  15   2.0000      -0.897937       -24.4341
  16   2.0000      -0.852988       -23.2110
  17   2.0000      -0.851087       -23.1593
  18   2.0000      -0.707344       -19.2478
  19   2.0000      -0.707075       -19.2405
  20   2.0000      -0.707025       -19.2391
  21   2.0000      -0.706882       -19.2352
  22   2.0000      -0.599549       -16.3146
  23   2.0000      -0.597694       -16.2641
  24   2.0000      -0.544801       -14.8248
  25   2.0000      -0.544193       -14.8082
  26   2.0000      -0.534780       -14.5521
  27   2.0000      -0.534628       -14.5480
  28   2.0000      -0.489941       -13.3320
  29   2.0000      -0.488805       -13.3011
  30   2.0000      -0.466292       -12.6884
  31   2.0000      -0.465085       -12.6556
  32   2.0000      -0.464840       -12.6490
  33   2.0000      -0.442675       -12.0458
  34   2.0000      -0.419312       -11.4101
  35   2.0000      -0.418811       -11.3964
  36   2.0000      -0.335370        -9.1259
  37   2.0000      -0.327482        -8.9112
  38   2.0000      -0.313082        -8.5194
  39   2.0000      -0.312509        -8.5038
  40   2.0000      -0.308794        -8.4027
  41   2.0000      -0.295281        -8.0350
  42   0.0000      -0.004097        -0.1115
  43   0.0000      -0.000413        -0.0112
  44   0.0000       0.008007         0.2179
  45   0.0000       0.013957         0.3798
  46   0.0000       0.144004         3.9186

MULLIKEN ATOMIC CHARGES
-----------------------
   0 N :   -0.362986
   1 C :   -0.042441
   2 H :    0.231760
   3 C :   -0.287008
   4 H :    0.241874
   5 C :   -0.128424
   6 H :    0.233681
   7 C :   -0.296409
   8 H :    0.227307
   9 C :   -0.046682
  10 H :    0.229245
  11 N :   -0.362949
  12 C :   -0.046728
  13 H :    0.229257
  14 C :   -0.296315
  15 H :    0.227346
  16 C :   -0.128401
  17 H :    0.233755
  18 C :   -0.286836
  19 H :    0.241716
  20 C :   -0.042563
  21 H :    0.231802
Sum of atomic charges:   -0.0000000

LOEWDIN ATOMIC CHARGES
----------------------
   0 N :   -0.144138
   1 C :   -0.056600
   2 H :    0.128851
   3 C :   -0.155221
   4 H :    0.146330
   5 C :   -0.098415
   6 H :    0.140644
   7 C :   -0.166171
   8 H :    0.139648
   9 C :   -0.062808
  10 H :    0.127791
  11 N :   -0.144109
  12 C :   -0.062843
  13 H :    0.127789
  14 C :   -0.166055
  15 H :    0.139664
  16 C :   -0.098371
  17 H :    0.140689
  18 C :   -0.155186
  19 H :    0.146286
  20 C :   -0.056638
  21 H :    0.128863

  Mayer bond orders larger than 0.100000
B(  0-N ,  1-C ) :   1.4963 B(  0-N ,  9-C ) :   1.4944 B(  1-C ,  2-H ) :   0.9173
B(  1-C ,  3-C ) :   1.3790 B(  3-C ,  4-H ) :   0.9080 B(  3-C ,  5-C ) :   1.4229
B(  5-C ,  6-H ) :   0.9180 B(  5-C ,  7-C ) :   1.4066 B(  7-C ,  8-H ) :   0.9145
B(  7-C ,  9-C ) :   1.3889 B(  9-C , 10-H ) :   0.9185 B( 11-N , 12-C ) :   1.4943
B( 11-N , 20-C ) :   1.4963 B( 12-C , 13-H ) :   0.9185 B( 12-C , 14-C ) :   1.3889
B( 14-C , 15-H ) :   0.9145 B( 14-C , 16-C ) :   1.4066 B( 16-C , 17-H ) :   0.9180
B( 16-C , 18-C ) :   1.4229 B( 18-C , 19-H ) :   0.9081 B( 18-C , 20-C ) :   1.3790
B( 20-C , 21-H ) :   0.9173

Dispersion correction           -0.014774105
FINAL SINGLE POINT ENERGY      -495.464791209959

DIPOLE MOMENT
-------------
                                X             Y             Z
Electronic contribution:      1.04567      -1.24733      -0.00161
Nuclear contribution   :     -1.68087       2.00584       0.00438
                        -----------------------------------------
Total Dipole Moment    :     -0.63520       0.75852       0.00276
                        -----------------------------------------
Magnitude (a.u.)       :      0.98936
Magnitude (Debye)      :      2.51476

Rotational constants in cm-1:     0.054552     0.023676     0.022757
Rotational constants in MHz :  1635.425667   709.774302   682.251601

                             ****ORCA TERMINATED NORMALLY****
TOTAL RUN TIME: 0 days 0 hours 2 minutes 27 seconds 438 msec
