                         Program Version 5.0.3 -  RELEASE  -
|  1> ! PBEh-3c def2/J TightSCF DefGrid3
|  2>
|  3> %maxcore 60000
|  4>
|  5> %pal
|  6> nprocs 4
|  7> end
|  8>
|  9> *xyzfile 0 1 co.xyz
| 10>
| 11>                          ****END OF INPUT****

CARTESIAN COORDINATES (ANGSTROEM)
---------------------------------
  C     -0.646250    0.000000    0.000000
  O      0.485150    0.000000    0.000000

 Total Charge           Charge          ....    0
 Multiplicity           Mult            ....    1
 Number of Electrons    NEL             ....   14
 Basis Dimension        Dim             ....   30

ORBITAL ENERGIES
----------------

  NO   OCC          E(Eh)            E(eV)
   0   2.0000     -19.605482      -533.4923
   1   2.0000     -10.568726      -287.5897
   2   2.0000      -1.276625       -34.7387
   3   2.0000      -0.648141       -17.6368
   4   2.0000      -0.532655       -14.4943
   5   2.0000      -0.532655       -14.4943
   6   2.0000      -0.432995       -11.7824
   7   0.0000       0.014620         0.3978
   8   0.0000       0.014620         0.3978
   9   0.0000       0.286917         7.8074
  10   0.0000       0.507319        13.8049
  11   0.0000       0.507319        13.8049

MULLIKEN ATOMIC CHARGES
-----------------------
   0 C :    0.141161
   1 O :   -0.141161
Sum of atomic charges:    0.0000000

LOEWDIN ATOMIC CHARGES
----------------------
   0 C :   -0.020125
   1 O :    0.020125

  Mayer bond orders larger than 0.100000
B(  0-C ,  1-O ) :   2.4970

Dispersion correction           -0.000210083
FINAL SINGLE POINT ENERGY      -113.065970866869

DIPOLE MOMENT
-------------
                                X             Y             Z
Electronic contribution:     -0.00065       0.00000       0.00000
Nuclear contribution   :      0.00718       0.00000       0.00000
                        -----------------------------------------
Total Dipole Moment    :      0.00653       0.00000       0.00000
                        -----------------------------------------
Magnitude (a.u.)       :      0.00653
Magnitude (Debye)      :      0.01660

Rotational constants in cm-1:     0.000000     1.919578     1.919578
Rotational constants in MHz :     0.000000 57547.486352 57547.486352

                             ****ORCA TERMINATED NORMALLY****
TOTAL RUN TIME: 0 days 0 hours 0 minutes 44 seconds 635 msec
