                         Program Version 5.0.3 -  RELEASE  -
|  1> ! PBEh-3c def2/J TightSCF DefGrid3
|  2>
|  3> %maxcore 60000
|  4>
|  5> %pal
|  6> nprocs 4
|  7> end
|  8>
|  9> *xyzfile 0 1 27_CH3Br-benB.xyz
| 10>
| 11>                          ****END OF INPUT****

CARTESIAN COORDINATES (ANGSTROEM)
---------------------------------
  Br    -0.037667   -3.295073    1.773240
  C      0.090914   -5.222622    1.868972
  H      0.022220   -5.618701    0.863215
  H      1.044381   -5.477357    2.315267
  H     -0.725846   -5.587601    2.479578

 Total Charge           Charge          ....    0
 Multiplicity           Mult            ....    1
 Number of Electrons    NEL             ....   44
 Basis Dimension        Dim             ....   53

ORBITAL ENERGIES
----------------

  NO   OCC          E(Eh)            E(eV)
   0   2.0000    -484.515618    -13184.3402
   1   2.0000     -63.178994     -1719.1878
   2   2.0000     -56.883201     -1547.8706
   3   2.0000     -56.881035     -1547.8117
   4   2.0000     -56.881035     -1547.8117
   5   2.0000     -10.491933      -285.5000
   6   2.0000      -9.008125      -245.1236
   7   2.0000      -6.782742      -184.5678
   8   2.0000      -6.769947      -184.2196
   9   2.0000      -6.769946      -184.2196
  10   2.0000      -2.796294       -76.0910
  11   2.0000      -2.792406       -75.9852
  12   2.0000      -2.792405       -75.9852
  13   2.0000      -2.781412       -75.6861
  14   2.0000      -2.781411       -75.6860
  15   2.0000      -0.893667       -24.3179
  16   2.0000      -0.748636       -20.3714
  17   2.0000      -0.506672       -13.7872
  18   2.0000      -0.506655       -13.7868
  19   2.0000      -0.437570       -11.9069
  20   2.0000      -0.323645        -8.8068
  21   2.0000      -0.323633        -8.8065
  22   0.0000       0.037941         1.0324
  23   0.0000       0.156357         4.2547
  24   0.0000       0.187602         5.1049
  25   0.0000       0.187622         5.1055
  26   0.0000       0.384690        10.4680

MULLIKEN ATOMIC CHARGES
-----------------------
   0 Br:   -0.095026
   1 C :   -0.697613
   2 H :    0.264209
   3 H :    0.264215
   4 H :    0.264216
Sum of atomic charges:    0.0000000

LOEWDIN ATOMIC CHARGES
----------------------
   0 Br:   -0.022521
   1 C :   -0.407806
   2 H :    0.143442
   3 H :    0.143444
   4 H :    0.143442

  Mayer bond orders larger than 0.100000
B(  0-Br,  1-C ) :   1.0168 B(  1-C ,  2-H ) :   0.8965 B(  1-C ,  3-H ) :   0.8965
B(  1-C ,  4-H ) :   0.8965

Dispersion correction           -0.001206385
FINAL SINGLE POINT ENERGY     -2612.827350564250

DIPOLE MOMENT
-------------
                                X             Y             Z
Electronic contribution:     -0.51131       7.66208      -0.38109
Nuclear contribution   :      0.56214      -8.42316       0.41904
                        -----------------------------------------
Total Dipole Moment    :      0.05083      -0.76108       0.03795
                        -----------------------------------------
Magnitude (a.u.)       :      0.76372
Magnitude (Debye)      :      1.94121

Rotational constants in cm-1:     5.270510     0.320351     0.320349
Rotational constants in MHz : 158005.926603  9603.879919  9603.835010

                             ****ORCA TERMINATED NORMALLY****
TOTAL RUN TIME: 0 days 0 hours 1 minutes 8 seconds 286 msec
