                         Program Version 5.0.3 -  RELEASE  -
|  1> ! PBEh-3c def2/J TightSCF DefGrid3
|  2>
|  3> %maxcore 60000
|  4>
|  5> %pal
|  6> nprocs 4
|  7> end
|  8>
|  9> *xyzfile 0 1 P45.xyz
| 10>
| 11>                          ****END OF INPUT****

CARTESIAN COORDINATES (ANGSTROEM)
---------------------------------
  C     -0.618803   -0.006859    0.498850
  C     -1.678624    1.051362   -0.007396
  C     -1.647534   -1.042477    0.056498
  C     -2.537244   -0.142667   -0.363785
  H     -2.065763    1.712263    0.770219
  C      0.695731   -0.015194   -0.201444
  H      0.650263   -0.041780   -1.288097
  C      1.881539   -0.000387    0.397695
  H      1.913372    0.021181    1.484047
  H     -1.628031   -2.123784    0.081358
  H     -3.524531   -0.221021   -0.798246
  H     -1.333551    1.659019   -0.845174
  C      3.202890   -0.010480   -0.303612
  H      3.078775   -0.032146   -1.386377
  H      3.793568    0.872871   -0.046611
  H      3.798665   -0.879601   -0.012197
  H     -0.470503    0.033215    1.580245

 Total Charge           Charge          ....    0
 Multiplicity           Mult            ....    1
 Number of Electrons    NEL             ....   52
 Basis Dimension        Dim             ....  125

ORBITAL ENERGIES
----------------

  NO   OCC          E(Eh)            E(eV)
   0   2.0000     -10.448671      -284.3228
   1   2.0000     -10.442040      -284.1424
   2   2.0000     -10.440062      -284.0885
   3   2.0000     -10.439006      -284.0598
   4   2.0000     -10.438588      -284.0484
   5   2.0000     -10.434256      -283.9305
   6   2.0000     -10.428971      -283.7867
   7   2.0000      -0.959674       -26.1141
   8   2.0000      -0.879060       -23.9204
   9   2.0000      -0.789533       -21.4843
  10   2.0000      -0.731872       -19.9153
  11   2.0000      -0.701503       -19.0889
  12   2.0000      -0.620246       -16.8778
  13   2.0000      -0.582585       -15.8530
  14   2.0000      -0.563168       -15.3246
  15   2.0000      -0.525971       -14.3124
  16   2.0000      -0.473466       -12.8837
  17   2.0000      -0.466196       -12.6858
  18   2.0000      -0.459695       -12.5089
  19   2.0000      -0.441689       -12.0190
  20   2.0000      -0.415274       -11.3002
  21   2.0000      -0.388924       -10.5832
  22   2.0000      -0.384467       -10.4619
  23   2.0000      -0.363721        -9.8974
  24   2.0000      -0.297994        -8.1088
  25   2.0000      -0.278105        -7.5676
  26   0.0000       0.039788         1.0827
  27   0.0000       0.063179         1.7192
  28   0.0000       0.165072         4.4918
  29   0.0000       0.167459         4.5568
  30   0.0000       0.171448         4.6653

MULLIKEN ATOMIC CHARGES
-----------------------
   0 C :   -0.352070
   1 C :   -0.429694
   2 C :   -0.151984
   3 C :   -0.210655
   4 H :    0.226589
   5 C :   -0.127062
   6 H :    0.205075
   7 C :   -0.207174
   8 H :    0.203798
   9 H :    0.203879
  10 H :    0.201960
  11 H :    0.225966
  12 C :   -0.684933
  13 H :    0.222625
  14 H :    0.223481
  15 H :    0.223598
  16 H :    0.226599
Sum of atomic charges:    0.0000000

LOEWDIN ATOMIC CHARGES
----------------------
   0 C :   -0.127997
   1 C :   -0.218260
   2 C :   -0.135686
   3 C :   -0.138834
   4 H :    0.128386
   5 C :   -0.149485
   6 H :    0.127072
   7 C :   -0.156842
   8 H :    0.124735
   9 H :    0.125150
  10 H :    0.122934
  11 H :    0.128372
  12 C :   -0.357807
  13 H :    0.131736
  14 H :    0.133660
  15 H :    0.133672
  16 H :    0.129195

  Mayer bond orders larger than 0.100000
B(  0-C ,  1-C ) :   0.9413 B(  0-C ,  2-C ) :   0.9999 B(  0-C ,  5-C ) :   0.9809
B(  0-C , 16-H ) :   0.9067 B(  1-C ,  3-C ) :   1.0103 B(  1-C ,  4-H ) :   0.9105
B(  1-C , 11-H ) :   0.9123 B(  2-C ,  3-C ) :   1.8579 B(  2-C ,  9-H ) :   0.9279
B(  3-C , 10-H ) :   0.9288 B(  5-C ,  6-H ) :   0.9170 B(  5-C ,  7-C ) :   1.8872
B(  7-C ,  8-H ) :   0.9220 B(  7-C , 12-C ) :   0.9950 B( 12-C , 13-H ) :   0.9309
B( 12-C , 14-H ) :   0.9172 B( 12-C , 15-H ) :   0.9174

Dispersion correction           -0.007796127
FINAL SINGLE POINT ENERGY      -272.078011874641

DIPOLE MOMENT
-------------
                                X             Y             Z
Electronic contribution:     -4.29668      -0.99387       0.48865
Nuclear contribution   :      4.36897       1.03743      -0.47798
                        -----------------------------------------
Total Dipole Moment    :      0.07229       0.04356       0.01068
                        -----------------------------------------
Magnitude (a.u.)       :      0.08507
Magnitude (Debye)      :      0.21624

Rotational constants in cm-1:     0.296468     0.041893     0.039908
Rotational constants in MHz :  8887.895580  1255.919378  1196.407596

                             ****ORCA TERMINATED NORMALLY****
TOTAL RUN TIME: 0 days 0 hours 0 minutes 55 seconds 983 msec
