                         Program Version 5.0.3 -  RELEASE  -
|  1> ! PBEh-3c def2/J TightSCF DefGrid3
|  2>
|  3> %maxcore 60000
|  4>
|  5> %pal
|  6> nprocs 4
|  7> end
|  8>
|  9> *xyzfile -1 2 EA_15.xyz
| 10>
| 11>                          ****END OF INPUT****

CARTESIAN COORDINATES (ANGSTROEM)
---------------------------------
  Si     0.000000    0.000000    0.721266
  H      1.119648    0.000000   -0.360633
  H     -1.119648    0.000000   -0.360633

 Total Charge           Charge          ....   -1
 Multiplicity           Mult            ....    2
 Number of Electrons    NEL             ....   17
 Basis Dimension        Dim             ....   22

ORBITAL ENERGIES
----------------
                 SPIN UP ORBITALS
  NO   OCC          E(Eh)            E(eV)
   0   1.0000     -66.457745     -1808.4072
   1   1.0000      -5.233484      -142.4103
   2   1.0000      -3.528994       -96.0288
   3   1.0000      -3.522723       -95.8582
   4   1.0000      -3.521121       -95.8146
   5   1.0000      -0.304386        -8.2828
   6   1.0000      -0.117499        -3.1973
   7   1.0000      -0.025101        -0.6830
   8   1.0000       0.030848         0.8394
   9   0.0000       0.300828         8.1860
  10   0.0000       0.371242        10.1020
  11   0.0000       0.403895        10.9905
  12   0.0000       0.668556        18.1923
  13   0.0000       0.682016        18.5586

                 SPIN DOWN ORBITALS
  NO   OCC          E(Eh)            E(eV)
   0   1.0000     -66.454868     -1808.3289
   1   1.0000      -5.230123      -142.3189
   2   1.0000      -3.520748       -95.8044
   3   1.0000      -3.519461       -95.7694
   4   1.0000      -3.517244       -95.7091
   5   1.0000      -0.277221        -7.5436
   6   1.0000      -0.113936        -3.1004
   7   1.0000      -0.009283        -0.2526
   8   0.0000       0.199353         5.4247
   9   0.0000       0.308528         8.3955
  10   0.0000       0.395552        10.7635
  11   0.0000       0.428724        11.6662
  12   0.0000       0.676123        18.3982

MULLIKEN ATOMIC CHARGES AND SPIN POPULATIONS
--------------------------------------------
   0 Si:   -0.723365    1.080334
   1 H :   -0.138318   -0.040167
   2 H :   -0.138318   -0.040167
Sum of atomic charges         :   -1.0000000

LOEWDIN ATOMIC CHARGES AND SPIN POPULATIONS
-------------------------------------------
   0 Si:   -0.789954    1.039972
   1 H :   -0.105023   -0.019986
   2 H :   -0.105023   -0.019986

  Mayer bond orders larger than 0.100000
B(  0-Si,  1-H ) :   0.9477 B(  0-Si,  2-H ) :   0.9477

Dispersion correction           -0.000446178
FINAL SINGLE POINT ENERGY      -290.269581077081

DIPOLE MOMENT
-------------
                                X             Y             Z
Electronic contribution:      0.00000      -0.00000       1.71353
Nuclear contribution   :      0.00000       0.00000      -1.89820
                        -----------------------------------------
Total Dipole Moment    :      0.00000      -0.00000      -0.18466
                        -----------------------------------------
Magnitude (a.u.)       :      0.18466
Magnitude (Debye)      :      0.46938

Rotational constants in cm-1:     7.656632     6.670271     3.564749
Rotational constants in MHz : 229540.041094 199969.708718 106868.482443

                             ****ORCA TERMINATED NORMALLY****
TOTAL RUN TIME: 0 days 0 hours 0 minutes 46 seconds 371 msec
