                         Program Version 5.0.3 -  RELEASE  -
|  1> ! PBEh-3c def2/J TightSCF DefGrid3
|  2>
|  3> %maxcore 60000
|  4>
|  5> %pal
|  6> nprocs 4
|  7> end
|  8>
|  9> *xyzfile 0 1 nh2cl.xyz
| 10>
| 11>                          ****END OF INPUT****

CARTESIAN COORDINATES (ANGSTROEM)
---------------------------------
  N     -1.193857    0.000000    0.078883
  H     -1.460069    0.808624   -0.475695
  H     -1.460069   -0.808624   -0.475695
  Cl     0.554684    0.000000   -0.004118

 Total Charge           Charge          ....    0
 Multiplicity           Mult            ....    1
 Number of Electrons    NEL             ....   26
 Basis Dimension        Dim             ....   37

ORBITAL ENERGIES
----------------

  NO   OCC          E(Eh)            E(eV)
   0   2.0000    -102.308362     -2783.9521
   1   2.0000     -14.685406      -399.6102
   2   2.0000      -9.774196      -265.9694
   3   2.0000      -7.463674      -203.0969
   4   2.0000      -7.452733      -202.7992
   5   2.0000      -7.452379      -202.7895
   6   2.0000      -1.036716       -28.2105
   7   2.0000      -0.836420       -22.7601
   8   2.0000      -0.578519       -15.7423
   9   2.0000      -0.508272       -13.8308
  10   2.0000      -0.425961       -11.5910
  11   2.0000      -0.359013        -9.7692
  12   2.0000      -0.309047        -8.4096
  13   0.0000       0.024274         0.6605
  14   0.0000       0.139912         3.8072
  15   0.0000       0.184584         5.0228
  16   0.0000       0.522450        14.2166
  17   0.0000       0.654036        17.7972

MULLIKEN ATOMIC CHARGES
-----------------------
   0 N :   -0.715362
   1 H :    0.361595
   2 H :    0.361595
   3 Cl:   -0.007827
Sum of atomic charges:    0.0000000

LOEWDIN ATOMIC CHARGES
----------------------
   0 N :   -0.516680
   1 H :    0.232367
   2 H :    0.232366
   3 Cl:    0.051947

  Mayer bond orders larger than 0.100000
B(  0-N ,  1-H ) :   0.8340 B(  0-N ,  2-H ) :   0.8340 B(  0-N ,  3-Cl) :   1.0063

Dispersion correction           -0.000830993
FINAL SINGLE POINT ENERGY      -515.485292439200

DIPOLE MOMENT
-------------
                                X             Y             Z
Electronic contribution:      3.00989      -0.00000       0.14981
Nuclear contribution   :     -3.49067       0.00000      -0.88661
                        -----------------------------------------
Total Dipole Moment    :     -0.48079      -0.00000      -0.73679
                        -----------------------------------------
Magnitude (a.u.)       :      0.87979
Magnitude (Debye)      :      2.23624

Rotational constants in cm-1:     9.052738     0.472021     0.462005
Rotational constants in MHz : 271394.248063 14150.841626 13850.568815

                             ****ORCA TERMINATED NORMALLY****
TOTAL RUN TIME: 0 days 0 hours 0 minutes 46 seconds 817 msec
