                         Program Version 5.0.3 -  RELEASE  -
|  1> ! PBEh-3c def2/J TightSCF DefGrid3
|  2>
|  3> %maxcore 60000
|  4>
|  5> %pal
|  6> nprocs 4
|  7> end
|  8>
|  9> *xyzfile 0 1 E8.xyz
| 10>
| 11>                          ****END OF INPUT****

CARTESIAN COORDINATES (ANGSTROEM)
---------------------------------
  C     -1.184554    0.054120    0.665255
  C     -1.184554    0.054120   -0.665255
  C      0.207008   -0.091638   -1.234056
  C      1.116864    0.140017    0.000000
  C      0.207008   -0.091638    1.234056
  H     -2.070353    0.110362    1.286795
  H     -2.070353    0.110362   -1.286795
  H      0.412617    0.615496   -2.042473
  H      0.343201   -1.094257   -1.658628
  H      1.998562   -0.502291    0.000000
  H      1.468735    1.174106    0.000000
  H      0.412617    0.615496    2.042473
  H      0.343201   -1.094257    1.658628

 Total Charge           Charge          ....    0
 Multiplicity           Mult            ....    1
 Number of Electrons    NEL             ....   38
 Basis Dimension        Dim             ....   91

ORBITAL ENERGIES
----------------

  NO   OCC          E(Eh)            E(eV)
   0   2.0000     -10.434431      -283.9353
   1   2.0000     -10.433944      -283.9221
   2   2.0000     -10.433856      -283.9197
   3   2.0000     -10.433406      -283.9074
   4   2.0000     -10.432387      -283.8797
   5   2.0000      -0.932103       -25.3638
   6   2.0000      -0.789223       -21.4759
   7   2.0000      -0.785066       -21.3627
   8   2.0000      -0.643095       -17.4995
   9   2.0000      -0.592528       -16.1235
  10   2.0000      -0.557505       -15.1705
  11   2.0000      -0.524252       -14.2656
  12   2.0000      -0.449721       -12.2375
  13   2.0000      -0.431143       -11.7320
  14   2.0000      -0.398068       -10.8320
  15   2.0000      -0.396186       -10.7808
  16   2.0000      -0.390908       -10.6371
  17   2.0000      -0.387352       -10.5404
  18   2.0000      -0.279266        -7.5992
  19   0.0000       0.056488         1.5371
  20   0.0000       0.147810         4.0221
  21   0.0000       0.172072         4.6823
  22   0.0000       0.198376         5.3981
  23   0.0000       0.199957         5.4411

MULLIKEN ATOMIC CHARGES
-----------------------
   0 C :   -0.199935
   1 C :   -0.199935
   2 C :   -0.456412
   3 C :   -0.445364
   4 C :   -0.456412
   5 H :    0.212623
   6 H :    0.212624
   7 H :    0.221570
   8 H :    0.221918
   9 H :    0.220898
  10 H :    0.224934
  11 H :    0.221570
  12 H :    0.221919
Sum of atomic charges:   -0.0000000

LOEWDIN ATOMIC CHARGES
----------------------
   0 C :   -0.152385
   1 C :   -0.152385
   2 C :   -0.240926
   3 C :   -0.234245
   4 C :   -0.240926
   5 H :    0.129440
   6 H :    0.129440
   7 H :    0.126676
   8 H :    0.127871
   9 H :    0.124760
  10 H :    0.128133
  11 H :    0.126676
  12 H :    0.127871

  Mayer bond orders larger than 0.100000
B(  0-C ,  1-C ) :   1.9013 B(  0-C ,  4-C ) :   0.9969 B(  0-C ,  5-H ) :   0.9253
B(  1-C ,  2-C ) :   0.9969 B(  1-C ,  6-H ) :   0.9253 B(  2-C ,  3-C ) :   0.9701
B(  2-C ,  7-H ) :   0.9211 B(  2-C ,  8-H ) :   0.9110 B(  3-C ,  4-C ) :   0.9701
B(  3-C ,  9-H ) :   0.9302 B(  3-C , 10-H ) :   0.9265 B(  4-C , 11-H ) :   0.9211
B(  4-C , 12-H ) :   0.9110

Dispersion correction           -0.005586661
FINAL SINGLE POINT ENERGY      -194.893783545330

DIPOLE MOMENT
-------------
                                X             Y             Z
Electronic contribution:     -1.73379       0.11173       0.00000
Nuclear contribution   :      1.80261      -0.13974       0.00000
                        -----------------------------------------
Total Dipole Moment    :      0.06882      -0.02801       0.00000
                        -----------------------------------------
Magnitude (a.u.)       :      0.07430
Magnitude (Debye)      :      0.18885

Rotational constants in cm-1:     0.243471     0.241324     0.131289
Rotational constants in MHz :  7299.088720  7234.712482  3935.940593

                             ****ORCA TERMINATED NORMALLY****
TOTAL RUN TIME: 0 days 0 hours 1 minutes 15 seconds 511 msec
