                         Program Version 5.0.3 -  RELEASE  -
|  1> ! PBEh-3c def2/J TightSCF DefGrid3
|  2>
|  3> %maxcore 60000
|  4>
|  5> %pal
|  6> nprocs 4
|  7> end
|  8>
|  9> *xyzfile 0 1 P32.xyz
| 10>
| 11>                          ****END OF INPUT****

CARTESIAN COORDINATES (ANGSTROEM)
---------------------------------
  C      0.875676   -2.050686    0.370303
  C      1.085214   -0.614383   -0.040153
  C      0.000000    0.000000   -0.933550
  C     -1.085214    0.614383   -0.040153
  C     -0.875676    2.050686    0.370303
  O      2.032480    0.044437    0.324368
  O     -2.032480   -0.044437    0.324368
  H      0.994178   -2.698456   -0.503993
  H     -0.143995   -2.196101    0.736340
  H      1.600573   -2.334360    1.130940
  H      0.467934    0.768472   -1.551030
  H     -0.467934   -0.768472   -1.551030
  H     -0.994178    2.698456   -0.503993
  H      0.143995    2.196101    0.736340
  H     -1.600573    2.334360    1.130940

 Total Charge           Charge          ....    0
 Multiplicity           Mult            ....    1
 Number of Electrons    NEL             ....   54
 Basis Dimension        Dim             ....  121

ORBITAL ENERGIES
----------------

  NO   OCC          E(Eh)            E(eV)
   0   2.0000     -19.499636      -530.6121
   1   2.0000     -19.499614      -530.6115
   2   2.0000     -10.555114      -287.2192
   3   2.0000     -10.555014      -287.2165
   4   2.0000     -10.462202      -284.6910
   5   2.0000     -10.447893      -284.3016
   6   2.0000     -10.447892      -284.3016
   7   2.0000      -1.169679       -31.8286
   8   2.0000      -1.163972       -31.6733
   9   2.0000      -0.889718       -24.2104
  10   2.0000      -0.844505       -22.9801
  11   2.0000      -0.803456       -21.8631
  12   2.0000      -0.639856       -17.4114
  13   2.0000      -0.601556       -16.3692
  14   2.0000      -0.550737       -14.9863
  15   2.0000      -0.547512       -14.8986
  16   2.0000      -0.537936       -14.6380
  17   2.0000      -0.503621       -13.7042
  18   2.0000      -0.497444       -13.5361
  19   2.0000      -0.494485       -13.4556
  20   2.0000      -0.464838       -12.6489
  21   2.0000      -0.453867       -12.3503
  22   2.0000      -0.435613       -11.8536
  23   2.0000      -0.422223       -11.4893
  24   2.0000      -0.417223       -11.3532
  25   2.0000      -0.324999        -8.8437
  26   2.0000      -0.309365        -8.4183
  27   0.0000      -0.014420        -0.3924
  28   0.0000       0.034162         0.9296
  29   0.0000       0.140250         3.8164
  30   0.0000       0.155960         4.2439
  31   0.0000       0.166334         4.5262

MULLIKEN ATOMIC CHARGES
-----------------------
   0 C :   -0.751602
   1 C :    0.372085
   2 C :   -0.644814
   3 C :    0.372085
   4 C :   -0.751603
   5 O :   -0.330458
   6 O :   -0.330458
   7 H :    0.243583
   8 H :    0.261351
   9 H :    0.260965
  10 H :    0.266484
  11 H :    0.266484
  12 H :    0.243583
  13 H :    0.261351
  14 H :    0.260965
Sum of atomic charges:    0.0000000

LOEWDIN ATOMIC CHARGES
----------------------
   0 C :   -0.392655
   1 C :    0.112584
   2 C :   -0.300895
   3 C :    0.112584
   4 C :   -0.392655
   5 O :   -0.187999
   6 O :   -0.187999
   7 H :    0.152836
   8 H :    0.158282
   9 H :    0.152047
  10 H :    0.155353
  11 H :    0.155353
  12 H :    0.152836
  13 H :    0.158282
  14 H :    0.152047

  Mayer bond orders larger than 0.100000
B(  0-C ,  1-C ) :   0.9412 B(  0-C ,  7-H ) :   0.9039 B(  0-C ,  8-H ) :   0.8962
B(  0-C ,  9-H ) :   0.9162 B(  1-C ,  2-C ) :   0.8877 B(  1-C ,  5-O ) :   2.1288
B(  2-C ,  3-C ) :   0.8877 B(  2-C , 10-H ) :   0.9010 B(  2-C , 11-H ) :   0.9010
B(  3-C ,  4-C ) :   0.9412 B(  3-C ,  6-O ) :   2.1288 B(  4-C , 12-H ) :   0.9039
B(  4-C , 13-H ) :   0.8962 B(  4-C , 14-H ) :   0.9162

Dispersion correction           -0.006816396
FINAL SINGLE POINT ENERGY      -345.053417246165

DIPOLE MOMENT
-------------
                                X             Y             Z
Electronic contribution:     -0.00000       0.00000       0.27123
Nuclear contribution   :     -0.00000       0.00000      -0.84833
                        -----------------------------------------
Total Dipole Moment    :     -0.00000       0.00000      -0.57711
                        -----------------------------------------
Magnitude (a.u.)       :      0.57711
Magnitude (Debye)      :      1.46689

Rotational constants in cm-1:     0.138540     0.064077     0.050583
Rotational constants in MHz :  4153.323590  1920.991021  1516.455012

                             ****ORCA TERMINATED NORMALLY****
TOTAL RUN TIME: 0 days 0 hours 1 minutes 26 seconds 823 msec
