                         Program Version 5.0.3 -  RELEASE  -
|  1> ! PBEh-3c def2/J TightSCF DefGrid3
|  2>
|  3> %maxcore 60000
|  4>
|  5> %pal
|  6> nprocs 4
|  7> end
|  8>
|  9> *xyzfile 0 1 ph3.xyz
| 10>
| 11>                          ****END OF INPUT****

CARTESIAN COORDINATES (ANGSTROEM)
---------------------------------
  P      0.000000    0.000000    0.575650
  H     -0.598205    1.036121   -0.191883
  H     -0.598205   -1.036121   -0.191883
  H      1.196410    0.000000   -0.191883

 Total Charge           Charge          ....    0
 Multiplicity           Mult            ....    1
 Number of Electrons    NEL             ....   18
 Basis Dimension        Dim             ....   24

ORBITAL ENERGIES
----------------

  NO   OCC          E(Eh)            E(eV)
   0   2.0000     -77.729064     -2115.1154
   1   2.0000      -6.809490      -185.2956
   2   2.0000      -4.899625      -133.3256
   3   2.0000      -4.899625      -133.3256
   4   2.0000      -4.897686      -133.2728
   5   2.0000      -0.717572       -19.5261
   6   2.0000      -0.435575       -11.8526
   7   2.0000      -0.435575       -11.8526
   8   2.0000      -0.316637        -8.6161
   9   0.0000       0.070504         1.9185
  10   0.0000       0.070505         1.9185
  11   0.0000       0.161017         4.3815
  12   0.0000       0.384511        10.4631
  13   0.0000       0.514015        13.9870

MULLIKEN ATOMIC CHARGES
-----------------------
   0 P :   -0.256866
   1 H :    0.085623
   2 H :    0.085623
   3 H :    0.085620
Sum of atomic charges:   -0.0000000

LOEWDIN ATOMIC CHARGES
----------------------
   0 P :   -0.093586
   1 H :    0.031197
   2 H :    0.031197
   3 H :    0.031193

  Mayer bond orders larger than 0.100000
B(  0-P ,  1-H ) :   0.9630 B(  0-P ,  2-H ) :   0.9630 B(  0-P ,  3-H ) :   0.9630

Dispersion correction           -0.000715308
FINAL SINGLE POINT ENERGY      -342.730710621946

DIPOLE MOMENT
-------------
                                X             Y             Z
Electronic contribution:      0.00001      -0.00000       1.62354
Nuclear contribution   :      0.00000       0.00000      -2.02910
                        -----------------------------------------
Total Dipole Moment    :      0.00001      -0.00000      -0.40556
                        -----------------------------------------
Magnitude (a.u.)       :      0.40556
Magnitude (Debye)      :      1.03085

Rotational constants in cm-1:     4.451127     4.451127     3.894532
Rotational constants in MHz : 133441.441066 133441.435866 116755.131038

                             ****ORCA TERMINATED NORMALLY****
TOTAL RUN TIME: 0 days 0 hours 0 minutes 41 seconds 665 msec
