                         Program Version 5.0.3 -  RELEASE  -
|  1> ! PBEh-3c def2/J TightSCF DefGrid3
|  2>
|  3> %maxcore 60000
|  4>
|  5> %pal
|  6> nprocs 4
|  7> end
|  8>
|  9> *xyzfile 0 1 BrBr_FMe.xyz
| 10>
| 11>                          ****END OF INPUT****

CARTESIAN COORDINATES (ANGSTROEM)
---------------------------------
  Br    -1.319641   -1.497303    0.000000
  Br     0.000000    0.364548    0.000000
  F      1.861831    2.471040    0.000000
  C      3.163356    1.975133    0.000000
  H      3.115942    0.886644    0.000000
  H      3.667447    2.334805    0.895333
  H      3.667447    2.334805   -0.895333

 Total Charge           Charge          ....    0
 Multiplicity           Mult            ....    1
 Number of Electrons    NEL             ....   88
 Basis Dimension        Dim             ....  100

ORBITAL ENERGIES
----------------

  NO   OCC          E(Eh)            E(eV)
   0   2.0000    -484.563238    -13185.6360
   1   2.0000    -484.559431    -13185.5325
   2   2.0000     -63.225439     -1720.4517
   3   2.0000     -63.222197     -1720.3634
   4   2.0000     -56.930692     -1549.1629
   5   2.0000     -56.927186     -1549.0675
   6   2.0000     -56.926834     -1549.0579
   7   2.0000     -56.926826     -1549.0577
   8   2.0000     -56.923733     -1548.9735
   9   2.0000     -56.923726     -1548.9733
  10   2.0000     -25.088397      -682.6900
  11   2.0000     -10.518390      -286.2199
  12   2.0000      -9.053897      -246.3691
  13   2.0000      -9.050944      -246.2887
  14   2.0000      -6.832166      -185.9127
  15   2.0000      -6.828519      -185.8134
  16   2.0000      -6.813394      -185.4019
  17   2.0000      -6.813302      -185.3994
  18   2.0000      -6.810907      -185.3342
  19   2.0000      -6.810887      -185.3337
  20   2.0000      -2.845348       -77.4259
  21   2.0000      -2.841222       -77.3136
  22   2.0000      -2.839625       -77.2701
  23   2.0000      -2.839528       -77.2675
  24   2.0000      -2.836319       -77.1802
  25   2.0000      -2.836289       -77.1793
  26   2.0000      -2.823439       -76.8297
  27   2.0000      -2.823435       -76.8296
  28   2.0000      -2.821258       -76.7703
  29   2.0000      -2.821253       -76.7702
  30   2.0000      -1.318280       -35.8722
  31   2.0000      -0.933874       -25.4120
  32   2.0000      -0.799242       -21.7485
  33   2.0000      -0.793432       -21.5904
  34   2.0000      -0.564392       -15.3579
  35   2.0000      -0.559895       -15.2355
  36   2.0000      -0.558749       -15.2043
  37   2.0000      -0.463637       -12.6162
  38   2.0000      -0.418884       -11.3984
  39   2.0000      -0.416931       -11.3453
  40   2.0000      -0.409179       -11.1343
  41   2.0000      -0.408481       -11.1153
  42   2.0000      -0.321820        -8.7572
  43   2.0000      -0.321360        -8.7446
  44   0.0000      -0.093635        -2.5479
  45   0.0000       0.130806         3.5594
  46   0.0000       0.173172         4.7122
  47   0.0000       0.206193         5.6108
  48   0.0000       0.208392         5.6706

MULLIKEN ATOMIC CHARGES
-----------------------
   0 Br:   -0.031409
   1 Br:    0.005367
   2 F :   -0.364896
   3 C :   -0.221762
   4 H :    0.204192
   5 H :    0.204254
   6 H :    0.204254
Sum of atomic charges:    0.0000000

LOEWDIN ATOMIC CHARGES
----------------------
   0 Br:   -0.030024
   1 Br:    0.011249
   2 F :   -0.256661
   3 C :   -0.075630
   4 H :    0.116655
   5 H :    0.117206
   6 H :    0.117206

  Mayer bond orders larger than 0.100000
B(  0-Br,  1-Br) :   1.0417 B(  2-F ,  3-C ) :   0.9012 B(  3-C ,  4-H ) :   0.9160
B(  3-C ,  5-H ) :   0.9192 B(  3-C ,  6-H ) :   0.9192

Dispersion correction           -0.001950679
FINAL SINGLE POINT ENERGY     -5285.469884379694

DIPOLE MOMENT
-------------
                                X             Y             Z
Electronic contribution:    -17.55478     -12.25099       0.00000
Nuclear contribution   :     18.47884      12.21548       0.00000
                        -----------------------------------------
Total Dipole Moment    :      0.92406      -0.03552       0.00000
                        -----------------------------------------
Magnitude (a.u.)       :      0.92474
Magnitude (Debye)      :      2.35051

Rotational constants in cm-1:     0.692501     0.024016     0.023315
Rotational constants in MHz : 20760.643146   719.985799   698.963982

                             ****ORCA TERMINATED NORMALLY****
TOTAL RUN TIME: 0 days 0 hours 1 minutes 12 seconds 37 msec
