                         Program Version 5.0.3 -  RELEASE  -
|  1> ! PBEh-3c def2/J TightSCF DefGrid3
|  2>
|  3> %maxcore 60000
|  4>
|  5> %pal
|  6> nprocs 4
|  7> end
|  8>
|  9> *xyzfile 0 1 47A.xyz
| 10>
| 11>                          ****END OF INPUT****

CARTESIAN COORDINATES (ANGSTROEM)
---------------------------------
  C      1.207270    0.697018    0.000000
  H      2.143861    1.237759    0.000000
  C      1.207270   -0.697018    0.000000
  H      2.143861   -1.237759    0.000000
  C      0.000000   -1.394035    0.000000
  H      0.000000   -2.475518    0.000000
  C     -1.207270   -0.697018    0.000000
  H     -2.143861   -1.237759    0.000000
  C     -1.207270    0.697018    0.000000
  H     -2.143861    1.237759    0.000000
  C      0.000000    1.394035    0.000000
  H      0.000000    2.475518    0.000000

 Total Charge           Charge          ....    0
 Multiplicity           Mult            ....    1
 Number of Electrons    NEL             ....   42
 Basis Dimension        Dim             ....  102

ORBITAL ENERGIES
----------------

  NO   OCC          E(Eh)            E(eV)
   0   2.0000     -10.448789      -284.3260
   1   2.0000     -10.448570      -284.3201
   2   2.0000     -10.448568      -284.3200
   3   2.0000     -10.447958      -284.3034
   4   2.0000     -10.447956      -284.3033
   5   2.0000     -10.447728      -284.2971
   6   2.0000      -0.952008       -25.9055
   7   2.0000      -0.835435       -22.7333
   8   2.0000      -0.835434       -22.7333
   9   2.0000      -0.678979       -18.4759
  10   2.0000      -0.678978       -18.4759
  11   2.0000      -0.591971       -16.1083
  12   2.0000      -0.525995       -14.3131
  13   2.0000      -0.508401       -13.8343
  14   2.0000      -0.481777       -13.1098
  15   2.0000      -0.481775       -13.1098
  16   2.0000      -0.420805       -11.4507
  17   2.0000      -0.398332       -10.8392
  18   2.0000      -0.398331       -10.8391
  19   2.0000      -0.292447        -7.9579
  20   2.0000      -0.292444        -7.9578
  21   0.0000       0.019140         0.5208
  22   0.0000       0.019141         0.5209
  23   0.0000       0.140807         3.8315
  24   0.0000       0.196148         5.3375
  25   0.0000       0.201814         5.4916

MULLIKEN ATOMIC CHARGES
-----------------------
   0 C :   -0.219870
   1 H :    0.219870
   2 C :   -0.219870
   3 H :    0.219870
   4 C :   -0.219883
   5 H :    0.219882
   6 C :   -0.219869
   7 H :    0.219870
   8 C :   -0.219870
   9 H :    0.219869
  10 C :   -0.219882
  11 H :    0.219882
Sum of atomic charges:   -0.0000000

LOEWDIN ATOMIC CHARGES
----------------------
   0 C :   -0.135684
   1 H :    0.135686
   2 C :   -0.135684
   3 H :    0.135686
   4 C :   -0.135690
   5 H :    0.135685
   6 C :   -0.135684
   7 H :    0.135686
   8 C :   -0.135684
   9 H :    0.135686
  10 C :   -0.135690
  11 H :    0.135685

  Mayer bond orders larger than 0.100000
B(  0-C ,  1-H ) :   0.9200 B(  0-C ,  2-C ) :   1.4265 B(  0-C , 10-C ) :   1.4265
B(  2-C ,  3-H ) :   0.9200 B(  2-C ,  4-C ) :   1.4265 B(  4-C ,  5-H ) :   0.9200
B(  4-C ,  6-C ) :   1.4265 B(  6-C ,  7-H ) :   0.9200 B(  6-C ,  8-C ) :   1.4265
B(  8-C ,  9-H ) :   0.9200 B(  8-C , 10-C ) :   1.4265 B( 10-C , 11-H ) :   0.9200

Dispersion correction           -0.005880371
FINAL SINGLE POINT ENERGY      -231.725785786465

DIPOLE MOMENT
-------------
                                X             Y             Z
Electronic contribution:     -0.00000      -0.00000       0.00000
Nuclear contribution   :     -0.00000       0.00000       0.00000
                        -----------------------------------------
Total Dipole Moment    :     -0.00000      -0.00000       0.00000
                        -----------------------------------------
Magnitude (a.u.)       :      0.00000
Magnitude (Debye)      :      0.00000

Rotational constants in cm-1:     0.190362     0.190362     0.095181
Rotational constants in MHz :  5706.904107  5706.904057  2853.452041

                             ****ORCA TERMINATED NORMALLY****
TOTAL RUN TIME: 0 days 0 hours 1 minutes 5 seconds 89 msec
