                         Program Version 5.0.3 -  RELEASE  -
|  1> ! PBEh-3c def2/J TightSCF DefGrid3
|  2>
|  3> %maxcore 60000
|  4>
|  5> %pal
|  6> nprocs 4
|  7> end
|  8>
|  9> *xyzfile 0 1 H_ggg.xyz
| 10>
| 11>                          ****END OF INPUT****

CARTESIAN COORDINATES (ANGSTROEM)
---------------------------------
  C     -0.760592    2.191757   -0.488284
  C     -1.320800    0.787237   -0.297496
  C     -0.760592    0.078283    0.933961
  C      0.760592   -0.078283    0.933961
  C      1.320800   -0.787237   -0.297496
  C      0.760592   -2.191757   -0.488284
  H      0.310291    2.172925   -0.685168
  H     -0.922415    2.796155    0.404955
  H     -1.240282    2.697452   -1.324904
  H     -1.123866    0.190587   -1.190391
  H     -2.406735    0.842537   -0.203981
  H     -1.228183   -0.903819    1.025641
  H     -1.053544    0.638372    1.825665
  H      1.053544   -0.638372    1.825665
  H      1.228183    0.903819    1.025641
  H      2.406735   -0.842537   -0.203981
  H      1.123866   -0.190587   -1.190391
  H      1.240282   -2.697452   -1.324904
  H     -0.310291   -2.172925   -0.685168
  H      0.922415   -2.796155    0.404955

 Total Charge           Charge          ....    0
 Multiplicity           Mult            ....    1
 Number of Electrons    NEL             ....   50
 Basis Dimension        Dim             ....  118

ORBITAL ENERGIES
----------------

  NO   OCC          E(Eh)            E(eV)
   0   2.0000     -10.426650      -283.7236
   1   2.0000     -10.426621      -283.7228
   2   2.0000     -10.424692      -283.6703
   3   2.0000     -10.424463      -283.6641
   4   2.0000     -10.418565      -283.5036
   5   2.0000     -10.418564      -283.5035
   6   2.0000      -0.900159       -24.4946
   7   2.0000      -0.848742       -23.0954
   8   2.0000      -0.785554       -21.3760
   9   2.0000      -0.729000       -19.8371
  10   2.0000      -0.670335       -18.2407
  11   2.0000      -0.609765       -16.5925
  12   2.0000      -0.535072       -14.5600
  13   2.0000      -0.525551       -14.3010
  14   2.0000      -0.480875       -13.0853
  15   2.0000      -0.480317       -13.0701
  16   2.0000      -0.452937       -12.3250
  17   2.0000      -0.435011       -11.8373
  18   2.0000      -0.428509       -11.6603
  19   2.0000      -0.401121       -10.9151
  20   2.0000      -0.393633       -10.7113
  21   2.0000      -0.386609       -10.5202
  22   2.0000      -0.361558        -9.8385
  23   2.0000      -0.354975        -9.6594
  24   2.0000      -0.354202        -9.6383
  25   0.0000       0.124056         3.3757
  26   0.0000       0.159576         4.3423
  27   0.0000       0.172699         4.6994
  28   0.0000       0.182530         4.9669
  29   0.0000       0.191863         5.2209

MULLIKEN ATOMIC CHARGES
-----------------------
   0 C :   -0.645761
   1 C :   -0.426863
   2 C :   -0.424473
   3 C :   -0.424473
   4 C :   -0.426863
   5 C :   -0.645761
   6 H :    0.213503
   7 H :    0.209151
   8 H :    0.220582
   9 H :    0.208975
  10 H :    0.217324
  11 H :    0.214925
  12 H :    0.212637
  13 H :    0.212637
  14 H :    0.214925
  15 H :    0.217324
  16 H :    0.208975
  17 H :    0.220582
  18 H :    0.213503
  19 H :    0.209151
Sum of atomic charges:   -0.0000000

LOEWDIN ATOMIC CHARGES
----------------------
   0 C :   -0.364566
   1 C :   -0.249486
   2 C :   -0.244646
   3 C :   -0.244646
   4 C :   -0.249486
   5 C :   -0.364566
   6 H :    0.122943
   7 H :    0.123259
   8 H :    0.126700
   9 H :    0.118805
  10 H :    0.123139
  11 H :    0.121659
  12 H :    0.122194
  13 H :    0.122194
  14 H :    0.121659
  15 H :    0.123139
  16 H :    0.118805
  17 H :    0.126700
  18 H :    0.122943
  19 H :    0.123259

  Mayer bond orders larger than 0.100000
B(  0-C ,  1-C ) :   0.9891 B(  0-C ,  6-H ) :   0.9252 B(  0-C ,  7-H ) :   0.9293
B(  0-C ,  8-H ) :   0.9314 B(  1-C ,  2-C ) :   0.9868 B(  1-C ,  9-H ) :   0.9159
B(  1-C , 10-H ) :   0.9236 B(  2-C ,  3-C ) :   0.9829 B(  2-C , 11-H ) :   0.9211
B(  2-C , 12-H ) :   0.9216 B(  3-C ,  4-C ) :   0.9868 B(  3-C , 13-H ) :   0.9216
B(  3-C , 14-H ) :   0.9211 B(  4-C ,  5-C ) :   0.9891 B(  4-C , 15-H ) :   0.9236
B(  4-C , 16-H ) :   0.9159 B(  5-C , 17-H ) :   0.9314 B(  5-C , 18-H ) :   0.9252
B(  5-C , 19-H ) :   0.9293

Dispersion correction           -0.009470171
FINAL SINGLE POINT ENERGY      -236.560378082732

DIPOLE MOMENT
-------------
                                X             Y             Z
Electronic contribution:      0.00000       0.00000       0.78308
Nuclear contribution   :      0.00000       0.00000      -0.77504
                        -----------------------------------------
Total Dipole Moment    :      0.00000       0.00000       0.00804
                        -----------------------------------------
Magnitude (a.u.)       :      0.00804
Magnitude (Debye)      :      0.02045

Rotational constants in cm-1:     0.188386     0.062769     0.062518
Rotational constants in MHz :  5647.662663  1881.762131  1874.249689

                             ****ORCA TERMINATED NORMALLY****
TOTAL RUN TIME: 0 days 0 hours 1 minutes 21 seconds 290 msec
