                         Program Version 5.0.3 -  RELEASE  -
|  1> ! PBEh-3c def2/J TightSCF DefGrid3
|  2>
|  3> %maxcore 60000
|  4>
|  5> %pal
|  6> nprocs 4
|  7> end
|  8>
|  9> *xyzfile 0 1 c2h5f.xyz
| 10>
| 11>                          ****END OF INPUT****

CARTESIAN COORDINATES (ANGSTROEM)
---------------------------------
  F      1.083734   -0.259144    0.000000
  C     -0.027865    0.576652    0.000000
  C     -1.288437   -0.253957    0.000000
  H     -2.162319    0.399685    0.000000
  H      0.038685    1.206892    0.887974
  H      0.038685    1.206892   -0.887974
  H     -1.328350   -0.887121    0.885745
  H     -1.328350   -0.887121   -0.885745

 Total Charge           Charge          ....    0
 Multiplicity           Mult            ....    1
 Number of Electrons    NEL             ....   26
 Basis Dimension        Dim             ....   55

ORBITAL ENERGIES
----------------

  NO   OCC          E(Eh)            E(eV)
   0   2.0000     -25.061821      -681.9668
   1   2.0000     -10.510463      -286.0042
   2   2.0000     -10.434045      -283.9248
   3   2.0000      -1.296114       -35.2691
   4   2.0000      -0.852184       -23.1891
   5   2.0000      -0.704593       -19.1729
   6   2.0000      -0.559814       -15.2333
   7   2.0000      -0.554893       -15.0994
   8   2.0000      -0.511180       -13.9099
   9   2.0000      -0.454397       -12.3648
  10   2.0000      -0.447918       -12.1885
  11   2.0000      -0.391358       -10.6494
  12   2.0000      -0.383867       -10.4456
  13   0.0000       0.149773         4.0755
  14   0.0000       0.163283         4.4431
  15   0.0000       0.203439         5.5359
  16   0.0000       0.204119         5.5544
  17   0.0000       0.223736         6.0882

MULLIKEN ATOMIC CHARGES
-----------------------
   0 F :   -0.364312
   1 C :    0.010754
   2 C :   -0.688668
   3 H :    0.210836
   4 H :    0.183275
   5 H :    0.183275
   6 H :    0.232420
   7 H :    0.232420
Sum of atomic charges:   -0.0000000

LOEWDIN ATOMIC CHARGES
----------------------
   0 F :   -0.254877
   1 C :    0.016053
   2 C :   -0.382935
   3 H :    0.133005
   4 H :    0.108000
   5 H :    0.108000
   6 H :    0.136376
   7 H :    0.136376

  Mayer bond orders larger than 0.100000
B(  0-F ,  1-C ) :   0.9337 B(  1-C ,  2-C ) :   0.9906 B(  1-C ,  4-H ) :   0.9137
B(  1-C ,  5-H ) :   0.9137 B(  2-C ,  3-H ) :   0.9183 B(  2-C ,  6-H ) :   0.9204
B(  2-C ,  7-H ) :   0.9204

Dispersion correction           -0.001963704
FINAL SINGLE POINT ENERGY      -178.691657708470

DIPOLE MOMENT
-------------
                                X             Y             Z
Electronic contribution:      4.82158      -0.83736      -0.00000
Nuclear contribution   :     -5.45255       1.21507       0.00000
                        -----------------------------------------
Total Dipole Moment    :     -0.63097       0.37771      -0.00000
                        -----------------------------------------
Magnitude (a.u.)       :      0.73538
Magnitude (Debye)      :      1.86920

Rotational constants in cm-1:     1.212800     0.313889     0.275168
Rotational constants in MHz : 36358.839925  9410.151610  8249.337347

                             ****ORCA TERMINATED NORMALLY****
TOTAL RUN TIME: 0 days 0 hours 0 minutes 29 seconds 879 msec
