                         Program Version 5.0.3 -  RELEASE  -
|  1> ! PBEh-3c def2/J TightSCF DefGrid3
|  2>
|  3> %maxcore 60000
|  4>
|  5> %pal
|  6> nprocs 4
|  7> end
|  8>
|  9> *xyzfile 0 1 bh.xyz
| 10>
| 11>                          ****END OF INPUT****

CARTESIAN COORDINATES (ANGSTROEM)
---------------------------------
  B      0.105179    0.000000    0.000000
  H     -1.128077    0.000000    0.000000

 Total Charge           Charge          ....    0
 Multiplicity           Mult            ....    1
 Number of Electrons    NEL             ....    6
 Basis Dimension        Dim             ....   17

ORBITAL ENERGIES
----------------

  NO   OCC          E(Eh)            E(eV)
   0   2.0000      -7.056039      -192.0046
   1   2.0000      -0.542084       -14.7509
   2   2.0000      -0.271447        -7.3864
   3   0.0000      -0.055959        -1.5227
   4   0.0000      -0.055959        -1.5227
   5   0.0000       0.208227         5.6662
   6   0.0000       0.303385         8.2555
   7   0.0000       0.353105         9.6085

MULLIKEN ATOMIC CHARGES
-----------------------
   0 B :    0.032893
   1 H :   -0.032893
Sum of atomic charges:    0.0000000

LOEWDIN ATOMIC CHARGES
----------------------
   0 B :    0.029506
   1 H :   -0.029506

  Mayer bond orders larger than 0.100000
B(  0-B ,  1-H ) :   0.9310

Dispersion correction           -0.000154640
FINAL SINGLE POINT ENERGY       -25.212884228720

DIPOLE MOMENT
-------------
                                X             Y             Z
Electronic contribution:      0.47834      -0.00000       0.00000
Nuclear contribution   :     -1.13785       0.00000       0.00000
                        -----------------------------------------
Total Dipole Moment    :     -0.65951      -0.00000       0.00000
                        -----------------------------------------
Magnitude (a.u.)       :      0.65951
Magnitude (Debye)      :      1.67633

Rotational constants in cm-1:     0.000000    12.021212    12.021212
Rotational constants in MHz :     0.000000 360386.869946 360386.869946

                             ****ORCA TERMINATED NORMALLY****
TOTAL RUN TIME: 0 days 0 hours 0 minutes 15 seconds 501 msec
