                         Program Version 5.0.3 -  RELEASE  -
|  1> ! PBEh-3c def2/J TightSCF DefGrid3
|  2>
|  3> %maxcore 60000
|  4>
|  5> %pal
|  6> nprocs 4
|  7> end
|  8>
|  9> *xyzfile 0 1 dioxirane.xyz
| 10>
| 11>                          ****END OF INPUT****

CARTESIAN COORDINATES (ANGSTROEM)
---------------------------------
  C      0.000000    0.782429    0.000000
  H      0.000000    1.351921   -0.925497
  H      0.000000    1.351921    0.925497
  O     -0.757104   -0.378857    0.000000
  O      0.757104   -0.378857    0.000000

 Total Charge           Charge          ....    0
 Multiplicity           Mult            ....    1
 Number of Electrons    NEL             ....   24
 Basis Dimension        Dim             ....   49

ORBITAL ENERGIES
----------------

  NO   OCC          E(Eh)            E(eV)
   0   2.0000     -19.579100      -532.7744
   1   2.0000     -19.578927      -532.7697
   2   2.0000     -10.565078      -287.4904
   3   2.0000      -1.303909       -35.4812
   4   2.0000      -0.978444       -26.6248
   5   2.0000      -0.764374       -20.7997
   6   2.0000      -0.606257       -16.4971
   7   2.0000      -0.574088       -15.6217
   8   2.0000      -0.483021       -13.1437
   9   2.0000      -0.468853       -12.7581
  10   2.0000      -0.402773       -10.9600
  11   2.0000      -0.346195        -9.4204
  12   0.0000       0.008656         0.2355
  13   0.0000       0.093735         2.5507
  14   0.0000       0.157449         4.2844
  15   0.0000       0.230577         6.2743
  16   0.0000       0.235964         6.4209

MULLIKEN ATOMIC CHARGES
-----------------------
   0 C :    0.095950
   1 H :    0.203287
   2 H :    0.203287
   3 O :   -0.251262
   4 O :   -0.251262
Sum of atomic charges:   -0.0000000

LOEWDIN ATOMIC CHARGES
----------------------
   0 C :    0.029119
   1 H :    0.108777
   2 H :    0.108777
   3 O :   -0.123337
   4 O :   -0.123337

  Mayer bond orders larger than 0.100000
B(  0-C ,  1-H ) :   0.8925 B(  0-C ,  2-H ) :   0.8925 B(  0-C ,  3-O ) :   0.9873
B(  0-C ,  4-O ) :   0.9873 B(  3-O ,  4-O ) :   0.9470

Dispersion correction           -0.000901086
FINAL SINGLE POINT ENERGY      -189.209723301964

DIPOLE MOMENT
-------------
                                X             Y             Z
Electronic contribution:      0.00000      -1.46907       0.00000
Nuclear contribution   :      0.00000       2.52545       0.00000
                        -----------------------------------------
Total Dipole Moment    :      0.00000       1.05638       0.00000
                        -----------------------------------------
Magnitude (a.u.)       :      1.05638
Magnitude (Debye)      :      2.68510

Rotational constants in cm-1:     0.971216     0.840016     0.496223
Rotational constants in MHz : 29116.336959 25183.037604 14876.392921

                             ****ORCA TERMINATED NORMALLY****
TOTAL RUN TIME: 0 days 0 hours 0 minutes 55 seconds 776 msec
