                         Program Version 5.0.3 -  RELEASE  -
|  1> ! PBEh-3c def2/J TightSCF DefGrid3
|  2>
|  3> %maxcore 60000
|  4>
|  5> %pal
|  6> nprocs 4
|  7> end
|  8>
|  9> *xyzfile 0 1 Sumanene.xyz
| 10>
| 11>                          ****END OF INPUT****

CARTESIAN COORDINATES (ANGSTROEM)
---------------------------------
  C     -3.203227    1.025810    0.462139
  C     -2.491761    2.261531    0.459500
  C     -1.208744    2.354022   -0.074425
  C     -2.639524   -0.130035   -0.071000
  C     -2.843250   -1.642743    0.190037
  C      3.203228    1.025811    0.462132
  C      2.639523   -0.130034   -0.071005
  C      2.843247   -1.642738    0.190045
  C      2.491765    2.261532    0.459491
  C      1.208747    2.354022   -0.074432
  C      0.716278    1.213367   -0.712700
  C      1.407443    0.015223   -0.711676
  C      0.691337   -1.225265   -0.711124
  C      1.431016   -2.221296   -0.070850
  C      0.713224   -3.291300    0.457351
  C     -0.713228   -3.291305    0.457340
  C     -1.431018   -2.221297   -0.070856
  C     -0.691338   -1.225262   -0.711121
  C     -1.407445    0.015224   -0.711670
  C     -0.716278    1.213367   -0.712694
  C      0.000002    3.288547    0.183616
  H      2.926834    3.089824    1.005164
  H      4.136531    0.984782    1.009957
  H      0.000006    3.672892    1.203985
  H     -2.926832    3.089822    1.005171
  H     -4.136526    0.984781    1.009969
  H     -3.592054   -2.074461   -0.479870
  H     -1.217428   -4.081019    1.000379
  H      1.217421   -4.081011    1.000398
  H      3.177807   -1.835697    1.209689
  H     -3.177812   -1.835711    1.209678
  H     -0.000000    4.153072   -0.486231
  H      3.592058   -2.074456   -0.479854

 Total Charge           Charge          ....    0
 Multiplicity           Mult            ....    1
 Number of Electrons    NEL             ....  138
 Basis Dimension        Dim             ....  339

ORBITAL ENERGIES
----------------

  NO   OCC          E(Eh)            E(eV)
   0   2.0000     -10.464198      -284.7453
   1   2.0000     -10.463838      -284.7355
   2   2.0000     -10.463829      -284.7353
   3   2.0000     -10.462734      -284.7055
   4   2.0000     -10.462675      -284.7039
   5   2.0000     -10.462460      -284.6980
   6   2.0000     -10.462434      -284.6973
   7   2.0000     -10.462387      -284.6960
   8   2.0000     -10.462324      -284.6943
   9   2.0000     -10.456643      -284.5397
  10   2.0000     -10.456627      -284.5393
  11   2.0000     -10.456624      -284.5392
  12   2.0000     -10.456214      -284.5281
  13   2.0000     -10.456163      -284.5267
  14   2.0000     -10.456161      -284.5266
  15   2.0000     -10.450333      -284.3680
  16   2.0000     -10.450169      -284.3636
  17   2.0000     -10.450081      -284.3612
  18   2.0000     -10.449525      -284.3460
  19   2.0000     -10.449521      -284.3459
  20   2.0000     -10.449229      -284.3380
  21   2.0000      -1.024276       -27.8720
  22   2.0000      -0.974207       -26.5095
  23   2.0000      -0.974076       -26.5060
  24   2.0000      -0.905026       -24.6270
  25   2.0000      -0.905018       -24.6268
  26   2.0000      -0.886732       -24.1292
  27   2.0000      -0.832409       -22.6510
  28   2.0000      -0.816314       -22.2130
  29   2.0000      -0.816285       -22.2123
  30   2.0000      -0.815598       -22.1935
  31   2.0000      -0.751744       -20.4560
  32   2.0000      -0.751651       -20.4535
  33   2.0000      -0.708276       -19.2732
  34   2.0000      -0.708222       -19.2717
  35   2.0000      -0.680143       -18.5076
  36   2.0000      -0.634362       -17.2619
  37   2.0000      -0.634291       -17.2599
  38   2.0000      -0.615465       -16.7476
  39   2.0000      -0.602152       -16.3854
  40   2.0000      -0.552327       -15.0296
  41   2.0000      -0.552241       -15.0272
  42   2.0000      -0.528762       -14.3883
  43   2.0000      -0.509535       -13.8652
  44   2.0000      -0.507398       -13.8070
  45   2.0000      -0.507384       -13.8066
  46   2.0000      -0.501721       -13.6525
  47   2.0000      -0.501608       -13.6494
  48   2.0000      -0.498458       -13.5637
  49   2.0000      -0.498309       -13.5597
  50   2.0000      -0.468574       -12.7506
  51   2.0000      -0.465409       -12.6644
  52   2.0000      -0.446702       -12.1554
  53   2.0000      -0.446422       -12.1478
  54   2.0000      -0.438846       -11.9416
  55   2.0000      -0.427626       -11.6363
  56   2.0000      -0.407035       -11.0760
  57   2.0000      -0.405816       -11.0428
  58   2.0000      -0.405806       -11.0425
  59   2.0000      -0.394156       -10.7255
  60   2.0000      -0.394024       -10.7219
  61   2.0000      -0.376214       -10.2373
  62   2.0000      -0.376089       -10.2339
  63   2.0000      -0.331907        -9.0317
  64   2.0000      -0.318006        -8.6534
  65   2.0000      -0.317828        -8.6485
  66   2.0000      -0.273423        -7.4402
  67   2.0000      -0.243525        -6.6267
  68   2.0000      -0.243412        -6.6236
  69   0.0000      -0.016606        -0.4519
  70   0.0000      -0.016575        -0.4510
  71   0.0000      -0.013290        -0.3616
  72   0.0000       0.035257         0.9594
  73   0.0000       0.035428         0.9640

MULLIKEN ATOMIC CHARGES
-----------------------
   0 C :   -0.301434
   1 C :   -0.301963
   2 C :    0.041576
   3 C :    0.041456
   4 C :   -0.541151
   5 C :   -0.301434
   6 C :    0.041457
   7 C :   -0.541152
   8 C :   -0.301962
   9 C :    0.041578
  10 C :    0.058641
  11 C :    0.059365
  12 C :    0.058218
  13 C :    0.042322
  14 C :   -0.302306
  15 C :   -0.302305
  16 C :    0.042323
  17 C :    0.058214
  18 C :    0.059370
  19 C :    0.058639
  20 C :   -0.541524
  21 H :    0.216917
  22 H :    0.217048
  23 H :    0.250150
  24 H :    0.216917
  25 H :    0.217048
  26 H :    0.259899
  27 H :    0.216999
  28 H :    0.217000
  29 H :    0.250131
  30 H :    0.250131
  31 H :    0.259933
  32 H :    0.259899
Sum of atomic charges:   -0.0000000

LOEWDIN ATOMIC CHARGES
----------------------
   0 C :   -0.135681
   1 C :   -0.135460
   2 C :   -0.028792
   3 C :   -0.028650
   4 C :   -0.206456
   5 C :   -0.135681
   6 C :   -0.028650
   7 C :   -0.206456
   8 C :   -0.135460
   9 C :   -0.028792
  10 C :   -0.019349
  11 C :   -0.019419
  12 C :   -0.019483
  13 C :   -0.028827
  14 C :   -0.135577
  15 C :   -0.135576
  16 C :   -0.028828
  17 C :   -0.019483
  18 C :   -0.019420
  19 C :   -0.019349
  20 C :   -0.206313
  21 H :    0.136449
  22 H :    0.136502
  23 H :    0.147342
  24 H :    0.136449
  25 H :    0.136502
  26 H :    0.153634
  27 H :    0.136561
  28 H :    0.136561
  29 H :    0.147260
  30 H :    0.147260
  31 H :    0.153550
  32 H :    0.153633

  Mayer bond orders larger than 0.100000
B(  0-C ,  1-C ) :   1.3804 B(  0-C ,  3-C ) :   1.4531 B(  0-C , 25-H ) :   0.9232
B(  1-C ,  2-C ) :   1.4530 B(  1-C , 24-H ) :   0.9232 B(  2-C , 19-C ) :   1.2954
B(  2-C , 20-C ) :   0.9699 B(  3-C ,  4-C ) :   0.9703 B(  3-C , 18-C ) :   1.2958
B(  4-C , 16-C ) :   0.9699 B(  4-C , 26-H ) :   0.8909 B(  4-C , 30-H ) :   0.9103
B(  5-C ,  6-C ) :   1.4531 B(  5-C ,  8-C ) :   1.3804 B(  5-C , 22-H ) :   0.9232
B(  6-C ,  7-C ) :   0.9703 B(  6-C , 11-C ) :   1.2958 B(  7-C , 13-C ) :   0.9699
B(  7-C , 29-H ) :   0.9103 B(  7-C , 32-H ) :   0.8909 B(  8-C ,  9-C ) :   1.4530
B(  8-C , 21-H ) :   0.9232 B(  9-C , 10-C ) :   1.2954 B(  9-C , 20-C ) :   0.9699
B( 10-C , 11-C ) :   1.2975 B( 10-C , 19-C ) :   1.0992 B( 11-C , 12-C ) :   1.0991
B( 12-C , 13-C ) :   1.2963 B( 12-C , 17-C ) :   1.2978 B( 13-C , 14-C ) :   1.4532
B( 14-C , 15-C ) :   1.3795 B( 14-C , 28-H ) :   0.9233 B( 15-C , 16-C ) :   1.4532
B( 15-C , 27-H ) :   0.9233 B( 16-C , 17-C ) :   1.2963 B( 17-C , 18-C ) :   1.0991
B( 18-C , 19-C ) :   1.2975 B( 20-C , 23-H ) :   0.9102 B( 20-C , 31-H ) :   0.8910

Dispersion correction           -0.028789240
FINAL SINGLE POINT ENERGY      -805.662752514063

DIPOLE MOMENT
-------------
                                X             Y             Z
Electronic contribution:     -0.00001       0.00845      -6.86446
Nuclear contribution   :      0.00001      -0.01010       8.05549
                        -----------------------------------------
Total Dipole Moment    :     -0.00000      -0.00165       1.19102
                        -----------------------------------------
Magnitude (a.u.)       :      1.19103
Magnitude (Debye)      :      3.02735

Rotational constants in cm-1:     0.015458     0.015435     0.008207
Rotational constants in MHz :   463.409599   462.737887   246.044917

                             ****ORCA TERMINATED NORMALLY****
TOTAL RUN TIME: 0 days 0 hours 5 minutes 32 seconds 971 msec
