                         Program Version 5.0.3 -  RELEASE  -
|  1> ! PBEh-3c def2/J TightSCF DefGrid3
|  2>
|  3> %maxcore 60000
|  4>
|  5> %pal
|  6> nprocs 4
|  7> end
|  8>
|  9> *xyzfile 0 1 E1.xyz
| 10>
| 11>                          ****END OF INPUT****

CARTESIAN COORDINATES (ANGSTROEM)
---------------------------------
  C      0.000000    0.000000   -0.951226
  C      0.000000    0.000000    0.504511
  C      0.000000    0.000000    1.705439
  H     -0.510195   -0.883683   -1.342125
  H     -0.510195    0.883683   -1.342125
  H      1.020389    0.000000   -1.342125
  H      0.000000    0.000000    2.767652

 Total Charge           Charge          ....    0
 Multiplicity           Mult            ....    1
 Number of Electrons    NEL             ....   22
 Basis Dimension        Dim             ....   53

ORBITAL ENERGIES
----------------

  NO   OCC          E(Eh)            E(eV)
   0   2.0000     -10.459465      -284.6165
   1   2.0000     -10.450323      -284.3678
   2   2.0000     -10.434868      -283.9472
   3   2.0000      -0.871708       -23.7204
   4   2.0000      -0.786525       -21.4024
   5   2.0000      -0.594315       -16.1721
   6   2.0000      -0.514409       -13.9978
   7   2.0000      -0.490573       -13.3492
   8   2.0000      -0.490573       -13.3492
   9   2.0000      -0.314967        -8.5707
  10   2.0000      -0.314967        -8.5707
  11   0.0000       0.085123         2.3163
  12   0.0000       0.085123         2.3163
  13   0.0000       0.160377         4.3641
  14   0.0000       0.190918         5.1952
  15   0.0000       0.229980         6.2581

MULLIKEN ATOMIC CHARGES
-----------------------
   0 C :   -0.772091
   1 C :    0.236236
   2 C :   -0.437943
   3 H :    0.250605
   4 H :    0.250605
   5 H :    0.250602
   6 H :    0.221987
Sum of atomic charges:    0.0000000

LOEWDIN ATOMIC CHARGES
----------------------
   0 C :   -0.360395
   1 C :   -0.048672
   2 C :   -0.210932
   3 H :    0.153267
   4 H :    0.153267
   5 H :    0.153266
   6 H :    0.160199

  Mayer bond orders larger than 0.100000
B(  0-C ,  1-C ) :   0.9819 B(  0-C ,  3-H ) :   0.9086 B(  0-C ,  4-H ) :   0.9086
B(  0-C ,  5-H ) :   0.9086 B(  1-C ,  2-C ) :   2.7159 B(  2-C ,  6-H ) :   0.9463

Dispersion correction           -0.001827059
FINAL SINGLE POINT ENERGY      -116.384384414175

DIPOLE MOMENT
-------------
                                X             Y             Z
Electronic contribution:     -0.00000      -0.00000       2.18058
Nuclear contribution   :      0.00000       0.00000      -2.47815
                        -----------------------------------------
Total Dipole Moment    :     -0.00000      -0.00000      -0.29756
                        -----------------------------------------
Magnitude (a.u.)       :      0.29756
Magnitude (Debye)      :      0.75635

Rotational constants in cm-1:     5.354061     0.286625     0.286625
Rotational constants in MHz : 160510.710714  8592.792484  8592.792446

                             ****ORCA TERMINATED NORMALLY****
TOTAL RUN TIME: 0 days 0 hours 0 minutes 35 seconds 370 msec
