                         Program Version 5.0.3 -  RELEASE  -
|  1> ! PBEh-3c def2/J TightSCF DefGrid3
|  2>
|  3> %maxcore 60000
|  4>
|  5> %pal
|  6> nprocs 4
|  7> end
|  8>
|  9> *xyzfile 0 1 N4H6_1.xyz
| 10>
| 11>                          ****END OF INPUT****

CARTESIAN COORDINATES (ANGSTROEM)
---------------------------------
  N     -0.361205   -0.924298    0.272577
  N      1.022471   -1.258621    0.177019
  H      1.596703   -0.409044    0.113575
  H      1.133778   -1.758558   -0.703960
  H     -0.502259   -0.629455    1.246047
  N     -0.742070    0.147026   -0.618536
  N     -0.421500    1.481980   -0.193087
  H     -1.758004    0.099522   -0.678041
  H     -0.516409    1.584091    0.825115
  H      0.548495    1.667356   -0.440709

 Total Charge           Charge          ....    0
 Multiplicity           Mult            ....    1
 Number of Electrons    NEL             ....   34
 Basis Dimension        Dim             ....   72

ORBITAL ENERGIES
----------------

  NO   OCC          E(Eh)            E(eV)
   0   2.0000     -14.674472      -399.3127
   1   2.0000     -14.673743      -399.2929
   2   2.0000     -14.649424      -398.6311
   3   2.0000     -14.640876      -398.3985
   4   2.0000      -1.115427       -30.3523
   5   2.0000      -1.011382       -27.5211
   6   2.0000      -0.880564       -23.9614
   7   2.0000      -0.769037       -20.9266
   8   2.0000      -0.586662       -15.9639
   9   2.0000      -0.573047       -15.5934
  10   2.0000      -0.564588       -15.3632
  11   2.0000      -0.524537       -14.2734
  12   2.0000      -0.501832       -13.6556
  13   2.0000      -0.346246        -9.4218
  14   2.0000      -0.320921        -8.7327
  15   2.0000      -0.310426        -8.4471
  16   2.0000      -0.286252        -7.7893
  17   0.0000       0.106988         2.9113
  18   0.0000       0.142053         3.8655
  19   0.0000       0.163494         4.4489
  20   0.0000       0.179442         4.8829
  21   0.0000       0.201145         5.4734

MULLIKEN ATOMIC CHARGES
-----------------------
   0 N :   -0.336725
   1 N :   -0.607764
   2 H :    0.292911
   3 H :    0.338384
   4 H :    0.308132
   5 N :   -0.339802
   6 N :   -0.627830
   7 H :    0.346195
   8 H :    0.297808
   9 H :    0.328690
Sum of atomic charges:    0.0000000

LOEWDIN ATOMIC CHARGES
----------------------
   0 N :   -0.221811
   1 N :   -0.396760
   2 H :    0.193614
   3 H :    0.225268
   4 H :    0.199843
   5 N :   -0.231971
   6 N :   -0.410694
   7 H :    0.227728
   8 H :    0.196607
   9 H :    0.218176

  Mayer bond orders larger than 0.100000
B(  0-N ,  1-N ) :   1.0414 B(  0-N ,  4-H ) :   0.8389 B(  0-N ,  5-N ) :   0.9806
B(  1-N ,  2-H ) :   0.8542 B(  1-N ,  3-H ) :   0.8519 B(  5-N ,  6-N ) :   1.0182
B(  5-N ,  7-H ) :   0.8327 B(  6-N ,  8-H ) :   0.8512 B(  6-N ,  9-H ) :   0.8529

Dispersion correction           -0.003412734
FINAL SINGLE POINT ENERGY      -222.022222617398

DIPOLE MOMENT
-------------
                                X             Y             Z
Electronic contribution:     -0.79022      -0.65028      -0.38837
Nuclear contribution   :      1.06289       1.17210       0.76606
                        -----------------------------------------
Total Dipole Moment    :      0.27267       0.52182       0.37770
                        -----------------------------------------
Magnitude (a.u.)       :      0.69950
Magnitude (Debye)      :      1.77799

Rotational constants in cm-1:     0.595406     0.173445     0.153585
Rotational constants in MHz : 17849.808503  5199.746246  4604.376529

                             ****ORCA TERMINATED NORMALLY****
TOTAL RUN TIME: 0 days 0 hours 0 minutes 57 seconds 498 msec
