                         Program Version 5.0.3 -  RELEASE  -
|  1> ! PBEh-3c def2/J TightSCF DefGrid3
|  2>
|  3> %maxcore 60000
|  4>
|  5> %pal
|  6> nprocs 4
|  7> end
|  8>
|  9> *xyzfile 0 2 k.xyz
| 10>
| 11>                          ****END OF INPUT****

CARTESIAN COORDINATES (ANGSTROEM)
---------------------------------
  K      0.000000    0.000000    0.000000

 Total Charge           Charge          ....    0
 Multiplicity           Mult            ....    2
 Number of Electrons    NEL             ....   19
 Basis Dimension        Dim             ....   24

ORBITAL ENERGIES
----------------
                 SPIN UP ORBITALS
  NO   OCC          E(Eh)            E(eV)
   0   1.0000    -130.693679     -3556.3558
   1   1.0000     -13.576647      -369.4394
   2   1.0000     -10.834476      -294.8211
   3   1.0000     -10.834476      -294.8211
   4   1.0000     -10.834476      -294.8211
   5   1.0000      -1.509052       -41.0634
   6   1.0000      -0.829648       -22.5759
   7   1.0000      -0.829648       -22.5759
   8   1.0000      -0.829648       -22.5759
   9   1.0000      -0.124193        -3.3795
  10   0.0000      -0.002492        -0.0678
  11   0.0000      -0.002492        -0.0678
  12   0.0000      -0.002491        -0.0678
  13   0.0000       0.019548         0.5319
  14   0.0000       0.136133         3.7044

                 SPIN DOWN ORBITALS
  NO   OCC          E(Eh)            E(eV)
   0   1.0000    -130.692791     -3556.3316
   1   1.0000     -13.575301      -369.4027
   2   1.0000     -10.833794      -294.8025
   3   1.0000     -10.833794      -294.8025
   4   1.0000     -10.833794      -294.8025
   5   1.0000      -1.505272       -40.9605
   6   1.0000      -0.827123       -22.5072
   7   1.0000      -0.827123       -22.5072
   8   1.0000      -0.827123       -22.5072
   9   0.0000      -0.033442        -0.9100
  10   0.0000       0.033592         0.9141
  11   0.0000       0.033593         0.9141
  12   0.0000       0.033594         0.9141
  13   0.0000       0.039273         1.0687

MULLIKEN ATOMIC CHARGES AND SPIN POPULATIONS
--------------------------------------------
   0 K :    0.000000    1.000000
Sum of atomic charges         :    0.0000000

LOEWDIN ATOMIC CHARGES AND SPIN POPULATIONS
-------------------------------------------
   0 K :    0.000000    1.000000

Dispersion correction            0.000000000
FINAL SINGLE POINT ENERGY      -599.425544289051

DIPOLE MOMENT
-------------
                                X             Y             Z
Electronic contribution:     -0.00014      -0.00014      -0.00012
Nuclear contribution   :      0.00000       0.00000       0.00000
                        -----------------------------------------
Total Dipole Moment    :     -0.00014      -0.00014      -0.00012
                        -----------------------------------------
Magnitude (a.u.)       :      0.00023
Magnitude (Debye)      :      0.00058

Rotational constants in cm-1:     0.000000     0.000000     0.000000
Rotational constants in MHz :     0.000000     0.000000     0.000000

                             ****ORCA TERMINATED NORMALLY****
TOTAL RUN TIME: 0 days 0 hours 0 minutes 21 seconds 778 msec
