                         Program Version 5.0.3 -  RELEASE  -
|  1> ! PBEh-3c def2/J TightSCF DefGrid3
|  2>
|  3> %maxcore 60000
|  4>
|  5> %pal
|  6> nprocs 4
|  7> end
|  8>
|  9> *xyzfile 0 1 19_benCl-acetoneAB.xyz
| 10>
| 11>                          ****END OF INPUT****

CARTESIAN COORDINATES (ANGSTROEM)
---------------------------------
  C     -0.453744    0.000183    1.059200
  C      0.583995   -0.000028    1.988245
  C      1.911124   -0.000143    1.563952
  C      2.200016   -0.000061    0.200857
  C      1.171853    0.000152   -0.738467
  H     -1.486276    0.000269    1.377241
  H      0.351319   -0.000103    3.044291
  H      2.712830   -0.000290    2.288838
  H      3.227238   -0.000163   -0.136887
  H      1.383275    0.000215   -1.797906
  C     -0.149841    0.000281   -0.299800
  Cl    -1.432288    0.000560   -1.466415
  O     -3.696573    0.000153   -3.618618
  C     -4.843990    0.001944   -3.211415
  C     -6.003098   -0.000552   -4.185877
  C     -5.132206    0.006671   -1.725264
  H     -5.917763    0.873303   -4.829394
  H     -5.918846   -0.878699   -4.823653
  H     -6.973225    0.001638   -3.699033
  H     -6.193070    0.008055   -1.495293
  H     -4.662540   -0.867116   -1.276801
  H     -4.661408    0.882569   -1.282157

 Total Charge           Charge          ....    0
 Multiplicity           Mult            ....    1
 Number of Electrons    NEL             ....   90
 Basis Dimension        Dim             ....  190

ORBITAL ENERGIES
----------------

  NO   OCC          E(Eh)            E(eV)
   0   2.0000    -102.293704     -2783.5532
   1   2.0000     -19.480031      -530.0786
   2   2.0000     -10.537829      -286.7489
   3   2.0000     -10.506385      -285.8933
   4   2.0000     -10.458008      -284.5769
   5   2.0000     -10.457472      -284.5623
   6   2.0000     -10.457373      -284.5596
   7   2.0000     -10.456504      -284.5359
   8   2.0000     -10.453710      -284.4599
   9   2.0000     -10.439120      -284.0629
  10   2.0000     -10.437188      -284.0103
  11   2.0000      -9.760817      -265.6053
  12   2.0000      -7.448433      -202.6822
  13   2.0000      -7.440209      -202.4584
  14   2.0000      -7.439971      -202.4519
  15   2.0000      -1.144988       -31.1567
  16   2.0000      -0.986437       -26.8423
  17   2.0000      -0.925550       -25.1855
  18   2.0000      -0.854415       -23.2498
  19   2.0000      -0.847057       -23.0496
  20   2.0000      -0.816683       -22.2231
  21   2.0000      -0.797846       -21.7105
  22   2.0000      -0.694919       -18.9097
  23   2.0000      -0.672925       -18.3112
  24   2.0000      -0.601639       -16.3714
  25   2.0000      -0.590360       -16.0645
  26   2.0000      -0.529983       -14.4216
  27   2.0000      -0.529094       -14.3974
  28   2.0000      -0.520655       -14.1677
  29   2.0000      -0.515938       -14.0394
  30   2.0000      -0.515120       -14.0171
  31   2.0000      -0.491948       -13.3866
  32   2.0000      -0.485359       -13.2073
  33   2.0000      -0.462839       -12.5945
  34   2.0000      -0.454563       -12.3693
  35   2.0000      -0.449331       -12.2269
  36   2.0000      -0.431908       -11.7528
  37   2.0000      -0.413895       -11.2626
  38   2.0000      -0.413311       -11.2468
  39   2.0000      -0.390054       -10.6139
  40   2.0000      -0.379022       -10.3137
  41   2.0000      -0.353724        -9.6253
  42   2.0000      -0.301978        -8.2172
  43   2.0000      -0.301666        -8.2087
  44   2.0000      -0.280801        -7.6410
  45   0.0000       0.010229         0.2783
  46   0.0000       0.011675         0.3177
  47   0.0000       0.015382         0.4186
  48   0.0000       0.090884         2.4731
  49   0.0000       0.144518         3.9325

MULLIKEN ATOMIC CHARGES
-----------------------
   0 C :   -0.191737
   1 C :   -0.225940
   2 C :   -0.218145
   3 C :   -0.226011
   4 C :   -0.191038
   5 H :    0.238251
   6 H :    0.226047
   7 H :    0.223736
   8 H :    0.227422
   9 H :    0.246700
  10 C :   -0.022946
  11 Cl:   -0.089214
  12 O :   -0.351570
  13 C :    0.354992
  14 C :   -0.738977
  15 C :   -0.744175
  16 H :    0.259910
  17 H :    0.259912
  18 H :    0.219518
  19 H :    0.218167
  20 H :    0.262540
  21 H :    0.262558
Sum of atomic charges:    0.0000000

LOEWDIN ATOMIC CHARGES
----------------------
   0 C :   -0.150613
   1 C :   -0.127678
   2 C :   -0.141037
   3 C :   -0.126698
   4 C :   -0.147655
   5 H :    0.144972
   6 H :    0.139381
   7 H :    0.138382
   8 H :    0.140042
   9 H :    0.148588
  10 C :   -0.126319
  11 Cl:    0.108321
  12 O :   -0.206641
  13 C :    0.105530
  14 C :   -0.398833
  15 C :   -0.402275
  16 H :    0.159714
  17 H :    0.159716
  18 H :    0.131318
  19 H :    0.130070
  20 H :    0.160854
  21 H :    0.160862

  Mayer bond orders larger than 0.100000
B(  0-C ,  1-C ) :   1.4226 B(  0-C ,  5-H ) :   0.9111 B(  0-C , 10-C ) :   1.3605
B(  1-C ,  2-C ) :   1.4228 B(  1-C ,  6-H ) :   0.9175 B(  2-C ,  3-C ) :   1.4216
B(  2-C ,  7-H ) :   0.9190 B(  3-C ,  4-C ) :   1.4223 B(  3-C ,  8-H ) :   0.9171
B(  4-C ,  9-H ) :   0.9076 B(  4-C , 10-C ) :   1.3619 B( 10-C , 11-Cl) :   1.0301
B( 12-O , 13-C ) :   2.1006 B( 13-C , 14-C ) :   0.9323 B( 13-C , 15-C ) :   0.9356
B( 14-C , 16-H ) :   0.9101 B( 14-C , 17-H ) :   0.9101 B( 14-C , 18-H ) :   0.9208
B( 15-C , 19-H ) :   0.9197 B( 15-C , 20-H ) :   0.9075 B( 15-C , 21-H ) :   0.9075

Dispersion correction           -0.011245904
FINAL SINGLE POINT ENERGY      -883.568764978582

DIPOLE MOMENT
-------------
                                X             Y             Z
Electronic contribution:      9.84588      -0.00871       0.75283
Nuclear contribution   :    -10.46082       0.01015      -0.08799
                        -----------------------------------------
Total Dipole Moment    :     -0.61494       0.00143       0.66484
                        -----------------------------------------
Magnitude (a.u.)       :      0.90563
Magnitude (Debye)      :      2.30193

Rotational constants in cm-1:     0.113892     0.009643     0.008919
Rotational constants in MHz :  3414.397940   289.085540   267.391759

                             ****ORCA TERMINATED NORMALLY****
TOTAL RUN TIME: 0 days 0 hours 2 minutes 26 seconds 568 msec
