                         Program Version 5.0.3 -  RELEASE  -
|  1> ! PBEh-3c def2/J TightSCF DefGrid3
|  2>
|  3> %maxcore 60000
|  4>
|  5> %pal
|  6> nprocs 4
|  7> end
|  8>
|  9> *xyzfile 0 1 heptatriyne.xyz
| 10>
| 11>                          ****END OF INPUT****

CARTESIAN COORDINATES (ANGSTROEM)
---------------------------------
  C      0.000000    0.000000   -4.573717
  C      0.000000    0.000000   -3.365883
  C      0.000000    0.000000   -2.010632
  C      0.000000    0.000000   -0.794302
  C      0.000000    0.000000    0.559893
  C      0.000000    0.000000    1.770067
  C      0.000000    0.000000    3.219602
  H      0.000000    0.000000   -5.636029
  H     -0.510359   -0.883968    3.610334
  H     -0.510359    0.883968    3.610334
  H      1.020718    0.000000    3.610334

 Total Charge           Charge          ....    0
 Multiplicity           Mult            ....    1
 Number of Electrons    NEL             ....   46
 Basis Dimension        Dim             ....  113

ORBITAL ENERGIES
----------------

  NO   OCC          E(Eh)            E(eV)
   0   2.0000     -10.488047      -285.3943
   1   2.0000     -10.483388      -285.2675
   2   2.0000     -10.482459      -285.2422
   3   2.0000     -10.480142      -285.1792
   4   2.0000     -10.475249      -285.0460
   5   2.0000     -10.471916      -284.9553
   6   2.0000     -10.471521      -284.9446
   7   2.0000      -0.917584       -24.9687
   8   2.0000      -0.893376       -24.3100
   9   2.0000      -0.854768       -23.2594
  10   2.0000      -0.807742       -21.9798
  11   2.0000      -0.723058       -19.6754
  12   2.0000      -0.654176       -17.8010
  13   2.0000      -0.590658       -16.0726
  14   2.0000      -0.541506       -14.7351
  15   2.0000      -0.507433       -13.8079
  16   2.0000      -0.507433       -13.8079
  17   2.0000      -0.428611       -11.6631
  18   2.0000      -0.428611       -11.6631
  19   2.0000      -0.365896        -9.9565
  20   2.0000      -0.365896        -9.9565
  21   2.0000      -0.281114        -7.6495
  22   2.0000      -0.281113        -7.6495
  23   0.0000      -0.031768        -0.8645
  24   0.0000      -0.031768        -0.8645
  25   0.0000       0.102159         2.7799
  26   0.0000       0.102159         2.7799
  27   0.0000       0.137732         3.7479

MULLIKEN ATOMIC CHARGES
-----------------------
   0 C :   -0.499492
   1 C :    0.140778
   2 C :    0.051381
   3 C :    0.036987
   4 C :    0.055197
   5 C :    0.018889
   6 C :   -0.815805
   7 H :    0.231789
   8 H :    0.260093
   9 H :    0.260093
  10 H :    0.260092
Sum of atomic charges:    0.0000000

LOEWDIN ATOMIC CHARGES
----------------------
   0 C :   -0.133902
   1 C :   -0.039677
   2 C :   -0.031681
   3 C :   -0.010022
   4 C :   -0.078766
   5 C :   -0.001132
   6 C :   -0.356767
   7 H :    0.171257
   8 H :    0.160231
   9 H :    0.160231
  10 H :    0.160230

  Mayer bond orders larger than 0.100000
B(  0-C ,  1-C ) :   2.4347 B(  0-C ,  2-C ) :  -0.1666 B(  0-C ,  3-C ) :   0.2144
B(  0-C ,  7-H ) :   0.9650 B(  1-C ,  2-C ) :   1.0055 B(  1-C ,  3-C ) :  -0.1621
B(  2-C ,  3-C ) :   2.1024 B(  2-C ,  4-C ) :  -0.1612 B(  2-C ,  5-C ) :   0.2090
B(  3-C ,  4-C ) :   1.0292 B(  3-C ,  5-C ) :  -0.1521 B(  4-C ,  5-C ) :   2.2536
B(  4-C ,  6-C ) :  -0.1099 B(  5-C ,  6-C ) :   1.0257 B(  6-C ,  8-H ) :   0.9038
B(  6-C ,  9-H ) :   0.9038 B(  6-C , 10-H ) :   0.9038

Dispersion correction           -0.004171384
FINAL SINGLE POINT ENERGY      -268.341404845325

DIPOLE MOMENT
-------------
                                X             Y             Z
Electronic contribution:     -0.00000      -0.00000      -6.68548
Nuclear contribution   :     -0.00000       0.00000       7.30835
                        -----------------------------------------
Total Dipole Moment    :     -0.00000      -0.00000       0.62287
                        -----------------------------------------
Magnitude (a.u.)       :      0.62287
Magnitude (Debye)      :      1.58322

Rotational constants in cm-1:     5.350610     0.026124     0.026124
Rotational constants in MHz : 160407.248693   783.175870   783.175870

                             ****ORCA TERMINATED NORMALLY****
TOTAL RUN TIME: 0 days 0 hours 0 minutes 59 seconds 544 msec
