                         Program Version 5.0.3 -  RELEASE  -
|  1> ! PBEh-3c def2/J TightSCF DefGrid3
|  2>
|  3> %maxcore 60000
|  4>
|  5> %pal
|  6> nprocs 4
|  7> end
|  8>
|  9> *xyzfile 0 1 38.xyz
| 10>
| 11>                          ****END OF INPUT****

CARTESIAN COORDINATES (ANGSTROEM)
---------------------------------
  N      1.026745    2.775635   -0.031329
  C     -0.262186    2.427831   -0.375458
  C     -0.350178    1.067896   -0.567398
  C      0.967044    0.542804   -0.328131
  C      1.510173   -0.749711   -0.375699
  C      2.860034   -0.924265   -0.094880
  C      3.680904    0.177897    0.234640
  C      3.159477    1.466413    0.283928
  C      1.804248    1.638942    0.001427
  H      1.350697    3.710786    0.132530
  H     -1.027658    3.181832   -0.466606
  H      0.913286   -1.615781   -0.629925
  H      4.728030    0.035691    0.452036
  H      3.799015    2.302861    0.534694
  O      3.317088   -2.215839   -0.162012
  C      4.691278   -2.427980    0.113006
  H      4.947716   -2.124112    1.130253
  H      5.328411   -1.894793   -0.595947
  H      4.853627   -3.496382    0.006985
  C     -1.577617    0.280792   -0.901860
  C     -2.111340   -0.484069    0.320565
  N     -3.274206   -1.303065    0.031956
  C     -4.585086   -0.909709    0.055795
  C     -4.875654    0.440276    0.682967
  H     -1.361418   -0.438074   -1.696998
  H     -2.359466    0.942710   -1.280225
  H     -2.357141    0.221934    1.111658
  H     -1.326215   -1.130230    0.714911
  H     -3.129684   -2.181035   -0.442111
  O     -5.474718   -1.628273   -0.376529
  H     -5.942534    0.619886    0.601625
  H     -4.334104    1.241921    0.181602
  H     -4.588568    0.447210    1.734520

 Total Charge           Charge          ....    0
 Multiplicity           Mult            ....    1
 Number of Electrons    NEL             ....  124
 Basis Dimension        Dim             ....  287

ORBITAL ENERGIES
----------------

  NO   OCC          E(Eh)            E(eV)
   0   2.0000     -19.521532      -531.2079
   1   2.0000     -19.444725      -529.1179
   2   2.0000     -14.688099      -399.6835
   3   2.0000     -14.651110      -398.6770
   4   2.0000     -10.540449      -286.8202
   5   2.0000     -10.504040      -285.8295
   6   2.0000     -10.489360      -285.4300
   7   2.0000     -10.484581      -285.3000
   8   2.0000     -10.480941      -285.2009
   9   2.0000     -10.479541      -285.1628
  10   2.0000     -10.456875      -284.5460
  11   2.0000     -10.450017      -284.3594
  12   2.0000     -10.449182      -284.3367
  13   2.0000     -10.448529      -284.3189
  14   2.0000     -10.445879      -284.2468
  15   2.0000     -10.441796      -284.1357
  16   2.0000     -10.436625      -283.9950
  17   2.0000      -1.169460       -31.8226
  18   2.0000      -1.130800       -30.7706
  19   2.0000      -1.090686       -29.6791
  20   2.0000      -1.015703       -27.6387
  21   2.0000      -0.941779       -25.6271
  22   2.0000      -0.902827       -24.5672
  23   2.0000      -0.846995       -23.0479
  24   2.0000      -0.836685       -22.7674
  25   2.0000      -0.822496       -22.3813
  26   2.0000      -0.806710       -21.9517
  27   2.0000      -0.775196       -21.0942
  28   2.0000      -0.730239       -19.8708
  29   2.0000      -0.706286       -19.2190
  30   2.0000      -0.668699       -18.1962
  31   2.0000      -0.644757       -17.5447
  32   2.0000      -0.635789       -17.3007
  33   2.0000      -0.615402       -16.7459
  34   2.0000      -0.579917       -15.7803
  35   2.0000      -0.562040       -15.2939
  36   2.0000      -0.558393       -15.1947
  37   2.0000      -0.544996       -14.8301
  38   2.0000      -0.531465       -14.4619
  39   2.0000      -0.529406       -14.4059
  40   2.0000      -0.513257       -13.9664
  41   2.0000      -0.503073       -13.6893
  42   2.0000      -0.497902       -13.5486
  43   2.0000      -0.488996       -13.3063
  44   2.0000      -0.475478       -12.9384
  45   2.0000      -0.471559       -12.8318
  46   2.0000      -0.458680       -12.4813
  47   2.0000      -0.454698       -12.3730
  48   2.0000      -0.451956       -12.2984
  49   2.0000      -0.446826       -12.1588
  50   2.0000      -0.441302       -12.0084
  51   2.0000      -0.418691       -11.3932
  52   2.0000      -0.415660       -11.3107
  53   2.0000      -0.407757       -11.0956
  54   2.0000      -0.398997       -10.8573
  55   2.0000      -0.380255       -10.3473
  56   2.0000      -0.355512        -9.6740
  57   2.0000      -0.325337        -8.8529
  58   2.0000      -0.298425        -8.1206
  59   2.0000      -0.292036        -7.9467
  60   2.0000      -0.252474        -6.8702
  61   2.0000      -0.237294        -6.4571
  62   0.0000       0.000107         0.0029
  63   0.0000       0.055234         1.5030
  64   0.0000       0.068030         1.8512
  65   0.0000       0.089022         2.4224
  66   0.0000       0.115954         3.1553

MULLIKEN ATOMIC CHARGES
-----------------------
   0 N :   -0.704133
   1 C :   -0.056385
   2 C :    0.023301
   3 C :    0.083077
   4 C :   -0.447344
   5 C :    0.403989
   6 C :   -0.365030
   7 C :   -0.256336
   8 C :    0.364485
   9 H :    0.358826
  10 H :    0.238705
  11 H :    0.213523
  12 H :    0.232125
  13 H :    0.215277
  14 O :   -0.468957
  15 C :   -0.404558
  16 H :    0.204029
  17 H :    0.204612
  18 H :    0.240537
  19 C :   -0.533805
  20 C :   -0.277632
  21 N :   -0.609765
  22 C :    0.496155
  23 C :   -0.780477
  24 H :    0.231068
  25 H :    0.228157
  26 H :    0.234809
  27 H :    0.250904
  28 H :    0.358458
  29 O :   -0.419299
  30 H :    0.271817
  31 H :    0.227998
  32 H :    0.241867
Sum of atomic charges:    0.0000000

LOEWDIN ATOMIC CHARGES
----------------------
   0 N :   -0.161105
   1 C :   -0.078829
   2 C :   -0.108842
   3 C :   -0.048375
   4 C :   -0.162327
   5 C :    0.060510
   6 C :   -0.191714
   7 C :   -0.148522
   8 C :    0.006913
   9 H :    0.261863
  10 H :    0.135285
  11 H :    0.143414
  12 H :    0.140701
  13 H :    0.137044
  14 O :   -0.193814
  15 C :   -0.180483
  16 H :    0.112139
  17 H :    0.112466
  18 H :    0.130656
  19 C :   -0.236491
  20 C :   -0.147537
  21 N :   -0.245390
  22 C :    0.106260
  23 C :   -0.398359
  24 H :    0.134732
  25 H :    0.132020
  26 H :    0.131689
  27 H :    0.132554
  28 H :    0.258031
  29 O :   -0.275256
  30 H :    0.156042
  31 H :    0.138314
  32 H :    0.146409

  Mayer bond orders larger than 0.100000
B(  0-N ,  1-C ) :   1.1372 B(  0-N ,  8-C ) :   1.0009 B(  0-N ,  9-H ) :   0.8334
B(  1-C ,  2-C ) :   1.5599 B(  1-C , 10-H ) :   0.9112 B(  2-C ,  3-C ) :   1.2309
B(  2-C , 19-C ) :   0.9445 B(  3-C ,  4-C ) :   1.2837 B(  3-C ,  8-C ) :   1.2298
B(  4-C ,  5-C ) :   1.4418 B(  4-C ,  7-C ) :   0.1021 B(  4-C , 11-H ) :   0.9283
B(  5-C ,  6-C ) :   1.2832 B(  5-C , 14-O ) :   1.0142 B(  6-C ,  7-C ) :   1.4723
B(  6-C , 12-H ) :   0.9050 B(  7-C ,  8-C ) :   1.3162 B(  7-C , 13-H ) :   0.9204
B( 14-O , 15-C ) :   0.9566 B( 15-C , 16-H ) :   0.9076 B( 15-C , 17-H ) :   0.9075
B( 15-C , 18-H ) :   0.9234 B( 19-C , 20-C ) :   0.9451 B( 19-C , 24-H ) :   0.9174
B( 19-C , 25-H ) :   0.9259 B( 20-C , 21-N ) :   0.9530 B( 20-C , 26-H ) :   0.9069
B( 20-C , 27-H ) :   0.9081 B( 21-N , 22-C ) :   1.1537 B( 21-N , 28-H ) :   0.8230
B( 22-C , 23-C ) :   0.9265 B( 22-C , 29-O ) :   2.0319 B( 23-C , 30-H ) :   0.9159
B( 23-C , 31-H ) :   0.9097 B( 23-C , 32-H ) :   0.9090

Dispersion correction           -0.021076121
FINAL SINGLE POINT ENERGY      -763.323191750945

DIPOLE MOMENT
-------------
                                X             Y             Z
Electronic contribution:      1.99138       1.18399      -2.05107
Nuclear contribution   :     -0.03154       0.46427       2.58969
                        -----------------------------------------
Total Dipole Moment    :      1.95984       1.64826       0.53862
                        -----------------------------------------
Magnitude (a.u.)       :      2.61684
Magnitude (Debye)      :      6.65148

Rotational constants in cm-1:     0.027868     0.006946     0.005715
Rotational constants in MHz :   835.468944   208.236315   171.327461

                             ****ORCA TERMINATED NORMALLY****
TOTAL RUN TIME: 0 days 0 hours 4 minutes 27 seconds 854 msec
