                         Program Version 5.0.3 -  RELEASE  -
|  1> ! PBEh-3c def2/J TightSCF DefGrid3
|  2>
|  3> %maxcore 60000
|  4>
|  5> %pal
|  6> nprocs 4
|  7> end
|  8>
|  9> *xyzfile 0 1 19b.xyz
| 10>
| 11>                          ****END OF INPUT****

CARTESIAN COORDINATES (ANGSTROEM)
---------------------------------
  N      0.000000    0.000000    1.134185
  C      0.000000    0.000000   -0.033153
  H      0.000000    0.000000   -1.101032

 Total Charge           Charge          ....    0
 Multiplicity           Mult            ....    1
 Number of Electrons    NEL             ....   14
 Basis Dimension        Dim             ....   32

ORBITAL ENERGIES
----------------

  NO   OCC          E(Eh)            E(eV)
   0   2.0000     -14.674174      -399.3046
   1   2.0000     -10.508333      -285.9463
   2   2.0000      -1.019940       -27.7540
   3   2.0000      -0.680256       -18.5107
   4   2.0000      -0.449519       -12.2320
   5   2.0000      -0.412685       -11.2297
   6   2.0000      -0.412685       -11.2297
   7   0.0000       0.046746         1.2720
   8   0.0000       0.046746         1.2720
   9   0.0000       0.128427         3.4947
  10   0.0000       0.356273         9.6947
  11   0.0000       0.512683        13.9508

MULLIKEN ATOMIC CHARGES
-----------------------
   0 N :   -0.169755
   1 C :   -0.132008
   2 H :    0.301763
Sum of atomic charges:    0.0000000

LOEWDIN ATOMIC CHARGES
----------------------
   0 N :   -0.051813
   1 C :   -0.108038
   2 H :    0.159851

  Mayer bond orders larger than 0.100000
B(  0-N ,  1-C ) :   3.1356 B(  1-C ,  2-H ) :   0.8564

Dispersion correction           -0.000446898
FINAL SINGLE POINT ENERGY       -93.205548989089

DIPOLE MOMENT
-------------
                                X             Y             Z
Electronic contribution:     -0.00000      -0.00000       0.34949
Nuclear contribution   :      0.00000       0.00000      -1.52878
                        -----------------------------------------
Total Dipole Moment    :     -0.00000      -0.00000      -1.17929
                        -----------------------------------------
Magnitude (a.u.)       :      1.17929
Magnitude (Debye)      :      2.99751

Rotational constants in cm-1:     0.000000     1.452777     1.452777
Rotational constants in MHz :     0.000000 43553.156147 43553.156147

                             ****ORCA TERMINATED NORMALLY****
TOTAL RUN TIME: 0 days 0 hours 0 minutes 50 seconds 410 msec
