                         Program Version 5.0.3 -  RELEASE  -
|  1> ! PBEh-3c def2/J TightSCF DefGrid3
|  2>
|  3> %maxcore 60000
|  4>
|  5> %pal
|  6> nprocs 4
|  7> end
|  8>
|  9> *xyzfile 0 3 so.xyz
| 10>
| 11>                          ****END OF INPUT****

CARTESIAN COORDINATES (ANGSTROEM)
---------------------------------
  S      0.494774    0.000000    0.000000
  O     -0.991441    0.000000    0.000000

 Total Charge           Charge          ....    0
 Multiplicity           Mult            ....    3
 Number of Electrons    NEL             ....   24
 Basis Dimension        Dim             ....   33

ORBITAL ENERGIES
----------------
                 SPIN UP ORBITALS
  NO   OCC          E(Eh)            E(eV)
   0   1.0000     -89.678574     -2440.2781
   1   1.0000     -19.575193      -532.6681
   2   1.0000      -8.313416      -226.2196
   3   1.0000      -6.203766      -168.8130
   4   1.0000      -6.203766      -168.8130
   5   1.0000      -6.201139      -168.7416
   6   1.0000      -1.207415       -32.8554
   7   1.0000      -0.765583       -20.8326
   8   1.0000      -0.529804       -14.4167
   9   1.0000      -0.529804       -14.4167
  10   1.0000      -0.516264       -14.0483
  11   1.0000      -0.313865        -8.5407
  12   1.0000      -0.313865        -8.5407
  13   0.0000       0.066884         1.8200
  14   0.0000       0.336381         9.1534
  15   0.0000       0.629810        17.1380
  16   0.0000       0.629812        17.1380
  17   0.0000       0.637091        17.3361

                 SPIN DOWN ORBITALS
  NO   OCC          E(Eh)            E(eV)
   0   1.0000     -89.670480     -2440.0578
   1   1.0000     -19.547411      -531.9121
   2   1.0000      -8.305323      -225.9993
   3   1.0000      -6.197350      -168.6385
   4   1.0000      -6.186074      -168.3316
   5   1.0000      -6.186074      -168.3316
   6   1.0000      -1.149287       -31.2737
   7   1.0000      -0.681569       -18.5464
   8   1.0000      -0.475692       -12.9442
   9   1.0000      -0.429801       -11.6955
  10   1.0000      -0.429801       -11.6955
  11   0.0000      -0.084672        -2.3040
  12   0.0000      -0.084672        -2.3040
  13   0.0000       0.096381         2.6227
  14   0.0000       0.361788         9.8448
  15   0.0000       0.675778        18.3888

MULLIKEN ATOMIC CHARGES AND SPIN POPULATIONS
--------------------------------------------
   0 S :    0.415451    1.218109
   1 O :   -0.415451    0.781891
Sum of atomic charges         :    0.0000000

LOEWDIN ATOMIC CHARGES AND SPIN POPULATIONS
-------------------------------------------
   0 S :    0.355014    1.210643
   1 O :   -0.355014    0.789357

  Mayer bond orders larger than 0.100000
B(  0-S ,  1-O ) :   1.9128

Dispersion correction           -0.000274963
FINAL SINGLE POINT ENERGY      -472.749186578706

DIPOLE MOMENT
-------------
                                X             Y             Z
Electronic contribution:      0.67806       0.00000      -0.00000
Nuclear contribution   :     -0.02899       0.00000       0.00000
                        -----------------------------------------
Total Dipole Moment    :      0.64907       0.00000      -0.00000
                        -----------------------------------------
Magnitude (a.u.)       :      0.64907
Magnitude (Debye)      :      1.64981

Rotational constants in cm-1:     0.000000     0.715076     0.715076
Rotational constants in MHz :     0.000000 21437.431783 21437.431783

                             ****ORCA TERMINATED NORMALLY****
TOTAL RUN TIME: 0 days 0 hours 0 minutes 48 seconds 549 msec
