                         Program Version 5.0.3 -  RELEASE  -
|  1> ! PBEh-3c def2/J TightSCF DefGrid3
|  2>
|  3> %maxcore 60000
|  4>
|  5> %pal
|  6> nprocs 4
|  7> end
|  8>
|  9> *xyzfile -1 1 hoch3fts.xyz
| 10>
| 11>                          ****END OF INPUT****

CARTESIAN COORDINATES (ANGSTROEM)
---------------------------------
  F      2.137702    0.082588   -0.000199
  C      0.377942    0.106353    0.000198
  H      0.327992    1.175315   -0.011820
  H      0.324248   -0.432246   -0.923015
  H      0.324571   -0.411696    0.935059
  O     -1.605718    0.199033   -0.000189
  H     -1.886738   -0.719346   -0.000032

 Total Charge           Charge          ....   -1
 Multiplicity           Mult            ....    1
 Number of Electrons    NEL             ....   28
 Basis Dimension        Dim             ....   53

ORBITAL ENERGIES
----------------

  NO   OCC          E(Eh)            E(eV)
   0   2.0000     -24.715561      -672.5446
   1   2.0000     -19.152275      -521.1599
   2   2.0000     -10.277118      -279.6546
   3   2.0000      -0.910552       -24.7774
   4   2.0000      -0.739316       -20.1178
   5   2.0000      -0.534269       -14.5382
   6   2.0000      -0.282834        -7.6963
   7   2.0000      -0.282190        -7.6788
   8   2.0000      -0.200228        -5.4485
   9   2.0000      -0.156967        -4.2713
  10   2.0000      -0.119088        -3.2406
  11   2.0000      -0.116566        -3.1719
  12   2.0000      -0.033983        -0.9247
  13   2.0000      -0.028297        -0.7700
  14   0.0000       0.336146         9.1470
  15   0.0000       0.358874         9.7655
  16   0.0000       0.423338        11.5196
  17   0.0000       0.426473        11.6049
  18   0.0000       0.435746        11.8573

MULLIKEN ATOMIC CHARGES
-----------------------
   0 F :   -0.641965
   1 C :   -0.276340
   2 H :    0.199443
   3 H :    0.182349
   4 H :    0.182896
   5 O :   -0.933683
   6 H :    0.287301
Sum of atomic charges:   -1.0000000

LOEWDIN ATOMIC CHARGES
----------------------
   0 F :   -0.594352
   1 C :   -0.121709
   2 H :    0.115089
   3 H :    0.106720
   4 H :    0.106913
   5 O :   -0.818546
   6 H :    0.205885

  Mayer bond orders larger than 0.100000
B(  0-F ,  1-C ) :   0.5300 B(  1-C ,  2-H ) :   0.9372 B(  1-C ,  3-H ) :   0.9362
B(  1-C ,  4-H ) :   0.9360 B(  1-C ,  5-O ) :   0.4974 B(  5-O ,  6-H ) :   0.8826

Dispersion correction           -0.001476904
FINAL SINGLE POINT ENERGY      -215.041894984818

DIPOLE MOMENT
-------------
                                X             Y             Z
Electronic contribution:      4.15986       0.23346      -0.00013
Nuclear contribution   :     -3.89028      -0.75148       0.00060
                        -----------------------------------------
Total Dipole Moment    :      0.26958      -0.51802       0.00047
                        -----------------------------------------
Magnitude (a.u.)       :      0.58397
Magnitude (Debye)      :      1.48433

Rotational constants in cm-1:     3.955187     0.130962     0.130172
Rotational constants in MHz : 118573.512243  3926.144214  3902.446231

                             ****ORCA TERMINATED NORMALLY****
TOTAL RUN TIME: 0 days 0 hours 0 minutes 36 seconds 20 msec
