                         Program Version 5.0.3 -  RELEASE  -
|  1> ! PBEh-3c def2/J TightSCF DefGrid3
|  2>
|  3> %maxcore 60000
|  4>
|  5> %pal
|  6> nprocs 4
|  7> end
|  8>
|  9> *xyzfile 0 1 R20.xyz
| 10>
| 11>                          ****END OF INPUT****

CARTESIAN COORDINATES (ANGSTROEM)
---------------------------------
  C      0.000000    0.437442    0.000000
  C     -1.388838    0.826404    0.000000
  C     -0.495159    1.787722    0.000000
  C      0.963382   -0.470444    0.000000
  C      0.717224   -1.951788    0.000000
  H     -2.428740    0.552663    0.000000
  H     -0.296759    2.844858    0.000000
  H      1.991556   -0.128558    0.000000
  H      1.152761   -2.436855    0.878551
  H     -0.351235   -2.171268    0.000000
  H      1.152761   -2.436855   -0.878551

 Total Charge           Charge          ....    0
 Multiplicity           Mult            ....    1
 Number of Electrons    NEL             ....   36
 Basis Dimension        Dim             ....   87

ORBITAL ENERGIES
----------------

  NO   OCC          E(Eh)            E(eV)
   0   2.0000     -10.484918      -285.3091
   1   2.0000     -10.483691      -285.2757
   2   2.0000     -10.469193      -284.8812
   3   2.0000     -10.415249      -283.4133
   4   2.0000     -10.412011      -283.3252
   5   2.0000      -1.006397       -27.3855
   6   2.0000      -0.838994       -22.8302
   7   2.0000      -0.721977       -19.6460
   8   2.0000      -0.658688       -17.9238
   9   2.0000      -0.625235       -17.0135
  10   2.0000      -0.538026       -14.6404
  11   2.0000      -0.469049       -12.7635
  12   2.0000      -0.454971       -12.3804
  13   2.0000      -0.431102       -11.7309
  14   2.0000      -0.422115       -11.4863
  15   2.0000      -0.403874       -10.9900
  16   2.0000      -0.349533        -9.5113
  17   2.0000      -0.233866        -6.3638
  18   0.0000       0.015071         0.4101
  19   0.0000       0.105527         2.8715
  20   0.0000       0.157819         4.2945
  21   0.0000       0.162711         4.4276
  22   0.0000       0.187995         5.1156

MULLIKEN ATOMIC CHARGES
-----------------------
   0 C :    0.233436
   1 C :   -0.225268
   2 C :   -0.217508
   3 C :   -0.390387
   4 C :   -0.676479
   5 H :    0.221039
   6 H :    0.218989
   7 H :    0.199692
   8 H :    0.212192
   9 H :    0.212103
  10 H :    0.212192
Sum of atomic charges:    0.0000000

LOEWDIN ATOMIC CHARGES
----------------------
   0 C :   -0.032622
   1 C :   -0.081775
   2 C :   -0.074594
   3 C :   -0.264141
   4 C :   -0.350599
   5 H :    0.150004
   6 H :    0.149682
   7 H :    0.129498
   8 H :    0.124162
   9 H :    0.126224
  10 H :    0.124162

  Mayer bond orders larger than 0.100000
B(  0-C ,  1-C ) :   0.9428 B(  0-C ,  2-C ) :   0.9573 B(  0-C ,  3-C ) :   1.7790
B(  1-C ,  2-C ) :   1.7487 B(  1-C ,  5-H ) :   0.9201 B(  2-C ,  6-H ) :   0.9226
B(  3-C ,  4-C ) :   0.9974 B(  3-C ,  7-H ) :   0.9227 B(  4-C ,  8-H ) :   0.9232
B(  4-C ,  9-H ) :   0.9377 B(  4-C , 10-H ) :   0.9232

Dispersion correction           -0.004158105
FINAL SINGLE POINT ENERGY      -193.579296637378

DIPOLE MOMENT
-------------
                                X             Y             Z
Electronic contribution:     -1.76863       4.35290       0.00000
Nuclear contribution   :      1.24818      -3.86213       0.00000
                        -----------------------------------------
Total Dipole Moment    :     -0.52046       0.49077       0.00000
                        -----------------------------------------
Magnitude (a.u.)       :      0.71535
Magnitude (Debye)      :      1.81828

Rotational constants in cm-1:     0.611554     0.109398     0.094416
Rotational constants in MHz : 18333.933070  3279.682673  2830.509711

                             ****ORCA TERMINATED NORMALLY****
TOTAL RUN TIME: 0 days 0 hours 0 minutes 40 seconds 255 msec
