                         Program Version 5.0.3 -  RELEASE  -
|  1> ! PBEh-3c def2/J TightSCF DefGrid3
|  2>
|  3> %maxcore 60000
|  4>
|  5> %pal
|  6> nprocs 4
|  7> end
|  8>
|  9> *xyzfile 0 1 36A.xyz
| 10>
| 11>                          ****END OF INPUT****

CARTESIAN COORDINATES (ANGSTROEM)
---------------------------------
  C      0.000000    0.000000    0.000000
  C     -0.881482   -0.881482   -0.881482
  H     -1.521812   -0.273737   -1.521812
  H     -0.273737   -1.521812   -1.521812
  H     -1.521812   -1.521812   -0.273737
  C      0.881482    0.881482   -0.881482
  H      1.521812    1.521812   -0.273737
  H      1.521812    0.273737   -1.521812
  H      0.273737    1.521812   -1.521812
  C      0.881482   -0.881482    0.881482
  H      1.521812   -0.273737    1.521812
  H      1.521812   -1.521812    0.273737
  H      0.273737   -1.521812    1.521812
  C     -0.881482    0.881482    0.881482
  H     -1.521812    0.273737    1.521812
  H     -0.273737    1.521812    1.521812
  H     -1.521812    1.521812    0.273737

 Total Charge           Charge          ....    0
 Multiplicity           Mult            ....    1
 Number of Electrons    NEL             ....   42
 Basis Dimension        Dim             ....   99

ORBITAL ENERGIES
----------------

  NO   OCC          E(Eh)            E(eV)
   0   2.0000     -10.446008      -284.2503
   1   2.0000     -10.417150      -283.4651
   2   2.0000     -10.417150      -283.4651
   3   2.0000     -10.417150      -283.4651
   4   2.0000     -10.417036      -283.4620
   5   2.0000      -0.913923       -24.8691
   6   2.0000      -0.762177       -20.7399
   7   2.0000      -0.762177       -20.7399
   8   2.0000      -0.762177       -20.7399
   9   2.0000      -0.596741       -16.2381
  10   2.0000      -0.505122       -13.7451
  11   2.0000      -0.505121       -13.7451
  12   2.0000      -0.505121       -13.7451
  13   2.0000      -0.452388       -12.3101
  14   2.0000      -0.452388       -12.3101
  15   2.0000      -0.411264       -11.1911
  16   2.0000      -0.411264       -11.1911
  17   2.0000      -0.411264       -11.1911
  18   2.0000      -0.364850        -9.9281
  19   2.0000      -0.364850        -9.9281
  20   2.0000      -0.364850        -9.9281
  21   0.0000       0.117943         3.2094
  22   0.0000       0.186846         5.0844
  23   0.0000       0.186846         5.0844
  24   0.0000       0.186847         5.0844
  25   0.0000       0.219050         5.9607

MULLIKEN ATOMIC CHARGES
-----------------------
   0 C :   -0.111688
   1 C :   -0.605484
   2 H :    0.211135
   3 H :    0.211135
   4 H :    0.211135
   5 C :   -0.605484
   6 H :    0.211135
   7 H :    0.211135
   8 H :    0.211135
   9 C :   -0.605484
  10 H :    0.211135
  11 H :    0.211135
  12 H :    0.211135
  13 C :   -0.605484
  14 H :    0.211135
  15 H :    0.211135
  16 H :    0.211135
Sum of atomic charges:    0.0000000

LOEWDIN ATOMIC CHARGES
----------------------
   0 C :   -0.116739
   1 C :   -0.343386
   2 H :    0.124190
   3 H :    0.124190
   4 H :    0.124190
   5 C :   -0.343386
   6 H :    0.124190
   7 H :    0.124190
   8 H :    0.124190
   9 C :   -0.343386
  10 H :    0.124190
  11 H :    0.124190
  12 H :    0.124190
  13 C :   -0.343386
  14 H :    0.124190
  15 H :    0.124190
  16 H :    0.124190

  Mayer bond orders larger than 0.100000
B(  0-C ,  1-C ) :   0.9826 B(  0-C ,  5-C ) :   0.9826 B(  0-C ,  9-C ) :   0.9826
B(  0-C , 13-C ) :   0.9826 B(  1-C ,  2-H ) :   0.9304 B(  1-C ,  3-H ) :   0.9304
B(  1-C ,  4-H ) :   0.9304 B(  5-C ,  6-H ) :   0.9304 B(  5-C ,  7-H ) :   0.9304
B(  5-C ,  8-H ) :   0.9304 B(  9-C , 10-H ) :   0.9304 B(  9-C , 11-H ) :   0.9304
B(  9-C , 12-H ) :   0.9304 B( 13-C , 14-H ) :   0.9304 B( 13-C , 15-H ) :   0.9304
B( 13-C , 16-H ) :   0.9304

Dispersion correction           -0.007726358
FINAL SINGLE POINT ENERGY      -197.340829029937

DIPOLE MOMENT
-------------
                                X             Y             Z
Electronic contribution:     -0.00000      -0.00000       0.00000
Nuclear contribution   :     -0.00000      -0.00000      -0.00000
                        -----------------------------------------
Total Dipole Moment    :     -0.00000      -0.00000       0.00000
                        -----------------------------------------
Magnitude (a.u.)       :      0.00000
Magnitude (Debye)      :      0.00000

Rotational constants in cm-1:     0.149690     0.149690     0.149690
Rotational constants in MHz :  4487.607569  4487.607569  4487.607569

                             ****ORCA TERMINATED NORMALLY****
TOTAL RUN TIME: 0 days 0 hours 1 minutes 12 seconds 597 msec
