                         Program Version 5.0.3 -  RELEASE  -
|  1> ! PBEh-3c def2/J TightSCF DefGrid3
|  2>
|  3> %maxcore 60000
|  4>
|  5> %pal
|  6> nprocs 4
|  7> end
|  8>
|  9> *xyzfile -1 1 OHmH2O3.xyz
| 10>
| 11>                          ****END OF INPUT****

CARTESIAN COORDINATES (ANGSTROEM)
---------------------------------
  H      1.830520   -1.896846   -0.693963
  O      2.202288   -1.151954   -0.216614
  H      1.380563   -0.684856    0.150310
  H      0.000000    0.000000    1.620593
  H     -0.097179    1.538031    0.150310
  H      0.727457    2.533700   -0.693963
  O     -0.103522    2.483214   -0.216614
  O      0.000000    0.000000    0.660209
  H     -1.283385   -0.853175    0.150310
  O     -2.098766   -1.331260   -0.216614
  H     -2.557977   -0.636854   -0.693963

 Total Charge           Charge          ....   -1
 Multiplicity           Mult            ....    1
 Number of Electrons    NEL             ....   40
 Basis Dimension        Dim             ....   74

ORBITAL ENERGIES
----------------

  NO   OCC          E(Eh)            E(eV)
   0   2.0000     -19.258524      -524.0511
   1   2.0000     -19.258523      -524.0511
   2   2.0000     -19.258481      -524.0499
   3   2.0000     -19.220275      -523.0103
   4   2.0000      -0.884663       -24.0729
   5   2.0000      -0.880380       -23.9563
   6   2.0000      -0.880379       -23.9563
   7   2.0000      -0.801155       -21.8005
   8   2.0000      -0.364676        -9.9233
   9   2.0000      -0.364675        -9.9233
  10   2.0000      -0.361131        -9.8269
  11   2.0000      -0.270315        -7.3557
  12   2.0000      -0.240170        -6.5354
  13   2.0000      -0.240170        -6.5353
  14   2.0000      -0.209424        -5.6987
  15   2.0000      -0.150171        -4.0863
  16   2.0000      -0.150169        -4.0863
  17   2.0000      -0.149258        -4.0615
  18   2.0000      -0.105202        -2.8627
  19   2.0000      -0.105199        -2.8626
  20   0.0000       0.307981         8.3806
  21   0.0000       0.338894         9.2218
  22   0.0000       0.338896         9.2218
  23   0.0000       0.370342        10.0775
  24   0.0000       0.506681        13.7875

MULLIKEN ATOMIC CHARGES
-----------------------
   0 H :    0.361990
   1 O :   -0.927194
   2 H :    0.429831
   3 H :    0.341146
   4 H :    0.429818
   5 H :    0.361988
   6 O :   -0.927181
   7 O :   -0.935028
   8 H :    0.429831
   9 O :   -0.927200
  10 H :    0.361999
Sum of atomic charges:   -1.0000000

LOEWDIN ATOMIC CHARGES
----------------------
   0 H :    0.268130
   1 O :   -0.703919
   2 H :    0.291994
   3 H :    0.241834
   4 H :    0.291990
   5 H :    0.268129
   6 O :   -0.703913
   7 O :   -0.810452
   8 H :    0.291994
   9 O :   -0.703920
  10 H :    0.268134

  Mayer bond orders larger than 0.100000
B(  0-H ,  1-O ) :   0.8485 B(  1-O ,  2-H ) :   0.6224 B(  2-H ,  7-O ) :   0.2347
B(  3-H ,  7-O ) :   0.8428 B(  4-H ,  6-O ) :   0.6224 B(  4-H ,  7-O ) :   0.2347
B(  5-H ,  6-O ) :   0.8485 B(  7-O ,  8-H ) :   0.2347 B(  8-H ,  9-O ) :   0.6224
B(  9-O , 10-H ) :   0.8485

Dispersion correction           -0.002470910
FINAL SINGLE POINT ENERGY      -304.493706411603

DIPOLE MOMENT
-------------
                                X             Y             Z
Electronic contribution:     -0.00002      -0.00000      -0.14461
Nuclear contribution   :      0.00000      -0.00000      -0.02406
                        -----------------------------------------
Total Dipole Moment    :     -0.00002      -0.00000      -0.16867
                        -----------------------------------------
Magnitude (a.u.)       :      0.16867
Magnitude (Debye)      :      0.42873

Rotational constants in cm-1:     0.095926     0.095926     0.051921
Rotational constants in MHz :  2875.798774  2875.798729  1556.565114

                             ****ORCA TERMINATED NORMALLY****
TOTAL RUN TIME: 0 days 0 hours 1 minutes 3 seconds 988 msec
