                         Program Version 5.0.3 -  RELEASE  -
|  1> ! PBEh-3c def2/J TightSCF DefGrid3
|  2>
|  3> %maxcore 60000
|  4>
|  5> %pal
|  6> nprocs 4
|  7> end
|  8>
|  9> *xyzfile 0 1 04.xyz
| 10>
| 11>                          ****END OF INPUT****

CARTESIAN COORDINATES (ANGSTROEM)
---------------------------------
  H     -0.711981    1.513164    1.646712
  B     -0.192059    2.201291    0.721867
  H     -1.779455    2.608588   -1.900200
  F      2.001047   -2.630970    0.841410
  B      1.821573   -1.833622    1.916059
  H      0.999709    1.810252    0.681965
  H     -0.173292   -2.273935   -1.880328
  Si    -1.898520   -0.738254   -0.584194
  H     -0.208712    3.343541    1.053620
  H      2.298624   -2.182869    2.951907
  C     -0.738574   -1.378034   -2.133377
  Al     0.115300    0.151401    0.686507
  Si    -1.058355    1.611204   -1.061414
  O      1.126268   -0.688679    1.788989
  H     -1.314539   -1.490065   -3.052452
  B     -0.287032   -0.023013   -1.677071

 Total Charge           Charge          ....    0
 Multiplicity           Mult            ....    1
 Number of Electrons    NEL             ....   86
 Basis Dimension        Dim             ....  158

ORBITAL ENERGIES
----------------

  NO   OCC          E(Eh)            E(eV)
   0   2.0000     -66.754464     -1816.4813
   1   2.0000     -66.753265     -1816.4487
   2   2.0000     -56.672082     -1542.1257
   3   2.0000     -25.094394      -682.8532
   4   2.0000     -19.514046      -531.0042
   5   2.0000     -10.453366      -284.4506
   6   2.0000      -7.045275      -191.7117
   7   2.0000      -6.993440      -190.3012
   8   2.0000      -6.958999      -189.3640
   9   2.0000      -5.532447      -150.5455
  10   2.0000      -5.528074      -150.4265
  11   2.0000      -4.403755      -119.8323
  12   2.0000      -3.825789      -104.1050
  13   2.0000      -3.822391      -104.0125
  14   2.0000      -3.821130      -103.9782
  15   2.0000      -3.818871      -103.9168
  16   2.0000      -3.817248      -103.8726
  17   2.0000      -3.816334      -103.8477
  18   2.0000      -2.895341       -78.7862
  19   2.0000      -2.892558       -78.7105
  20   2.0000      -2.890569       -78.6564
  21   2.0000      -1.323249       -36.0074
  22   2.0000      -1.114782       -30.3348
  23   2.0000      -0.815267       -22.1846
  24   2.0000      -0.709934       -19.3183
  25   2.0000      -0.637731       -17.3535
  26   2.0000      -0.623942       -16.9783
  27   2.0000      -0.583162       -15.8686
  28   2.0000      -0.548787       -14.9333
  29   2.0000      -0.534209       -14.5366
  30   2.0000      -0.523678       -14.2500
  31   2.0000      -0.495666       -13.4877
  32   2.0000      -0.473689       -12.8897
  33   2.0000      -0.463557       -12.6140
  34   2.0000      -0.442441       -12.0394
  35   2.0000      -0.438167       -11.9231
  36   2.0000      -0.428656       -11.6643
  37   2.0000      -0.410961       -11.1828
  38   2.0000      -0.404623       -11.0104
  39   2.0000      -0.352686        -9.5971
  40   2.0000      -0.315720        -8.5912
  41   2.0000      -0.295616        -8.0441
  42   2.0000      -0.264547        -7.1987
  43   0.0000      -0.099542        -2.7087
  44   0.0000      -0.017382        -0.4730
  45   0.0000      -0.004326        -0.1177
  46   0.0000       0.017576         0.4783
  47   0.0000       0.030008         0.8166

MULLIKEN ATOMIC CHARGES
-----------------------
   0 H :    0.055085
   1 B :   -0.530477
   2 H :    0.024043
   3 F :   -0.317177
   4 B :    0.468718
   5 H :    0.054597
   6 H :    0.270536
   7 Si:    0.018973
   8 H :    0.138042
   9 H :    0.001815
  10 C :   -0.780160
  11 Al:    0.697242
  12 Si:    0.143562
  13 O :   -0.555556
  14 H :    0.255738
  15 B :    0.055019
Sum of atomic charges:   -0.0000000

LOEWDIN ATOMIC CHARGES
----------------------
   0 H :    0.097911
   1 B :   -0.507807
   2 H :   -0.003036
   3 F :   -0.163436
   4 B :    0.174028
   5 H :    0.099450
   6 H :    0.167271
   7 Si:    0.139467
   8 H :    0.080180
   9 H :   -0.007889
  10 C :   -0.420757
  11 Al:    0.368799
  12 Si:    0.273979
  13 O :   -0.227790
  14 H :    0.161312
  15 B :   -0.231681

  Mayer bond orders larger than 0.100000
B(  0-H ,  1-B ) :   0.6778 B(  0-H , 11-Al) :   0.2388 B(  1-B ,  5-H ) :   0.7085
B(  1-B ,  8-H ) :   0.9502 B(  1-B , 11-Al) :   0.5209 B(  1-B , 12-Si) :   0.8270
B(  2-H , 12-Si) :   0.9132 B(  3-F ,  4-B ) :   1.0629 B(  4-B ,  9-H ) :   0.9549
B(  4-B , 13-O ) :   1.2063 B(  5-H , 11-Al) :   0.2047 B(  6-H , 10-C ) :   0.8885
B(  7-Si, 10-C ) :   0.7480 B(  7-Si, 11-Al) :   0.6011 B(  7-Si, 12-Si) :   0.7153
B(  7-Si, 15-B ) :   0.5785 B( 10-C , 14-H ) :   0.8903 B( 10-C , 15-B ) :   1.1219
B( 11-Al, 12-Si) :   0.1709 B( 11-Al, 13-O ) :   0.9353 B( 11-Al, 15-B ) :   0.4123
B( 12-Si, 15-B ) :   1.1138

Dispersion correction           -0.008582893
FINAL SINGLE POINT ENERGY     -1111.796653149611

DIPOLE MOMENT
-------------
                                X             Y             Z
Electronic contribution:      3.14544      -5.44495       2.30933
Nuclear contribution   :     -3.35529       5.68786      -2.49106
                        -----------------------------------------
Total Dipole Moment    :     -0.20985       0.24292      -0.18173
                        -----------------------------------------
Magnitude (a.u.)       :      0.36888
Magnitude (Debye)      :      0.93761

Rotational constants in cm-1:     0.052309     0.025294     0.019500
Rotational constants in MHz :  1568.193379   758.294694   584.583844

                             ****ORCA TERMINATED NORMALLY****
TOTAL RUN TIME: 0 days 0 hours 1 minutes 54 seconds 198 msec
