                         Program Version 5.0.3 -  RELEASE  -
|  1> ! PBEh-3c def2/J TightSCF DefGrid3
|  2>
|  3> %maxcore 60000
|  4>
|  5> %pal
|  6> nprocs 4
|  7> end
|  8>
|  9> *xyzfile 0 1 ASP_xau.xyz
| 10>
| 11>                          ****END OF INPUT****

CARTESIAN COORDINATES (ANGSTROEM)
---------------------------------
  N      0.762970   -1.156281   -0.072237
  H      0.347320   -1.964775   -0.515360
  C     -0.208972   -0.426569    0.735658
  H     -0.295922   -0.931804    1.703417
  C      0.126645    1.032094    1.042652
  C     -1.550919   -0.698323    0.035741
  H      1.017386    1.060447    1.662185
  H     -0.705858    1.434854    1.616455
  C      0.308539    1.914120   -0.177469
  O     -1.802962   -1.855925   -0.298567
  O      1.537031    1.986177   -0.675551
  O     -0.619585    2.527841   -0.671705
  N     -2.393448    0.334498   -0.130753
  C     -3.653174    0.108763   -0.816538
  H     -2.002366    1.271393   -0.147521
  H     -4.282708    0.982819   -0.684116
  H     -3.502617   -0.072389   -1.880253
  H     -4.141251   -0.761724   -0.389373
  C      2.101543   -1.023704   -0.096794
  C      2.840329   -2.070894   -0.887263
  O      2.716564   -0.100877    0.457133
  H      3.540312   -2.568284   -0.219688
  H      2.186501   -2.809384   -1.342433
  H      3.420511   -1.571846   -1.659611
  H      2.106693    1.344235   -0.185876

 Total Charge           Charge          ....    0
 Multiplicity           Mult            ....    1
 Number of Electrons    NEL             ....  100
 Basis Dimension        Dim             ....  219

ORBITAL ENERGIES
----------------

  NO   OCC          E(Eh)            E(eV)
   0   2.0000     -19.531751      -531.4860
   1   2.0000     -19.490397      -530.3607
   2   2.0000     -19.488524      -530.3097
   3   2.0000     -19.476489      -529.9822
   4   2.0000     -14.693845      -399.8399
   5   2.0000     -14.670943      -399.2167
   6   2.0000     -10.589494      -288.1548
   7   2.0000     -10.583318      -287.9867
   8   2.0000     -10.563928      -287.4591
   9   2.0000     -10.526090      -286.4295
  10   2.0000     -10.475579      -285.0550
  11   2.0000     -10.470900      -284.9277
  12   2.0000     -10.460551      -284.6461
  13   2.0000      -1.217318       -33.1249
  14   2.0000      -1.174449       -31.9584
  15   2.0000      -1.161410       -31.6036
  16   2.0000      -1.127935       -30.6927
  17   2.0000      -1.056263       -28.7424
  18   2.0000      -1.034212       -28.1423
  19   2.0000      -0.912794       -24.8384
  20   2.0000      -0.847721       -23.0677
  21   2.0000      -0.810320       -22.0499
  22   2.0000      -0.773163       -21.0388
  23   2.0000      -0.690504       -18.7896
  24   2.0000      -0.684780       -18.6338
  25   2.0000      -0.658955       -17.9311
  26   2.0000      -0.628236       -17.0952
  27   2.0000      -0.614994       -16.7348
  28   2.0000      -0.567997       -15.4560
  29   2.0000      -0.561690       -15.2844
  30   2.0000      -0.544105       -14.8059
  31   2.0000      -0.541335       -14.7305
  32   2.0000      -0.533745       -14.5240
  33   2.0000      -0.519705       -14.1419
  34   2.0000      -0.512575       -13.9479
  35   2.0000      -0.496053       -13.4983
  36   2.0000      -0.491249       -13.3676
  37   2.0000      -0.483137       -13.1468
  38   2.0000      -0.475150       -12.9295
  39   2.0000      -0.459555       -12.5051
  40   2.0000      -0.448797       -12.2124
  41   2.0000      -0.447693       -12.1823
  42   2.0000      -0.436412       -11.8754
  43   2.0000      -0.417336       -11.3563
  44   2.0000      -0.372128       -10.1261
  45   2.0000      -0.354352        -9.6424
  46   2.0000      -0.343143        -9.3374
  47   2.0000      -0.335693        -9.1347
  48   2.0000      -0.324291        -8.8244
  49   2.0000      -0.312840        -8.5128
  50   0.0000       0.019029         0.5178
  51   0.0000       0.028727         0.7817
  52   0.0000       0.043790         1.1916
  53   0.0000       0.113867         3.0985
  54   0.0000       0.148443         4.0393

MULLIKEN ATOMIC CHARGES
-----------------------
   0 N :   -0.639345
   1 H :    0.398311
   2 C :   -0.129439
   3 H :    0.284533
   4 C :   -0.676230
   5 C :    0.536124
   6 H :    0.301492
   7 H :    0.277273
   8 C :    0.562084
   9 O :   -0.455568
  10 O :   -0.574606
  11 O :   -0.412361
  12 N :   -0.654004
  13 C :   -0.497150
  14 H :    0.411541
  15 H :    0.228087
  16 H :    0.235001
  17 H :    0.248258
  18 C :    0.550519
  19 C :   -0.738576
  20 O :   -0.502940
  21 H :    0.265587
  22 H :    0.229975
  23 H :    0.268202
  24 H :    0.483230
Sum of atomic charges:   -0.0000000

LOEWDIN ATOMIC CHARGES
----------------------
   0 N :   -0.208952
   1 H :    0.277489
   2 C :   -0.071366
   3 H :    0.152727
   4 C :   -0.300651
   5 C :    0.104103
   6 H :    0.165915
   7 H :    0.158637
   8 C :    0.135994
   9 O :   -0.292756
  10 O :   -0.279601
  11 O :   -0.244431
  12 N :   -0.238132
  13 C :   -0.249839
  14 H :    0.271266
  15 H :    0.130752
  16 H :    0.128988
  17 H :    0.141772
  18 C :    0.126246
  19 C :   -0.379224
  20 O :   -0.322371
  21 H :    0.162419
  22 H :    0.135930
  23 H :    0.163036
  24 H :    0.332051

  Mayer bond orders larger than 0.100000
B(  0-N ,  1-H ) :   0.7677 B(  0-N ,  2-C ) :   0.9119 B(  0-N , 18-C ) :   1.2219
B(  2-C ,  3-H ) :   0.8789 B(  2-C ,  4-C ) :   0.9585 B(  2-C ,  5-C ) :   0.9067
B(  4-C ,  6-H ) :   0.8680 B(  4-C ,  7-H ) :   0.8822 B(  4-C ,  8-C ) :   0.9265
B(  5-C ,  9-O ) :   1.9035 B(  5-C , 12-N ) :   1.2206 B(  8-C , 10-O ) :   1.2417
B(  8-C , 11-O ) :   1.9471 B( 10-O , 24-H ) :   0.6273 B( 11-O , 14-H ) :   0.1091
B( 12-N , 13-C ) :   0.9552 B( 12-N , 14-H ) :   0.7126 B( 13-C , 15-H ) :   0.9237
B( 13-C , 16-H ) :   0.9133 B( 13-C , 17-H ) :   0.9131 B( 18-C , 19-C ) :   0.9387
B( 18-C , 20-O ) :   1.7837 B( 19-C , 21-H ) :   0.9030 B( 19-C , 22-H ) :   0.9173
B( 19-C , 23-H ) :   0.9029 B( 20-O , 24-H ) :   0.1328

Dispersion correction           -0.015158984
FINAL SINGLE POINT ENERGY      -682.971271634132

DIPOLE MOMENT
-------------
                                X             Y             Z
Electronic contribution:      2.31741       3.95637       0.93192
Nuclear contribution   :     -2.37332      -4.91928      -0.37611
                        -----------------------------------------
Total Dipole Moment    :     -0.05591      -0.96290       0.55581
                        -----------------------------------------
Magnitude (a.u.)       :      1.11321
Magnitude (Debye)      :      2.82955

Rotational constants in cm-1:     0.036498     0.020819     0.014899
Rotational constants in MHz :  1094.195277   624.151072   446.666032

                             ****ORCA TERMINATED NORMALLY****
TOTAL RUN TIME: 0 days 0 hours 3 minutes 16 seconds 747 msec
