                         Program Version 5.0.3 -  RELEASE  -
|  1> ! PBEh-3c def2/J TightSCF DefGrid3
|  2>
|  3> %maxcore 60000
|  4>
|  5> %pal
|  6> nprocs 4
|  7> end
|  8>
|  9> *xyzfile 0 1 hexandione.xyz
| 10>
| 11>                          ****END OF INPUT****

CARTESIAN COORDINATES (ANGSTROEM)
---------------------------------
  C     -2.437305   -0.607046   -1.256514
  H     -2.539117   -0.715252   -2.348081
  H     -2.443548    0.473860   -1.046696
  H     -3.276021   -1.105334   -0.758719
  C     -1.126289   -1.208482   -0.811465
  C      0.141498   -0.462803   -1.259571
  H      0.953151   -1.195646   -1.347980
  H     -0.027798    0.055660   -2.211732
  C      0.473718    0.597263   -0.195234
  C      1.420858    0.151626    0.900940
  H      2.386541   -0.081008    0.415650
  H      1.054768   -0.824885    1.265549
  C      1.595369    1.160009    2.030797
  H      0.638164    1.362867    2.529139
  H      2.300604    0.779558    2.781938
  H      1.975256    2.117003    1.650896
  O     -1.050397   -2.199919   -0.106330
  O     -0.039452    1.702529   -0.232586

 Total Charge           Charge          ....    0
 Multiplicity           Mult            ....    1
 Number of Electrons    NEL             ....   62
 Basis Dimension        Dim             ....  140

ORBITAL ENERGIES
----------------

  NO   OCC          E(Eh)            E(eV)
   0   2.0000     -19.500506      -530.6357
   1   2.0000     -19.499269      -530.6021
   2   2.0000     -10.555865      -287.2397
   3   2.0000     -10.553760      -287.1824
   4   2.0000     -10.464535      -284.7545
   5   2.0000     -10.457777      -284.5706
   6   2.0000     -10.449819      -284.3540
   7   2.0000     -10.434698      -283.9426
   8   2.0000      -1.164045       -31.6753
   9   2.0000      -1.158031       -31.5116
  10   2.0000      -0.893450       -24.3120
  11   2.0000      -0.864701       -23.5297
  12   2.0000      -0.816835       -22.2272
  13   2.0000      -0.731224       -19.8976
  14   2.0000      -0.627568       -17.0770
  15   2.0000      -0.598505       -16.2861
  16   2.0000      -0.553980       -15.0746
  17   2.0000      -0.548176       -14.9166
  18   2.0000      -0.532485       -14.4897
  19   2.0000      -0.513501       -13.9731
  20   2.0000      -0.506083       -13.7712
  21   2.0000      -0.487800       -13.2737
  22   2.0000      -0.467857       -12.7310
  23   2.0000      -0.453169       -12.3314
  24   2.0000      -0.430892       -11.7252
  25   2.0000      -0.424088       -11.5400
  26   2.0000      -0.423298       -11.5185
  27   2.0000      -0.416527       -11.3343
  28   2.0000      -0.399591       -10.8734
  29   2.0000      -0.323603        -8.8057
  30   2.0000      -0.308902        -8.4057
  31   0.0000      -0.015559        -0.4234
  32   0.0000       0.032671         0.8890
  33   0.0000       0.135158         3.6778
  34   0.0000       0.148135         4.0309
  35   0.0000       0.159714         4.3460

MULLIKEN ATOMIC CHARGES
-----------------------
   0 C :   -0.749669
   1 H :    0.241506
   2 H :    0.263168
   3 H :    0.259797
   4 C :    0.377455
   5 C :   -0.639182
   6 H :    0.266386
   7 H :    0.265937
   8 C :    0.384571
   9 C :   -0.545517
  10 H :    0.242931
  11 H :    0.265665
  12 C :   -0.636141
  13 H :    0.230732
  14 H :    0.220968
  15 H :    0.231899
  16 O :   -0.337157
  17 O :   -0.343348
Sum of atomic charges:   -0.0000000

LOEWDIN ATOMIC CHARGES
----------------------
   0 C :   -0.392167
   1 H :    0.152149
   2 H :    0.160028
   3 H :    0.151902
   4 C :    0.117620
   5 C :   -0.297260
   6 H :    0.155229
   7 H :    0.155690
   8 C :    0.122392
   9 C :   -0.283838
  10 H :    0.147050
  11 H :    0.156175
  12 C :   -0.357416
  13 H :    0.136653
  14 H :    0.130395
  15 H :    0.137211
  16 O :   -0.195588
  17 O :   -0.196225

  Mayer bond orders larger than 0.100000
B(  0-C ,  1-H ) :   0.9041 B(  0-C ,  2-H ) :   0.8937 B(  0-C ,  3-H ) :   0.9163
B(  0-C ,  4-C ) :   0.9394 B(  4-C ,  5-C ) :   0.8882 B(  4-C , 16-O ) :   2.1206
B(  5-C ,  6-H ) :   0.9018 B(  5-C ,  7-H ) :   0.9008 B(  5-C ,  8-C ) :   0.8941
B(  8-C ,  9-C ) :   0.9179 B(  8-C , 17-O ) :   2.1055 B(  9-C , 10-H ) :   0.8972
B(  9-C , 11-H ) :   0.8866 B(  9-C , 12-C ) :   0.9892 B( 12-C , 13-H ) :   0.9256
B( 12-C , 14-H ) :   0.9255 B( 12-C , 15-H ) :   0.9236

Dispersion correction           -0.008554944
FINAL SINGLE POINT ENERGY      -384.281876982474

DIPOLE MOMENT
-------------
                                X             Y             Z
Electronic contribution:     -1.87828      -1.79428      -2.31994
Nuclear contribution   :      2.22823       1.75582       1.82257
                        -----------------------------------------
Total Dipole Moment    :      0.34995      -0.03846      -0.49737
                        -----------------------------------------
Magnitude (a.u.)       :      0.60936
Magnitude (Debye)      :      1.54887

Rotational constants in cm-1:     0.116482     0.040730     0.035308
Rotational constants in MHz :  3492.033863  1221.060850  1058.498859

                             ****ORCA TERMINATED NORMALLY****
TOTAL RUN TIME: 0 days 0 hours 1 minutes 40 seconds 831 msec
