                         Program Version 5.0.3 -  RELEASE  -
|  1> ! PBEh-3c def2/J TightSCF DefGrid3
|  2>
|  3> %maxcore 60000
|  4>
|  5> %pal
|  6> nprocs 4
|  7> end
|  8>
|  9> *xyzfile -1 1 147B.xyz
| 10>
| 11>                          ****END OF INPUT****

CARTESIAN COORDINATES (ANGSTROEM)
---------------------------------
  O      2.804620   -2.052090    0.860510
  C      3.454160   -1.359590    0.028620
  C      4.224170   -2.219880   -1.006950
  F      5.038910   -3.097500   -0.401890
  O      3.534660   -0.128340   -0.073400
  F      4.973100   -1.493340   -1.838140
  F      3.367080   -2.929020   -1.761050

 Total Charge           Charge          ....   -1
 Multiplicity           Mult            ....    1
 Number of Electrons    NEL             ....   56
 Basis Dimension        Dim             ....  105

ORBITAL ENERGIES
----------------

  NO   OCC          E(Eh)            E(eV)
   0   2.0000     -24.956357      -679.0970
   1   2.0000     -24.955705      -679.0793
   2   2.0000     -24.955535      -679.0746
   3   2.0000     -19.238198      -523.4980
   4   2.0000     -19.230202      -523.2804
   5   2.0000     -10.500694      -285.7384
   6   2.0000     -10.339931      -281.3638
   7   2.0000      -1.269330       -34.5402
   8   2.0000      -1.176279       -32.0082
   9   2.0000      -1.174946       -31.9719
  10   2.0000      -0.936222       -25.4759
  11   2.0000      -0.842539       -22.9266
  12   2.0000      -0.627058       -17.0631
  13   2.0000      -0.514403       -13.9976
  14   2.0000      -0.493535       -13.4298
  15   2.0000      -0.491693       -13.3796
  16   2.0000      -0.373274       -10.1573
  17   2.0000      -0.372775       -10.1437
  18   2.0000      -0.347788        -9.4638
  19   2.0000      -0.333197        -9.0667
  20   2.0000      -0.330269        -8.9871
  21   2.0000      -0.310453        -8.4479
  22   2.0000      -0.286064        -7.7842
  23   2.0000      -0.265591        -7.2271
  24   2.0000      -0.248149        -6.7525
  25   2.0000      -0.103659        -2.8207
  26   2.0000      -0.097795        -2.6611
  27   2.0000      -0.093528        -2.5450
  28   0.0000       0.264302         7.1920
  29   0.0000       0.396113        10.7788
  30   0.0000       0.439728        11.9656
  31   0.0000       0.460054        12.5187
  32   0.0000       0.491108        13.3637

MULLIKEN ATOMIC CHARGES
-----------------------
   0 O :   -0.582666
   1 C :    0.262023
   2 C :    0.854068
   3 F :   -0.332343
   4 O :   -0.545749
   5 F :   -0.319204
   6 F :   -0.336128
Sum of atomic charges:   -1.0000000

LOEWDIN ATOMIC CHARGES
----------------------
   0 O :   -0.407664
   1 C :   -0.035795
   2 C :    0.275801
   3 F :   -0.155036
   4 O :   -0.373082
   5 F :   -0.146423
   6 F :   -0.157800

  Mayer bond orders larger than 0.100000
B(  0-O ,  1-C ) :   1.7624 B(  0-O ,  4-O ) :   0.1572 B(  1-C ,  2-C ) :   0.8318
B(  1-C ,  4-O ) :   1.8164 B(  2-C ,  3-F ) :   0.9922 B(  2-C ,  5-F ) :   1.0166
B(  2-C ,  6-F ) :   0.9855

Dispersion correction           -0.002310032
FINAL SINGLE POINT ENERGY      -525.219107329815

DIPOLE MOMENT
-------------
                                X             Y             Z
Electronic contribution:      2.49877      -2.63571      -3.32630
Nuclear contribution   :     -1.40535       1.56379       1.88962
                        -----------------------------------------
Total Dipole Moment    :      1.09342      -1.07192      -1.43668
                        -----------------------------------------
Magnitude (a.u.)       :      2.09967
Magnitude (Debye)      :      5.33695

Rotational constants in cm-1:     0.130512     0.085373     0.070862
Rotational constants in MHz :  3912.653334  2559.417263  2124.379115

                             ****ORCA TERMINATED NORMALLY****
TOTAL RUN TIME: 0 days 0 hours 1 minutes 0 seconds 980 msec
