                         Program Version 5.0.3 -  RELEASE  -
|  1> ! PBEh-3c def2/J TightSCF DefGrid3
|  2>
|  3> %maxcore 60000
|  4>
|  5> %pal
|  6> nprocs 4
|  7> end
|  8>
|  9> *xyzfile 0 1 c2h6.xyz
| 10>
| 11>                          ****END OF INPUT****

CARTESIAN COORDINATES (ANGSTROEM)
---------------------------------
  C     -0.000000    0.000000    0.763258
  C     -0.000000   -0.000000   -0.763258
  H     -0.880686    0.508464    1.157843
  H      0.000000   -1.016928    1.157843
  H      0.880686    0.508464    1.157843
  H      0.880686   -0.508464   -1.157843
  H     -0.880686   -0.508464   -1.157843
  H      0.000000    1.016928   -1.157843

 Total Charge           Charge          ....    0
 Multiplicity           Mult            ....    1
 Number of Electrons    NEL             ....   18
 Basis Dimension        Dim             ....   42

ORBITAL ENERGIES
----------------

  NO   OCC          E(Eh)            E(eV)
   0   2.0000     -10.421815      -283.5920
   1   2.0000     -10.421608      -283.5864
   2   2.0000      -0.838460       -22.8157
   3   2.0000      -0.689276       -18.7562
   4   2.0000      -0.491144       -13.3647
   5   2.0000      -0.491144       -13.3647
   6   2.0000      -0.417933       -11.3725
   7   2.0000      -0.391843       -10.6626
   8   2.0000      -0.391843       -10.6626
   9   0.0000       0.154851         4.2137
  10   0.0000       0.201295         5.4775
  11   0.0000       0.219185         5.9643
  12   0.0000       0.219187         5.9644
  13   0.0000       0.225007         6.1228

MULLIKEN ATOMIC CHARGES
-----------------------
   0 C :   -0.637977
   1 C :   -0.637977
   2 H :    0.212660
   3 H :    0.212658
   4 H :    0.212660
   5 H :    0.212660
   6 H :    0.212660
   7 H :    0.212658
Sum of atomic charges:    0.0000000

LOEWDIN ATOMIC CHARGES
----------------------
   0 C :   -0.371223
   1 C :   -0.371223
   2 H :    0.123741
   3 H :    0.123741
   4 H :    0.123741
   5 H :    0.123741
   6 H :    0.123741
   7 H :    0.123741

  Mayer bond orders larger than 0.100000
B(  0-C ,  1-C ) :   0.9963 B(  0-C ,  2-H ) :   0.9315 B(  0-C ,  3-H ) :   0.9315
B(  0-C ,  4-H ) :   0.9315 B(  1-C ,  5-H ) :   0.9315 B(  1-C ,  6-H ) :   0.9315
B(  1-C ,  7-H ) :   0.9315

Dispersion correction           -0.001884489
FINAL SINGLE POINT ENERGY       -79.650880674512

DIPOLE MOMENT
-------------
                                X             Y             Z
Electronic contribution:      0.00000       0.00000      -0.00000
Nuclear contribution   :      0.00000       0.00000       0.00000
                        -----------------------------------------
Total Dipole Moment    :      0.00000       0.00000      -0.00000
                        -----------------------------------------
Magnitude (a.u.)       :      0.00000
Magnitude (Debye)      :      0.00000

Rotational constants in cm-1:     2.695285     0.668172     0.668172
Rotational constants in MHz : 80802.607071 20031.280002 20031.279779

                             ****ORCA TERMINATED NORMALLY****
TOTAL RUN TIME: 0 days 0 hours 0 minutes 56 seconds 199 msec
