                         Program Version 5.0.3 -  RELEASE  -
|  1> ! PBEh-3c def2/J TightSCF DefGrid3
|  2>
|  3> %maxcore 60000
|  4>
|  5> %pal
|  6> nprocs 4
|  7> end
|  8>
|  9> *xyzfile 0 1 GLU_xad.xyz
| 10>
| 11>                          ****END OF INPUT****

CARTESIAN COORDINATES (ANGSTROEM)
---------------------------------
  N      0.647485   -0.923289   -0.315818
  H      0.248739   -1.013542   -1.235484
  C     -0.258882   -0.867878    0.819660
  H     -0.123559   -1.757456    1.434729
  C      0.027357    0.350056    1.708469
  C     -1.715345   -0.874115    0.375496
  H      1.073206    0.302429    2.004745
  H     -0.582753    0.255755    2.606899
  C     -0.279336    1.705134    1.059725
  O     -2.577410   -1.397286    1.070031
  H     -1.339561    1.802206    0.837977
  H      0.000758    2.492362    1.758452
  C      0.479833    1.931301   -0.216321
  O      1.777651    2.201910    0.011718
  O      0.011834    1.890253   -1.339367
  C      1.957132   -1.273585   -0.145153
  C      2.738741   -1.455928   -1.424386
  O      2.458072   -1.421511    0.961035
  H      2.899645   -2.520042   -1.588216
  H      3.712175   -0.989109   -1.303500
  H      2.234474   -1.035468   -2.291627
  N     -1.988846   -0.266790   -0.813012
  C     -3.377936   -0.133422   -1.214774
  H     -1.338040    0.430379   -1.156935
  H     -3.935753    0.511856   -0.535666
  H     -3.412005    0.279513   -2.218273
  H     -3.850636   -1.110999   -1.208532
  H      2.186077    2.309021   -0.860966

 Total Charge           Charge          ....    0
 Multiplicity           Mult            ....    1
 Number of Electrons    NEL             ....  108
 Basis Dimension        Dim             ....  238

ORBITAL ENERGIES
----------------

  NO   OCC          E(Eh)            E(eV)
   0   2.0000     -19.562265      -532.3163
   1   2.0000     -19.509106      -530.8697
   2   2.0000     -19.463912      -529.6400
   3   2.0000     -19.463313      -529.6237
   4   2.0000     -14.671555      -399.2333
   5   2.0000     -14.662369      -398.9833
   6   2.0000     -10.605900      -288.6012
   7   2.0000     -10.556444      -287.2554
   8   2.0000     -10.550587      -287.0961
   9   2.0000     -10.494526      -285.5706
  10   2.0000     -10.467401      -284.8325
  11   2.0000     -10.467019      -284.8221
  12   2.0000     -10.457270      -284.5568
  13   2.0000     -10.449827      -284.3543
  14   2.0000      -1.242031       -33.7974
  15   2.0000      -1.152614       -31.3642
  16   2.0000      -1.146154       -31.1884
  17   2.0000      -1.144274       -31.1373
  18   2.0000      -1.041488       -28.3403
  19   2.0000      -1.016529       -27.6612
  20   2.0000      -0.913853       -24.8672
  21   2.0000      -0.856074       -23.2949
  22   2.0000      -0.816090       -22.2069
  23   2.0000      -0.789110       -21.4728
  24   2.0000      -0.732169       -19.9233
  25   2.0000      -0.688868       -18.7450
  26   2.0000      -0.661209       -17.9924
  27   2.0000      -0.651457       -17.7271
  28   2.0000      -0.617150       -16.7935
  29   2.0000      -0.587795       -15.9947
  30   2.0000      -0.578975       -15.7547
  31   2.0000      -0.558199       -15.1894
  32   2.0000      -0.545662       -14.8482
  33   2.0000      -0.531118       -14.4524
  34   2.0000      -0.527959       -14.3665
  35   2.0000      -0.517047       -14.0696
  36   2.0000      -0.503873       -13.7111
  37   2.0000      -0.502106       -13.6630
  38   2.0000      -0.493429       -13.4269
  39   2.0000      -0.477586       -12.9958
  40   2.0000      -0.469740       -12.7823
  41   2.0000      -0.461523       -12.5587
  42   2.0000      -0.453432       -12.3385
  43   2.0000      -0.448772       -12.2117
  44   2.0000      -0.434192       -11.8150
  45   2.0000      -0.432355       -11.7650
  46   2.0000      -0.416512       -11.3339
  47   2.0000      -0.398372       -10.8402
  48   2.0000      -0.394576       -10.7369
  49   2.0000      -0.357596        -9.7307
  50   2.0000      -0.325520        -8.8579
  51   2.0000      -0.315779        -8.5928
  52   2.0000      -0.311191        -8.4679
  53   2.0000      -0.300078        -8.1655
  54   0.0000       0.018730         0.5097
  55   0.0000       0.044240         1.2038
  56   0.0000       0.059054         1.6069
  57   0.0000       0.101805         2.7702
  58   0.0000       0.126879         3.4525

MULLIKEN ATOMIC CHARGES
-----------------------
   0 N :   -0.661052
   1 H :    0.369668
   2 C :   -0.190094
   3 H :    0.295498
   4 C :   -0.449480
   5 C :    0.511767
   6 H :    0.291797
   7 H :    0.259649
   8 C :   -0.571397
   9 O :   -0.414604
  10 H :    0.262118
  11 H :    0.275057
  12 C :    0.554761
  13 O :   -0.564749
  14 O :   -0.430678
  15 C :    0.525515
  16 C :   -0.759091
  17 O :   -0.421789
  18 H :    0.260935
  19 H :    0.261053
  20 H :    0.219291
  21 N :   -0.669896
  22 C :   -0.493249
  23 H :    0.399741
  24 H :    0.225488
  25 H :    0.221341
  26 H :    0.248987
  27 H :    0.443411
Sum of atomic charges:   -0.0000000

LOEWDIN ATOMIC CHARGES
----------------------
   0 N :   -0.242362
   1 H :    0.257896
   2 C :   -0.088478
   3 H :    0.159025
   4 C :   -0.225079
   5 C :    0.102252
   6 H :    0.158137
   7 H :    0.147641
   8 C :   -0.272377
   9 O :   -0.260579
  10 H :    0.146922
  11 H :    0.160336
  12 C :    0.143240
  13 O :   -0.279143
  14 O :   -0.261910
  15 C :    0.107330
  16 C :   -0.391587
  17 O :   -0.270245
  18 H :    0.158953
  19 H :    0.156913
  20 H :    0.130818
  21 N :   -0.269753
  22 C :   -0.253198
  23 H :    0.259037
  24 H :    0.123269
  25 H :    0.127130
  26 H :    0.140745
  27 H :    0.335066

  Mayer bond orders larger than 0.100000
B(  0-N ,  1-H ) :   0.8034 B(  0-N ,  2-C ) :   0.8963 B(  0-N , 15-C ) :   1.1245
B(  2-C ,  3-H ) :   0.8819 B(  2-C ,  4-C ) :   0.9585 B(  2-C ,  5-C ) :   0.9194
B(  4-C ,  6-H ) :   0.8769 B(  4-C ,  7-H ) :   0.9005 B(  4-C ,  8-C ) :   0.9583
B(  5-C ,  9-O ) :   1.9956 B(  5-C , 21-N ) :   1.1380 B(  8-C , 10-H ) :   0.9019
B(  8-C , 11-H ) :   0.8920 B(  8-C , 12-C ) :   0.9281 B( 12-C , 13-O ) :   1.1688
B( 12-C , 14-O ) :   1.9411 B( 13-O , 27-H ) :   0.7587 B( 15-C , 16-C ) :   0.9293
B( 15-C , 17-O ) :   1.9837 B( 16-C , 18-H ) :   0.9061 B( 16-C , 19-H ) :   0.9122
B( 16-C , 20-H ) :   0.9200 B( 21-N , 22-C ) :   0.9618 B( 21-N , 23-H ) :   0.7305
B( 22-C , 24-H ) :   0.9161 B( 22-C , 25-H ) :   0.9252 B( 22-C , 26-H ) :   0.9131

Dispersion correction           -0.018034139
FINAL SINGLE POINT ENERGY      -722.199122083311

DIPOLE MOMENT
-------------
                                X             Y             Z
Electronic contribution:      2.43850       0.79723       2.35702
Nuclear contribution   :     -2.10757       0.21793      -3.73019
                        -----------------------------------------
Total Dipole Moment    :      0.33093       1.01516      -1.37317
                        -----------------------------------------
Magnitude (a.u.)       :      1.73944
Magnitude (Debye)      :      4.42131

Rotational constants in cm-1:     0.028318     0.018442     0.015372
Rotational constants in MHz :   848.938658   552.888126   460.831463

                             ****ORCA TERMINATED NORMALLY****
TOTAL RUN TIME: 0 days 0 hours 3 minutes 51 seconds 597 msec
