                         Program Version 5.0.3 -  RELEASE  -
|  1> ! PBEh-3c def2/J TightSCF DefGrid3
|  2>
|  3> %maxcore 60000
|  4>
|  5> %pal
|  6> nprocs 4
|  7> end
|  8>
|  9> *xyzfile 0 1 23_benBr-Nm3AB.xyz
| 10>
| 11>                          ****END OF INPUT****

CARTESIAN COORDINATES (ANGSTROEM)
---------------------------------
  C     -0.223913    0.002109    0.127404
  C     -0.229554    0.001265    1.520572
  C      0.966066   -0.002100    2.235729
  C      2.176417   -0.004636    1.545888
  C      2.194095   -0.003818    0.152623
  C      0.992179   -0.000449   -0.552274
  Br    -1.869237    0.004669    2.446186
  H      0.946534   -0.002734    3.316252
  H      3.104760   -0.007248    2.100804
  H      3.135463   -0.005789   -0.378706
  H      0.996880    0.000205   -1.633817
  H     -1.159029    0.004715   -0.414303
  N     -4.443847    0.003241    3.917575
  C     -5.269667   -1.075484    3.409420
  C     -4.151048   -0.203417    5.323037
  C     -5.102631    1.280426    3.720892
  H     -5.062163   -0.220700    5.941925
  H     -3.629556   -1.150341    5.453179
  H     -3.505905    0.595924    5.684173
  H     -6.064049    1.341711    4.255123
  H     -4.459570    2.083221    4.077923
  H     -5.289110    1.436927    2.659644
  H     -6.239899   -1.138942    3.927201
  H     -5.456675   -0.924672    2.347429
  H     -4.750743   -2.024429    3.534754

 Total Charge           Charge          ....    0
 Multiplicity           Mult            ....    1
 Number of Electrons    NEL             ....  110
 Basis Dimension        Dim             ....  210

ORBITAL ENERGIES
----------------

  NO   OCC          E(Eh)            E(eV)
   0   2.0000    -484.513298    -13184.2771
   1   2.0000     -63.175443     -1719.0912
   2   2.0000     -56.879619     -1547.7731
   3   2.0000     -56.877498     -1547.7154
   4   2.0000     -56.877455     -1547.7142
   5   2.0000     -14.633835      -398.2069
   6   2.0000     -10.494471      -285.5691
   7   2.0000     -10.454312      -284.4763
   8   2.0000     -10.454284      -284.4755
   9   2.0000     -10.453745      -284.4609
  10   2.0000     -10.453684      -284.4592
  11   2.0000     -10.451050      -284.3875
  12   2.0000     -10.449852      -284.3549
  13   2.0000     -10.449757      -284.3524
  14   2.0000     -10.449690      -284.3505
  15   2.0000      -9.004407      -245.0224
  16   2.0000      -6.778903      -184.4633
  17   2.0000      -6.766244      -184.1188
  18   2.0000      -6.766062      -184.1139
  19   2.0000      -2.792706       -75.9934
  20   2.0000      -2.788677       -75.8837
  21   2.0000      -2.788494       -75.8788
  22   2.0000      -2.777674       -75.5843
  23   2.0000      -2.777669       -75.5842
  24   2.0000      -1.025771       -27.9126
  25   2.0000      -0.967150       -26.3175
  26   2.0000      -0.886064       -24.1110
  27   2.0000      -0.842777       -22.9331
  28   2.0000      -0.800206       -21.7747
  29   2.0000      -0.787377       -21.4256
  30   2.0000      -0.787300       -21.4235
  31   2.0000      -0.689446       -18.7608
  32   2.0000      -0.667881       -18.1740
  33   2.0000      -0.663786       -18.0625
  34   2.0000      -0.585450       -15.9309
  35   2.0000      -0.534833       -14.5535
  36   2.0000      -0.527162       -14.3448
  37   2.0000      -0.527111       -14.3434
  38   2.0000      -0.522768       -14.2252
  39   2.0000      -0.519207       -14.1283
  40   2.0000      -0.487885       -13.2760
  41   2.0000      -0.468023       -12.7356
  42   2.0000      -0.448061       -12.1924
  43   2.0000      -0.448057       -12.1922
  44   2.0000      -0.437270       -11.8987
  45   2.0000      -0.420662       -11.4468
  46   2.0000      -0.410758       -11.1773
  47   2.0000      -0.410701       -11.1758
  48   2.0000      -0.407632       -11.0922
  49   2.0000      -0.398472       -10.8430
  50   2.0000      -0.353645        -9.6232
  51   2.0000      -0.323511        -8.8032
  52   2.0000      -0.298228        -8.1152
  53   2.0000      -0.272929        -7.4268
  54   2.0000      -0.267522        -7.2796
  55   0.0000       0.013675         0.3721
  56   0.0000       0.013743         0.3740
  57   0.0000       0.065644         1.7863
  58   0.0000       0.125873         3.4252
  59   0.0000       0.163929         4.4607

MULLIKEN ATOMIC CHARGES
-----------------------
   0 C :   -0.212873
   1 C :   -0.082625
   2 C :   -0.212898
   3 C :   -0.215308
   4 C :   -0.225847
   5 C :   -0.215332
   6 Br:   -0.019564
   7 H :    0.239289
   8 H :    0.224414
   9 H :    0.222530
  10 H :    0.224440
  11 H :    0.239247
  12 N :   -0.384834
  13 C :   -0.492454
  14 C :   -0.493014
  15 C :   -0.492277
  16 H :    0.182615
  17 H :    0.225246
  18 H :    0.224719
  19 H :    0.181967
  20 H :    0.225680
  21 H :    0.224582
  22 H :    0.182146
  23 H :    0.224256
  24 H :    0.225895
Sum of atomic charges:   -0.0000000

LOEWDIN ATOMIC CHARGES
----------------------
   0 C :   -0.144679
   1 C :   -0.136833
   2 C :   -0.144739
   3 C :   -0.129079
   4 C :   -0.140136
   5 C :   -0.129069
   6 Br:    0.087535
   7 H :    0.144966
   8 H :    0.138687
   9 H :    0.137551
  10 H :    0.138693
  11 H :    0.144967
  12 N :   -0.225901
  13 C :   -0.261159
  14 C :   -0.261422
  15 C :   -0.261074
  16 H :    0.097695
  17 H :    0.124879
  18 H :    0.124657
  19 H :    0.097465
  20 H :    0.125121
  21 H :    0.124652
  22 H :    0.097530
  23 H :    0.124501
  24 H :    0.125196

  Mayer bond orders larger than 0.100000
B(  0-C ,  1-C ) :   1.3710 B(  0-C ,  5-C ) :   1.4296 B(  0-C , 11-H ) :   0.9123
B(  1-C ,  2-C ) :   1.3709 B(  1-C ,  6-Br) :   1.0091 B(  2-C ,  3-C ) :   1.4296
B(  2-C ,  7-H ) :   0.9123 B(  3-C ,  4-C ) :   1.4216 B(  3-C ,  8-H ) :   0.9179
B(  4-C ,  5-C ) :   1.4216 B(  4-C ,  9-H ) :   0.9193 B(  5-C , 10-H ) :   0.9179
B( 12-N , 13-C ) :   0.9879 B( 12-N , 14-C ) :   0.9877 B( 12-N , 15-C ) :   0.9879
B( 13-C , 22-H ) :   0.9068 B( 13-C , 23-H ) :   0.9264 B( 13-C , 24-H ) :   0.9258
B( 14-C , 16-H ) :   0.9069 B( 14-C , 17-H ) :   0.9260 B( 14-C , 18-H ) :   0.9262
B( 15-C , 19-H ) :   0.9068 B( 15-C , 20-H ) :   0.9259 B( 15-C , 21-H ) :   0.9263

Dispersion correction           -0.013608797
FINAL SINGLE POINT ENERGY     -2978.233221251190

DIPOLE MOMENT
-------------
                                X             Y             Z
Electronic contribution:     11.37430       0.05773      -6.63627
Nuclear contribution   :    -11.48724      -0.06067       6.70780
                        -----------------------------------------
Total Dipole Moment    :     -0.11294      -0.00294       0.07153
                        -----------------------------------------
Magnitude (a.u.)       :      0.13372
Magnitude (Debye)      :      0.33988

Rotational constants in cm-1:     0.089029     0.010389     0.009852
Rotational constants in MHz :  2669.034397   311.463242   295.343628

                             ****ORCA TERMINATED NORMALLY****
TOTAL RUN TIME: 0 days 0 hours 2 minutes 54 seconds 759 msec
