                         Program Version 5.0.3 -  RELEASE  -
|  1> ! PBEh-3c def2/J TightSCF DefGrid3
|  2>
|  3> %maxcore 60000
|  4>
|  5> %pal
|  6> nprocs 4
|  7> end
|  8>
|  9> *xyzfile 1 1 1p2.xyz
| 10>
| 11>                          ****END OF INPUT****

CARTESIAN COORDINATES (ANGSTROEM)
---------------------------------
  C     -0.000000    0.000000   -0.485478
  C     -0.000000    0.000000    0.932442
  O     -0.000000    0.000000    2.043247
  H      0.521214   -0.902768   -0.830071
  H      0.521214    0.902768   -0.830071
  H     -1.042427    0.000000   -0.830071

 Total Charge           Charge          ....    1
 Multiplicity           Mult            ....    1
 Number of Electrons    NEL             ....   22
 Basis Dimension        Dim             ....   51

ORBITAL ENERGIES
----------------

  NO   OCC          E(Eh)            E(eV)
   0   2.0000     -19.911332      -541.8149
   1   2.0000     -10.917182      -297.0716
   2   2.0000     -10.752786      -292.5982
   3   2.0000      -1.587800       -43.2062
   4   2.0000      -1.177445       -32.0399
   5   2.0000      -0.919520       -25.0214
   6   2.0000      -0.852271       -23.1915
   7   2.0000      -0.852271       -23.1915
   8   2.0000      -0.845924       -23.0188
   9   2.0000      -0.750868       -20.4321
  10   2.0000      -0.750868       -20.4321
  11   0.0000      -0.278186        -7.5698
  12   0.0000      -0.278186        -7.5698
  13   0.0000      -0.111593        -3.0366
  14   0.0000      -0.055271        -1.5040
  15   0.0000      -0.025780        -0.7015

MULLIKEN ATOMIC CHARGES
-----------------------
   0 C :   -0.796654
   1 C :    0.598373
   2 O :    0.031748
   3 H :    0.388847
   4 H :    0.388847
   5 H :    0.388840
Sum of atomic charges:    1.0000000

LOEWDIN ATOMIC CHARGES
----------------------
   0 C :   -0.367748
   1 C :    0.412555
   2 O :    0.215753
   3 H :    0.246481
   4 H :    0.246481
   5 H :    0.246479

  Mayer bond orders larger than 0.100000
B(  0-C ,  1-C ) :   1.0287 B(  0-C ,  3-H ) :   0.8070 B(  0-C ,  4-H ) :   0.8070
B(  0-C ,  5-H ) :   0.8070 B(  1-C ,  2-O ) :   2.6328

Dispersion correction           -0.001415800
FINAL SINGLE POINT ENERGY      -152.586345219287

DIPOLE MOMENT
-------------
                                X             Y             Z
Electronic contribution:      0.00001      -0.00000       3.34358
Nuclear contribution   :      0.00000       0.00000      -4.64260
                        -----------------------------------------
Total Dipole Moment    :      0.00001      -0.00000      -1.29902
                        -----------------------------------------
Magnitude (a.u.)       :      1.29902
Magnitude (Debye)      :      3.30185

Rotational constants in cm-1:     5.130074     0.309674     0.309674
Rotational constants in MHz : 153795.743855  9283.781653  9283.781613

                             ****ORCA TERMINATED NORMALLY****
TOTAL RUN TIME: 0 days 0 hours 1 minutes 18 seconds 950 msec
