                         Program Version 5.0.3 -  RELEASE  -
|  1> ! PBEh-3c def2/J TightSCF DefGrid3
|  2>
|  3> %maxcore 60000
|  4>
|  5> %pal
|  6> nprocs 4
|  7> end
|  8>
|  9> *xyzfile 0 1 45.xyz
| 10>
| 11>                          ****END OF INPUT****

CARTESIAN COORDINATES (ANGSTROEM)
---------------------------------
  C      1.883944   -2.268599   -0.606846
  H      1.883492   -2.268654   -1.668693
  C      1.883944   -2.268599    0.606846
  H      1.883492   -2.268654    1.668693
  C     -0.674045    0.338342   -2.530167
  H     -0.660195   -0.751914   -2.538538
  H     -1.716469    0.652594   -2.581721
  H     -0.175029    0.688350   -3.432756
  C     -0.007998    0.874470   -1.269867
  H     -0.009462    1.966820   -1.286518
  H      1.039562    0.566534   -1.244966
  C     -0.692157    0.388924    0.000000
  H     -1.735587    0.718223    0.000000
  H     -0.709630   -0.704081    0.000000
  C     -0.007998    0.874470    1.269867
  H     -0.009462    1.966820    1.286518
  H      1.039562    0.566534    1.244966
  C     -0.674045    0.338342    2.530167
  H     -0.660195   -0.751914    2.538538
  H     -0.175029    0.688350    3.432756
  H     -1.716469    0.652594    2.581721

 Total Charge           Charge          ....    0
 Multiplicity           Mult            ....    1
 Number of Electrons    NEL             ....   56
 Basis Dimension        Dim             ....  133

ORBITAL ENERGIES
----------------

  NO   OCC          E(Eh)            E(eV)
   0   2.0000     -10.462438      -284.6974
   1   2.0000     -10.460102      -284.6339
   2   2.0000     -10.422919      -283.6220
   3   2.0000     -10.422887      -283.6212
   4   2.0000     -10.418918      -283.5132
   5   2.0000     -10.418022      -283.4888
   6   2.0000     -10.418011      -283.4885
   7   2.0000      -0.889748       -24.2113
   8   2.0000      -0.842854       -22.9352
   9   2.0000      -0.834764       -22.7151
  10   2.0000      -0.752356       -20.4726
  11   2.0000      -0.668187       -18.1823
  12   2.0000      -0.642544       -17.4845
  13   2.0000      -0.640151       -17.4194
  14   2.0000      -0.563239       -15.3265
  15   2.0000      -0.532812       -14.4986
  16   2.0000      -0.492708       -13.4073
  17   2.0000      -0.486093       -13.2273
  18   2.0000      -0.454782       -12.3753
  19   2.0000      -0.446095       -12.1389
  20   2.0000      -0.425866       -11.5884
  21   2.0000      -0.400086       -10.8869
  22   2.0000      -0.379858       -10.3365
  23   2.0000      -0.370375       -10.0784
  24   2.0000      -0.363682        -9.8963
  25   2.0000      -0.358471        -9.7545
  26   2.0000      -0.339222        -9.2307
  27   2.0000      -0.338642        -9.2149
  28   0.0000       0.058926         1.6035
  29   0.0000       0.063223         1.7204
  30   0.0000       0.139336         3.7915
  31   0.0000       0.146848         3.9959
  32   0.0000       0.168721         4.5911

MULLIKEN ATOMIC CHARGES
-----------------------
   0 C :   -0.239285
   1 H :    0.242169
   2 C :   -0.239285
   3 H :    0.242169
   4 C :   -0.641956
   5 H :    0.203798
   6 H :    0.210675
   7 H :    0.215803
   8 C :   -0.414014
   9 H :    0.204593
  10 H :    0.209570
  11 C :   -0.389001
  12 H :    0.196790
  13 H :    0.209505
  14 C :   -0.414014
  15 H :    0.204593
  16 H :    0.209570
  17 C :   -0.641955
  18 H :    0.203798
  19 H :    0.215803
  20 H :    0.210675
Sum of atomic charges:   -0.0000000

LOEWDIN ATOMIC CHARGES
----------------------
   0 C :   -0.163167
   1 H :    0.164693
   2 C :   -0.163167
   3 H :    0.164693
   4 C :   -0.362426
   5 H :    0.120495
   6 H :    0.123967
   7 H :    0.124125
   8 C :   -0.246158
   9 H :    0.118370
  10 H :    0.121060
  11 C :   -0.241263
  12 H :    0.116104
  13 H :    0.123241
  14 C :   -0.246158
  15 H :    0.118370
  16 H :    0.121060
  17 C :   -0.362426
  18 H :    0.120495
  19 H :    0.124125
  20 H :    0.123967

  Mayer bond orders larger than 0.100000
B(  0-C ,  1-H ) :   0.9247 B(  0-C ,  2-C ) :   2.8301 B(  2-C ,  3-H ) :   0.9247
B(  4-C ,  5-H ) :   0.9305 B(  4-C ,  6-H ) :   0.9297 B(  4-C ,  7-H ) :   0.9330
B(  4-C ,  8-C ) :   0.9975 B(  8-C ,  9-H ) :   0.9203 B(  8-C , 10-H ) :   0.9152
B(  8-C , 11-C ) :   0.9924 B( 11-C , 12-H ) :   0.9184 B( 11-C , 13-H ) :   0.9115
B( 11-C , 14-C ) :   0.9924 B( 14-C , 15-H ) :   0.9203 B( 14-C , 16-H ) :   0.9152
B( 14-C , 17-C ) :   0.9975 B( 17-C , 18-H ) :   0.9305 B( 17-C , 19-H ) :   0.9330
B( 17-C , 20-H ) :   0.9297

Dispersion correction           -0.009430744
FINAL SINGLE POINT ENERGY      -274.478765346187

DIPOLE MOMENT
-------------
                                X             Y             Z
Electronic contribution:      4.18333      -4.18071       0.00000
Nuclear contribution   :     -4.13295       4.15078       0.00000
                        -----------------------------------------
Total Dipole Moment    :      0.05038      -0.02993       0.00000
                        -----------------------------------------
Magnitude (a.u.)       :      0.05861
Magnitude (Debye)      :      0.14896

Rotational constants in cm-1:     0.059404     0.059047     0.032077
Rotational constants in MHz :  1780.896003  1770.172922   961.651645

                             ****ORCA TERMINATED NORMALLY****
TOTAL RUN TIME: 0 days 0 hours 1 minutes 34 seconds 825 msec
