                         Program Version 5.0.3 -  RELEASE  -
|  1> ! PBEh-3c def2/J TightSCF DefGrid3
|  2>
|  3> %maxcore 60000
|  4>
|  5> %pal
|  6> nprocs 4
|  7> end
|  8>
|  9> *xyzfile 0 1 17.xyz
| 10>
| 11>                          ****END OF INPUT****

CARTESIAN COORDINATES (ANGSTROEM)
---------------------------------
  N     -1.484427    1.161731    0.000000
  H     -0.456006    1.212968    0.000000
  C     -2.051253   -0.101463    0.000000
  O     -1.348527   -1.114554    0.000000
  C     -3.498050   -0.123368    0.000000
  H     -4.004018   -1.072871    0.000000
  C     -4.176448    1.043054    0.000000
  H     -5.255325    1.089748    0.000000
  N     -3.529265    2.244373    0.000000
  H     -4.038266    3.112841    0.000000
  C     -2.145907    2.375983    0.000000
  O     -1.594272    3.455999    0.000000
  N      3.389401    0.053260    0.000000
  H      3.836645    0.959833    0.000000
  C      4.245449   -1.061358    0.000000
  O      5.454901   -0.909653    0.000000
  C      3.531230   -2.323531    0.000000
  H      4.097815   -3.238562    0.000000
  C      2.181061   -2.327349    0.000000
  H      1.604098   -3.240314    0.000000
  N      1.443070   -1.176468    0.000000
  H      0.416734   -1.197911    0.000000
  C      2.015841    0.068197    0.000000
  O      1.365520    1.109415    0.000000

 Total Charge           Charge          ....    0
 Multiplicity           Mult            ....    1
 Number of Electrons    NEL             ....  116
 Basis Dimension        Dim             ....  256

ORBITAL ENERGIES
----------------

  NO   OCC          E(Eh)            E(eV)
   0   2.0000     -19.495900      -530.5104
   1   2.0000     -19.487472      -530.2811
   2   2.0000     -19.483449      -530.1716
   3   2.0000     -19.469816      -529.8006
   4   2.0000     -14.722480      -400.6191
   5   2.0000     -14.697208      -399.9314
   6   2.0000     -14.694451      -399.8564
   7   2.0000     -14.693682      -399.8354
   8   2.0000     -10.610174      -288.7175
   9   2.0000     -10.607498      -288.6447
  10   2.0000     -10.587921      -288.1120
  11   2.0000     -10.567186      -287.5478
  12   2.0000     -10.545809      -286.9661
  13   2.0000     -10.526146      -286.4310
  14   2.0000     -10.473289      -284.9927
  15   2.0000     -10.457531      -284.5639
  16   2.0000      -1.199894       -32.6508
  17   2.0000      -1.193855       -32.4865
  18   2.0000      -1.170181       -31.8422
  19   2.0000      -1.152342       -31.3568
  20   2.0000      -1.097904       -29.8755
  21   2.0000      -1.084574       -29.5127
  22   2.0000      -1.037767       -28.2391
  23   2.0000      -1.027523       -27.9603
  24   2.0000      -0.905652       -24.6440
  25   2.0000      -0.889347       -24.2004
  26   2.0000      -0.784387       -21.3442
  27   2.0000      -0.770931       -20.9781
  28   2.0000      -0.756103       -20.5746
  29   2.0000      -0.741869       -20.1873
  30   2.0000      -0.681554       -18.5460
  31   2.0000      -0.667780       -18.1712
  32   2.0000      -0.642923       -17.4948
  33   2.0000      -0.628768       -17.1096
  34   2.0000      -0.599806       -16.3216
  35   2.0000      -0.587303       -15.9813
  36   2.0000      -0.559961       -15.2373
  37   2.0000      -0.556307       -15.1379
  38   2.0000      -0.547090       -14.8871
  39   2.0000      -0.536169       -14.5899
  40   2.0000      -0.526333       -14.3223
  41   2.0000      -0.520231       -14.1562
  42   2.0000      -0.501412       -13.6441
  43   2.0000      -0.492084       -13.3903
  44   2.0000      -0.481332       -13.0977
  45   2.0000      -0.479831       -13.0569
  46   2.0000      -0.476676       -12.9710
  47   2.0000      -0.462380       -12.5820
  48   2.0000      -0.434282       -11.8174
  49   2.0000      -0.420945       -11.4545
  50   2.0000      -0.373268       -10.1571
  51   2.0000      -0.358365        -9.7516
  52   2.0000      -0.347358        -9.4521
  53   2.0000      -0.343513        -9.3475
  54   2.0000      -0.339505        -9.2384
  55   2.0000      -0.323699        -8.8083
  56   2.0000      -0.306570        -8.3422
  57   2.0000      -0.290598        -7.9076
  58   0.0000      -0.031185        -0.8486
  59   0.0000      -0.013200        -0.3592
  60   0.0000       0.032179         0.8756
  61   0.0000       0.042015         1.1433
  62   0.0000       0.095261         2.5922

MULLIKEN ATOMIC CHARGES
-----------------------
   0 N :   -0.762221
   1 H :    0.462407
   2 C :    0.613423
   3 O :   -0.476297
   4 C :   -0.451583
   5 H :    0.266764
   6 C :    0.095482
   7 H :    0.275238
   8 N :   -0.678231
   9 H :    0.394531
  10 C :    0.672180
  11 O :   -0.399890
  12 N :   -0.719092
  13 H :    0.398270
  14 C :    0.563887
  15 O :   -0.394872
  16 C :   -0.455962
  17 H :    0.262813
  18 C :    0.083689
  19 H :    0.272599
  20 N :   -0.720365
  21 H :    0.454739
  22 C :    0.716576
  23 O :   -0.474084
Sum of atomic charges:   -0.0000000

LOEWDIN ATOMIC CHARGES
----------------------
   0 N :   -0.204697
   1 H :    0.292495
   2 C :    0.142533
   3 O :   -0.287617
   4 C :   -0.242679
   5 H :    0.163643
   6 C :   -0.004359
   7 H :    0.151423
   8 N :   -0.185202
   9 H :    0.282994
  10 C :    0.150293
  11 O :   -0.247073
  12 N :   -0.197051
  13 H :    0.286302
  14 C :    0.123617
  15 O :   -0.245580
  16 C :   -0.245375
  17 H :    0.161824
  18 C :   -0.005241
  19 H :    0.151862
  20 N :   -0.193604
  21 H :    0.285097
  22 C :    0.159684
  23 O :   -0.293291

  Mayer bond orders larger than 0.100000
B(  0-N ,  1-H ) :   0.6448 B(  0-N ,  2-C ) :   1.0723 B(  0-N , 10-C ) :   1.0714
B(  1-H , 23-O ) :   0.1326 B(  2-C ,  3-O ) :   1.8205 B(  2-C ,  4-C ) :   1.0894
B(  3-O , 21-H ) :   0.1502 B(  4-C ,  5-H ) :   0.9054 B(  4-C ,  6-C ) :   1.6249
B(  6-C ,  7-H ) :   0.8977 B(  6-C ,  8-N ) :   1.0966 B(  8-N ,  9-H ) :   0.8066
B(  8-N , 10-C ) :   1.0123 B( 10-C , 11-O ) :   2.0562 B( 12-N , 13-H ) :   0.7982
B( 12-N , 14-C ) :   0.9690 B( 12-N , 22-C ) :   1.0952 B( 14-C , 15-O ) :   2.0390
B( 14-C , 16-C ) :   1.0654 B( 16-C , 17-H ) :   0.9082 B( 16-C , 18-C ) :   1.6243
B( 18-C , 19-H ) :   0.9012 B( 18-C , 20-N ) :   1.1131 B( 20-N , 21-H ) :   0.6388
B( 20-N , 22-C ) :   1.0992 B( 22-C , 23-O ) :   1.8566

Dispersion correction           -0.014882823
FINAL SINGLE POINT ENERGY      -827.900463166117

DIPOLE MOMENT
-------------
                                X             Y             Z
Electronic contribution:      2.34908       2.94964       0.00000
Nuclear contribution   :     -5.43260      -3.55860       0.00000
                        -----------------------------------------
Total Dipole Moment    :     -3.08352      -0.60896       0.00000
                        -----------------------------------------
Magnitude (a.u.)       :      3.14308
Magnitude (Debye)      :      7.98906

Rotational constants in cm-1:     0.046819     0.007548     0.006500
Rotational constants in MHz :  1403.597586   226.279112   194.864320

                             ****ORCA TERMINATED NORMALLY****
TOTAL RUN TIME: 0 days 0 hours 3 minutes 21 seconds 565 msec
