                         Program Version 5.0.3 -  RELEASE  -
|  1> ! PBEh-3c def2/J TightSCF DefGrid3
|  2>
|  3> %maxcore 60000
|  4>
|  5> %pal
|  6> nprocs 4
|  7> end
|  8>
|  9> *xyzfile -1 1 0b.xyz
| 10>
| 11>                          ****END OF INPUT****

CARTESIAN COORDINATES (ANGSTROEM)
---------------------------------
  H     -2.800128   -4.181501    1.196954
  O     -2.425973   -3.507205    0.607307
  C     -1.832577   -2.481827    1.422820
  H     -1.121250   -2.915518    2.136193
  H     -2.605434   -1.934304    1.980477
  C     -1.100383   -1.509799    0.518851
  H     -0.744346   -0.668059    1.121194
  O      0.079435   -2.160505   -0.050841
  C      0.004044   -2.173872   -1.471640
  H      0.673976   -1.435685   -1.918203
  N      0.477871   -3.479875   -1.943394
  C     -0.104197   -4.623196   -1.447213
  H     -0.883400   -4.445455   -0.709984
  C      0.274792   -5.864820   -1.832654
  H     -0.200165   -6.745545   -1.421562
  C      1.333856   -6.022126   -2.797561
  O      1.778592   -7.089588   -3.237243
  N      1.881965   -4.807447   -3.236426
  H      2.641759   -4.866665   -3.909722
  C      1.521966   -3.526318   -2.867266
  O      2.077147   -2.526003   -3.315965
  C     -1.922182   -0.997672   -0.670612
  H     -2.998085   -1.035895   -0.492352
  C     -1.467961   -1.885918   -1.835964
  H     -2.038715   -2.817413   -1.832664
  O     -1.628634   -1.282118   -3.106478
  H     -1.465381   -0.327252   -2.961566
  O     -1.537823    0.344355   -1.012211
  P     -2.549305    1.640043   -0.823795
  O     -3.897417    1.150462   -0.385086
  O     -2.345316    2.498890   -2.030736
  O     -1.801336    2.425377    0.402823
  C     -2.100954    2.044069    1.762660
  H     -2.126954    0.953439    1.858634
  H     -3.078347    2.442219    2.054587
  C     -1.022923    2.610319    2.664105
  H     -1.274575    2.359882    3.700588
  O      0.257360    1.985179    2.353538
  C      1.221462    2.979630    2.026586
  H      1.893263    3.193283    2.861562
  N      2.063377    2.442283    0.948846
  C      1.467260    1.835735   -0.131709
  H      0.385376    1.789343   -0.078715
  C      2.174589    1.320315   -1.165098
  H      1.675928    0.848820   -2.000746
  C      3.613729    1.404305   -1.162695
  O      4.380751    0.980932   -2.034962
  N      4.135394    2.049192   -0.029879
  H      5.146961    2.141429    0.016919
  C      3.447646    2.583581    1.040803
  O      4.013422    3.134319    1.983313
  C     -0.816886    4.125973    2.539016
  H     -1.691533    4.629640    2.122894
  C      0.408981    4.229686    1.619211
  H      0.093485    4.126014    0.577878
  O      1.117260    5.447264    1.748840
  H      0.999431    5.714463    2.683251
  O     -0.440606    4.720535    3.793823
  H     -1.218291    5.160605    4.171269

 Total Charge           Charge          ....   -1
 Multiplicity           Mult            ....    1
 Number of Electrons    NEL             ....  286
 Basis Dimension        Dim             ....  602

ORBITAL ENERGIES
----------------

  NO   OCC          E(Eh)            E(eV)
   0   2.0000     -77.727886     -2115.0833
   1   2.0000     -19.454771      -529.3912
   2   2.0000     -19.446738      -529.1727
   3   2.0000     -19.440355      -528.9989
   4   2.0000     -19.430076      -528.7192
   5   2.0000     -19.418973      -528.4171
   6   2.0000     -19.402300      -527.9634
   7   2.0000     -19.401572      -527.9436
   8   2.0000     -19.395138      -527.7685
   9   2.0000     -19.393582      -527.7262
  10   2.0000     -19.392179      -527.6880
  11   2.0000     -19.391605      -527.6724
  12   2.0000     -19.376889      -527.2720
  13   2.0000     -19.291931      -524.9601
  14   2.0000     -19.276386      -524.5371
  15   2.0000     -14.629612      -398.0920
  16   2.0000     -14.624199      -397.9447
  17   2.0000     -14.615027      -397.6951
  18   2.0000     -14.606559      -397.4647
  19   2.0000     -10.520579      -286.2795
  20   2.0000     -10.517177      -286.1869
  21   2.0000     -10.490786      -285.4688
  22   2.0000     -10.475141      -285.0431
  23   2.0000     -10.461159      -284.6626
  24   2.0000     -10.450961      -284.3851
  25   2.0000     -10.442074      -284.1433
  26   2.0000     -10.440610      -284.1034
  27   2.0000     -10.432199      -283.8746
  28   2.0000     -10.430876      -283.8386
  29   2.0000     -10.423783      -283.6455
  30   2.0000     -10.423296      -283.6323
  31   2.0000     -10.421952      -283.5957
  32   2.0000     -10.413899      -283.3766
  33   2.0000     -10.410712      -283.2899
  34   2.0000     -10.409920      -283.2683
  35   2.0000     -10.379811      -282.4490
  36   2.0000     -10.359835      -281.9054
  37   2.0000      -6.772066      -184.2773
  38   2.0000      -4.867166      -132.4423
  39   2.0000      -4.866033      -132.4115
  40   2.0000      -4.863447      -132.3411
  41   2.0000      -1.109406       -30.1885
  42   2.0000      -1.107162       -30.1274
  43   2.0000      -1.094998       -29.7964
  44   2.0000      -1.087087       -29.5811
  45   2.0000      -1.077581       -29.3225
  46   2.0000      -1.070219       -29.1221
  47   2.0000      -1.064203       -28.9584
  48   2.0000      -1.057068       -28.7643
  49   2.0000      -1.051532       -28.6136
  50   2.0000      -1.048730       -28.5374
  51   2.0000      -1.033787       -28.1308
  52   2.0000      -1.011148       -27.5147
  53   2.0000      -0.996681       -27.1211
  54   2.0000      -0.991525       -26.9808
  55   2.0000      -0.948159       -25.8007
  56   2.0000      -0.940192       -25.5839
  57   2.0000      -0.916761       -24.9463
  58   2.0000      -0.874227       -23.7889
  59   2.0000      -0.816195       -22.2098
  60   2.0000      -0.805074       -21.9072
  61   2.0000      -0.799594       -21.7581
  62   2.0000      -0.791282       -21.5319
  63   2.0000      -0.767546       -20.8860
  64   2.0000      -0.761912       -20.7327
  65   2.0000      -0.698087       -18.9959
  66   2.0000      -0.693055       -18.8590
  67   2.0000      -0.690957       -18.8019
  68   2.0000      -0.679375       -18.4867
  69   2.0000      -0.643403       -17.5079
  70   2.0000      -0.639159       -17.3924
  71   2.0000      -0.611980       -16.6528
  72   2.0000      -0.607085       -16.5196
  73   2.0000      -0.598073       -16.2744
  74   2.0000      -0.588539       -16.0150
  75   2.0000      -0.559489       -15.2245
  76   2.0000      -0.554062       -15.0768
  77   2.0000      -0.549414       -14.9503
  78   2.0000      -0.547338       -14.8938
  79   2.0000      -0.538925       -14.6649
  80   2.0000      -0.531640       -14.4667
  81   2.0000      -0.525136       -14.2897
  82   2.0000      -0.515365       -14.0238
  83   2.0000      -0.503281       -13.6950
  84   2.0000      -0.491614       -13.3775
  85   2.0000      -0.489146       -13.3103
  86   2.0000      -0.478500       -13.0207
  87   2.0000      -0.471329       -12.8255
  88   2.0000      -0.465522       -12.6675
  89   2.0000      -0.462909       -12.5964
  90   2.0000      -0.462103       -12.5744
  91   2.0000      -0.445861       -12.1325
  92   2.0000      -0.442291       -12.0353
  93   2.0000      -0.438390       -11.9292
  94   2.0000      -0.435198       -11.8423
  95   2.0000      -0.431792       -11.7496
  96   2.0000      -0.426355       -11.6017
  97   2.0000      -0.423887       -11.5346
  98   2.0000      -0.419510       -11.4154
  99   2.0000      -0.417367       -11.3571
 100   2.0000      -0.407746       -11.0953
 101   2.0000      -0.404368       -11.0034
 102   2.0000      -0.402130       -10.9425
 103   2.0000      -0.399370       -10.8674
 104   2.0000      -0.398360       -10.8399
 105   2.0000      -0.394822       -10.7436
 106   2.0000      -0.384014       -10.4496
 107   2.0000      -0.376680       -10.2500
 108   2.0000      -0.373189       -10.1550
 109   2.0000      -0.372597       -10.1389
 110   2.0000      -0.367091        -9.9891
 111   2.0000      -0.361044        -9.8245
 112   2.0000      -0.357269        -9.7218
 113   2.0000      -0.348593        -9.4857
 114   2.0000      -0.345653        -9.4057
 115   2.0000      -0.342731        -9.3262
 116   2.0000      -0.331617        -9.0237
 117   2.0000      -0.325612        -8.8604
 118   2.0000      -0.320326        -8.7165
 119   2.0000      -0.314104        -8.5472
 120   2.0000      -0.303212        -8.2508
 121   2.0000      -0.294466        -8.0128
 122   2.0000      -0.289658        -7.8820
 123   2.0000      -0.287218        -7.8156
 124   2.0000      -0.274286        -7.4637
 125   2.0000      -0.272569        -7.4170
 126   2.0000      -0.267091        -7.2679
 127   2.0000      -0.262637        -7.1467
 128   2.0000      -0.259508        -7.0616
 129   2.0000      -0.257008        -6.9936
 130   2.0000      -0.254291        -6.9196
 131   2.0000      -0.248898        -6.7729
 132   2.0000      -0.246527        -6.7083
 133   2.0000      -0.244275        -6.6471
 134   2.0000      -0.238647        -6.4939
 135   2.0000      -0.233590        -6.3563
 136   2.0000      -0.228389        -6.2148
 137   2.0000      -0.213762        -5.8168
 138   2.0000      -0.202327        -5.5056
 139   2.0000      -0.198678        -5.4063
 140   2.0000      -0.190795        -5.1918
 141   2.0000      -0.175096        -4.7646
 142   2.0000      -0.163866        -4.4590
 143   0.0000       0.062129         1.6906
 144   0.0000       0.078628         2.1396
 145   0.0000       0.122729         3.3396
 146   0.0000       0.129374         3.5204
 147   0.0000       0.155566         4.2332

MULLIKEN ATOMIC CHARGES
-----------------------
   0 H :    0.423031
   1 O :   -0.636369
   2 C :   -0.179844
   3 H :    0.206974
   4 H :    0.200491
   5 C :    0.001769
   6 H :    0.253944
   7 O :   -0.491639
   8 C :    0.177010
   9 H :    0.281850
  10 N :   -0.567141
  11 C :    0.094848
  12 H :    0.311754
  13 C :   -0.490740
  14 H :    0.238020
  15 C :    0.564482
  16 O :   -0.434775
  17 N :   -0.737459
  18 H :    0.390056
  19 C :    0.728875
  20 O :   -0.429291
  21 C :   -0.054290
  22 H :    0.283386
  23 C :   -0.000418
  24 H :    0.241103
  25 O :   -0.635356
  26 H :    0.446400
  27 O :   -0.657523
  28 P :    1.380729
  29 O :   -0.746545
  30 O :   -0.703529
  31 O :   -0.615374
  32 C :   -0.155961
  33 H :    0.203323
  34 H :    0.209720
  35 C :    0.014439
  36 H :    0.214937
  37 O :   -0.490360
  38 C :    0.195050
  39 H :    0.262691
  40 N :   -0.571246
  41 C :    0.085233
  42 H :    0.341939
  43 C :   -0.488982
  44 H :    0.272681
  45 C :    0.563741
  46 O :   -0.423133
  47 N :   -0.736067
  48 H :    0.383865
  49 C :    0.724018
  50 O :   -0.455695
  51 C :   -0.086019
  52 H :    0.252116
  53 C :   -0.010821
  54 H :    0.295364
  55 O :   -0.630385
  56 H :    0.418910
  57 O :   -0.658596
  58 H :    0.424809
Sum of atomic charges:   -1.0000000

LOEWDIN ATOMIC CHARGES
----------------------
   0 H :    0.312694
   1 O :   -0.414675
   2 C :   -0.098628
   3 H :    0.113034
   4 H :    0.112386
   5 C :   -0.020147
   6 H :    0.137567
   7 O :   -0.250445
   8 C :    0.063653
   9 H :    0.147580
  10 N :   -0.083059
  11 C :    0.002805
  12 H :    0.162243
  13 C :   -0.259654
  14 H :    0.152780
  15 C :    0.127147
  16 O :   -0.286065
  17 N :   -0.202212
  18 H :    0.283343
  19 C :    0.167281
  20 O :   -0.270994
  21 C :   -0.031515
  22 H :    0.148438
  23 C :   -0.038882
  24 H :    0.131504
  25 O :   -0.386305
  26 H :    0.325670
  27 O :   -0.356989
  28 P :    0.805275
  29 O :   -0.608349
  30 O :   -0.591210
  31 O :   -0.360349
  32 C :   -0.086514
  33 H :    0.113012
  34 H :    0.120414
  35 C :   -0.021532
  36 H :    0.121521
  37 O :   -0.245687
  38 C :    0.067924
  39 H :    0.140834
  40 N :   -0.087482
  41 C :    0.002278
  42 H :    0.173534
  43 C :   -0.239548
  44 H :    0.167612
  45 C :    0.127463
  46 O :   -0.274681
  47 N :   -0.203308
  48 H :    0.279751
  49 C :    0.164426
  50 O :   -0.295370
  51 C :   -0.038255
  52 H :    0.131009
  53 C :   -0.043100
  54 H :    0.155002
  55 O :   -0.384847
  56 H :    0.310050
  57 O :   -0.405992
  58 H :    0.317564

  Mayer bond orders larger than 0.100000
B(  0-H ,  1-O ) :   0.7881 B(  1-O ,  2-C ) :   0.9750 B(  2-C ,  3-H ) :   0.9033
B(  2-C ,  4-H ) :   0.8970 B(  2-C ,  5-C ) :   0.9435 B(  5-C ,  6-H ) :   0.8878
B(  5-C ,  7-O ) :   0.9342 B(  5-C , 21-C ) :   0.9200 B(  7-O ,  8-C ) :   0.9819
B(  8-C ,  9-H ) :   0.8576 B(  8-C , 10-N ) :   0.8875 B(  8-C , 23-C ) :   0.8847
B( 10-N , 11-C ) :   1.0815 B( 10-N , 19-C ) :   1.0170 B( 11-C , 12-H ) :   0.8339
B( 11-C , 13-C ) :   1.5918 B( 13-C , 14-H ) :   0.9228 B( 13-C , 15-C ) :   1.0791
B( 15-C , 16-O ) :   1.9942 B( 15-C , 17-N ) :   0.9960 B( 17-N , 18-H ) :   0.8038
B( 17-N , 19-C ) :   1.0490 B( 19-C , 20-O ) :   1.9841 B( 21-C , 22-H ) :   0.8614
B( 21-C , 23-C ) :   0.9375 B( 21-C , 27-O ) :   0.9020 B( 23-C , 24-H ) :   0.8942
B( 23-C , 25-O ) :   1.0756 B( 25-O , 26-H ) :   0.7327 B( 27-O , 28-P ) :   0.8031
B( 28-P , 29-O ) :   1.6660 B( 28-P , 30-O ) :   1.8080 B( 28-P , 31-O ) :   0.8367
B( 31-O , 32-C ) :   0.9445 B( 32-C , 33-H ) :   0.8938 B( 32-C , 34-H ) :   0.8984
B( 32-C , 35-C ) :   0.9321 B( 35-C , 36-H ) :   0.9043 B( 35-C , 37-O ) :   0.9402
B( 35-C , 51-C ) :   0.9247 B( 37-O , 38-C ) :   0.9719 B( 38-C , 39-H ) :   0.8690
B( 38-C , 40-N ) :   0.9114 B( 38-C , 53-C ) :   0.8894 B( 40-N , 41-C ) :   1.0439
B( 40-N , 49-C ) :   1.0278 B( 41-C , 42-H ) :   0.8172 B( 41-C , 43-C ) :   1.6133
B( 43-C , 44-H ) :   0.9052 B( 43-C , 45-C ) :   1.0731 B( 45-C , 46-O ) :   2.0036
B( 45-C , 47-N ) :   0.9759 B( 47-N , 48-H ) :   0.8072 B( 47-N , 49-C ) :   1.0672
B( 49-C , 50-O ) :   1.9615 B( 51-C , 52-H ) :   0.8968 B( 51-C , 53-C ) :   0.9481
B( 51-C , 57-O ) :   0.9553 B( 53-C , 54-H ) :   0.8702 B( 53-C , 55-O ) :   1.0470
B( 55-O , 56-H ) :   0.7575 B( 57-O , 58-H ) :   0.7885

Dispersion correction           -0.048318987
FINAL SINGLE POINT ENERGY     -2308.306324152997

DIPOLE MOMENT
-------------
                                X             Y             Z
Electronic contribution:     10.13297      -0.33500     -12.08380
Nuclear contribution   :    -10.85798      -0.48123      17.07849
                        -----------------------------------------
Total Dipole Moment    :     -0.72501      -0.81624       4.99469
                        -----------------------------------------
Magnitude (a.u.)       :      5.11261
Magnitude (Debye)      :     12.99523

Rotational constants in cm-1:     0.004922     0.002163     0.001768
Rotational constants in MHz :   147.553486    64.851694    53.012224

                             ****ORCA TERMINATED NORMALLY****
TOTAL RUN TIME: 0 days 0 hours 16 minutes 19 seconds 375 msec
