                         Program Version 5.0.3 -  RELEASE  -
|  1> ! PBEh-3c def2/J TightSCF DefGrid3
|  2>
|  3> %maxcore 60000
|  4>
|  5> %pal
|  6> nprocs 4
|  7> end
|  8>
|  9> *xyzfile 0 1 C3H7NCO.xyz
| 10>
| 11>                          ****END OF INPUT****

CARTESIAN COORDINATES (ANGSTROEM)
---------------------------------
  C     -0.614035    0.178313    0.127591
  H     -1.071298   -0.170008    1.066571
  C      0.880712   -0.159033    0.152897
  H      1.361638    0.173375   -0.782788
  H      1.370937    0.384488    0.973887
  N      1.146827   -1.568839    0.352152
  C      0.904765   -2.619385   -0.196636
  O      0.745167   -3.711043   -0.624756
  H     -1.093795   -0.388528   -0.686319
  C     -0.858462    1.677407   -0.059307
  H     -0.402033    2.263018    0.752679
  H     -0.436930    2.038032   -1.009369
  H     -1.933495    1.902205   -0.066602

 Total Charge           Charge          ....    0
 Multiplicity           Mult            ....    1
 Number of Electrons    NEL             ....   46
 Basis Dimension        Dim             ....  104

ORBITAL ENERGIES
----------------

  NO   OCC          E(Eh)            E(eV)
   0   2.0000     -19.536182      -531.6065
   1   2.0000     -14.663584      -399.0164
   2   2.0000     -10.587269      -288.0942
   3   2.0000     -10.502925      -285.7991
   4   2.0000     -10.455840      -284.5179
   5   2.0000     -10.443888      -284.1926
   6   2.0000      -1.202286       -32.7159
   7   2.0000      -1.051168       -28.6037
   8   2.0000      -0.892395       -24.2833
   9   2.0000      -0.800193       -21.7744
  10   2.0000      -0.693926       -18.8827
  11   2.0000      -0.600721       -16.3464
  12   2.0000      -0.561279       -15.2732
  13   2.0000      -0.557741       -15.1769
  14   2.0000      -0.524098       -14.2614
  15   2.0000      -0.509205       -13.8562
  16   2.0000      -0.482230       -13.1222
  17   2.0000      -0.463175       -12.6036
  18   2.0000      -0.444860       -12.1053
  19   2.0000      -0.417303       -11.3554
  20   2.0000      -0.402201       -10.9444
  21   2.0000      -0.341243        -9.2857
  22   2.0000      -0.326699        -8.8899
  23   0.0000       0.054409         1.4805
  24   0.0000       0.091509         2.4901
  25   0.0000       0.136083         3.7030
  26   0.0000       0.141746         3.8571
  27   0.0000       0.177631         4.8336

MULLIKEN ATOMIC CHARGES
-----------------------
   0 C :   -0.437004
   1 H :    0.230499
   2 C :   -0.253885
   3 H :    0.225198
   4 H :    0.231635
   5 N :   -0.409977
   6 C :    0.512389
   7 O :   -0.336103
   8 H :    0.219814
   9 C :   -0.644929
  10 H :    0.215432
  11 H :    0.214464
  12 H :    0.232469
Sum of atomic charges:    0.0000000

LOEWDIN ATOMIC CHARGES
----------------------
   0 C :   -0.254600
   1 H :    0.131991
   2 C :   -0.129303
   3 H :    0.126703
   4 H :    0.130527
   5 N :   -0.195387
   6 C :    0.191669
   7 O :   -0.155104
   8 H :    0.126964
   9 C :   -0.362630
  10 H :    0.127349
  11 H :    0.126710
  12 H :    0.135110

  Mayer bond orders larger than 0.100000
B(  0-C ,  1-H ) :   0.9118 B(  0-C ,  2-C ) :   0.9702 B(  0-C ,  8-H ) :   0.9144
B(  0-C ,  9-C ) :   0.9826 B(  2-C ,  3-H ) :   0.9019 B(  2-C ,  4-H ) :   0.9045
B(  2-C ,  5-N ) :   0.9407 B(  5-N ,  6-C ) :   2.0021 B(  5-N ,  7-O ) :   0.2431
B(  6-C ,  7-O ) :   2.0690 B(  9-C , 10-H ) :   0.9259 B(  9-C , 11-H ) :   0.9261
B(  9-C , 12-H ) :   0.9263

Dispersion correction           -0.005240958
FINAL SINGLE POINT ENERGY      -285.997666383423

DIPOLE MOMENT
-------------
                                X             Y             Z
Electronic contribution:      4.10104     -11.18516      -0.57010
Nuclear contribution   :     -4.33645      12.42610       0.57514
                        -----------------------------------------
Total Dipole Moment    :     -0.23540       1.24095       0.00503
                        -----------------------------------------
Magnitude (a.u.)       :      1.26309
Magnitude (Debye)      :      3.21051

Rotational constants in cm-1:     0.430547     0.049672     0.046340
Rotational constants in MHz : 12907.480767  1489.115486  1389.223810

                             ****ORCA TERMINATED NORMALLY****
TOTAL RUN TIME: 0 days 0 hours 1 minutes 33 seconds 611 msec
