                         Program Version 5.0.3 -  RELEASE  -
|  1> ! PBEh-3c def2/J TightSCF DefGrid3
|  2>
|  3> %maxcore 60000
|  4>
|  5> %pal
|  6> nprocs 4
|  7> end
|  8>
|  9> *xyzfile 0 1 E43.xyz
| 10>
| 11>                          ****END OF INPUT****

CARTESIAN COORDINATES (ANGSTROEM)
---------------------------------
  C      0.000000    0.000000   -0.951124
  C      0.000000    0.000000    0.504521
  C      0.000000    0.000000    1.705479
  H      0.510170    0.883641   -1.342198
  H      0.510170   -0.883641   -1.342198
  H     -1.020341    0.000000   -1.342198
  H      0.000000    0.000000    2.767718

 Total Charge           Charge          ....    0
 Multiplicity           Mult            ....    1
 Number of Electrons    NEL             ....   22
 Basis Dimension        Dim             ....   53

ORBITAL ENERGIES
----------------

  NO   OCC          E(Eh)            E(eV)
   0   2.0000     -10.459461      -284.6164
   1   2.0000     -10.450331      -284.3680
   2   2.0000     -10.434881      -283.9475
   3   2.0000      -0.871717       -23.7206
   4   2.0000      -0.786522       -21.4024
   5   2.0000      -0.594322       -16.1723
   6   2.0000      -0.514446       -13.9988
   7   2.0000      -0.490557       -13.3487
   8   2.0000      -0.490557       -13.3487
   9   2.0000      -0.314962        -8.5705
  10   2.0000      -0.314961        -8.5705
  11   0.0000       0.085103         2.3158
  12   0.0000       0.085103         2.3158
  13   0.0000       0.160377         4.3641
  14   0.0000       0.190910         5.1949
  15   0.0000       0.229992         6.2584

MULLIKEN ATOMIC CHARGES
-----------------------
   0 C :   -0.772159
   1 C :    0.236312
   2 C :   -0.437960
   3 H :    0.250605
   4 H :    0.250605
   5 H :    0.250603
   6 H :    0.221995
Sum of atomic charges:    0.0000000

LOEWDIN ATOMIC CHARGES
----------------------
   0 C :   -0.360409
   1 C :   -0.048663
   2 C :   -0.210927
   3 H :    0.153264
   4 H :    0.153264
   5 H :    0.153263
   6 H :    0.160207

  Mayer bond orders larger than 0.100000
B(  0-C ,  1-C ) :   0.9819 B(  0-C ,  3-H ) :   0.9086 B(  0-C ,  4-H ) :   0.9086
B(  0-C ,  5-H ) :   0.9086 B(  1-C ,  2-C ) :   2.7159 B(  2-C ,  6-H ) :   0.9463

Dispersion correction           -0.001827043
FINAL SINGLE POINT ENERGY      -116.384384643798

DIPOLE MOMENT
-------------
                                X             Y             Z
Electronic contribution:      0.00000       0.00000       2.18087
Nuclear contribution   :      0.00000       0.00000      -2.47845
                        -----------------------------------------
Total Dipole Moment    :      0.00000       0.00000      -0.29758
                        -----------------------------------------
Magnitude (a.u.)       :      0.29758
Magnitude (Debye)      :      0.75638

Rotational constants in cm-1:     5.354573     0.286629     0.286629
Rotational constants in MHz : 160526.061035  8592.925003  8592.924991

                             ****ORCA TERMINATED NORMALLY****
TOTAL RUN TIME: 0 days 0 hours 1 minutes 10 seconds 257 msec
