                         Program Version 5.0.3 -  RELEASE  -
|  1> ! PBEh-3c def2/J TightSCF DefGrid3
|  2>
|  3> %maxcore 60000
|  4>
|  5> %pal
|  6> nprocs 4
|  7> end
|  8>
|  9> *xyzfile 0 1 49.xyz
| 10>
| 11>                          ****END OF INPUT****

CARTESIAN COORDINATES (ANGSTROEM)
---------------------------------
  N     -1.070213    2.680194    0.150884
  C      0.221000    2.244112   -0.065687
  C      0.217869    0.898632   -0.362697
  C     -1.157285    0.485136   -0.326791
  C     -1.795684   -0.750612   -0.541156
  C     -3.174584   -0.806955   -0.435684
  C     -3.938596    0.338403   -0.119174
  C     -3.331226    1.564660    0.100971
  C     -1.936218    1.623056   -0.004019
  H     -1.332069    3.623073    0.372167
  H      1.042881    2.936668    0.009525
  H     -1.242810   -1.645115   -0.796853
  H     -5.015106    0.244057   -0.071031
  H     -3.920662    2.441860    0.334692
  O     -3.825169   -2.002105   -0.687074
  C     -4.215474   -2.670655    0.509596
  H     -4.897363   -2.056375    1.101966
  H     -3.341844   -2.918824    1.117137
  H     -4.721110   -3.583930    0.207155
  C      1.390190    0.014185   -0.662445
  C      2.726472    0.758271   -0.657872
  N      3.861985   -0.098570   -0.943617
  C      4.576948   -0.841384   -0.040960
  C      4.336767   -0.540674    1.425694
  H      1.256134   -0.459467   -1.639720
  H      1.437311   -0.801388    0.065166
  H      2.883334    1.237692    0.306990
  H      2.705411    1.553105   -1.405338
  H      4.009868   -0.382859   -1.899551
  O      5.390337   -1.676238   -0.408082
  H      4.946143   -1.224391    2.007233
  H      3.289276   -0.668010    1.697510
  H      4.623489    0.484449    1.661072

 Total Charge           Charge          ....    0
 Multiplicity           Mult            ....    1
 Number of Electrons    NEL             ....  124
 Basis Dimension        Dim             ....  287

ORBITAL ENERGIES
----------------

  NO   OCC          E(Eh)            E(eV)
   0   2.0000     -19.505477      -530.7710
   1   2.0000     -19.448878      -529.2309
   2   2.0000     -14.690253      -399.7421
   3   2.0000     -14.656097      -398.8127
   4   2.0000     -10.544462      -286.9294
   5   2.0000     -10.495280      -285.5911
   6   2.0000     -10.488053      -285.3944
   7   2.0000     -10.486230      -285.3448
   8   2.0000     -10.484272      -285.2915
   9   2.0000     -10.481063      -285.2042
  10   2.0000     -10.456473      -284.5351
  11   2.0000     -10.452895      -284.4377
  12   2.0000     -10.450351      -284.3685
  13   2.0000     -10.449556      -284.3469
  14   2.0000     -10.447148      -284.2813
  15   2.0000     -10.445316      -284.2315
  16   2.0000     -10.439138      -284.0634
  17   2.0000      -1.153984       -31.4015
  18   2.0000      -1.135151       -30.8890
  19   2.0000      -1.092962       -29.7410
  20   2.0000      -1.021330       -27.7918
  21   2.0000      -0.940998       -25.6059
  22   2.0000      -0.905765       -24.6471
  23   2.0000      -0.848792       -23.0968
  24   2.0000      -0.832304       -22.6481
  25   2.0000      -0.825285       -22.4572
  26   2.0000      -0.804699       -21.8970
  27   2.0000      -0.767543       -20.8859
  28   2.0000      -0.739108       -20.1121
  29   2.0000      -0.704002       -19.1569
  30   2.0000      -0.667811       -18.1721
  31   2.0000      -0.649066       -17.6620
  32   2.0000      -0.635227       -17.2854
  33   2.0000      -0.618453       -16.8290
  34   2.0000      -0.576296       -15.6818
  35   2.0000      -0.561688       -15.2843
  36   2.0000      -0.552172       -15.0254
  37   2.0000      -0.548074       -14.9139
  38   2.0000      -0.524844       -14.2817
  39   2.0000      -0.517972       -14.0947
  40   2.0000      -0.516573       -14.0567
  41   2.0000      -0.508416       -13.8347
  42   2.0000      -0.500727       -13.6255
  43   2.0000      -0.491730       -13.3807
  44   2.0000      -0.482403       -13.1269
  45   2.0000      -0.475955       -12.9514
  46   2.0000      -0.470203       -12.7949
  47   2.0000      -0.457358       -12.4454
  48   2.0000      -0.454476       -12.3669
  49   2.0000      -0.447431       -12.1752
  50   2.0000      -0.435701       -11.8560
  51   2.0000      -0.421694       -11.4749
  52   2.0000      -0.412498       -11.2247
  53   2.0000      -0.405546       -11.0355
  54   2.0000      -0.400568       -10.9000
  55   2.0000      -0.377944       -10.2844
  56   2.0000      -0.327565        -8.9135
  57   2.0000      -0.323864        -8.8128
  58   2.0000      -0.302735        -8.2378
  59   2.0000      -0.295430        -8.0391
  60   2.0000      -0.258791        -7.0421
  61   2.0000      -0.247021        -6.7218
  62   0.0000       0.001252         0.0341
  63   0.0000       0.046741         1.2719
  64   0.0000       0.065501         1.7824
  65   0.0000       0.087579         2.3831
  66   0.0000       0.117158         3.1880

MULLIKEN ATOMIC CHARGES
-----------------------
   0 N :   -0.707574
   1 C :   -0.056512
   2 C :    0.004038
   3 C :    0.074348
   4 C :   -0.427302
   5 C :    0.360077
   6 C :   -0.310771
   7 C :   -0.262745
   8 C :    0.367083
   9 H :    0.359340
  10 H :    0.237958
  11 H :    0.220719
  12 H :    0.228947
  13 H :    0.215245
  14 O :   -0.485405
  15 C :   -0.376783
  16 H :    0.197836
  17 H :    0.202698
  18 H :    0.220759
  19 C :   -0.499095
  20 C :   -0.280407
  21 N :   -0.613065
  22 C :    0.493918
  23 C :   -0.783356
  24 H :    0.230083
  25 H :    0.228728
  26 H :    0.229895
  27 H :    0.239268
  28 H :    0.359122
  29 O :   -0.416143
  30 H :    0.273521
  31 H :    0.236316
  32 H :    0.239258
Sum of atomic charges:   -0.0000000

LOEWDIN ATOMIC CHARGES
----------------------
   0 N :   -0.158938
   1 C :   -0.092121
   2 C :   -0.104482
   3 C :   -0.054930
   4 C :   -0.148894
   5 C :    0.042881
   6 C :   -0.156970
   7 C :   -0.153593
   8 C :    0.014807
   9 H :    0.262266
  10 H :    0.134225
  11 H :    0.145725
  12 H :    0.142758
  13 H :    0.137248
  14 O :   -0.220441
  15 C :   -0.172294
  16 H :    0.107690
  17 H :    0.110513
  18 H :    0.124381
  19 C :   -0.236857
  20 C :   -0.147700
  21 N :   -0.245034
  22 C :    0.107142
  23 C :   -0.398916
  24 H :    0.136816
  25 H :    0.134643
  26 H :    0.129466
  27 H :    0.129197
  28 H :    0.258946
  29 O :   -0.272143
  30 H :    0.157109
  31 H :    0.142045
  32 H :    0.145456

  Mayer bond orders larger than 0.100000
B(  0-N ,  1-C ) :   1.1225 B(  0-N ,  8-C ) :   1.0129 B(  0-N ,  9-H ) :   0.8334
B(  1-C ,  2-C ) :   1.5477 B(  1-C , 10-H ) :   0.9121 B(  2-C ,  3-C ) :   1.2461
B(  2-C , 19-C ) :   0.9620 B(  3-C ,  4-C ) :   1.2427 B(  3-C ,  8-C ) :   1.2394
B(  4-C ,  5-C ) :   1.4800 B(  4-C , 11-H ) :   0.9281 B(  5-C ,  6-C ) :   1.3212
B(  5-C , 14-O ) :   0.9535 B(  6-C ,  7-C ) :   1.4839 B(  6-C , 12-H ) :   0.9123
B(  7-C ,  8-C ) :   1.2900 B(  7-C , 13-H ) :   0.9203 B( 14-O , 15-C ) :   0.9514
B( 15-C , 16-H ) :   0.9121 B( 15-C , 17-H ) :   0.9123 B( 15-C , 18-H ) :   0.9283
B( 19-C , 20-C ) :   0.9830 B( 19-C , 24-H ) :   0.9071 B( 19-C , 25-H ) :   0.9042
B( 20-C , 21-N ) :   0.9615 B( 20-C , 26-H ) :   0.9027 B( 20-C , 27-H ) :   0.9083
B( 21-N , 22-C ) :   1.1470 B( 21-N , 28-H ) :   0.8226 B( 22-C , 23-C ) :   0.9271
B( 22-C , 29-O ) :   2.0358 B( 23-C , 30-H ) :   0.9153 B( 23-C , 31-H ) :   0.9065
B( 23-C , 32-H ) :   0.9096

Dispersion correction           -0.020914027
FINAL SINGLE POINT ENERGY      -763.319119016925

DIPOLE MOMENT
-------------
                                X             Y             Z
Electronic contribution:     -3.25639       3.24128      -4.59420
Nuclear contribution   :      2.11771      -1.43705       5.43088
                        -----------------------------------------
Total Dipole Moment    :     -1.13868       1.80423       0.83668
                        -----------------------------------------
Magnitude (a.u.)       :      2.29170
Magnitude (Debye)      :      5.82504

Rotational constants in cm-1:     0.027517     0.006611     0.005633
Rotational constants in MHz :   824.929448   198.202287   168.858798

                             ****ORCA TERMINATED NORMALLY****
TOTAL RUN TIME: 0 days 0 hours 4 minutes 12 seconds 305 msec
