                         Program Version 5.0.3 -  RELEASE  -
|  1> ! PBEh-3c def2/J TightSCF DefGrid3
|  2>
|  3> %maxcore 60000
|  4>
|  5> %pal
|  6> nprocs 4
|  7> end
|  8>
|  9> *xyzfile 0 1 E10.xyz
| 10>
| 11>                          ****END OF INPUT****

CARTESIAN COORDINATES (ANGSTROEM)
---------------------------------
  C      0.887900    0.887900   -0.887900
  C      0.000000    0.000000    0.000000
  C     -0.887900   -0.887900   -0.887900
  C      0.887900   -0.887900    0.887900
  C     -0.887900    0.887900    0.887900
  H      1.531733    0.282241   -1.531733
  H      0.282241    1.531733   -1.531733
  H      1.531733    1.531733   -0.282241
  H     -0.282241   -1.531733   -1.531733
  H     -1.531733   -1.531733   -0.282241
  H     -1.531733   -0.282241   -1.531733
  H      1.531733   -1.531733    0.282241
  H      1.531733   -0.282241    1.531733
  H      0.282241   -1.531733    1.531733
  H     -1.531733    1.531733    0.282241
  H     -1.531733    0.282241    1.531733
  H     -0.282241    1.531733    1.531733

 Total Charge           Charge          ....    0
 Multiplicity           Mult            ....    1
 Number of Electrons    NEL             ....   42
 Basis Dimension        Dim             ....   99

ORBITAL ENERGIES
----------------

  NO   OCC          E(Eh)            E(eV)
   0   2.0000     -10.450349      -284.3684
   1   2.0000     -10.419029      -283.5162
   2   2.0000     -10.419029      -283.5162
   3   2.0000     -10.419029      -283.5162
   4   2.0000     -10.418915      -283.5131
   5   2.0000      -0.908447       -24.7201
   6   2.0000      -0.760420       -20.6921
   7   2.0000      -0.760420       -20.6921
   8   2.0000      -0.760420       -20.6921
   9   2.0000      -0.596774       -16.2390
  10   2.0000      -0.502406       -13.6712
  11   2.0000      -0.502406       -13.6712
  12   2.0000      -0.502406       -13.6712
  13   2.0000      -0.450823       -12.2675
  14   2.0000      -0.450823       -12.2675
  15   2.0000      -0.411037       -11.1849
  16   2.0000      -0.411037       -11.1849
  17   2.0000      -0.411037       -11.1849
  18   2.0000      -0.364386        -9.9154
  19   2.0000      -0.364386        -9.9154
  20   2.0000      -0.364386        -9.9154
  21   0.0000       0.118215         3.2168
  22   0.0000       0.186226         5.0675
  23   0.0000       0.186226         5.0675
  24   0.0000       0.186226         5.0675
  25   0.0000       0.217097         5.9075

MULLIKEN ATOMIC CHARGES
-----------------------
   0 C :   -0.607820
   1 C :   -0.104105
   2 C :   -0.607820
   3 C :   -0.607820
   4 C :   -0.607820
   5 H :    0.211282
   6 H :    0.211282
   7 H :    0.211282
   8 H :    0.211282
   9 H :    0.211282
  10 H :    0.211282
  11 H :    0.211282
  12 H :    0.211282
  13 H :    0.211282
  14 H :    0.211282
  15 H :    0.211282
  16 H :    0.211282
Sum of atomic charges:    0.0000000

LOEWDIN ATOMIC CHARGES
----------------------
   0 C :   -0.345188
   1 C :   -0.109306
   2 C :   -0.345188
   3 C :   -0.345188
   4 C :   -0.345188
   5 H :    0.124172
   6 H :    0.124172
   7 H :    0.124172
   8 H :    0.124172
   9 H :    0.124172
  10 H :    0.124172
  11 H :    0.124172
  12 H :    0.124172
  13 H :    0.124172
  14 H :    0.124172
  15 H :    0.124172
  16 H :    0.124172

  Mayer bond orders larger than 0.100000
B(  0-C ,  1-C ) :   0.9798 B(  0-C ,  5-H ) :   0.9303 B(  0-C ,  6-H ) :   0.9303
B(  0-C ,  7-H ) :   0.9303 B(  1-C ,  2-C ) :   0.9798 B(  1-C ,  3-C ) :   0.9798
B(  1-C ,  4-C ) :   0.9798 B(  2-C ,  8-H ) :   0.9303 B(  2-C ,  9-H ) :   0.9303
B(  2-C , 10-H ) :   0.9303 B(  3-C , 11-H ) :   0.9303 B(  3-C , 12-H ) :   0.9303
B(  3-C , 13-H ) :   0.9303 B(  4-C , 14-H ) :   0.9303 B(  4-C , 15-H ) :   0.9303
B(  4-C , 16-H ) :   0.9303

Dispersion correction           -0.007669705
FINAL SINGLE POINT ENERGY      -197.340750360777

DIPOLE MOMENT
-------------
                                X             Y             Z
Electronic contribution:      0.00000       0.00000       0.00000
Nuclear contribution   :      0.00000       0.00000      -0.00000
                        -----------------------------------------
Total Dipole Moment    :      0.00000       0.00000       0.00000
                        -----------------------------------------
Magnitude (a.u.)       :      0.00000
Magnitude (Debye)      :      0.00000

Rotational constants in cm-1:     0.147570     0.147570     0.147570
Rotational constants in MHz :  4424.049800  4424.049800  4424.049800

                             ****ORCA TERMINATED NORMALLY****
TOTAL RUN TIME: 0 days 0 hours 0 minutes 58 seconds 530 msec
