                         Program Version 5.0.3 -  RELEASE  -
|  1> ! PBEh-3c def2/J TightSCF DefGrid3
|  2>
|  3> %maxcore 60000
|  4>
|  5> %pal
|  6> nprocs 4
|  7> end
|  8>
|  9> *xyzfile 1 2 IP_77.xyz
| 10>
| 11>                          ****END OF INPUT****

CARTESIAN COORDINATES (ANGSTROEM)
---------------------------------
  S      0.000000    0.000000    0.919314
  S      0.000000    0.000000   -0.919314

 Total Charge           Charge          ....    1
 Multiplicity           Mult            ....    2
 Number of Electrons    NEL             ....   31
 Basis Dimension        Dim             ....   36

ORBITAL ENERGIES
----------------
                 SPIN UP ORBITALS
  NO   OCC          E(Eh)            E(eV)
   0   1.0000     -89.978170     -2448.4305
   1   1.0000     -89.978021     -2448.4264
   2   1.0000      -8.615008      -234.4263
   3   1.0000      -8.614727      -234.4186
   4   1.0000      -6.503722      -176.9753
   5   1.0000      -6.503639      -176.9730
   6   1.0000      -6.502457      -176.9409
   7   1.0000      -6.502386      -176.9389
   8   1.0000      -6.501417      -176.9125
   9   1.0000      -6.500281      -176.8816
  10   1.0000      -1.256815       -34.1997
  11   1.0000      -0.987032       -26.8585
  12   1.0000      -0.749019       -20.3818
  13   1.0000      -0.737611       -20.0714
  14   1.0000      -0.707984       -19.2652
  15   1.0000      -0.576830       -15.6963
  16   0.0000      -0.439046       -11.9470
  17   0.0000      -0.224388        -6.1059
  18   0.0000       0.012086         0.3289
  19   0.0000       0.184883         5.0309
  20   0.0000       0.187617         5.1053

                 SPIN DOWN ORBITALS
  NO   OCC          E(Eh)            E(eV)
   0   1.0000     -89.974226     -2448.3232
   1   1.0000     -89.974078     -2448.3191
   2   1.0000      -8.611108      -234.3201
   3   1.0000      -8.610796      -234.3117
   4   1.0000      -6.501502      -176.9149
   5   1.0000      -6.501416      -176.9125
   6   1.0000      -6.499332      -176.8558
   7   1.0000      -6.498181      -176.8245
   8   1.0000      -6.487834      -176.5429
   9   1.0000      -6.487746      -176.5406
  10   1.0000      -1.238460       -33.7002
  11   1.0000      -0.948226       -25.8026
  12   1.0000      -0.733068       -19.9478
  13   1.0000      -0.700766       -19.0688
  14   1.0000      -0.672761       -18.3068
  15   0.0000      -0.428643       -11.6640
  16   0.0000      -0.396511       -10.7896
  17   0.0000      -0.211589        -5.7576
  18   0.0000       0.017079         0.4647
  19   0.0000       0.195581         5.3220

MULLIKEN ATOMIC CHARGES AND SPIN POPULATIONS
--------------------------------------------
   0 S :    0.500000    0.500000
   1 S :    0.500000    0.500000
Sum of atomic charges         :    1.0000000

LOEWDIN ATOMIC CHARGES AND SPIN POPULATIONS
-------------------------------------------
   0 S :    0.500000    0.500000
   1 S :    0.500000    0.500000

  Mayer bond orders larger than 0.100000
B(  0-S ,  1-S ) :   2.4847

Dispersion correction           -0.000534141
FINAL SINGLE POINT ENERGY      -795.097833453916

DIPOLE MOMENT
-------------
                                X             Y             Z
Electronic contribution:      0.00000       0.00000       0.00000
Nuclear contribution   :      0.00000       0.00000       0.00000
                        -----------------------------------------
Total Dipole Moment    :      0.00000       0.00000       0.00000
                        -----------------------------------------
Magnitude (a.u.)       :      0.00000
Magnitude (Debye)      :      0.00000

Rotational constants in cm-1:     0.000000     0.311083     0.311083
Rotational constants in MHz :     0.000000  9326.030143  9326.030143

                             ****ORCA TERMINATED NORMALLY****
TOTAL RUN TIME: 0 days 0 hours 0 minutes 10 seconds 444 msec
