                         Program Version 5.0.3 -  RELEASE  -
|  1> ! PBEh-3c def2/J TightSCF DefGrid3
|  2>
|  3> %maxcore 60000
|  4>
|  5> %pal
|  6> nprocs 4
|  7> end
|  8>
|  9> *xyzfile 0 1 ch2c.xyz
| 10>
| 11>                          ****END OF INPUT****

CARTESIAN COORDINATES (ANGSTROEM)
---------------------------------
  C     -0.743847    0.000000    0.000000
  C      0.558923    0.000000    0.000000
  H      1.101858   -0.940391    0.000000
  H      1.101858    0.940391    0.000000

 Total Charge           Charge          ....    0
 Multiplicity           Mult            ....    1
 Number of Electrons    NEL             ....   14
 Basis Dimension        Dim             ....   34

ORBITAL ENERGIES
----------------

  NO   OCC          E(Eh)            E(eV)
   0   2.0000     -10.513274      -286.0807
   1   2.0000     -10.450866      -284.3825
   2   2.0000      -0.874363       -23.7926
   3   2.0000      -0.606060       -16.4917
   4   2.0000      -0.528838       -14.3904
   5   2.0000      -0.349035        -9.4977
   6   2.0000      -0.343427        -9.3451
   7   0.0000      -0.066163        -1.8004
   8   0.0000       0.044440         1.2093
   9   0.0000       0.162414         4.4195
  10   0.0000       0.246800         6.7158
  11   0.0000       0.286332         7.7915

MULLIKEN ATOMIC CHARGES
-----------------------
   0 C :    0.048948
   1 C :   -0.626724
   2 H :    0.288888
   3 H :    0.288888
Sum of atomic charges:   -0.0000000

LOEWDIN ATOMIC CHARGES
----------------------
   0 C :    0.044669
   1 C :   -0.420476
   2 H :    0.187903
   3 H :    0.187903

  Mayer bond orders larger than 0.100000
B(  0-C ,  1-C ) :   2.0211 B(  1-C ,  2-H ) :   0.8702 B(  1-C ,  3-H ) :   0.8702

Dispersion correction           -0.000788999
FINAL SINGLE POINT ENERGY       -77.072831363093

DIPOLE MOMENT
-------------
                                X             Y             Z
Electronic contribution:     -1.14555      -0.00000      -0.00000
Nuclear contribution   :      2.06746       0.00000       0.00000
                        -----------------------------------------
Total Dipole Moment    :      0.92191      -0.00000      -0.00000
                        -----------------------------------------
Magnitude (a.u.)       :      0.92191
Magnitude (Debye)      :      2.34331

Rotational constants in cm-1:     9.455610     1.312332     1.152393
Rotational constants in MHz : 283472.047378 39342.712224 34547.860195

                             ****ORCA TERMINATED NORMALLY****
TOTAL RUN TIME: 0 days 0 hours 0 minutes 25 seconds 498 msec
