                         Program Version 5.0.3 -  RELEASE  -
|  1> ! PBEh-3c def2/J TightSCF DefGrid3
|  2>
|  3> %maxcore 60000
|  4>
|  5> %pal
|  6> nprocs 4
|  7> end
|  8>
|  9> *xyzfile 1 2 nh3+.xyz
| 10>
| 11>                          ****END OF INPUT****

CARTESIAN COORDINATES (ANGSTROEM)
---------------------------------
  N      0.000000    0.000000    0.000000
  H      0.509400   -0.882307    0.000000
  H      0.509400    0.882307    0.000000
  H     -1.018800    0.000000    0.000000

 Total Charge           Charge          ....    1
 Multiplicity           Mult            ....    2
 Number of Electrons    NEL             ....    9
 Basis Dimension        Dim             ....   21

ORBITAL ENERGIES
----------------
                 SPIN UP ORBITALS
  NO   OCC          E(Eh)            E(eV)
   0   1.0000     -15.076340      -410.2481
   1   1.0000      -1.370989       -37.3065
   2   1.0000      -0.945586       -25.7307
   3   1.0000      -0.945585       -25.7307
   4   1.0000      -0.783828       -21.3290
   5   0.0000      -0.175517        -4.7761
   6   0.0000      -0.086893        -2.3645
   7   0.0000      -0.086893        -2.3645
   8   0.0000       0.377120        10.2620
   9   0.0000       0.433817        11.8048

                 SPIN DOWN ORBITALS
  NO   OCC          E(Eh)            E(eV)
   0   1.0000     -15.051335      -409.5676
   1   1.0000      -1.295684       -35.2573
   2   1.0000      -0.925538       -25.1852
   3   1.0000      -0.925538       -25.1852
   4   0.0000      -0.429188       -11.6788
   5   0.0000      -0.157806        -4.2941
   6   0.0000      -0.079723        -2.1694
   7   0.0000      -0.079722        -2.1694
   8   0.0000       0.442180        12.0323

MULLIKEN ATOMIC CHARGES AND SPIN POPULATIONS
--------------------------------------------
   0 N :   -0.498337    1.118015
   1 H :    0.499446   -0.039338
   2 H :    0.499446   -0.039338
   3 H :    0.499446   -0.039339
Sum of atomic charges         :    1.0000000

LOEWDIN ATOMIC CHARGES AND SPIN POPULATIONS
-------------------------------------------
   0 N :   -0.001267    1.081590
   1 H :    0.333756   -0.027196
   2 H :    0.333756   -0.027196
   3 H :    0.333756   -0.027197

  Mayer bond orders larger than 0.100000
B(  0-N ,  1-H ) :   0.7313 B(  0-N ,  2-H ) :   0.7313 B(  0-N ,  3-H ) :   0.7313

Dispersion correction           -0.000443062
FINAL SINGLE POINT ENERGY       -56.066237916277

DIPOLE MOMENT
-------------
                                X             Y             Z
Electronic contribution:     -0.00000       0.00000       0.00000
Nuclear contribution   :      0.00000       0.00000       0.00000
                        -----------------------------------------
Total Dipole Moment    :     -0.00000       0.00000       0.00000
                        -----------------------------------------
Magnitude (a.u.)       :      0.00000
Magnitude (Debye)      :      0.00000

Rotational constants in cm-1:    10.741554    10.741554     5.370777
Rotational constants in MHz : 322023.693218 322023.690916 161011.846033

                             ****ORCA TERMINATED NORMALLY****
TOTAL RUN TIME: 0 days 0 hours 0 minutes 53 seconds 112 msec
