                         Program Version 5.0.3 -  RELEASE  -
|  1> ! PBEh-3c def2/J TightSCF DefGrid3
|  2>
|  3> %maxcore 60000
|  4>
|  5> %pal
|  6> nprocs 4
|  7> end
|  8>
|  9> *xyzfile 0 1 NH3_PhBr.xyz
| 10>
| 11>                          ****END OF INPUT****

CARTESIAN COORDINATES (ANGSTROEM)
---------------------------------
  N      0.000166    4.349586    0.000000
  H      0.468618    4.718772    0.815879
  H      0.468618    4.718772   -0.815879
  H     -0.943967    4.710200    0.000000
  Br     0.002424    1.211285    0.000000
  C      0.000000   -0.680817    0.000000
  C      1.203478   -1.368548    0.000000
  C      1.196087   -2.755471    0.000000
  C     -0.003720   -3.450505    0.000000
  C     -1.201658   -2.752256    0.000000
  C     -1.205305   -1.365325    0.000000
  H      2.137440   -0.822770    0.000000
  H      2.135966   -3.292713    0.000000
  H     -0.005178   -4.532758    0.000000
  H     -2.142973   -3.286976    0.000000
  H     -2.137804   -0.817054    0.000000

 Total Charge           Charge          ....    0
 Multiplicity           Mult            ....    1
 Number of Electrons    NEL             ....   86
 Basis Dimension        Dim             ....  153

ORBITAL ENERGIES
----------------

  NO   OCC          E(Eh)            E(eV)
   0   2.0000    -484.508173    -13184.1377
   1   2.0000     -63.170819     -1718.9654
   2   2.0000     -56.875050     -1547.6488
   3   2.0000     -56.872864     -1547.5893
   4   2.0000     -56.872824     -1547.5882
   5   2.0000     -14.607205      -397.4823
   6   2.0000     -10.492482      -285.5149
   7   2.0000     -10.451157      -284.3904
   8   2.0000     -10.451139      -284.3900
   9   2.0000     -10.450532      -284.3734
  10   2.0000     -10.450477      -284.3719
  11   2.0000     -10.447882      -284.3013
  12   2.0000      -8.999803      -244.8971
  13   2.0000      -6.774343      -184.3393
  14   2.0000      -6.761615      -183.9929
  15   2.0000      -6.761444      -183.9882
  16   2.0000      -2.788052       -75.8667
  17   2.0000      -2.784103       -75.7593
  18   2.0000      -2.783924       -75.7544
  19   2.0000      -2.773016       -75.4576
  20   2.0000      -2.773011       -75.4575
  21   2.0000      -0.968414       -26.3519
  22   2.0000      -0.944275       -25.6950
  23   2.0000      -0.883071       -24.0296
  24   2.0000      -0.842800       -22.9337
  25   2.0000      -0.798554       -21.7298
  26   2.0000      -0.688409       -18.7326
  27   2.0000      -0.666501       -18.1364
  28   2.0000      -0.584501       -15.9051
  29   2.0000      -0.523071       -14.2335
  30   2.0000      -0.522064       -14.2061
  31   2.0000      -0.521943       -14.2028
  32   2.0000      -0.517112       -14.0713
  33   2.0000      -0.486569       -13.2402
  34   2.0000      -0.467056       -12.7092
  35   2.0000      -0.437503       -11.9050
  36   2.0000      -0.405582       -11.0365
  37   2.0000      -0.396699       -10.7947
  38   2.0000      -0.350560        -9.5392
  39   2.0000      -0.319268        -8.6877
  40   2.0000      -0.313141        -8.5210
  41   2.0000      -0.297594        -8.0979
  42   2.0000      -0.271401        -7.3852
  43   0.0000       0.016684         0.4540
  44   0.0000       0.017195         0.4679
  45   0.0000       0.065413         1.7800
  46   0.0000       0.139034         3.7833
  47   0.0000       0.165335         4.4990

MULLIKEN ATOMIC CHARGES
-----------------------
   0 N :   -0.946907
   1 H :    0.325139
   2 H :    0.325139
   3 H :    0.324912
   4 Br:   -0.011808
   5 C :   -0.086179
   6 C :   -0.211757
   7 C :   -0.214747
   8 C :   -0.225464
   9 C :   -0.214739
  10 C :   -0.211703
  11 H :    0.239983
  12 H :    0.223502
  13 H :    0.221262
  14 H :    0.223491
  15 H :    0.239876
Sum of atomic charges:    0.0000000

LOEWDIN ATOMIC CHARGES
----------------------
   0 N :   -0.638731
   1 H :    0.221945
   2 H :    0.221945
   3 H :    0.221843
   4 Br:    0.086445
   5 C :   -0.131260
   6 C :   -0.144104
   7 C :   -0.129233
   8 C :   -0.140263
   9 C :   -0.129237
  10 C :   -0.144110
  11 H :    0.145457
  12 H :    0.138401
  13 H :    0.137089
  14 H :    0.138397
  15 H :    0.145416

  Mayer bond orders larger than 0.100000
B(  0-N ,  1-H ) :   0.8733 B(  0-N ,  2-H ) :   0.8733 B(  0-N ,  3-H ) :   0.8735
B(  4-Br,  5-C ) :   1.0213 B(  5-C ,  6-C ) :   1.3726 B(  5-C , 10-C ) :   1.3726
B(  6-C ,  7-C ) :   1.4300 B(  6-C , 11-H ) :   0.9120 B(  7-C ,  8-C ) :   1.4226
B(  7-C , 12-H ) :   0.9181 B(  8-C ,  9-C ) :   1.4226 B(  8-C , 13-H ) :   0.9197
B(  9-C , 10-C ) :   1.4301 B(  9-C , 14-H ) :   0.9181 B( 10-C , 15-H ) :   0.9120

Dispersion correction           -0.008028637
FINAL SINGLE POINT ENERGY     -2860.572779336580

DIPOLE MOMENT
-------------
                                X             Y             Z
Electronic contribution:      0.03541      10.34028      -0.00000
Nuclear contribution   :     -0.04016      -9.80658       0.00000
                        -----------------------------------------
Total Dipole Moment    :     -0.00475       0.53370      -0.00000
                        -----------------------------------------
Magnitude (a.u.)       :      0.53372
Magnitude (Debye)      :      1.35662

Rotational constants in cm-1:     0.186282     0.019383     0.017606
Rotational constants in MHz :  5584.592986   581.091831   527.801483

                             ****ORCA TERMINATED NORMALLY****
TOTAL RUN TIME: 0 days 0 hours 2 minutes 15 seconds 870 msec
