                         Program Version 5.0.3 -  RELEASE  -
|  1> ! PBEh-3c def2/J TightSCF DefGrid3
|  2>
|  3> %maxcore 60000
|  4>
|  5> %pal
|  6> nprocs 4
|  7> end
|  8>
|  9> *xyzfile 0 1 i20p.xyz
| 10>
| 11>                          ****END OF INPUT****

CARTESIAN COORDINATES (ANGSTROEM)
---------------------------------
  C      0.619373   -0.471982   -1.950860
  C     -0.619373    0.471982   -1.950860
  C     -1.476399    0.363113   -0.719580
  C      1.476399   -0.363113   -0.719580
  C     -1.197140    1.116870    0.428841
  C     -1.966420    0.945883    1.581782
  C     -3.007628    0.010998    1.601970
  C     -3.284857   -0.746887    0.459142
  C     -2.524897   -0.565984   -0.699897
  H     -0.380600    1.832884    0.411350
  H     -1.747958    1.537940    2.468362
  H     -3.603230   -0.123243    2.502947
  H     -4.096572   -1.471671    0.467062
  H     -2.737108   -1.153285   -1.591351
  C      1.197140   -1.116870    0.428841
  C      1.966420   -0.945883    1.581782
  C      3.007628   -0.010998    1.601970
  C      3.284857    0.746887    0.459142
  C      2.524897    0.565984   -0.699897
  H      0.380600   -1.832884    0.411350
  H      1.747958   -1.537940    2.468362
  H      3.603230    0.123243    2.502947
  H      4.096572    1.471671    0.467062
  H      2.737108    1.153285   -1.591351
  H     -1.206026    0.236046   -2.848984
  F     -0.114992    1.781228   -2.110784
  F      0.114992   -1.781228   -2.110784
  H      1.206026   -0.236046   -2.848984

 Total Charge           Charge          ....    0
 Multiplicity           Mult            ....    1
 Number of Electrons    NEL             ....  114
 Basis Dimension        Dim             ....  264

ORBITAL ENERGIES
----------------

  NO   OCC          E(Eh)            E(eV)
   0   2.0000     -25.086001      -682.6248
   1   2.0000     -25.085979      -682.6242
   2   2.0000     -10.538811      -286.7756
   3   2.0000     -10.538619      -286.7704
   4   2.0000     -10.464525      -284.7542
   5   2.0000     -10.464480      -284.7530
   6   2.0000     -10.457702      -284.5685
   7   2.0000     -10.457700      -284.5685
   8   2.0000     -10.455997      -284.5221
   9   2.0000     -10.455996      -284.5221
  10   2.0000     -10.455470      -284.5078
  11   2.0000     -10.455468      -284.5078
  12   2.0000     -10.454390      -284.4784
  13   2.0000     -10.454357      -284.4775
  14   2.0000     -10.453842      -284.4635
  15   2.0000     -10.453817      -284.4628
  16   2.0000      -1.315422       -35.7945
  17   2.0000      -1.309626       -35.6367
  18   2.0000      -0.966015       -26.2866
  19   2.0000      -0.957936       -26.0668
  20   2.0000      -0.892279       -24.2802
  21   2.0000      -0.856061       -23.2946
  22   2.0000      -0.840323       -22.8664
  23   2.0000      -0.838707       -22.8224
  24   2.0000      -0.804821       -21.9003
  25   2.0000      -0.735270       -20.0077
  26   2.0000      -0.690726       -18.7956
  27   2.0000      -0.687388       -18.7048
  28   2.0000      -0.675920       -18.3927
  29   2.0000      -0.652579       -17.7576
  30   2.0000      -0.602806       -16.4032
  31   2.0000      -0.593727       -16.1561
  32   2.0000      -0.571436       -15.5496
  33   2.0000      -0.571271       -15.5451
  34   2.0000      -0.563759       -15.3407
  35   2.0000      -0.534975       -14.5574
  36   2.0000      -0.532057       -14.4780
  37   2.0000      -0.512039       -13.9333
  38   2.0000      -0.506504       -13.7827
  39   2.0000      -0.500577       -13.6214
  40   2.0000      -0.500371       -13.6158
  41   2.0000      -0.484243       -13.1769
  42   2.0000      -0.483330       -13.1521
  43   2.0000      -0.469991       -12.7891
  44   2.0000      -0.441901       -12.0247
  45   2.0000      -0.433759       -11.8032
  46   2.0000      -0.433348       -11.7920
  47   2.0000      -0.421024       -11.4566
  48   2.0000      -0.413852       -11.2615
  49   2.0000      -0.400987       -10.9114
  50   2.0000      -0.400731       -10.9044
  51   2.0000      -0.385971       -10.5028
  52   2.0000      -0.382485       -10.4079
  53   2.0000      -0.302902        -8.2424
  54   2.0000      -0.298495        -8.1225
  55   2.0000      -0.290394        -7.9020
  56   2.0000      -0.286803        -7.8043
  57   0.0000      -0.000933        -0.0254
  58   0.0000       0.005158         0.1404
  59   0.0000       0.014335         0.3901
  60   0.0000       0.019165         0.5215
  61   0.0000       0.116532         3.1710

MULLIKEN ATOMIC CHARGES
-----------------------
   0 C :    0.128941
   1 C :    0.128942
   2 C :    0.030283
   3 C :    0.030283
   4 C :   -0.246209
   5 C :   -0.211148
   6 C :   -0.226693
   7 C :   -0.213846
   8 C :   -0.261396
   9 H :    0.247061
  10 H :    0.222964
  11 H :    0.222487
  12 H :    0.223122
  13 H :    0.222547
  14 C :   -0.246210
  15 C :   -0.211149
  16 C :   -0.226692
  17 C :   -0.213846
  18 C :   -0.261396
  19 H :    0.247061
  20 H :    0.222964
  21 H :    0.222488
  22 H :    0.223122
  23 H :    0.222547
  24 H :    0.220091
  25 F :   -0.358204
  26 F :   -0.358204
  27 H :    0.220091
Sum of atomic charges:   -0.0000000

LOEWDIN ATOMIC CHARGES
----------------------
   0 C :    0.102989
   1 C :    0.102989
   2 C :   -0.070791
   3 C :   -0.070791
   4 C :   -0.110600
   5 C :   -0.131205
   6 C :   -0.132087
   7 C :   -0.135528
   8 C :   -0.126425
   9 H :    0.150636
  10 H :    0.138500
  11 H :    0.137430
  12 H :    0.138147
  13 H :    0.140107
  14 C :   -0.110600
  15 C :   -0.131205
  16 C :   -0.132087
  17 C :   -0.135528
  18 C :   -0.126425
  19 H :    0.150636
  20 H :    0.138500
  21 H :    0.137430
  22 H :    0.138147
  23 H :    0.140107
  24 H :    0.132045
  25 F :   -0.233218
  26 F :   -0.233218
  27 H :    0.132045

  Mayer bond orders larger than 0.100000
B(  0-C ,  1-C ) :   0.9100 B(  0-C ,  3-C ) :   0.9697 B(  0-C , 26-F ) :   0.9215
B(  0-C , 27-H ) :   0.8978 B(  1-C ,  2-C ) :   0.9697 B(  1-C , 24-H ) :   0.8978
B(  1-C , 25-F ) :   0.9215 B(  2-C ,  4-C ) :   1.3923 B(  2-C ,  8-C ) :   1.3775
B(  3-C , 14-C ) :   1.3923 B(  3-C , 18-C ) :   1.3775 B(  4-C ,  5-C ) :   1.4241
B(  4-C ,  9-H ) :   0.9079 B(  5-C ,  6-C ) :   1.4168 B(  5-C , 10-H ) :   0.9195
B(  6-C ,  7-C ) :   1.4223 B(  6-C , 11-H ) :   0.9192 B(  7-C ,  8-C ) :   1.4226
B(  7-C , 12-H ) :   0.9192 B(  8-C , 13-H ) :   0.9203 B( 14-C , 15-C ) :   1.4241
B( 14-C , 19-H ) :   0.9079 B( 15-C , 16-C ) :   1.4168 B( 15-C , 20-H ) :   0.9195
B( 16-C , 17-C ) :   1.4223 B( 16-C , 21-H ) :   0.9192 B( 17-C , 18-C ) :   1.4226
B( 17-C , 22-H ) :   0.9192 B( 18-C , 23-H ) :   0.9203

Dispersion correction           -0.019894224
FINAL SINGLE POINT ENERGY      -738.817522590192

DIPOLE MOMENT
-------------
                                X             Y             Z
Electronic contribution:     -0.00000       0.00000      -8.71083
Nuclear contribution   :      0.00000      -0.00000       9.16358
                        -----------------------------------------
Total Dipole Moment    :     -0.00000       0.00000       0.45275
                        -----------------------------------------
Magnitude (a.u.)       :      0.45275
Magnitude (Debye)      :      1.15080

Rotational constants in cm-1:     0.025278     0.014999     0.012486
Rotational constants in MHz :   757.809313   449.668364   374.335407

                             ****ORCA TERMINATED NORMALLY****
TOTAL RUN TIME: 0 days 0 hours 3 minutes 30 seconds 708 msec
