                         Program Version 5.0.3 -  RELEASE  -
|  1> ! PBEh-3c def2/J TightSCF DefGrid3
|  2>
|  3> %maxcore 60000
|  4>
|  5> %pal
|  6> nprocs 4
|  7> end
|  8>
|  9> *xyzfile 0 1 TS9.xyz
| 10>
| 11>                          ****END OF INPUT****

CARTESIAN COORDINATES (ANGSTROEM)
---------------------------------
  H      2.076945   -1.163319    1.181589
  C      1.486502   -0.386111    0.707184
  C     -1.858680    0.660269    0.000000
  C      0.929340    0.660269    1.609665
  H     -0.015186   -1.163319    2.389482
  H      0.658144    1.606424    1.139939
  H      1.468246    0.832166    2.543078
  C     -0.130812   -0.386111    1.640941
  C     -1.355690   -0.386111    0.933756
  H     -0.015186   -1.163319   -2.389482
  C     -0.130812   -0.386111   -1.640941
  H     -2.936493    0.832166    0.000000
  C      0.929340    0.660269   -1.609665
  H      2.076945   -1.163319   -1.181589
  H      0.658144    1.606424   -1.139939
  H      1.468246    0.832166   -2.543078
  C      1.486502   -0.386111   -0.707184
  H     -2.061759   -1.163319    1.207892
  H     -1.316288    1.606424    0.000000
  C     -1.355690   -0.386111   -0.933756
  H     -2.061759   -1.163319   -1.207892

 Total Charge           Charge          ....    0
 Multiplicity           Mult            ....    1
 Number of Electrons    NEL             ....   66
 Basis Dimension        Dim             ....  159

ORBITAL ENERGIES
----------------

  NO   OCC          E(Eh)            E(eV)
   0   2.0000     -10.447532      -284.2918
   1   2.0000     -10.447526      -284.2916
   2   2.0000     -10.447445      -284.2894
   3   2.0000     -10.447069      -284.2792
   4   2.0000     -10.447062      -284.2790
   5   2.0000     -10.447008      -284.2775
   6   2.0000     -10.440817      -284.1091
   7   2.0000     -10.440816      -284.1090
   8   2.0000     -10.440758      -284.1075
   9   2.0000      -0.957831       -26.0639
  10   2.0000      -0.898916       -24.4607
  11   2.0000      -0.898915       -24.4607
  12   2.0000      -0.754358       -20.5271
  13   2.0000      -0.754356       -20.5271
  14   2.0000      -0.710310       -19.3285
  15   2.0000      -0.613992       -16.7076
  16   2.0000      -0.613989       -16.7075
  17   2.0000      -0.582613       -15.8537
  18   2.0000      -0.572724       -15.5846
  19   2.0000      -0.534226       -14.5370
  20   2.0000      -0.519322       -14.1315
  21   2.0000      -0.519320       -14.1314
  22   2.0000      -0.443676       -12.0730
  23   2.0000      -0.443676       -12.0730
  24   2.0000      -0.430965       -11.7272
  25   2.0000      -0.430964       -11.7271
  26   2.0000      -0.415793       -11.3143
  27   2.0000      -0.392438       -10.6788
  28   2.0000      -0.392436       -10.6787
  29   2.0000      -0.367018        -9.9871
  30   2.0000      -0.349385        -9.5073
  31   2.0000      -0.231496        -6.2993
  32   2.0000      -0.231496        -6.2993
  33   0.0000       0.068029         1.8512
  34   0.0000       0.068030         1.8512
  35   0.0000       0.115899         3.1538
  36   0.0000       0.129131         3.5138
  37   0.0000       0.171246         4.6599

MULLIKEN ATOMIC CHARGES
-----------------------
   0 H :    0.236293
   1 C :   -0.239318
   2 C :   -0.451120
   3 C :   -0.451118
   4 H :    0.236305
   5 H :    0.222407
   6 H :    0.234759
   7 C :   -0.239310
   8 C :   -0.239328
   9 H :    0.236305
  10 C :   -0.239310
  11 H :    0.234755
  12 C :   -0.451118
  13 H :    0.236293
  14 H :    0.222407
  15 H :    0.234759
  16 C :   -0.239318
  17 H :    0.236287
  18 H :    0.222409
  19 C :   -0.239329
  20 H :    0.236287
Sum of atomic charges:   -0.0000000

LOEWDIN ATOMIC CHARGES
----------------------
   0 H :    0.142236
   1 C :   -0.158355
   2 C :   -0.232553
   3 C :   -0.232556
   4 H :    0.142239
   5 H :    0.129699
   6 H :    0.135101
   7 C :   -0.158357
   8 C :   -0.158364
   9 H :    0.142239
  10 C :   -0.158357
  11 H :    0.135098
  12 C :   -0.232556
  13 H :    0.142236
  14 H :    0.129699
  15 H :    0.135101
  16 C :   -0.158355
  17 H :    0.142236
  18 H :    0.129699
  19 C :   -0.158364
  20 H :    0.142236

  Mayer bond orders larger than 0.100000
B(  0-H ,  1-C ) :   0.9139 B(  1-C ,  3-C ) :   0.9339 B(  1-C ,  7-C ) :   0.5375
B(  1-C , 16-C ) :   1.3175 B(  2-C ,  8-C ) :   0.9339 B(  2-C , 11-H ) :   0.9205
B(  2-C , 18-H ) :   0.9240 B(  2-C , 19-C ) :   0.9339 B(  3-C ,  5-H ) :   0.9240
B(  3-C ,  6-H ) :   0.9205 B(  3-C ,  7-C ) :   0.9339 B(  4-H ,  7-C ) :   0.9139
B(  7-C ,  8-C ) :   1.3175 B(  8-C , 17-H ) :   0.9139 B(  8-C , 19-C ) :   0.5375
B(  9-H , 10-C ) :   0.9139 B( 10-C , 12-C ) :   0.9339 B( 10-C , 16-C ) :   0.5375
B( 10-C , 19-C ) :   1.3175 B( 12-C , 14-H ) :   0.9240 B( 12-C , 15-H ) :   0.9205
B( 12-C , 16-C ) :   0.9339 B( 13-H , 16-C ) :   0.9139 B( 19-C , 20-H ) :   0.9139

Dispersion correction           -0.011893962
FINAL SINGLE POINT ENERGY      -349.269916733111

DIPOLE MOMENT
-------------
                                X             Y             Z
Electronic contribution:      0.00005      -0.73690       0.00000
Nuclear contribution   :     -0.00000       0.66123      -0.00000
                        -----------------------------------------
Total Dipole Moment    :      0.00005      -0.07568       0.00000
                        -----------------------------------------
Magnitude (a.u.)       :      0.07568
Magnitude (Debye)      :      0.19236

Rotational constants in cm-1:     0.071061     0.071061     0.043716
Rotational constants in MHz :  2130.340602  2130.340206  1310.577471

                             ****ORCA TERMINATED NORMALLY****
TOTAL RUN TIME: 0 days 0 hours 2 minutes 2 seconds 147 msec
