                         Program Version 5.0.3 -  RELEASE  -
|  1> ! PBEh-3c def2/J TightSCF DefGrid3
|  2>
|  3> %maxcore 60000
|  4>
|  5> %pal
|  6> nprocs 4
|  7> end
|  8>
|  9> *xyzfile 1 1 h2sp.xyz
| 10>
| 11>                          ****END OF INPUT****

CARTESIAN COORDINATES (ANGSTROEM)
---------------------------------
  S      0.000000    0.000000    0.538830
  H     -0.578241    1.001542   -0.179610
  H     -0.578241   -1.001542   -0.179610
  H      1.156481    0.000000   -0.179610

 Total Charge           Charge          ....    1
 Multiplicity           Mult            ....    1
 Number of Electrons    NEL             ....   18
 Basis Dimension        Dim             ....   24

ORBITAL ENERGIES
----------------

  NO   OCC          E(Eh)            E(eV)
   0   2.0000     -89.950905     -2447.6886
   1   2.0000      -8.594902      -233.8792
   2   2.0000      -6.482784      -176.4055
   3   2.0000      -6.482784      -176.4055
   4   2.0000      -6.478784      -176.2967
   5   2.0000      -1.185969       -32.2719
   6   2.0000      -0.816258       -22.2115
   7   2.0000      -0.816258       -22.2115
   8   2.0000      -0.709005       -19.2930
   9   0.0000      -0.230137        -6.2623
  10   0.0000      -0.230137        -6.2623
  11   0.0000      -0.168544        -4.5863
  12   0.0000       0.240427         6.5423
  13   0.0000       0.268244         7.2993

MULLIKEN ATOMIC CHARGES
-----------------------
   0 S :   -0.056368
   1 H :    0.352124
   2 H :    0.352124
   3 H :    0.352121
Sum of atomic charges:    1.0000000

LOEWDIN ATOMIC CHARGES
----------------------
   0 S :    0.374016
   1 H :    0.208662
   2 H :    0.208662
   3 H :    0.208660

  Mayer bond orders larger than 0.100000
B(  0-S ,  1-H ) :   0.8499 B(  0-S ,  2-H ) :   0.8499 B(  0-S ,  3-H ) :   0.8499

Dispersion correction           -0.000703947
FINAL SINGLE POINT ENERGY      -399.204176802186

DIPOLE MOMENT
-------------
                                X             Y             Z
Electronic contribution:     -0.00001      -0.00000       0.96686
Nuclear contribution   :      0.00000       0.00000      -1.84957
                        -----------------------------------------
Total Dipole Moment    :     -0.00001      -0.00000      -0.88271
                        -----------------------------------------
Magnitude (a.u.)       :      0.88271
Magnitude (Debye)      :      2.24367

Rotational constants in cm-1:     4.888338     4.888338     4.168098
Rotational constants in MHz : 146548.682434 146548.682125 124956.445261

                             ****ORCA TERMINATED NORMALLY****
TOTAL RUN TIME: 0 days 0 hours 0 minutes 24 seconds 234 msec
