                         Program Version 5.0.3 -  RELEASE  -
|  1> ! PBEh-3c def2/J TightSCF DefGrid3
|  2>
|  3> %maxcore 60000
|  4>
|  5> %pal
|  6> nprocs 4
|  7> end
|  8>
|  9> *xyzfile -1 3 EA_21.xyz
| 10>
| 11>                          ****END OF INPUT****

CARTESIAN COORDINATES (ANGSTROEM)
---------------------------------
  N      0.000000    0.000000    0.634870
  O      0.000000    0.000000   -0.634870

 Total Charge           Charge          ....   -1
 Multiplicity           Mult            ....    3
 Number of Electrons    NEL             ....   16
 Basis Dimension        Dim             ....   30

ORBITAL ENERGIES
----------------
                 SPIN UP ORBITALS
  NO   OCC          E(Eh)            E(eV)
   0   1.0000     -19.177115      -521.8358
   1   1.0000     -14.329800      -389.9337
   2   1.0000      -0.856603       -23.3094
   3   1.0000      -0.405947       -11.0464
   4   1.0000      -0.164635        -4.4800
   5   1.0000      -0.164635        -4.4800
   6   1.0000      -0.131965        -3.5909
   7   1.0000       0.091566         2.4916
   8   1.0000       0.091566         2.4916
   9   0.0000       0.634092        17.2545
  10   0.0000       1.041774        28.3481
  11   0.0000       1.074269        29.2323
  12   0.0000       1.074269        29.2323
  13   0.0000       1.269565        34.5466

                 SPIN DOWN ORBITALS
  NO   OCC          E(Eh)            E(eV)
   0   1.0000     -19.156021      -521.2618
   1   1.0000     -14.297633      -389.0584
   2   1.0000      -0.800826       -21.7916
   3   1.0000      -0.307931        -8.3792
   4   1.0000      -0.085861        -2.3364
   5   1.0000      -0.060418        -1.6441
   6   1.0000      -0.060418        -1.6441
   7   0.0000       0.372446        10.1348
   8   0.0000       0.372446        10.1348
   9   0.0000       0.673710        18.3326
  10   0.0000       1.068297        29.0698
  11   0.0000       1.162630        31.6368

MULLIKEN ATOMIC CHARGES AND SPIN POPULATIONS
--------------------------------------------
   0 N :   -0.429254    1.434082
   1 O :   -0.570746    0.565918
Sum of atomic charges         :   -1.0000000

LOEWDIN ATOMIC CHARGES AND SPIN POPULATIONS
-------------------------------------------
   0 N :   -0.519458    1.380925
   1 O :   -0.480542    0.619075

  Mayer bond orders larger than 0.100000
B(  0-N ,  1-O ) :   1.7760

Dispersion correction           -0.000178756
FINAL SINGLE POINT ENERGY      -129.590884940534

DIPOLE MOMENT
-------------
                                X             Y             Z
Electronic contribution:     -0.00000      -0.00000      -0.20232
Nuclear contribution   :      0.00000       0.00000      -0.00504
                        -----------------------------------------
Total Dipole Moment    :     -0.00000      -0.00000      -0.20736
                        -----------------------------------------
Magnitude (a.u.)       :      0.20736
Magnitude (Debye)      :      0.52706

Rotational constants in cm-1:     0.000000     1.400031     1.400031
Rotational constants in MHz :     0.000000 41971.865868 41971.865868

                             ****ORCA TERMINATED NORMALLY****
TOTAL RUN TIME: 0 days 0 hours 0 minutes 23 seconds 348 msec
