                         Program Version 5.0.3 -  RELEASE  -
|  1> ! PBEh-3c def2/J TightSCF DefGrid3
|  2>
|  3> %maxcore 60000
|  4>
|  5> %pal
|  6> nprocs 4
|  7> end
|  8>
|  9> *xyzfile 1 1 T1.xyz
| 10>
| 11>                          ****END OF INPUT****

CARTESIAN COORDINATES (ANGSTROEM)
---------------------------------
  N     -0.424461    1.904041    0.000000
  N      1.572776    0.748481    0.000000
  C     -0.472920   -0.472950    0.000000
  C      0.933907   -0.423426    0.000000
  C     -1.093434    0.743095    0.000000
  C      0.959394    2.007840    0.000000
  C     -1.210441   -1.777678    0.000000
  O      1.713194   -1.456724    0.000000
  O      1.563876    3.028013    0.000000
  H     -0.928322    2.783934    0.000000
  H      2.590989    0.758733    0.000000
  H     -2.174232    0.820292    0.000000
  H     -0.994253   -2.375339   -0.888740
  H     -0.994253   -2.375339    0.888740
  H     -2.286480   -1.610691    0.000000
  H      1.244660   -2.302282    0.000000

 Total Charge           Charge          ....    1
 Multiplicity           Mult            ....    1
 Number of Electrons    NEL             ....   66
 Basis Dimension        Dim             ....  149

ORBITAL ENERGIES
----------------

  NO   OCC          E(Eh)            E(eV)
   0   2.0000     -19.768209      -537.9203
   1   2.0000     -19.660845      -534.9988
   2   2.0000     -14.907801      -405.6619
   3   2.0000     -14.903517      -405.5453
   4   2.0000     -10.801804      -293.9320
   5   2.0000     -10.787944      -293.5549
   6   2.0000     -10.725269      -291.8494
   7   2.0000     -10.665756      -290.2300
   8   2.0000     -10.620902      -289.0094
   9   2.0000      -1.445398       -39.3313
  10   2.0000      -1.383815       -37.6555
  11   2.0000      -1.294992       -35.2385
  12   2.0000      -1.251156       -34.0457
  13   2.0000      -1.115287       -30.3485
  14   2.0000      -0.999836       -27.2069
  15   2.0000      -0.983371       -26.7589
  16   2.0000      -0.957826       -26.0638
  17   2.0000      -0.863907       -23.5081
  18   2.0000      -0.848893       -23.0995
  19   2.0000      -0.836558       -22.7639
  20   2.0000      -0.785357       -21.3706
  21   2.0000      -0.758819       -20.6485
  22   2.0000      -0.723939       -19.6994
  23   2.0000      -0.695739       -18.9320
  24   2.0000      -0.688326       -18.7303
  25   2.0000      -0.669252       -18.2113
  26   2.0000      -0.658141       -17.9089
  27   2.0000      -0.646901       -17.6031
  28   2.0000      -0.622458       -16.9379
  29   2.0000      -0.606596       -16.5063
  30   2.0000      -0.570165       -15.5150
  31   2.0000      -0.532196       -14.4818
  32   2.0000      -0.477439       -12.9918
  33   0.0000      -0.229951        -6.2573
  34   0.0000      -0.149424        -4.0660
  35   0.0000      -0.077522        -2.1095
  36   0.0000      -0.064828        -1.7640
  37   0.0000      -0.033539        -0.9126

MULLIKEN ATOMIC CHARGES
-----------------------
   0 N :   -0.667086
   1 N :   -0.696495
   2 C :   -0.159148
   3 C :    0.686564
   4 C :    0.122421
   5 C :    0.708255
   6 C :   -0.749217
   7 O :   -0.504249
   8 O :   -0.309184
   9 H :    0.441734
  10 H :    0.450887
  11 H :    0.330397
  12 H :    0.273211
  13 H :    0.273211
  14 H :    0.292829
  15 H :    0.505871
Sum of atomic charges:    1.0000000

LOEWDIN ATOMIC CHARGES
----------------------
   0 N :   -0.131769
   1 N :   -0.128029
   2 C :   -0.164083
   3 C :    0.211781
   4 C :    0.066201
   5 C :    0.158896
   6 C :   -0.353711
   7 O :   -0.185720
   8 O :   -0.153456
   9 H :    0.313550
  10 H :    0.321148
  11 H :    0.181233
  12 H :    0.158585
  13 H :    0.158585
  14 H :    0.172361
  15 H :    0.374430

  Mayer bond orders larger than 0.100000
B(  0-N ,  4-C ) :   1.1924 B(  0-N ,  5-C ) :   0.9980 B(  0-N ,  9-H ) :   0.7731
B(  1-N ,  3-C ) :   1.1976 B(  1-N ,  5-C ) :   0.9655 B(  1-N , 10-H ) :   0.7617
B(  2-C ,  3-C ) :   1.2217 B(  2-C ,  4-C ) :   1.4749 B(  2-C ,  6-C ) :   0.9367
B(  3-C ,  7-O ) :   1.3065 B(  4-C , 11-H ) :   0.8705 B(  5-C ,  8-O ) :   2.1431
B(  6-C , 12-H ) :   0.8969 B(  6-C , 13-H ) :   0.8969 B(  6-C , 14-H ) :   0.9027
B(  7-O , 15-H ) :   0.7076

Dispersion correction           -0.008659001
FINAL SINGLE POINT ENERGY      -453.514677298584

DIPOLE MOMENT
-------------
                                X             Y             Z
Electronic contribution:      4.77761       5.55183      -0.00000
Nuclear contribution   :     -6.09232      -7.05760       0.00000
                        -----------------------------------------
Total Dipole Moment    :     -1.31471      -1.50577      -0.00000
                        -----------------------------------------
Magnitude (a.u.)       :      1.99895
Magnitude (Debye)      :      5.08093

Rotational constants in cm-1:     0.104473     0.047152     0.032690
Rotational constants in MHz :  3132.021707  1413.589499   980.007919

                             ****ORCA TERMINATED NORMALLY****
TOTAL RUN TIME: 0 days 0 hours 1 minutes 38 seconds 555 msec
