                         Program Version 5.0.3 -  RELEASE  -
|  1> ! PBEh-3c def2/J TightSCF DefGrid3
|  2>
|  3> %maxcore 60000
|  4>
|  5> %pal
|  6> nprocs 4
|  7> end
|  8>
|  9> *xyzfile 0 1 15a.xyz
| 10>
| 11>                          ****END OF INPUT****

CARTESIAN COORDINATES (ANGSTROEM)
---------------------------------
  N      0.320888   -0.223368   -2.137658
  N     -1.556126    0.021047   -0.919060
  N     -1.377123    0.371507    2.098274
  N      0.927349    0.215594    1.804192
  N      1.982564   -0.107873   -0.349661
  H     -1.197289    0.232144    3.078549
  H     -2.250288    0.008176    1.750564
  H      2.947620    0.076143    1.454139
  H      0.902594   -0.422583   -2.935037
  H     -1.617855   -0.247514   -3.033230
  C     -0.448140    0.059856   -0.107309
  C      0.736805   -0.093757   -0.835872
  C      1.976822    0.061598    0.975101
  C     -0.304551    0.206283    1.283576
  C     -1.043271   -0.157255   -2.126568

 Total Charge           Charge          ....    0
 Multiplicity           Mult            ....    1
 Number of Electrons    NEL             ....   70
 Basis Dimension        Dim             ....  160

ORBITAL ENERGIES
----------------

  NO   OCC          E(Eh)            E(eV)
   0   2.0000     -14.710237      -400.2859
   1   2.0000     -14.655146      -398.7868
   2   2.0000     -14.642280      -398.4367
   3   2.0000     -14.635911      -398.2634
   4   2.0000     -14.628601      -398.0645
   5   2.0000     -10.535534      -286.6865
   6   2.0000     -10.525276      -286.4073
   7   2.0000     -10.521618      -286.3078
   8   2.0000     -10.508231      -285.9435
   9   2.0000     -10.471054      -284.9319
  10   2.0000      -1.150447       -31.3052
  11   2.0000      -1.085612       -29.5410
  12   2.0000      -1.039310       -28.2811
  13   2.0000      -0.989088       -26.9145
  14   2.0000      -0.956736       -26.0341
  15   2.0000      -0.855487       -23.2790
  16   2.0000      -0.747701       -20.3460
  17   2.0000      -0.730264       -19.8715
  18   2.0000      -0.708758       -19.2863
  19   2.0000      -0.651432       -17.7264
  20   2.0000      -0.616981       -16.7889
  21   2.0000      -0.580785       -15.8040
  22   2.0000      -0.562304       -15.3011
  23   2.0000      -0.533084       -14.5059
  24   2.0000      -0.521815       -14.1993
  25   2.0000      -0.502263       -13.6673
  26   2.0000      -0.481576       -13.1043
  27   2.0000      -0.462436       -12.5835
  28   2.0000      -0.412520       -11.2252
  29   2.0000      -0.380963       -10.3665
  30   2.0000      -0.347569        -9.4578
  31   2.0000      -0.344257        -9.3677
  32   2.0000      -0.312840        -8.5128
  33   2.0000      -0.307463        -8.3665
  34   2.0000      -0.262020        -7.1299
  35   0.0000      -0.000048        -0.0013
  36   0.0000       0.031040         0.8446
  37   0.0000       0.069942         1.9032
  38   0.0000       0.122001         3.3198
  39   0.0000       0.141884         3.8609

MULLIKEN ATOMIC CHARGES
-----------------------
   0 N :   -0.654262
   1 N :   -0.403597
   2 N :   -0.792401
   3 N :   -0.431311
   4 N :   -0.407163
   5 H :    0.366046
   6 H :    0.374193
   7 H :    0.227798
   8 H :    0.379221
   9 H :    0.245051
  10 C :    0.019595
  11 C :    0.471290
  12 C :    0.059093
  13 C :    0.433551
  14 C :    0.112896
Sum of atomic charges:    0.0000000

LOEWDIN ATOMIC CHARGES
----------------------
   0 N :   -0.148398
   1 N :   -0.185800
   2 N :   -0.349590
   3 N :   -0.214795
   4 N :   -0.201841
   5 H :    0.259284
   6 H :    0.263201
   7 H :    0.125634
   8 H :    0.275805
   9 H :    0.135547
  10 C :   -0.099890
  11 C :    0.052795
  12 C :    0.007662
  13 C :    0.091047
  14 C :   -0.010660

  Mayer bond orders larger than 0.100000
B(  0-N ,  8-H ) :   0.8134 B(  0-N , 11-C ) :   1.0574 B(  0-N , 14-C ) :   1.1660
B(  1-N , 10-C ) :   1.3024 B(  1-N , 14-C ) :   1.6750 B(  2-N ,  5-H ) :   0.8279
B(  2-N ,  6-H ) :   0.8271 B(  2-N , 13-C ) :   1.1530 B(  3-N , 12-C ) :   1.4504
B(  3-N , 13-C ) :   1.4936 B(  4-N , 11-C ) :   1.4343 B(  4-N , 12-C ) :   1.5256
B(  7-H , 12-C ) :   0.9130 B(  9-H , 14-C ) :   0.9080 B( 10-C , 11-C ) :   1.2506
B( 10-C , 13-C ) :   1.1850

Dispersion correction           -0.008812169
FINAL SINGLE POINT ENERGY      -466.309678245510

DIPOLE MOMENT
-------------
                                X             Y             Z
Electronic contribution:      1.11552      -0.03418      -1.17246
Nuclear contribution   :     -1.62607      -0.48541       0.38469
                        -----------------------------------------
Total Dipole Moment    :     -0.51056      -0.51959      -0.78777
                        -----------------------------------------
Magnitude (a.u.)       :      1.07295
Magnitude (Debye)      :      2.72723

Rotational constants in cm-1:     0.079096     0.052741     0.031664
Rotational constants in MHz :  2371.244604  1581.136963   949.272662

                             ****ORCA TERMINATED NORMALLY****
TOTAL RUN TIME: 0 days 0 hours 1 minutes 44 seconds 564 msec
