                         Program Version 5.0.3 -  RELEASE  -
|  1> ! PBEh-3c def2/J TightSCF DefGrid3
|  2>
|  3> %maxcore 60000
|  4>
|  5> %pal
|  6> nprocs 4
|  7> end
|  8>
|  9> *xyzfile 0 1 sbh3_h2s.xyz
| 10>
| 11>                          ****END OF INPUT****

CARTESIAN COORDINATES (ANGSTROEM)
---------------------------------
  Sb    -0.179070   -1.333714    0.000000
  H      0.461056   -2.310200    1.207982
  H      0.461056   -2.310200   -1.207982
  H     -1.627433   -2.184801    0.000000
  H      1.144726    3.257225    0.000000
  S     -0.179070    3.106556    0.000000
  H     -0.081265    1.775135    0.000000

 Total Charge           Charge          ....    0
 Multiplicity           Mult            ....    1
 Number of Electrons    NEL             ....   44
 Basis Dimension        Dim             ....   54

ORBITAL ENERGIES
----------------

  NO   OCC          E(Eh)            E(eV)
   0   2.0000     -89.573332     -2437.4143
   1   2.0000      -8.217103      -223.5987
   2   2.0000      -6.107662      -166.1979
   3   2.0000      -6.105039      -166.1266
   4   2.0000      -6.099343      -165.9716
   5   2.0000      -5.944778      -161.7656
   6   2.0000      -4.131210      -112.4159
   7   2.0000      -4.131209      -112.4159
   8   2.0000      -4.126096      -112.2768
   9   2.0000      -1.404161       -38.2092
  10   2.0000      -1.404157       -38.2091
  11   2.0000      -1.398867       -38.0651
  12   2.0000      -1.398859       -38.0649
  13   2.0000      -1.395427       -37.9715
  14   2.0000      -0.817135       -22.2354
  15   2.0000      -0.658336       -17.9142
  16   2.0000      -0.494385       -13.4529
  17   2.0000      -0.407712       -11.0944
  18   2.0000      -0.399411       -10.8685
  19   2.0000      -0.399374       -10.8675
  20   2.0000      -0.310705        -8.4547
  21   2.0000      -0.296940        -8.0801
  22   0.0000       0.022025         0.5993
  23   0.0000       0.022740         0.6188
  24   0.0000       0.068998         1.8775
  25   0.0000       0.095468         2.5978
  26   0.0000       0.147959         4.0262

MULLIKEN ATOMIC CHARGES
-----------------------
   0 Sb:   -0.048038
   1 H :    0.018382
   2 H :    0.018382
   3 H :    0.020430
   4 H :    0.185456
   5 S :   -0.394239
   6 H :    0.199628
Sum of atomic charges:   -0.0000000

LOEWDIN ATOMIC CHARGES
----------------------
   0 Sb:   -0.029254
   1 H :    0.011848
   2 H :    0.011848
   3 H :    0.013368
   4 H :    0.102843
   5 S :   -0.221652
   6 H :    0.110999

  Mayer bond orders larger than 0.100000
B(  0-Sb,  1-H ) :   0.9827 B(  0-Sb,  2-H ) :   0.9827 B(  0-Sb,  3-H ) :   0.9831
B(  4-H ,  5-S ) :   0.9346 B(  5-S ,  6-H ) :   0.9113

Dispersion correction           -0.001789925
FINAL SINGLE POINT ENERGY      -640.972829605184

DIPOLE MOMENT
-------------
                                X             Y             Z
Electronic contribution:     -1.27839     -66.96675       0.00000
Nuclear contribution   :      1.70738      66.40890       0.00000
                        -----------------------------------------
Total Dipole Moment    :      0.42899      -0.55785       0.00000
                        -----------------------------------------
Magnitude (a.u.)       :      0.70373
Magnitude (Debye)      :      1.78873

Rotational constants in cm-1:     2.219269     0.031678     0.031576
Rotational constants in MHz : 66532.019424   949.679600   946.633380

                             ****ORCA TERMINATED NORMALLY****
TOTAL RUN TIME: 0 days 0 hours 1 minutes 7 seconds 514 msec
