                         Program Version 5.0.3 -  RELEASE  -
|  1> ! PBEh-3c def2/J TightSCF DefGrid3
|  2>
|  3> %maxcore 60000
|  4>
|  5> %pal
|  6> nprocs 4
|  7> end
|  8>
|  9> *xyzfile 0 1 ASN_xab.xyz
| 10>
| 11>                          ****END OF INPUT****

CARTESIAN COORDINATES (ANGSTROEM)
---------------------------------
  N     -0.175421    0.821130   -0.455632
  C     -0.030294   -0.476803    0.189697
  C      1.342097   -1.106848   -0.112990
  O      1.451545   -2.125706   -0.788115
  C     -1.123636   -1.420390   -0.305844
  C     -2.489809   -0.796323   -0.165973
  O     -2.859143    0.120509   -0.895746
  N     -3.263457   -1.278229    0.838034
  H     -0.966609    0.900841   -1.084056
  H     -0.106991   -0.326481    1.270794
  H     -1.037003   -2.363283    0.228734
  H     -0.945522   -1.628651   -1.358960
  H     -2.988408   -2.077741    1.374966
  H     -4.188151   -0.901764    0.952214
  N      2.369044   -0.434889    0.444405
  H      2.141579    0.441898    0.903039
  C      3.743449   -0.814308    0.204326
  H      4.314003   -0.757422    1.128152
  H      3.750597   -1.835723   -0.163030
  H      4.213824   -0.172283   -0.540275
  C      0.258988    1.957910    0.144273
  O      1.011911    1.948064    1.120313
  C     -0.242324    3.232604   -0.485476
  H     -1.328624    3.278761   -0.422485
  H      0.191819    4.078499    0.035060
  H      0.033247    3.268423   -1.537819

 Total Charge           Charge          ....    0
 Multiplicity           Mult            ....    1
 Number of Electrons    NEL             ....  100
 Basis Dimension        Dim             ....  221

ORBITAL ENERGIES
----------------

  NO   OCC          E(Eh)            E(eV)
   0   2.0000     -19.475614      -529.9584
   1   2.0000     -19.472122      -529.8634
   2   2.0000     -19.452909      -529.3406
   3   2.0000     -14.674316      -399.3084
   4   2.0000     -14.664510      -399.0416
   5   2.0000     -14.645706      -398.5299
   6   2.0000     -10.567852      -287.5659
   7   2.0000     -10.558269      -287.3051
   8   2.0000     -10.538996      -286.7807
   9   2.0000     -10.500863      -285.7430
  10   2.0000     -10.459885      -284.6279
  11   2.0000     -10.456205      -284.5278
  12   2.0000     -10.443894      -284.1928
  13   2.0000      -1.160779       -31.5864
  14   2.0000      -1.153833       -31.3974
  15   2.0000      -1.134912       -30.8825
  16   2.0000      -1.034703       -28.1557
  17   2.0000      -1.022411       -27.8212
  18   2.0000      -1.009976       -27.4829
  19   2.0000      -0.891124       -24.2487
  20   2.0000      -0.830262       -22.5926
  21   2.0000      -0.800598       -21.7854
  22   2.0000      -0.742903       -20.2154
  23   2.0000      -0.678742       -18.4695
  24   2.0000      -0.665226       -18.1017
  25   2.0000      -0.639468       -17.4008
  26   2.0000      -0.624656       -16.9977
  27   2.0000      -0.592998       -16.1363
  28   2.0000      -0.580099       -15.7853
  29   2.0000      -0.557093       -15.1593
  30   2.0000      -0.547454       -14.8970
  31   2.0000      -0.517171       -14.0729
  32   2.0000      -0.511432       -13.9168
  33   2.0000      -0.503158       -13.6916
  34   2.0000      -0.491861       -13.3842
  35   2.0000      -0.481475       -13.1016
  36   2.0000      -0.477398       -12.9907
  37   2.0000      -0.467633       -12.7249
  38   2.0000      -0.452525       -12.3138
  39   2.0000      -0.448573       -12.2063
  40   2.0000      -0.440120       -11.9763
  41   2.0000      -0.426363       -11.6019
  42   2.0000      -0.419378       -11.4119
  43   2.0000      -0.411727       -11.2037
  44   2.0000      -0.343645        -9.3511
  45   2.0000      -0.332809        -9.0562
  46   2.0000      -0.329577        -8.9682
  47   2.0000      -0.319625        -8.6974
  48   2.0000      -0.293133        -7.9765
  49   2.0000      -0.290036        -7.8923
  50   0.0000       0.041246         1.1224
  51   0.0000       0.046944         1.2774
  52   0.0000       0.065624         1.7857
  53   0.0000       0.108843         2.9618
  54   0.0000       0.148331         4.0363

MULLIKEN ATOMIC CHARGES
-----------------------
   0 N :   -0.625171
   1 C :   -0.210846
   2 C :    0.582889
   3 O :   -0.443507
   4 C :   -0.585197
   5 C :    0.534403
   6 O :   -0.441048
   7 N :   -0.792793
   8 H :    0.400037
   9 H :    0.267840
  10 H :    0.250100
  11 H :    0.296478
  12 H :    0.371372
  13 H :    0.377499
  14 N :   -0.658970
  15 H :    0.410265
  16 C :   -0.493818
  17 H :    0.219459
  18 H :    0.255508
  19 H :    0.219737
  20 C :    0.525788
  21 O :   -0.464924
  22 C :   -0.760328
  23 H :    0.252412
  24 H :    0.264546
  25 H :    0.248269
Sum of atomic charges:    0.0000000

LOEWDIN ATOMIC CHARGES
----------------------
   0 N :   -0.230363
   1 C :   -0.084417
   2 C :    0.104185
   3 O :   -0.285936
   4 C :   -0.263563
   5 C :    0.111419
   6 O :   -0.294276
   7 N :   -0.357161
   8 H :    0.271662
   9 H :    0.141922
  10 H :    0.146457
  11 H :    0.170422
  12 H :    0.257291
  13 H :    0.262203
  14 N :   -0.247313
  15 H :    0.268597
  16 C :   -0.255368
  17 H :    0.123779
  18 H :    0.147953
  19 H :    0.120841
  20 C :    0.117332
  21 O :   -0.297953
  22 C :   -0.388235
  23 H :    0.153726
  24 H :    0.155187
  25 H :    0.151607

  Mayer bond orders larger than 0.100000
B(  0-N ,  1-C ) :   0.9245 B(  0-N ,  8-H ) :   0.7564 B(  0-N , 20-C ) :   1.1814
B(  1-C ,  2-C ) :   0.8769 B(  1-C ,  4-C ) :   0.9632 B(  1-C ,  9-H ) :   0.8793
B(  2-C ,  3-O ) :   1.9440 B(  2-C , 14-N ) :   1.2077 B(  3-O , 14-N ) :   0.1093
B(  4-C ,  5-C ) :   0.9099 B(  4-C , 10-H ) :   0.9052 B(  4-C , 11-H ) :   0.8810
B(  5-C ,  6-O ) :   1.9494 B(  5-C ,  7-N ) :   1.1630 B(  7-N , 12-H ) :   0.8265
B(  7-N , 13-H ) :   0.8220 B( 14-N , 15-H ) :   0.7183 B( 14-N , 16-C ) :   0.9601
B( 15-H , 21-O ) :   0.1017 B( 16-C , 17-H ) :   0.9242 B( 16-C , 18-H ) :   0.9051
B( 16-C , 19-H ) :   0.9195 B( 20-C , 21-O ) :   1.8752 B( 20-C , 22-C ) :   0.9433
B( 22-C , 23-H ) :   0.9060 B( 22-C , 24-H ) :   0.9163 B( 22-C , 25-H ) :   0.9083

Dispersion correction           -0.015239995
FINAL SINGLE POINT ENERGY      -663.142037521189

DIPOLE MOMENT
-------------
                                X             Y             Z
Electronic contribution:     -3.85902      -2.14903      -0.17725
Nuclear contribution   :      2.92653       2.08086       0.93248
                        -----------------------------------------
Total Dipole Moment    :     -0.93249      -0.06817       0.75523
                        -----------------------------------------
Magnitude (a.u.)       :      1.20190
Magnitude (Debye)      :      3.05499

Rotational constants in cm-1:     0.031893     0.019765     0.013667
Rotational constants in MHz :   956.117217   592.543475   409.727935

                             ****ORCA TERMINATED NORMALLY****
TOTAL RUN TIME: 0 days 0 hours 3 minutes 53 seconds 463 msec
