                         Program Version 5.0.3 -  RELEASE  -
|  1> ! PBEh-3c def2/J TightSCF DefGrid3
|  2>
|  3> %maxcore 60000
|  4>
|  5> %pal
|  6> nprocs 4
|  7> end
|  8>
|  9> *xyzfile 0 1 20b.xyz
| 10>
| 11>                          ****END OF INPUT****

CARTESIAN COORDINATES (ANGSTROEM)
---------------------------------
  C     -1.208186   -0.697547    0.000000
  C     -1.208186    0.697547    0.000000
  C      0.000000    1.395093    0.000000
  C      1.208186    0.697547    0.000000
  C      1.208186   -0.697547    0.000000
  C      0.000000   -1.395093    0.000000
  H     -2.144027   -1.237855    0.000000
  H     -2.144027    1.237855    0.000000
  H      0.000000    2.475709    0.000000
  H      2.144027    1.237855    0.000000
  H      2.144027   -1.237855    0.000000
  H      0.000000   -2.475709    0.000000

 Total Charge           Charge          ....    0
 Multiplicity           Mult            ....    1
 Number of Electrons    NEL             ....   42
 Basis Dimension        Dim             ....  102

ORBITAL ENERGIES
----------------

  NO   OCC          E(Eh)            E(eV)
   0   2.0000     -10.448960      -284.3307
   1   2.0000     -10.448745      -284.3248
   2   2.0000     -10.448742      -284.3247
   3   2.0000     -10.448136      -284.3082
   4   2.0000     -10.448134      -284.3082
   5   2.0000     -10.447909      -284.3021
   6   2.0000      -0.951458       -25.8905
   7   2.0000      -0.835230       -22.7278
   8   2.0000      -0.835230       -22.7278
   9   2.0000      -0.678998       -18.4765
  10   2.0000      -0.678998       -18.4765
  11   2.0000      -0.591897       -16.1063
  12   2.0000      -0.526542       -14.3279
  13   2.0000      -0.508063       -13.8251
  14   2.0000      -0.481830       -13.1112
  15   2.0000      -0.481827       -13.1112
  16   2.0000      -0.420406       -11.4398
  17   2.0000      -0.398480       -10.8432
  18   2.0000      -0.398479       -10.8432
  19   2.0000      -0.292276        -7.9532
  20   2.0000      -0.292273        -7.9532
  21   0.0000       0.018909         0.5145
  22   0.0000       0.018910         0.5146
  23   0.0000       0.141233         3.8431
  24   0.0000       0.195606         5.3227
  25   0.0000       0.202152         5.5008

MULLIKEN ATOMIC CHARGES
-----------------------
   0 C :   -0.219999
   1 C :   -0.219997
   2 C :   -0.220012
   3 C :   -0.219998
   4 C :   -0.219998
   5 C :   -0.220011
   6 H :    0.219998
   7 H :    0.219998
   8 H :    0.220011
   9 H :    0.219999
  10 H :    0.219998
  11 H :    0.220011
Sum of atomic charges:   -0.0000000

LOEWDIN ATOMIC CHARGES
----------------------
   0 C :   -0.135691
   1 C :   -0.135691
   2 C :   -0.135697
   3 C :   -0.135691
   4 C :   -0.135691
   5 C :   -0.135697
   6 H :    0.135694
   7 H :    0.135694
   8 H :    0.135693
   9 H :    0.135694
  10 H :    0.135694
  11 H :    0.135693

  Mayer bond orders larger than 0.100000
B(  0-C ,  1-C ) :   1.4265 B(  0-C ,  5-C ) :   1.4265 B(  0-C ,  6-H ) :   0.9199
B(  1-C ,  2-C ) :   1.4265 B(  1-C ,  7-H ) :   0.9199 B(  2-C ,  3-C ) :   1.4265
B(  2-C ,  8-H ) :   0.9199 B(  3-C ,  4-C ) :   1.4265 B(  3-C ,  9-H ) :   0.9199
B(  4-C ,  5-C ) :   1.4265 B(  4-C , 10-H ) :   0.9199 B(  5-C , 11-H ) :   0.9199

Dispersion correction           -0.005879434
FINAL SINGLE POINT ENERGY      -231.725693688826

DIPOLE MOMENT
-------------
                                X             Y             Z
Electronic contribution:      0.00000       0.00000       0.00000
Nuclear contribution   :      0.00000       0.00000       0.00000
                        -----------------------------------------
Total Dipole Moment    :      0.00000       0.00000       0.00000
                        -----------------------------------------
Magnitude (a.u.)       :      0.00000
Magnitude (Debye)      :      0.00000

Rotational constants in cm-1:     0.190127     0.190127     0.095064
Rotational constants in MHz :  5699.873839  5699.873611  2849.936862

                             ****ORCA TERMINATED NORMALLY****
TOTAL RUN TIME: 0 days 0 hours 1 minutes 4 seconds 473 msec
