                         Program Version 5.0.3 -  RELEASE  -
|  1> ! PBEh-3c def2/J TightSCF DefGrid3
|  2>
|  3> %maxcore 60000
|  4>
|  5> %pal
|  6> nprocs 4
|  7> end
|  8>
|  9> *xyzfile 0 1 P_GX.xyz
| 10>
| 11>                          ****END OF INPUT****

CARTESIAN COORDINATES (ANGSTROEM)
---------------------------------
  C     -1.801562    0.701406    0.161353
  C     -1.145392   -0.534908   -0.446163
  C      0.040757   -1.070994    0.366691
  C      1.406272   -0.563125   -0.093607
  C      1.573980    0.950383   -0.034934
  H     -2.629713    1.052644   -0.453142
  H      1.577292   -0.903644   -1.117698
  H      2.178944   -1.032392    0.518333
  H     -1.096226    1.521672    0.273083
  H     -2.196492    0.470962    1.150800
  H      0.053901   -2.160780    0.312738
  H     -0.104037   -0.819306    1.421278
  H     -1.903360   -1.314167   -0.535112
  H     -0.814112   -0.318761   -1.465120
  H      2.589079    1.239469   -0.303598
  H      0.897420    1.454236   -0.723139
  H      1.373247    1.327302    0.968232

 Total Charge           Charge          ....    0
 Multiplicity           Mult            ....    1
 Number of Electrons    NEL             ....   42
 Basis Dimension        Dim             ....   99

ORBITAL ENERGIES
----------------

  NO   OCC          E(Eh)            E(eV)
   0   2.0000     -10.427231      -283.7394
   1   2.0000     -10.426857      -283.7292
   2   2.0000     -10.424995      -283.6785
   3   2.0000     -10.418682      -283.5067
   4   2.0000     -10.417578      -283.4767
   5   2.0000      -0.892080       -24.2747
   6   2.0000      -0.830347       -22.5949
   7   2.0000      -0.759868       -20.6771
   8   2.0000      -0.680723       -18.5234
   9   2.0000      -0.630913       -17.1680
  10   2.0000      -0.526698       -14.3322
  11   2.0000      -0.507555       -13.8113
  12   2.0000      -0.488476       -13.2921
  13   2.0000      -0.456654       -12.4262
  14   2.0000      -0.443052       -12.0561
  15   2.0000      -0.422790       -11.5047
  16   2.0000      -0.409787       -11.1509
  17   2.0000      -0.393129       -10.6976
  18   2.0000      -0.367212        -9.9923
  19   2.0000      -0.361464        -9.8359
  20   2.0000      -0.354329        -9.6418
  21   0.0000       0.136371         3.7108
  22   0.0000       0.165771         4.5109
  23   0.0000       0.176747         4.8095
  24   0.0000       0.184499         5.0205
  25   0.0000       0.190936         5.1956

MULLIKEN ATOMIC CHARGES
-----------------------
   0 C :   -0.648358
   1 C :   -0.428052
   2 C :   -0.412392
   3 C :   -0.418706
   4 C :   -0.647618
   5 H :    0.216519
   6 H :    0.205506
   7 H :    0.212215
   8 H :    0.218965
   9 H :    0.210461
  10 H :    0.217321
  11 H :    0.204438
  12 H :    0.217272
  13 H :    0.208408
  14 H :    0.221854
  15 H :    0.213874
  16 H :    0.208293
Sum of atomic charges:   -0.0000000

LOEWDIN ATOMIC CHARGES
----------------------
   0 C :   -0.364998
   1 C :   -0.249061
   2 C :   -0.243341
   3 C :   -0.245551
   4 C :   -0.365719
   5 H :    0.124834
   6 H :    0.118625
   7 H :    0.121303
   8 H :    0.124056
   9 H :    0.122706
  10 H :    0.123484
  11 H :    0.118979
  12 H :    0.123140
  13 H :    0.119298
  14 H :    0.126290
  15 H :    0.123303
  16 H :    0.122651

  Mayer bond orders larger than 0.100000
B(  0-C ,  1-C ) :   0.9926 B(  0-C ,  5-H ) :   0.9315 B(  0-C ,  8-H ) :   0.9222
B(  0-C ,  9-H ) :   0.9293 B(  1-C ,  2-C ) :   0.9533 B(  1-C , 12-H ) :   0.9286
B(  1-C , 13-H ) :   0.9233 B(  2-C ,  3-C ) :   0.9968 B(  2-C , 10-H ) :   0.9298
B(  2-C , 11-H ) :   0.9221 B(  3-C ,  4-C ) :   0.9927 B(  3-C ,  6-H ) :   0.9202
B(  3-C ,  7-H ) :   0.9236 B(  4-C , 14-H ) :   0.9298 B(  4-C , 15-H ) :   0.9244
B(  4-C , 16-H ) :   0.9286

Dispersion correction           -0.007313906
FINAL SINGLE POINT ENERGY      -197.329711152540

DIPOLE MOMENT
-------------
                                X             Y             Z
Electronic contribution:      0.20904      -1.41870      -0.13212
Nuclear contribution   :     -0.19662       1.37328       0.12388
                        -----------------------------------------
Total Dipole Moment    :      0.01242      -0.04541      -0.00824
                        -----------------------------------------
Magnitude (a.u.)       :      0.04779
Magnitude (Debye)      :      0.12148

Rotational constants in cm-1:     0.243189     0.107967     0.085144
Rotational constants in MHz :  7290.635598  3236.780810  2552.557090

                             ****ORCA TERMINATED NORMALLY****
TOTAL RUN TIME: 0 days 0 hours 1 minutes 21 seconds 121 msec
