                         Program Version 5.0.3 -  RELEASE  -
|  1> ! PBEh-3c def2/J TightSCF DefGrid3
|  2>
|  3> %maxcore 60000
|  4>
|  5> %pal
|  6> nprocs 4
|  7> end
|  8>
|  9> *xyzfile 0 1 61B.xyz
| 10>
| 11>                          ****END OF INPUT****

CARTESIAN COORDINATES (ANGSTROEM)
---------------------------------
  C     -0.481185   -0.327553   -0.038355
  O     -0.903799   -1.442734   -0.235502
  O     -1.294877    0.731412    0.194234
  H     -2.195639    0.377031    0.153699
  C      0.959082    0.082113   -0.021150
  H      1.584905   -0.788068   -0.179305
  H      1.135120    0.816386   -0.804274
  H      1.196393    0.551414    0.930653

 Total Charge           Charge          ....    0
 Multiplicity           Mult            ....    1
 Number of Electrons    NEL             ....   32
 Basis Dimension        Dim             ....   68

ORBITAL ENERGIES
----------------

  NO   OCC          E(Eh)            E(eV)
   0   2.0000     -19.542927      -531.7901
   1   2.0000     -19.486879      -530.2649
   2   2.0000     -10.585921      -288.0576
   3   2.0000     -10.449712      -284.3511
   4   2.0000      -1.221066       -33.2269
   5   2.0000      -1.124797       -30.6073
   6   2.0000      -0.851076       -23.1590
   7   2.0000      -0.684056       -18.6141
   8   2.0000      -0.561652       -15.2833
   9   2.0000      -0.549176       -14.9438
  10   2.0000      -0.535007       -14.5583
  11   2.0000      -0.471280       -12.8242
  12   2.0000      -0.459101       -12.4928
  13   2.0000      -0.452416       -12.3109
  14   2.0000      -0.377877       -10.2825
  15   2.0000      -0.337572        -9.1858
  16   0.0000       0.044221         1.2033
  17   0.0000       0.129295         3.5183
  18   0.0000       0.166584         4.5330
  19   0.0000       0.205928         5.6036
  20   0.0000       0.219758         5.9799

MULLIKEN ATOMIC CHARGES
-----------------------
   0 C :    0.506298
   1 O :   -0.390153
   2 O :   -0.585912
   3 H :    0.441772
   4 C :   -0.740167
   5 H :    0.258619
   6 H :    0.255072
   7 H :    0.254470
Sum of atomic charges:   -0.0000000

LOEWDIN ATOMIC CHARGES
----------------------
   0 C :    0.131344
   1 O :   -0.230874
   2 O :   -0.309100
   3 H :    0.331852
   4 C :   -0.390859
   5 H :    0.152918
   6 H :    0.157819
   7 H :    0.156899

  Mayer bond orders larger than 0.100000
B(  0-C ,  1-O ) :   2.0721 B(  0-C ,  2-O ) :   1.1368 B(  0-C ,  4-C ) :   0.9383
B(  2-O ,  3-H ) :   0.7619 B(  4-C ,  5-H ) :   0.9173 B(  4-C ,  6-H ) :   0.9045
B(  4-C ,  7-H ) :   0.9049

Dispersion correction           -0.002315747
FINAL SINGLE POINT ENERGY      -228.601992175848

DIPOLE MOMENT
-------------
                                X             Y             Z
Electronic contribution:     -3.16321      -1.10724      -0.07194
Nuclear contribution   :      3.32665       1.72880       0.17413
                        -----------------------------------------
Total Dipole Moment    :      0.16344       0.62157       0.10219
                        -----------------------------------------
Magnitude (a.u.)       :      0.65077
Magnitude (Debye)      :      1.65412

Rotational constants in cm-1:     0.377179     0.318009     0.178208
Rotational constants in MHz : 11307.543153  9533.668465  5342.539791

                             ****ORCA TERMINATED NORMALLY****
TOTAL RUN TIME: 0 days 0 hours 1 minutes 4 seconds 731 msec
