                         Program Version 5.0.3 -  RELEASE  -
|  1> ! PBEh-3c def2/J TightSCF DefGrid3
|  2>
|  3> %maxcore 60000
|  4>
|  5> %pal
|  6> nprocs 4
|  7> end
|  8>
|  9> *xyzfile 0 1 13b.xyz
| 10>
| 11>                          ****END OF INPUT****

CARTESIAN COORDINATES (ANGSTROEM)
---------------------------------
  N     -0.230637    1.339636    0.000000
  F     -0.230637    2.752464    0.000000
  H     -0.810027    1.117741    0.806477
  H     -0.810027    1.117741   -0.806477

 Total Charge           Charge          ....    0
 Multiplicity           Mult            ....    1
 Number of Electrons    NEL             ....   18
 Basis Dimension        Dim             ....   34

ORBITAL ENERGIES
----------------

  NO   OCC          E(Eh)            E(eV)
   0   2.0000     -25.087708      -682.6712
   1   2.0000     -14.705865      -400.1669
   2   2.0000      -1.318102       -35.8674
   3   2.0000      -0.931174       -25.3385
   4   2.0000      -0.598444       -16.2845
   5   2.0000      -0.570574       -15.5261
   6   2.0000      -0.504402       -13.7255
   7   2.0000      -0.433618       -11.7993
   8   2.0000      -0.330866        -9.0033
   9   0.0000       0.105941         2.8828
  10   0.0000       0.133058         3.6207
  11   0.0000       0.190563         5.1855
  12   0.0000       0.631981        17.1971
  13   0.0000       0.768635        20.9156

MULLIKEN ATOMIC CHARGES
-----------------------
   0 N :   -0.341374
   1 F :   -0.326850
   2 H :    0.334112
   3 H :    0.334112
Sum of atomic charges:   -0.0000000

LOEWDIN ATOMIC CHARGES
----------------------
   0 N :   -0.184183
   1 F :   -0.257831
   2 H :    0.221007
   3 H :    0.221007

  Mayer bond orders larger than 0.100000
B(  0-N ,  1-F ) :   0.9276 B(  0-N ,  2-H ) :   0.8524 B(  0-N ,  3-H ) :   0.8524

Dispersion correction           -0.000489681
FINAL SINGLE POINT ENERGY      -155.395928304797

DIPOLE MOMENT
-------------
                                X             Y             Z
Electronic contribution:      0.28628       1.85700      -0.00000
Nuclear contribution   :     -1.05528      -2.44537       0.00000
                        -----------------------------------------
Total Dipole Moment    :     -0.76900      -0.58837      -0.00000
                        -----------------------------------------
Magnitude (a.u.)       :      0.96826
Magnitude (Debye)      :      2.46112

Rotational constants in cm-1:     8.990282     0.898253     0.863853
Rotational constants in MHz : 269521.876843 26928.952144 25897.666176

                             ****ORCA TERMINATED NORMALLY****
TOTAL RUN TIME: 0 days 0 hours 0 minutes 42 seconds 277 msec
