                         Program Version 5.0.3 -  RELEASE  -
|  1> ! PBEh-3c def2/J TightSCF DefGrid3
|  2>
|  3> %maxcore 60000
|  4>
|  5> %pal
|  6> nprocs 4
|  7> end
|  8>
|  9> *xyzfile 0 2 EA_18n.xyz
| 10>
| 11>                          ****END OF INPUT****

CARTESIAN COORDINATES (ANGSTROEM)
---------------------------------
  P      0.000000    0.000000    0.662316
  H      1.023649    0.000000   -0.331158
  H     -1.023649    0.000000   -0.331158

 Total Charge           Charge          ....    0
 Multiplicity           Mult            ....    2
 Number of Electrons    NEL             ....   17
 Basis Dimension        Dim             ....   22

ORBITAL ENERGIES
----------------
                 SPIN UP ORBITALS
  NO   OCC          E(Eh)            E(eV)
   0   1.0000     -77.745773     -2115.5700
   1   1.0000      -6.824073      -185.6925
   2   1.0000      -4.920528      -133.8944
   3   1.0000      -4.912582      -133.6781
   4   1.0000      -4.911085      -133.6374
   5   1.0000      -0.710614       -19.3368
   6   1.0000      -0.438354       -11.9282
   7   1.0000      -0.353726        -9.6254
   8   1.0000      -0.294922        -8.0252
   9   0.0000       0.064898         1.7660
  10   0.0000       0.118298         3.2190
  11   0.0000       0.280163         7.6236
  12   0.0000       0.509333        13.8596
  13   0.0000       0.538087        14.6421

                 SPIN DOWN ORBITALS
  NO   OCC          E(Eh)            E(eV)
   0   1.0000     -77.740831     -2115.4356
   1   1.0000      -6.818742      -185.5474
   2   1.0000      -4.909268      -133.5880
   3   1.0000      -4.908201      -133.5589
   4   1.0000      -4.901681      -133.3815
   5   1.0000      -0.670105       -18.2345
   6   1.0000      -0.431767       -11.7490
   7   1.0000      -0.336039        -9.1441
   8   0.0000      -0.083474        -2.2715
   9   0.0000       0.072300         1.9674
  10   0.0000       0.142088         3.8664
  11   0.0000       0.309278         8.4159
  12   0.0000       0.516568        14.0565

MULLIKEN ATOMIC CHARGES AND SPIN POPULATIONS
--------------------------------------------
   0 P :   -0.126094    1.082444
   1 H :    0.063047   -0.041222
   2 H :    0.063047   -0.041222
Sum of atomic charges         :    0.0000000

LOEWDIN ATOMIC CHARGES AND SPIN POPULATIONS
-------------------------------------------
   0 P :   -0.052582    1.044869
   1 H :    0.026291   -0.022434
   2 H :    0.026291   -0.022434

  Mayer bond orders larger than 0.100000
B(  0-P ,  1-H ) :   0.9635 B(  0-P ,  2-H ) :   0.9635

Dispersion correction           -0.000450735
FINAL SINGLE POINT ENERGY      -342.095078452858

DIPOLE MOMENT
-------------
                                X             Y             Z
Electronic contribution:      0.00000       0.00000       1.43495
Nuclear contribution   :      0.00000       0.00000      -1.80444
                        -----------------------------------------
Total Dipole Moment    :      0.00000       0.00000      -0.36949
                        -----------------------------------------
Magnitude (a.u.)       :      0.36949
Magnitude (Debye)      :      0.93918

Rotational constants in cm-1:     9.023559     7.980019     4.234883
Rotational constants in MHz : 270519.491000 239234.937560 126958.609699

                             ****ORCA TERMINATED NORMALLY****
TOTAL RUN TIME: 0 days 0 hours 0 minutes 28 seconds 452 msec
