                         Program Version 5.0.3 -  RELEASE  -
|  1> ! PBEh-3c def2/J TightSCF DefGrid3
|  2>
|  3> %maxcore 60000
|  4>
|  5> %pal
|  6> nprocs 4
|  7> end
|  8>
|  9> *xyzfile 1 1 h2s2o71.xyz
| 10>
| 11>                          ****END OF INPUT****

CARTESIAN COORDINATES (ANGSTROEM)
---------------------------------
  O     -2.259193    1.005259   -0.764488
  S     -1.470916   -0.054862    0.045461
  O     -1.159618    0.492527    1.325443
  O     -1.856694   -1.391855   -0.222904
  O      0.048289    0.145175   -0.854115
  S      1.449023    0.026049   -0.194255
  O      1.586025    1.148753    0.846339
  O      1.366399   -1.246280    0.701867
  O      2.476759    0.065670   -1.156862
  H     -2.757167    0.642853   -1.522482
  H      0.865129    1.228564    1.507612
  H      1.711965   -2.061852    0.288383

 Total Charge           Charge          ....    1
 Multiplicity           Mult            ....    1
 Number of Electrons    NEL             ....   90
 Basis Dimension        Dim             ....  147

ORBITAL ENERGIES
----------------

  NO   OCC          E(Eh)            E(eV)
   0   2.0000     -90.148856     -2453.0751
   1   2.0000     -90.113208     -2452.1050
   2   2.0000     -19.808756      -539.0237
   3   2.0000     -19.808475      -539.0160
   4   2.0000     -19.804243      -538.9008
   5   2.0000     -19.793207      -538.6005
   6   2.0000     -19.755908      -537.5856
   7   2.0000     -19.745089      -537.2912
   8   2.0000     -19.743687      -537.2530
   9   2.0000      -8.743900      -237.9336
  10   2.0000      -8.710284      -237.0189
  11   2.0000      -6.636765      -180.5956
  12   2.0000      -6.636345      -180.5841
  13   2.0000      -6.633930      -180.5184
  14   2.0000      -6.604701      -179.7230
  15   2.0000      -6.601684      -179.6410
  16   2.0000      -6.598931      -179.5660
  17   2.0000      -1.570177       -42.7267
  18   2.0000      -1.525379       -41.5077
  19   2.0000      -1.430477       -38.9253
  20   2.0000      -1.419133       -38.6166
  21   2.0000      -1.406853       -38.2824
  22   2.0000      -1.395480       -37.9729
  23   2.0000      -1.380814       -37.5738
  24   2.0000      -1.054475       -28.6937
  25   2.0000      -0.998013       -27.1573
  26   2.0000      -0.938890       -25.5485
  27   2.0000      -0.928406       -25.2632
  28   2.0000      -0.836098       -22.7514
  29   2.0000      -0.828231       -22.5373
  30   2.0000      -0.802392       -21.8342
  31   2.0000      -0.786046       -21.3894
  32   2.0000      -0.759644       -20.6710
  33   2.0000      -0.747862       -20.3504
  34   2.0000      -0.727692       -19.8015
  35   2.0000      -0.707884       -19.2625
  36   2.0000      -0.695118       -18.9151
  37   2.0000      -0.687448       -18.7064
  38   2.0000      -0.669234       -18.2108
  39   2.0000      -0.654221       -17.8023
  40   2.0000      -0.643766       -17.5178
  41   2.0000      -0.640060       -17.4169
  42   2.0000      -0.625476       -17.0201
  43   2.0000      -0.617737       -16.8095
  44   2.0000      -0.605784       -16.4842
  45   0.0000      -0.206480        -5.6186
  46   0.0000      -0.155901        -4.2423
  47   0.0000      -0.132835        -3.6146
  48   0.0000      -0.114778        -3.1233
  49   0.0000      -0.103387        -2.8133

MULLIKEN ATOMIC CHARGES
-----------------------
   0 O :   -0.612011
   1 S :    1.638521
   2 O :   -0.541135
   3 O :   -0.464794
   4 O :   -0.636989
   5 S :    1.719141
   6 O :   -0.615719
   7 O :   -0.640892
   8 O :   -0.424359
   9 H :    0.519620
  10 H :    0.530169
  11 H :    0.528448
Sum of atomic charges:    1.0000000

LOEWDIN ATOMIC CHARGES
----------------------
   0 O :   -0.386788
   1 S :    1.337155
   2 O :   -0.455902
   3 O :   -0.402218
   4 O :   -0.462244
   5 S :    1.385331
   6 O :   -0.379167
   7 O :   -0.415748
   8 O :   -0.367982
   9 H :    0.381884
  10 H :    0.377217
  11 H :    0.388462

  Mayer bond orders larger than 0.100000
B(  0-O ,  1-S ) :   1.1301 B(  0-O ,  9-H ) :   0.6888 B(  1-S ,  2-O ) :   1.7767
B(  1-S ,  3-O ) :   1.8913 B(  1-S ,  4-O ) :   0.5997 B(  4-O ,  5-S ) :   1.0925
B(  5-S ,  6-O ) :   1.1684 B(  5-S ,  7-O ) :   1.1097 B(  5-S ,  8-O ) :   1.9552
B(  6-O , 10-H ) :   0.6473 B(  7-O , 11-H ) :   0.6810

Dispersion correction           -0.006911294
FINAL SINGLE POINT ENERGY     -1322.315341391476

DIPOLE MOMENT
-------------
                                X             Y             Z
Electronic contribution:      0.02175      -0.23840      -0.58362
Nuclear contribution   :     -0.20281      -0.21278       0.36269
                        -----------------------------------------
Total Dipole Moment    :     -0.18105      -0.45118      -0.22093
                        -----------------------------------------
Magnitude (a.u.)       :      0.53400
Magnitude (Debye)      :      1.35731

Rotational constants in cm-1:     0.084253     0.029536     0.029127
Rotational constants in MHz :  2525.845910   885.480681   873.204028

                             ****ORCA TERMINATED NORMALLY****
TOTAL RUN TIME: 0 days 0 hours 1 minutes 51 seconds 332 msec
