                         Program Version 5.0.3 -  RELEASE  -
|  1> ! PBEh-3c def2/J TightSCF DefGrid3
|  2>
|  3> %maxcore 60000
|  4>
|  5> %pal
|  6> nprocs 4
|  7> end
|  8>
|  9> *xyzfile 0 1 i18p.xyz
| 10>
| 11>                          ****END OF INPUT****

CARTESIAN COORDINATES (ANGSTROEM)
---------------------------------
  C     -0.894520    0.141164   -0.793243
  C     -0.142085   -0.549811   -1.645747
  N      0.517072   -1.173416   -2.460361
  C      1.700947   -2.015426   -2.085537
  C      2.355108   -1.595487   -0.793716
  C      1.708372   -1.843376    0.427133
  C      2.259954   -1.330319    1.595718
  C      3.436078   -0.582918    1.603108
  C      4.078690   -0.349570    0.383559
  C      3.540093   -0.846261   -0.807634
  H      0.780293   -2.407206    0.473353
  F      1.626505   -1.564539    2.774212
  H      3.828020   -0.201404    2.541949
  H      4.999293    0.229664    0.365005
  H      4.032538   -0.643200   -1.756545
  C     -0.476212    1.517999   -0.418612
  C     -2.093476   -0.505267   -0.203404
  C     -2.504804   -0.179492    1.103970
  C     -3.608691   -0.810147    1.680794
  C     -4.321363   -1.783240    0.970862
  C     -3.919507   -2.117376   -0.327671
  C     -2.822330   -1.481906   -0.911325
  H     -1.948708    0.566982    1.665001
  H     -5.181532   -2.273024    1.422767
  H     -4.471053   -2.865738   -0.894142
  H     -2.527630   -1.729719   -1.929672
  C     -1.438674    2.530457   -0.245031
  C     -1.051398    3.826898    0.098243
  C      0.302944    4.138981    0.268827
  C      1.266449    3.138820    0.099885
  C      0.882002    1.838214   -0.233055
  H     -2.490598    2.292165   -0.382809
  H     -1.808895    4.598289    0.225890
  H      0.602463    5.150285    0.536944
  H      2.321441    3.366493    0.242733
  H      1.631168    1.056663   -0.330063
  H     -3.908388   -0.545303    2.693274
  H      1.334275   -3.049055   -2.034422
  H      2.406161   -1.949875   -2.920240

 Total Charge           Charge          ....    0
 Multiplicity           Mult            ....    1
 Number of Electrons    NEL             ....  158
 Basis Dimension        Dim             ....  377

ORBITAL ENERGIES
----------------

  NO   OCC          E(Eh)            E(eV)
   0   2.0000     -25.109907      -683.2753
   1   2.0000     -14.673196      -399.2780
   2   2.0000     -10.547857      -287.0218
   3   2.0000     -10.517240      -286.1887
   4   2.0000     -10.502658      -285.7918
   5   2.0000     -10.481785      -285.2239
   6   2.0000     -10.473271      -284.9922
   7   2.0000     -10.469479      -284.8890
   8   2.0000     -10.468369      -284.8588
   9   2.0000     -10.468310      -284.8572
  10   2.0000     -10.467636      -284.8389
  11   2.0000     -10.467060      -284.8232
  12   2.0000     -10.466871      -284.8180
  13   2.0000     -10.450838      -284.3818
  14   2.0000     -10.450054      -284.3604
  15   2.0000     -10.449542      -284.3465
  16   2.0000     -10.449306      -284.3401
  17   2.0000     -10.448989      -284.3315
  18   2.0000     -10.448439      -284.3165
  19   2.0000     -10.448176      -284.3093
  20   2.0000     -10.447755      -284.2979
  21   2.0000     -10.447698      -284.2963
  22   2.0000     -10.446667      -284.2683
  23   2.0000      -1.345959       -36.6254
  24   2.0000      -1.055413       -28.7193
  25   2.0000      -0.975692       -26.5499
  26   2.0000      -0.965432       -26.2707
  27   2.0000      -0.948199       -25.8018
  28   2.0000      -0.899261       -24.4701
  29   2.0000      -0.878223       -23.8977
  30   2.0000      -0.852561       -23.1994
  31   2.0000      -0.836140       -22.7525
  32   2.0000      -0.834984       -22.7211
  33   2.0000      -0.829765       -22.5791
  34   2.0000      -0.807980       -21.9863
  35   2.0000      -0.779364       -21.2076
  36   2.0000      -0.707526       -19.2528
  37   2.0000      -0.697891       -18.9906
  38   2.0000      -0.689213       -18.7544
  39   2.0000      -0.683495       -18.5988
  40   2.0000      -0.672047       -18.2873
  41   2.0000      -0.662546       -18.0288
  42   2.0000      -0.620315       -16.8796
  43   2.0000      -0.595938       -16.2163
  44   2.0000      -0.588442       -16.0123
  45   2.0000      -0.578699       -15.7472
  46   2.0000      -0.571836       -15.5604
  47   2.0000      -0.560132       -15.2420
  48   2.0000      -0.544264       -14.8102
  49   2.0000      -0.538387       -14.6503
  50   2.0000      -0.529807       -14.4168
  51   2.0000      -0.523054       -14.2330
  52   2.0000      -0.515944       -14.0395
  53   2.0000      -0.508132       -13.8270
  54   2.0000      -0.507553       -13.8112
  55   2.0000      -0.502547       -13.6750
  56   2.0000      -0.487429       -13.2636
  57   2.0000      -0.484076       -13.1724
  58   2.0000      -0.478865       -13.0306
  59   2.0000      -0.478377       -13.0173
  60   2.0000      -0.465372       -12.6634
  61   2.0000      -0.449319       -12.2266
  62   2.0000      -0.432462       -11.7679
  63   2.0000      -0.427570       -11.6348
  64   2.0000      -0.423038       -11.5114
  65   2.0000      -0.418877       -11.3982
  66   2.0000      -0.413867       -11.2619
  67   2.0000      -0.404983       -11.0202
  68   2.0000      -0.402975       -10.9655
  69   2.0000      -0.393707       -10.7133
  70   2.0000      -0.391721       -10.6593
  71   2.0000      -0.367271        -9.9939
  72   2.0000      -0.330469        -8.9925
  73   2.0000      -0.310383        -8.4459
  74   2.0000      -0.299959        -8.1623
  75   2.0000      -0.294830        -8.0227
  76   2.0000      -0.291456        -7.9309
  77   2.0000      -0.288301        -7.8451
  78   2.0000      -0.235173        -6.3994
  79   0.0000      -0.017738        -0.4827
  80   0.0000      -0.000707        -0.0192
  81   0.0000       0.008357         0.2274
  82   0.0000       0.010460         0.2846
  83   0.0000       0.013281         0.3614

MULLIKEN ATOMIC CHARGES
-----------------------
   0 C :   -0.070335
   1 C :    0.196692
   2 N :   -0.317089
   3 C :   -0.359254
   4 C :    0.074273
   5 C :   -0.408683
   6 C :    0.548511
   7 C :   -0.383198
   8 C :   -0.205554
   9 C :   -0.273861
  10 H :    0.262424
  11 F :   -0.310114
  12 H :    0.251636
  13 H :    0.234201
  14 H :    0.226928
  15 C :    0.100423
  16 C :    0.112745
  17 C :   -0.294355
  18 C :   -0.206625
  19 C :   -0.236748
  20 C :   -0.205480
  21 C :   -0.291297
  22 H :    0.242254
  23 H :    0.219467
  24 H :    0.220060
  25 H :    0.228897
  26 C :   -0.284918
  27 C :   -0.208457
  28 C :   -0.233935
  29 C :   -0.211849
  30 C :   -0.271419
  31 H :    0.237203
  32 H :    0.219771
  33 H :    0.218173
  34 H :    0.215055
  35 H :    0.243549
  36 H :    0.221122
  37 H :    0.254156
  38 H :    0.245633
Sum of atomic charges:   -0.0000000

LOEWDIN ATOMIC CHARGES
----------------------
   0 C :   -0.136633
   1 C :    0.112646
   2 N :   -0.118189
   3 C :   -0.118265
   4 C :   -0.064274
   5 C :   -0.149726
   6 C :    0.166177
   7 C :   -0.159365
   8 C :   -0.123237
   9 C :   -0.147575
  10 H :    0.160265
  11 F :   -0.161104
  12 H :    0.154869
  13 H :    0.143281
  14 H :    0.141371
  15 C :   -0.027672
  16 C :   -0.028559
  17 C :   -0.131446
  18 C :   -0.131104
  19 C :   -0.142488
  20 C :   -0.132132
  21 C :   -0.133917
  22 H :    0.148001
  23 H :    0.136231
  24 H :    0.136978
  25 H :    0.142471
  26 C :   -0.128011
  27 C :   -0.133851
  28 C :   -0.139931
  29 C :   -0.132465
  30 C :   -0.125609
  31 H :    0.145910
  32 H :    0.136910
  33 H :    0.135711
  34 H :    0.135752
  35 H :    0.146179
  36 H :    0.137521
  37 H :    0.145981
  38 H :    0.139299

  Mayer bond orders larger than 0.100000
B(  0-C ,  1-C ) :   1.6197 B(  0-C , 15-C ) :   1.0095 B(  0-C , 16-C ) :   1.0186
B(  1-C ,  2-N ) :   2.1458 B(  2-N ,  3-C ) :   0.9496 B(  3-C ,  4-C ) :   0.9419
B(  3-C , 37-H ) :   0.8964 B(  3-C , 38-H ) :   0.9133 B(  4-C ,  5-C ) :   1.3340
B(  4-C ,  9-C ) :   1.4088 B(  5-C ,  6-C ) :   1.4088 B(  5-C , 10-H ) :   0.9007
B(  6-C ,  7-C ) :   1.3815 B(  6-C , 11-F ) :   0.9710 B(  7-C ,  8-C ) :   1.3942
B(  7-C , 12-H ) :   0.9060 B(  8-C ,  9-C ) :   1.4266 B(  8-C , 13-H ) :   0.9183
B(  9-C , 14-H ) :   0.9174 B( 15-C , 26-C ) :   1.3700 B( 15-C , 30-C ) :   1.3787
B( 16-C , 17-C ) :   1.3714 B( 16-C , 21-C ) :   1.3648 B( 17-C , 18-C ) :   1.4317
B( 17-C , 22-H ) :   0.9104 B( 18-C , 19-C ) :   1.4169 B( 18-C , 36-H ) :   0.9195
B( 19-C , 20-C ) :   1.4158 B( 19-C , 23-H ) :   0.9193 B( 20-C , 21-C ) :   1.4291
B( 20-C , 24-H ) :   0.9200 B( 21-C , 25-H ) :   0.9153 B( 26-C , 27-C ) :   1.4332
B( 26-C , 31-H ) :   0.9139 B( 27-C , 28-C ) :   1.4137 B( 27-C , 32-H ) :   0.9198
B( 28-C , 29-C ) :   1.4176 B( 28-C , 33-H ) :   0.9199 B( 29-C , 30-C ) :   1.4299
B( 29-C , 34-H ) :   0.9216 B( 30-C , 35-H ) :   0.9061

Dispersion correction           -0.031134988
FINAL SINGLE POINT ENERGY      -962.312959009048

DIPOLE MOMENT
-------------
                                X             Y             Z
Electronic contribution:      3.35623      -4.47579       3.41683
Nuclear contribution   :     -2.66646       4.38210      -3.37822
                        -----------------------------------------
Total Dipole Moment    :      0.68977      -0.09369       0.03861
                        -----------------------------------------
Magnitude (a.u.)       :      0.69718
Magnitude (Debye)      :      1.77208

Rotational constants in cm-1:     0.010410     0.007369     0.005879
Rotational constants in MHz :   312.095963   220.927855   176.249300

                             ****ORCA TERMINATED NORMALLY****
TOTAL RUN TIME: 0 days 0 hours 6 minutes 32 seconds 154 msec
