                         Program Version 5.0.3 -  RELEASE  -
|  1> ! PBEh-3c def2/J TightSCF DefGrid3
|  2>
|  3> %maxcore 60000
|  4>
|  5> %pal
|  6> nprocs 4
|  7> end
|  8>
|  9> *xyzfile 0 1 CYS_xah.xyz
| 10>
| 11>                          ****END OF INPUT****

CARTESIAN COORDINATES (ANGSTROEM)
---------------------------------
  N      1.015982   -0.972889    0.445695
  C     -0.252954   -0.540583   -0.126064
  C     -0.526889    0.913192    0.278073
  O     -1.306067    1.201942    1.183974
  C     -1.362109   -1.456670    0.350678
  S     -2.949136   -1.112405   -0.458216
  H      1.016310   -1.365438    1.372350
  H     -0.149725   -0.603142   -1.208645
  H     -1.484412   -1.370488    1.428864
  H     -1.113389   -2.487103    0.101362
  C      2.201660   -0.695165   -0.155604
  O      2.269543   -0.073581   -1.214747
  N      0.186246    1.808491   -0.434594
  C      0.162963    3.219372   -0.113562
  H      0.965931    3.492886    0.571105
  H      0.258650    3.803682   -1.024472
  H     -0.786551    3.441676    0.362948
  H      0.904560    1.433185   -1.041795
  C      3.430781   -1.213821    0.544975
  H      3.947472   -1.893746   -0.128243
  H      3.210130   -1.730294    1.475537
  H      4.095923   -0.377094    0.743473
  H     -3.139623    0.052120    0.171714

 Total Charge           Charge          ....    0
 Multiplicity           Mult            ....    1
 Number of Electrons    NEL             ....   94
 Basis Dimension        Dim             ....  192

ORBITAL ENERGIES
----------------

  NO   OCC          E(Eh)            E(eV)
   0   2.0000     -89.571581     -2437.3666
   1   2.0000     -19.477785      -530.0175
   2   2.0000     -19.462611      -529.6046
   3   2.0000     -14.685961      -399.6253
   4   2.0000     -14.657722      -398.8569
   5   2.0000     -10.570066      -287.6261
   6   2.0000     -10.547315      -287.0070
   7   2.0000     -10.499983      -285.7191
   8   2.0000     -10.478891      -285.1451
   9   2.0000     -10.464276      -284.7474
  10   2.0000     -10.457810      -284.5715
  11   2.0000      -8.212846      -223.4829
  12   2.0000      -6.103999      -166.0983
  13   2.0000      -6.100638      -166.0068
  14   2.0000      -6.095114      -165.8565
  15   2.0000      -1.164434       -31.6859
  16   2.0000      -1.144027       -31.1306
  17   2.0000      -1.047377       -28.5006
  18   2.0000      -1.020403       -27.7666
  19   2.0000      -0.906214       -24.6593
  20   2.0000      -0.850336       -23.1388
  21   2.0000      -0.812996       -22.1227
  22   2.0000      -0.773731       -21.0543
  23   2.0000      -0.703965       -19.1558
  24   2.0000      -0.675756       -18.3882
  25   2.0000      -0.650772       -17.7084
  26   2.0000      -0.612769       -16.6743
  27   2.0000      -0.574111       -15.6224
  28   2.0000      -0.565185       -15.3795
  29   2.0000      -0.536241       -14.5919
  30   2.0000      -0.523309       -14.2400
  31   2.0000      -0.511948       -13.9308
  32   2.0000      -0.504157       -13.7188
  33   2.0000      -0.483551       -13.1581
  34   2.0000      -0.476976       -12.9792
  35   2.0000      -0.473683       -12.8896
  36   2.0000      -0.452816       -12.3218
  37   2.0000      -0.441593       -12.0163
  38   2.0000      -0.434522       -11.8239
  39   2.0000      -0.429318       -11.6823
  40   2.0000      -0.423015       -11.5108
  41   2.0000      -0.379567       -10.3285
  42   2.0000      -0.346138        -9.4189
  43   2.0000      -0.330072        -8.9817
  44   2.0000      -0.305625        -8.3165
  45   2.0000      -0.299197        -8.1416
  46   2.0000      -0.279548        -7.6069
  47   0.0000       0.032556         0.8859
  48   0.0000       0.054744         1.4897
  49   0.0000       0.080019         2.1774
  50   0.0000       0.108827         2.9613
  51   0.0000       0.131411         3.5759

MULLIKEN ATOMIC CHARGES
-----------------------
   0 N :   -0.622907
   1 C :   -0.190125
   2 C :    0.564009
   3 O :   -0.449753
   4 C :   -0.584965
   5 S :   -0.181118
   6 H :    0.365705
   7 H :    0.285236
   8 H :    0.268631
   9 H :    0.267346
  10 C :    0.542433
  11 O :   -0.456477
  12 N :   -0.641664
  13 C :   -0.493436
  14 H :    0.219815
  15 H :    0.224759
  16 H :    0.256070
  17 H :    0.403863
  18 C :   -0.743734
  19 H :    0.266915
  20 H :    0.217336
  21 H :    0.262400
  22 H :    0.219661
Sum of atomic charges:   -0.0000000

LOEWDIN ATOMIC CHARGES
----------------------
   0 N :   -0.217902
   1 C :   -0.114738
   2 C :    0.099156
   3 O :   -0.295126
   4 C :   -0.341567
   5 S :   -0.015303
   6 H :    0.260718
   7 H :    0.155671
   8 H :    0.143950
   9 H :    0.143507
  10 C :    0.115229
  11 O :   -0.296259
  12 N :   -0.238655
  13 C :   -0.254833
  14 H :    0.120774
  15 H :    0.127270
  16 H :    0.148021
  17 H :    0.268497
  18 C :   -0.383890
  19 H :    0.162394
  20 H :    0.129997
  21 H :    0.159304
  22 H :    0.123788

  Mayer bond orders larger than 0.100000
B(  0-N ,  1-C ) :   0.9113 B(  0-N ,  6-H ) :   0.8187 B(  0-N , 10-C ) :   1.1595
B(  1-C ,  2-C ) :   0.8723 B(  1-C ,  4-C ) :   0.9418 B(  1-C ,  7-H ) :   0.8722
B(  2-C ,  3-O ) :   1.9287 B(  2-C , 12-N ) :   1.1960 B(  3-O , 12-N ) :   0.1029
B(  4-C ,  5-S ) :   1.0561 B(  4-C ,  8-H ) :   0.8796 B(  4-C ,  9-H ) :   0.8955
B(  5-S , 22-H ) :   0.8970 B( 10-C , 11-O ) :   1.8979 B( 10-C , 18-C ) :   0.9329
B( 12-N , 13-C ) :   0.9573 B( 12-N , 17-H ) :   0.7468 B( 13-C , 14-H ) :   0.9188
B( 13-C , 15-H ) :   0.9233 B( 13-C , 16-H ) :   0.9062 B( 18-C , 19-H ) :   0.9050
B( 18-C , 20-H ) :   0.9210 B( 18-C , 21-H ) :   0.9069

Dispersion correction           -0.013607824
FINAL SINGLE POINT ENERGY      -892.532515978141

DIPOLE MOMENT
-------------
                                X             Y             Z
Electronic contribution:     -6.73177      -2.70642      -2.17996
Nuclear contribution   :      8.03345       2.35102       2.84344
                        -----------------------------------------
Total Dipole Moment    :      1.30168      -0.35540       0.66348
                        -----------------------------------------
Magnitude (a.u.)       :      1.50362
Magnitude (Debye)      :      3.82191

Rotational constants in cm-1:     0.038172     0.022019     0.015962
Rotational constants in MHz :  1144.373701   660.100143   478.532628

                             ****ORCA TERMINATED NORMALLY****
TOTAL RUN TIME: 0 days 0 hours 2 minutes 37 seconds 150 msec
