                         Program Version 5.0.3 -  RELEASE  -
|  1> ! PBEh-3c def2/J TightSCF DefGrid3
|  2>
|  3> %maxcore 60000
|  4>
|  5> %pal
|  6> nprocs 4
|  7> end
|  8>
|  9> *xyzfile 0 1 i13e.xyz
| 10>
| 11>                          ****END OF INPUT****

CARTESIAN COORDINATES (ANGSTROEM)
---------------------------------
  C     -1.476275   -1.153156   -0.292797
  C     -2.868922   -1.158815   -0.294692
  C     -3.592259    0.001850    0.038239
  C     -2.868241    1.161593    0.373280
  C     -1.475691    1.154498    0.373398
  C     -0.739312    0.000235    0.041063
  C      1.476275    1.153156   -0.292797
  C      0.739312   -0.000235    0.041063
  C      1.475691   -1.154498    0.373398
  C      2.868241   -1.161593    0.373280
  C      3.592259   -0.001850    0.038239
  C      2.868922    1.158815   -0.294692
  N      4.990963    0.013853    0.092372
  N     -4.990963   -0.013853    0.092372
  H     -0.945576   -2.057847   -0.582591
  H     -3.407758   -2.066596   -0.565539
  H     -3.406668    2.068045    0.649043
  H     -0.944434    2.059920    0.659739
  H      0.945576    2.057847   -0.582591
  H      0.944434   -2.059920    0.659739
  H      3.406668   -2.068045    0.649043
  H      3.407758    2.066596   -0.565539
  H      5.435345   -0.887837   -0.024637
  H      5.434543    0.731266   -0.466878
  H     -5.434543   -0.731266   -0.466878
  H     -5.435345    0.887837   -0.024637

 Total Charge           Charge          ....    0
 Multiplicity           Mult            ....    1
 Number of Electrons    NEL             ....   98
 Basis Dimension        Dim             ....  234

ORBITAL ENERGIES
----------------

  NO   OCC          E(Eh)            E(eV)
   0   2.0000     -14.638386      -398.3307
   1   2.0000     -14.638384      -398.3307
   2   2.0000     -10.486322      -285.3473
   3   2.0000     -10.486318      -285.3472
   4   2.0000     -10.443778      -284.1896
   5   2.0000     -10.443569      -284.1840
   6   2.0000     -10.442665      -284.1594
   7   2.0000     -10.442637      -284.1586
   8   2.0000     -10.442475      -284.1542
   9   2.0000     -10.442454      -284.1536
  10   2.0000     -10.438220      -284.0384
  11   2.0000     -10.438219      -284.0384
  12   2.0000     -10.438104      -284.0352
  13   2.0000     -10.438101      -284.0352
  14   2.0000      -1.014060       -27.5940
  15   2.0000      -1.013540       -27.5798
  16   2.0000      -0.944838       -25.7103
  17   2.0000      -0.916157       -24.9299
  18   2.0000      -0.838658       -22.8211
  19   2.0000      -0.831554       -22.6277
  20   2.0000      -0.823857       -22.4183
  21   2.0000      -0.779436       -21.2095
  22   2.0000      -0.696470       -18.9519
  23   2.0000      -0.686463       -18.6796
  24   2.0000      -0.670817       -18.2539
  25   2.0000      -0.643697       -17.5159
  26   2.0000      -0.591910       -16.1067
  27   2.0000      -0.577656       -15.7188
  28   2.0000      -0.572839       -15.5877
  29   2.0000      -0.562185       -15.2978
  30   2.0000      -0.548071       -14.9138
  31   2.0000      -0.496135       -13.5005
  32   2.0000      -0.495555       -13.4847
  33   2.0000      -0.491802       -13.3826
  34   2.0000      -0.475694       -12.9443
  35   2.0000      -0.472893       -12.8681
  36   2.0000      -0.465739       -12.6734
  37   2.0000      -0.449873       -12.2417
  38   2.0000      -0.437551       -11.9064
  39   2.0000      -0.426956       -11.6181
  40   2.0000      -0.397879       -10.8269
  41   2.0000      -0.397599       -10.8192
  42   2.0000      -0.380375       -10.3505
  43   2.0000      -0.371512       -10.1094
  44   2.0000      -0.342988        -9.3332
  45   2.0000      -0.286760        -7.8031
  46   2.0000      -0.285031        -7.7561
  47   2.0000      -0.261607        -7.1187
  48   2.0000      -0.213614        -5.8127
  49   0.0000       0.012233         0.3329
  50   0.0000       0.019857         0.5403
  51   0.0000       0.028858         0.7853
  52   0.0000       0.076218         2.0740
  53   0.0000       0.132813         3.6140

MULLIKEN ATOMIC CHARGES
-----------------------
   0 C :   -0.282054
   1 C :   -0.268249
   2 C :    0.312560
   3 C :   -0.268599
   4 C :   -0.282364
   5 C :    0.097837
   6 C :   -0.282054
   7 C :    0.097836
   8 C :   -0.282365
   9 C :   -0.268598
  10 C :    0.312560
  11 C :   -0.268249
  12 N :   -0.831486
  13 N :   -0.831486
  14 H :    0.210708
  15 H :    0.208569
  16 H :    0.209744
  17 H :    0.212093
  18 H :    0.210708
  19 H :    0.212093
  20 H :    0.209744
  21 H :    0.208569
  22 H :    0.340701
  23 H :    0.340540
  24 H :    0.340539
  25 H :    0.340701
Sum of atomic charges:   -0.0000000

LOEWDIN ATOMIC CHARGES
----------------------
   0 C :   -0.116238
   1 C :   -0.175190
   2 C :    0.023484
   3 C :   -0.174881
   4 C :   -0.115838
   5 C :   -0.063251
   6 C :   -0.116238
   7 C :   -0.063251
   8 C :   -0.115838
   9 C :   -0.174881
  10 C :    0.023484
  11 C :   -0.175190
  12 N :   -0.399122
  13 N :   -0.399122
  14 H :    0.136183
  15 H :    0.131501
  16 H :    0.131964
  17 H :    0.136748
  18 H :    0.136183
  19 H :    0.136748
  20 H :    0.131964
  21 H :    0.131501
  22 H :    0.242382
  23 H :    0.242259
  24 H :    0.242259
  25 H :    0.242382

  Mayer bond orders larger than 0.100000
B(  0-C ,  1-C ) :   1.4625 B(  0-C ,  5-C ) :   1.3652 B(  0-C , 14-H ) :   0.9190
B(  1-C ,  2-C ) :   1.3326 B(  1-C , 15-H ) :   0.9199 B(  2-C ,  3-C ) :   1.3317
B(  2-C , 13-N ) :   1.0151 B(  3-C ,  4-C ) :   1.4631 B(  3-C , 16-H ) :   0.9196
B(  4-C ,  5-C ) :   1.3645 B(  4-C , 17-H ) :   0.9188 B(  5-C ,  7-C ) :   0.9819
B(  6-C ,  7-C ) :   1.3652 B(  6-C , 11-C ) :   1.4625 B(  6-C , 18-H ) :   0.9190
B(  7-C ,  8-C ) :   1.3645 B(  8-C ,  9-C ) :   1.4631 B(  8-C , 19-H ) :   0.9188
B(  9-C , 10-C ) :   1.3317 B(  9-C , 20-H ) :   0.9196 B( 10-C , 11-C ) :   1.3326
B( 10-C , 12-N ) :   1.0151 B( 11-C , 21-H ) :   0.9199 B( 12-N , 22-H ) :   0.8507
B( 12-N , 23-H ) :   0.8509 B( 13-N , 24-H ) :   0.8509 B( 13-N , 25-H ) :   0.8507

Dispersion correction           -0.017180741
FINAL SINGLE POINT ENERGY      -572.749104371816

DIPOLE MOMENT
-------------
                                X             Y             Z
Electronic contribution:      0.00000      -0.00000       0.22371
Nuclear contribution   :      0.00000       0.00000      -1.08769
                        -----------------------------------------
Total Dipole Moment    :      0.00000      -0.00000      -0.86399
                        -----------------------------------------
Magnitude (a.u.)       :      0.86399
Magnitude (Debye)      :      2.19608

Rotational constants in cm-1:     0.093672     0.009888     0.009082
Rotational constants in MHz :  2808.218914   296.446821   272.282791

                             ****ORCA TERMINATED NORMALLY****
TOTAL RUN TIME: 0 days 0 hours 3 minutes 19 seconds 761 msec
