                         Program Version 5.0.3 -  RELEASE  -
|  1> ! PBEh-3c def2/J TightSCF DefGrid3
|  2>
|  3> %maxcore 60000
|  4>
|  5> %pal
|  6> nprocs 4
|  7> end
|  8>
|  9> *xyzfile 0 1 i2p.xyz
| 10>
| 11>                          ****END OF INPUT****

CARTESIAN COORDINATES (ANGSTROEM)
---------------------------------
  C     -6.802375   -0.715414    0.649633
  C     -6.240943    0.419839   -0.232284
  C     -6.575180    0.158474   -1.717190
  C     -4.749498    0.612006   -0.023980
  C     -3.823589   -0.336258   -0.251201
  C     -2.379505   -0.207766   -0.039809
  C     -1.784214    0.612822    0.844561
  C     -0.302429    0.778964    1.049588
  C      0.603770   -0.087408    0.167593
  C      2.091263    0.149348    0.452680
  C      4.454307   -0.530821   -0.117042
  C      5.364602   -0.046655   -0.976338
  C      6.798502    0.178480   -0.687206
  O      7.586371    0.621888   -1.504090
  O      7.151864   -0.159697    0.589722
  C      8.545917    0.042729    0.918834
  C      3.004211   -0.721296   -0.438063
  H     -7.888789   -0.808523    0.513373
  H     -6.338303   -1.672302    0.376133
  H     -6.596251   -0.530086    1.711427
  H     -6.740700    1.352994    0.062801
  H     -6.104008   -0.775425   -2.051441
  H     -6.206631    0.971912   -2.354845
  H     -7.661099    0.065875   -1.857181
  H     -4.417887    1.594093    0.318416
  H     -4.156868   -1.297369   -0.651406
  H     -1.753316   -0.860985   -0.649930
  H     -2.417555    1.221782    1.494083
  H     -0.042834    1.840688    0.894210
  H     -0.066513    0.582825    2.109686
  H      0.395691    0.123657   -0.891478
  H      0.366673   -1.149423    0.328732
  H      2.336660    1.208853    0.291001
  H      2.302295   -0.066413    1.510853
  H      4.768901   -0.784399    0.896427
  H      5.081172    0.220724   -1.993479
  H      8.645277   -0.275394    1.959887
  H      9.185785   -0.560693    0.263864
  H      8.816808    1.099365    0.806276
  H      2.815242   -0.493430   -1.496200
  H      2.733176   -1.777560   -0.276619

 Total Charge           Charge          ....    0
 Multiplicity           Mult            ....    1
 Number of Electrons    NEL             ....  130
 Basis Dimension        Dim             ....  303

ORBITAL ENERGIES
----------------

  NO   OCC          E(Eh)            E(eV)
   0   2.0000     -19.536174      -531.6063
   1   2.0000     -19.478673      -530.0416
   2   2.0000     -10.575146      -287.7643
   3   2.0000     -10.491684      -285.4932
   4   2.0000     -10.471896      -284.9548
   5   2.0000     -10.455544      -284.5098
   6   2.0000     -10.454623      -284.4847
   7   2.0000     -10.450018      -284.3595
   8   2.0000     -10.448796      -284.3262
   9   2.0000     -10.447379      -284.2876
  10   2.0000     -10.446995      -284.2772
  11   2.0000     -10.443800      -284.1903
  12   2.0000     -10.443511      -284.1824
  13   2.0000     -10.442831      -284.1639
  14   2.0000     -10.441914      -284.1389
  15   2.0000     -10.426981      -283.7326
  16   2.0000     -10.426536      -283.7205
  17   2.0000      -1.202665       -32.7262
  18   2.0000      -1.113240       -30.2928
  19   2.0000      -0.924173       -25.1480
  20   2.0000      -0.913932       -24.8694
  21   2.0000      -0.896307       -24.3898
  22   2.0000      -0.868223       -23.6255
  23   2.0000      -0.836245       -22.7554
  24   2.0000      -0.803792       -21.8723
  25   2.0000      -0.777353       -21.1528
  26   2.0000      -0.760371       -20.6908
  27   2.0000      -0.740074       -20.1384
  28   2.0000      -0.694546       -18.8995
  29   2.0000      -0.674804       -18.3623
  30   2.0000      -0.658822       -17.9275
  31   2.0000      -0.628772       -17.1098
  32   2.0000      -0.625904       -17.0317
  33   2.0000      -0.580275       -15.7901
  34   2.0000      -0.573489       -15.6054
  35   2.0000      -0.552712       -15.0400
  36   2.0000      -0.543600       -14.7921
  37   2.0000      -0.538597       -14.6560
  38   2.0000      -0.533656       -14.5215
  39   2.0000      -0.508484       -13.8365
  40   2.0000      -0.503056       -13.6888
  41   2.0000      -0.495950       -13.4955
  42   2.0000      -0.490730       -13.3534
  43   2.0000      -0.482348       -13.1253
  44   2.0000      -0.473027       -12.8717
  45   2.0000      -0.461012       -12.5448
  46   2.0000      -0.454655       -12.3718
  47   2.0000      -0.448654       -12.2085
  48   2.0000      -0.440891       -11.9973
  49   2.0000      -0.436542       -11.8789
  50   2.0000      -0.430344       -11.7102
  51   2.0000      -0.423416       -11.5217
  52   2.0000      -0.417947       -11.3729
  53   2.0000      -0.408197       -11.1076
  54   2.0000      -0.393687       -10.7128
  55   2.0000      -0.390860       -10.6358
  56   2.0000      -0.387087       -10.5332
  57   2.0000      -0.384696       -10.4681
  58   2.0000      -0.375786       -10.2257
  59   2.0000      -0.368224       -10.0199
  60   2.0000      -0.352700        -9.5975
  61   2.0000      -0.342397        -9.3171
  62   2.0000      -0.329680        -8.9711
  63   2.0000      -0.312793        -8.5115
  64   2.0000      -0.254926        -6.9369
  65   0.0000      -0.016719        -0.4550
  66   0.0000       0.001277         0.0348
  67   0.0000       0.107220         2.9176
  68   0.0000       0.122228         3.3260
  69   0.0000       0.126981         3.4553

MULLIKEN ATOMIC CHARGES
-----------------------
   0 C :   -0.610752
   1 C :   -0.286967
   2 C :   -0.610540
   3 C :   -0.198777
   4 C :   -0.202935
   5 C :   -0.219414
   6 C :   -0.196302
   7 C :   -0.440944
   8 C :   -0.428692
   9 C :   -0.406157
  10 C :   -0.118800
  11 C :   -0.365927
  12 C :    0.576939
  13 O :   -0.412353
  14 O :   -0.478747
  15 C :   -0.388750
  16 C :   -0.475374
  17 H :    0.210278
  18 H :    0.206697
  19 H :    0.222939
  20 H :    0.216064
  21 H :    0.206166
  22 H :    0.224024
  23 H :    0.210742
  24 H :    0.212800
  25 H :    0.203697
  26 H :    0.212307
  27 H :    0.210379
  28 H :    0.220134
  29 H :    0.218644
  30 H :    0.215921
  31 H :    0.212150
  32 H :    0.222688
  33 H :    0.210069
  34 H :    0.249023
  35 H :    0.246680
  36 H :    0.222643
  37 H :    0.226971
  38 H :    0.226739
  39 H :    0.227986
  40 H :    0.228751
Sum of atomic charges:    0.0000000

LOEWDIN ATOMIC CHARGES
----------------------
   0 C :   -0.347192
   1 C :   -0.160994
   2 C :   -0.346118
   3 C :   -0.130132
   4 C :   -0.149784
   5 C :   -0.161669
   6 C :   -0.132982
   7 C :   -0.236145
   8 C :   -0.241113
   9 C :   -0.231483
  10 C :   -0.079366
  11 C :   -0.199304
  12 C :    0.150336
  13 O :   -0.229431
  14 O :   -0.200915
  15 C :   -0.176220
  16 C :   -0.234299
  17 H :    0.123515
  18 H :    0.123938
  19 H :    0.129282
  20 H :    0.124187
  21 H :    0.123693
  22 H :    0.129685
  23 H :    0.123610
  24 H :    0.129358
  25 H :    0.127918
  26 H :    0.130967
  27 H :    0.129739
  28 H :    0.133389
  29 H :    0.131613
  30 H :    0.125821
  31 H :    0.123941
  32 H :    0.127900
  33 H :    0.123161
  34 H :    0.145975
  35 H :    0.148844
  36 H :    0.126759
  37 H :    0.127463
  38 H :    0.127342
  39 H :    0.131776
  40 H :    0.136938

  Mayer bond orders larger than 0.100000
B(  0-C ,  1-C ) :   0.9834 B(  0-C , 17-H ) :   0.9264 B(  0-C , 18-H ) :   0.9253
B(  0-C , 19-H ) :   0.9302 B(  1-C ,  2-C ) :   0.9812 B(  1-C ,  3-C ) :   0.9832
B(  1-C , 20-H ) :   0.9160 B(  2-C , 21-H ) :   0.9258 B(  2-C , 22-H ) :   0.9297
B(  2-C , 23-H ) :   0.9263 B(  3-C ,  4-C ) :   1.8199 B(  3-C , 24-H ) :   0.9251
B(  4-C ,  5-C ) :   1.0808 B(  4-C , 25-H ) :   0.9197 B(  5-C ,  6-C ) :   1.8289
B(  5-C , 26-H ) :   0.9114 B(  6-C ,  7-C ) :   1.0107 B(  6-C , 27-H ) :   0.9188
B(  7-C ,  8-C ) :   0.9923 B(  7-C , 28-H ) :   0.9018 B(  7-C , 29-H ) :   0.9039
B(  8-C ,  9-C ) :   0.9850 B(  8-C , 30-H ) :   0.9115 B(  8-C , 31-H ) :   0.9130
B(  9-C , 16-C ) :   0.9585 B(  9-C , 32-H ) :   0.9144 B(  9-C , 33-H ) :   0.9179
B( 10-C , 11-C ) :   1.7813 B( 10-C , 16-C ) :   0.9943 B( 10-C , 34-H ) :   0.9024
B( 11-C , 12-C ) :   1.0439 B( 11-C , 35-H ) :   0.9160 B( 12-C , 13-O ) :   1.9592
B( 12-C , 14-O ) :   1.0893 B( 14-O , 15-C ) :   0.8975 B( 15-C , 36-H ) :   0.9233
B( 15-C , 37-H ) :   0.9128 B( 15-C , 38-H ) :   0.9129 B( 16-C , 39-H ) :   0.9191
B( 16-C , 40-H ) :   0.9057

Dispersion correction           -0.022189465
FINAL SINGLE POINT ENERGY      -734.847758886654

DIPOLE MOMENT
-------------
                                X             Y             Z
Electronic contribution:     30.44461       1.45780      -2.12163
Nuclear contribution   :    -31.11624      -1.69804       2.94739
                        -----------------------------------------
Total Dipole Moment    :     -0.67162      -0.24024       0.82576
                        -----------------------------------------
Magnitude (a.u.)       :      1.09118
Magnitude (Debye)      :      2.77356

Rotational constants in cm-1:     0.068495     0.002552     0.002512
Rotational constants in MHz :  2053.430010    76.521543    75.295396

                             ****ORCA TERMINATED NORMALLY****
TOTAL RUN TIME: 0 days 0 hours 4 minutes 7 seconds 723 msec
