                         Program Version 5.0.3 -  RELEASE  -
|  1> ! PBEh-3c def2/J TightSCF DefGrid3
|  2>
|  3> %maxcore 60000
|  4>
|  5> %pal
|  6> nprocs 4
|  7> end
|  8>
|  9> *xyzfile 0 1 24.xyz
| 10>
| 11>                          ****END OF INPUT****

CARTESIAN COORDINATES (ANGSTROEM)
---------------------------------
  Li     0.000000    0.000000   -0.782968
  F      0.000000    0.000000    0.782968

 Total Charge           Charge          ....    0
 Multiplicity           Mult            ....    1
 Number of Electrons    NEL             ....   12
 Basis Dimension        Dim             ....   24

ORBITAL ENERGIES
----------------

  NO   OCC          E(Eh)            E(eV)
   0   2.0000     -24.899427      -677.5479
   1   2.0000      -2.092616       -56.9430
   2   2.0000      -1.085061       -29.5260
   3   2.0000      -0.333086        -9.0637
   4   2.0000      -0.314928        -8.5696
   5   2.0000      -0.314928        -8.5696
   6   0.0000      -0.025920        -0.7053
   7   0.0000       0.073956         2.0124
   8   0.0000       0.095929         2.6104
   9   0.0000       0.095929         2.6104
  10   0.0000       0.206281         5.6132

MULLIKEN ATOMIC CHARGES
-----------------------
   0 Li:    0.656852
   1 F :   -0.656852
Sum of atomic charges:   -0.0000000

LOEWDIN ATOMIC CHARGES
----------------------
   0 Li:    0.498138
   1 F :   -0.498138

  Mayer bond orders larger than 0.100000
B(  0-Li,  1-F ) :   0.6673

Dispersion correction           -0.000106135
FINAL SINGLE POINT ENERGY      -107.196550666522

DIPOLE MOMENT
-------------
                                X             Y             Z
Electronic contribution:     -0.00000      -0.00000      -2.87292
Nuclear contribution   :      0.00000       0.00000       0.62460
                        -----------------------------------------
Total Dipole Moment    :     -0.00000      -0.00000      -2.24832
                        -----------------------------------------
Magnitude (a.u.)       :      2.24832
Magnitude (Debye)      :      5.71476

Rotational constants in cm-1:     0.000000     1.352298     1.352298
Rotational constants in MHz :     0.000000 40540.884656 40540.884656

                             ****ORCA TERMINATED NORMALLY****
TOTAL RUN TIME: 0 days 0 hours 0 minutes 21 seconds 720 msec
