                         Program Version 5.0.3 -  RELEASE  -
|  1> ! PBEh-3c def2/J TightSCF DefGrid3
|  2>
|  3> %maxcore 60000
|  4>
|  5> %pal
|  6> nprocs 4
|  7> end
|  8>
|  9> *xyzfile 0 1 Heptene.xyz
| 10>
| 11>                          ****END OF INPUT****

CARTESIAN COORDINATES (ANGSTROEM)
---------------------------------
  C     -2.719751   -1.208678   -1.861479
  H     -2.336503   -2.237926   -1.932974
  H     -2.493716   -0.705629   -2.814017
  H     -3.813492   -1.266456   -1.766876
  C     -2.091465   -0.465432   -0.680035
  H     -2.522806    0.547795   -0.609888
  H     -2.360424   -0.974540    0.261161
  C     -0.565648   -0.357221   -0.775189
  H     -0.295315    0.160363   -1.712845
  H     -0.133599   -1.370693   -0.854553
  C      0.073258    0.373735    0.409544
  H     -0.182679   -0.146251    1.348033
  H     -0.360505    1.385559    0.493548
  C      1.605061    0.486333    0.300163
  H      1.849023    1.003652   -0.646084
  H      2.049605   -0.520266    0.230485
  C      2.225143    1.233289    1.444575
  H      1.874979    2.262698    1.588217
  C      3.138152    0.741352    2.286988
  H      3.544471    1.337385    3.105309
  H      3.516209   -0.279070    2.185918

 Total Charge           Charge          ....    0
 Multiplicity           Mult            ....    1
 Number of Electrons    NEL             ....   56
 Basis Dimension        Dim             ....  133

ORBITAL ENERGIES
----------------

  NO   OCC          E(Eh)            E(eV)
   0   2.0000     -10.445294      -284.2309
   1   2.0000     -10.438934      -284.0578
   2   2.0000     -10.435383      -283.9612
   3   2.0000     -10.433829      -283.9189
   4   2.0000     -10.433102      -283.8991
   5   2.0000     -10.432154      -283.8734
   6   2.0000     -10.425251      -283.6855
   7   2.0000      -0.902102       -24.5474
   8   2.0000      -0.869486       -23.6599
   9   2.0000      -0.818111       -22.2619
  10   2.0000      -0.752467       -20.4757
  11   2.0000      -0.678611       -18.4659
  12   2.0000      -0.645360       -17.5611
  13   2.0000      -0.617663       -16.8075
  14   2.0000      -0.540726       -14.7139
  15   2.0000      -0.517918       -14.0933
  16   2.0000      -0.495551       -13.4846
  17   2.0000      -0.482364       -13.1258
  18   2.0000      -0.463680       -12.6174
  19   2.0000      -0.456355       -12.4181
  20   2.0000      -0.425352       -11.5744
  21   2.0000      -0.413590       -11.2544
  22   2.0000      -0.398979       -10.8568
  23   2.0000      -0.382637       -10.4121
  24   2.0000      -0.375524       -10.2185
  25   2.0000      -0.368312       -10.0223
  26   2.0000      -0.365881        -9.9561
  27   2.0000      -0.295687        -8.0460
  28   0.0000       0.047760         1.2996
  29   0.0000       0.133588         3.6351
  30   0.0000       0.154586         4.2065
  31   0.0000       0.169537         4.6133
  32   0.0000       0.172136         4.6841

MULLIKEN ATOMIC CHARGES
-----------------------
   0 C :   -0.635864
   1 H :    0.208182
   2 H :    0.207886
   3 H :    0.217940
   4 C :   -0.406637
   5 H :    0.203582
   6 H :    0.204812
   7 C :   -0.394501
   8 H :    0.199444
   9 H :    0.200464
  10 C :   -0.402618
  11 H :    0.215217
  12 H :    0.201471
  13 C :   -0.466726
  14 H :    0.215799
  15 H :    0.213534
  16 C :   -0.119826
  17 H :    0.208771
  18 C :   -0.490209
  19 H :    0.212549
  20 H :    0.206731
Sum of atomic charges:   -0.0000000

LOEWDIN ATOMIC CHARGES
----------------------
   0 C :   -0.361578
   1 H :    0.123280
   2 H :    0.123139
   3 H :    0.126486
   4 C :   -0.244589
   5 H :    0.119328
   6 H :    0.119918
   7 C :   -0.239576
   8 H :    0.118340
   9 H :    0.119011
  10 C :   -0.235543
  11 H :    0.124661
  12 H :    0.119557
  13 C :   -0.236412
  14 H :    0.129467
  15 H :    0.126326
  16 C :   -0.137750
  17 H :    0.126910
  18 C :   -0.279198
  19 H :    0.131136
  20 H :    0.127087

  Mayer bond orders larger than 0.100000
B(  0-C ,  1-H ) :   0.9293 B(  0-C ,  2-H ) :   0.9293 B(  0-C ,  3-H ) :   0.9316
B(  0-C ,  4-C ) :   0.9947 B(  4-C ,  5-H ) :   0.9204 B(  4-C ,  6-H ) :   0.9200
B(  4-C ,  7-C ) :   0.9864 B(  7-C ,  8-H ) :   0.9186 B(  7-C ,  9-H ) :   0.9181
B(  7-C , 10-C ) :   0.9874 B( 10-C , 11-H ) :   0.9161 B( 10-C , 12-H ) :   0.9198
B( 10-C , 13-C ) :   0.9651 B( 13-C , 14-H ) :   0.9098 B( 13-C , 15-H ) :   0.9215
B( 13-C , 16-C ) :   1.0024 B( 16-C , 17-H ) :   0.9176 B( 16-C , 18-C ) :   1.9350
B( 18-C , 19-H ) :   0.9297 B( 18-C , 20-H ) :   0.9305

Dispersion correction           -0.009355749
FINAL SINGLE POINT ENERGY      -274.549025930918

DIPOLE MOMENT
-------------
                                X             Y             Z
Electronic contribution:      3.87680       1.92717       2.61652
Nuclear contribution   :     -4.01208      -1.93616      -2.71022
                        -----------------------------------------
Total Dipole Moment    :     -0.13527      -0.00899      -0.09371
                        -----------------------------------------
Magnitude (a.u.)       :      0.16481
Magnitude (Debye)      :      0.41890

Rotational constants in cm-1:     0.397064     0.025785     0.025470
Rotational constants in MHz : 11903.673484   773.019188   763.582974

                             ****ORCA TERMINATED NORMALLY****
TOTAL RUN TIME: 0 days 0 hours 1 minutes 33 seconds 846 msec
