                         Program Version 5.0.3 -  RELEASE  -
|  1> ! PBEh-3c def2/J TightSCF DefGrid3
|  2>
|  3> %maxcore 60000
|  4>
|  5> %pal
|  6> nprocs 4
|  7> end
|  8>
|  9> *xyzfile 0 1 C1.xyz
| 10>
| 11>                          ****END OF INPUT****

CARTESIAN COORDINATES (ANGSTROEM)
---------------------------------
  C     -2.848707   -0.995440   -0.110619
  C     -1.492067   -0.804186    0.588776
  C     -0.356727   -0.522732   -0.404124
  C      1.013220   -0.216835    0.240249
  C      1.164443    1.313971    0.055882
  O      0.620511    2.032262    1.150303
  C      0.405522    1.538619   -1.252603
  O     -3.397637    0.261341   -0.501240
  O      1.996110   -0.958024   -0.475322
  O     -1.611351    0.252815    1.551315
  O     -0.711417    0.631047   -1.197839
  C      3.249160   -1.056163    0.189523
  H     -2.741625   -1.674667   -0.967391
  H     -3.568212   -1.431933    0.587810
  H     -1.239368   -1.721921    1.135679
  H     -0.235715   -1.392527   -1.063885
  H      1.043066   -0.480080    1.306475
  H      2.212904    1.611351   -0.029667
  H     -0.187351    1.571184    1.447126
  H      0.014566    2.554411   -1.342650
  H      1.035775    1.299181   -2.120134
  H     -2.753576    0.678574   -1.099895
  H     -2.362843    0.796025    1.253179
  H      3.723635   -0.075502    0.329168
  H      3.137198   -1.536928    1.172274
  H      3.890485   -1.673848   -0.442394

 Total Charge           Charge          ....    0
 Multiplicity           Mult            ....    1
 Number of Electrons    NEL             ....   96
 Basis Dimension        Dim             ....  208

ORBITAL ENERGIES
----------------

  NO   OCC          E(Eh)            E(eV)
   0   2.0000     -19.513341      -530.9850
   1   2.0000     -19.510334      -530.9032
   2   2.0000     -19.509519      -530.8810
   3   2.0000     -19.498547      -530.5824
   4   2.0000     -19.477048      -529.9974
   5   2.0000     -10.507516      -285.9240
   6   2.0000     -10.503794      -285.8228
   7   2.0000     -10.503363      -285.8110
   8   2.0000     -10.497451      -285.6502
   9   2.0000     -10.494210      -285.5620
  10   2.0000     -10.488551      -285.4080
  11   2.0000     -10.487402      -285.3767
  12   2.0000      -1.171940       -31.8901
  13   2.0000      -1.151406       -31.3313
  14   2.0000      -1.138647       -30.9842
  15   2.0000      -1.121328       -30.5129
  16   2.0000      -1.111128       -30.2353
  17   2.0000      -0.880170       -23.9506
  18   2.0000      -0.853468       -23.2241
  19   2.0000      -0.809339       -22.0232
  20   2.0000      -0.763916       -20.7872
  21   2.0000      -0.714333       -19.4380
  22   2.0000      -0.678844       -18.4723
  23   2.0000      -0.665429       -18.1072
  24   2.0000      -0.604496       -16.4492
  25   2.0000      -0.584804       -15.9133
  26   2.0000      -0.577916       -15.7259
  27   2.0000      -0.562351       -15.3024
  28   2.0000      -0.559201       -15.2166
  29   2.0000      -0.541834       -14.7440
  30   2.0000      -0.522150       -14.2084
  31   2.0000      -0.516144       -14.0450
  32   2.0000      -0.497537       -13.5387
  33   2.0000      -0.492572       -13.4036
  34   2.0000      -0.477533       -12.9943
  35   2.0000      -0.462511       -12.5856
  36   2.0000      -0.453773       -12.3478
  37   2.0000      -0.430095       -11.7035
  38   2.0000      -0.427789       -11.6407
  39   2.0000      -0.416453       -11.3323
  40   2.0000      -0.403771       -10.9872
  41   2.0000      -0.384119       -10.4524
  42   2.0000      -0.371468       -10.1082
  43   2.0000      -0.363254        -9.8847
  44   2.0000      -0.346002        -9.4152
  45   2.0000      -0.336795        -9.1646
  46   2.0000      -0.317452        -8.6383
  47   2.0000      -0.303286        -8.2528
  48   0.0000       0.102986         2.8024
  49   0.0000       0.107728         2.9314
  50   0.0000       0.143121         3.8945
  51   0.0000       0.148897         4.0517
  52   0.0000       0.167621         4.5612

MULLIKEN ATOMIC CHARGES
-----------------------
   0 C :   -0.198557
   1 C :   -0.012655
   2 C :    0.031409
   3 C :   -0.041780
   4 C :   -0.002929
   5 O :   -0.649165
   6 C :   -0.163043
   7 O :   -0.645986
   8 O :   -0.481446
   9 O :   -0.659307
  10 O :   -0.526310
  11 C :   -0.375858
  12 H :    0.202071
  13 H :    0.233011
  14 H :    0.222987
  15 H :    0.235813
  16 H :    0.232759
  17 H :    0.228006
  18 H :    0.433261
  19 H :    0.234664
  20 H :    0.204854
  21 H :    0.440911
  22 H :    0.440335
  23 H :    0.195066
  24 H :    0.194083
  25 H :    0.227808
Sum of atomic charges:   -0.0000000

LOEWDIN ATOMIC CHARGES
----------------------
   0 C :   -0.101432
   1 C :   -0.048942
   2 C :   -0.022647
   3 C :   -0.029382
   4 C :   -0.041323
   5 O :   -0.406332
   6 C :   -0.088973
   7 O :   -0.416910
   8 O :   -0.256797
   9 O :   -0.399782
  10 O :   -0.277270
  11 C :   -0.183493
  12 H :    0.113211
  13 H :    0.128369
  14 H :    0.126087
  15 H :    0.131715
  16 H :    0.123065
  17 H :    0.125417
  18 H :    0.305449
  19 H :    0.132004
  20 H :    0.115535
  21 H :    0.314084
  22 H :    0.319572
  23 H :    0.104885
  24 H :    0.106296
  25 H :    0.127594

  Mayer bond orders larger than 0.100000
B(  0-C ,  1-C ) :   0.9467 B(  0-C ,  7-O ) :   1.0216 B(  0-C , 12-H ) :   0.9014
B(  0-C , 13-H ) :   0.9104 B(  1-C ,  2-C ) :   0.9081 B(  1-C ,  9-O ) :   0.9740
B(  1-C , 14-H ) :   0.8966 B(  2-C ,  3-C ) :   0.9423 B(  2-C , 10-O ) :   0.9306
B(  2-C , 15-H ) :   0.8864 B(  3-C ,  4-C ) :   0.9179 B(  3-C ,  8-O ) :   0.9304
B(  3-C , 16-H ) :   0.8921 B(  4-C ,  5-O ) :   1.0462 B(  4-C ,  6-C ) :   0.9270
B(  4-C , 17-H ) :   0.9049 B(  5-O , 18-H ) :   0.7124 B(  6-C , 10-O ) :   0.9357
B(  6-C , 19-H ) :   0.9147 B(  6-C , 20-H ) :   0.8973 B(  7-O , 21-H ) :   0.7327
B(  8-O , 11-C ) :   0.9651 B(  9-O , 22-H ) :   0.7357 B( 11-C , 23-H ) :   0.9079
B( 11-C , 24-H ) :   0.9132 B( 11-C , 25-H ) :   0.9275

Dispersion correction           -0.014807801
FINAL SINGLE POINT ENERGY      -649.855666740994

DIPOLE MOMENT
-------------
                                X             Y             Z
Electronic contribution:     -3.76211       2.44517      -0.37388
Nuclear contribution   :      4.32478      -3.21310       0.14254
                        -----------------------------------------
Total Dipole Moment    :      0.56267      -0.76793      -0.23134
                        -----------------------------------------
Magnitude (a.u.)       :      0.97971
Magnitude (Debye)      :      2.49023

Rotational constants in cm-1:     0.050095     0.021149     0.019504
Rotational constants in MHz :  1501.821689   634.016959   584.713766

                             ****ORCA TERMINATED NORMALLY****
TOTAL RUN TIME: 0 days 0 hours 2 minutes 55 seconds 638 msec
