                         Program Version 5.0.3 -  RELEASE  -
|  1> ! PBEh-3c def2/J TightSCF DefGrid3
|  2>
|  3> %maxcore 60000
|  4>
|  5> %pal
|  6> nprocs 4
|  7> end
|  8>
|  9> *xyzfile 0 1 56.xyz
| 10>
| 11>                          ****END OF INPUT****

CARTESIAN COORDINATES (ANGSTROEM)
---------------------------------
  C      0.965855    1.273198   -1.398379
  H      1.555489    2.176853   -1.470705
  C      1.591727    0.028036   -1.436324
  H      2.666683   -0.034570   -1.534813
  C      0.831559   -1.137044   -1.341820
  H      1.317459   -2.102667   -1.365605
  C     -0.554012   -1.056515   -1.211535
  H     -1.143161   -1.960345   -1.137881
  C     -1.179871    0.188578   -1.174839
  H     -2.254692    0.250609   -1.073378
  C     -0.419921    1.353307   -1.266991
  H     -0.905195    2.319316   -1.237494
  N      0.548605   -0.037811    2.135686
  H      0.683223    0.006230    1.132615
  H      0.690098    0.907336    2.468159
  C     -0.827494   -0.444194    2.413122
  H     -0.985371   -0.472741    3.489678
  H     -1.598796    0.196186    1.973003
  H     -0.982186   -1.453762    2.037501

 Total Charge           Charge          ....    0
 Multiplicity           Mult            ....    1
 Number of Electrons    NEL             ....   60
 Basis Dimension        Dim             ....  142

ORBITAL ENERGIES
----------------

  NO   OCC          E(Eh)            E(eV)
   0   2.0000     -14.588408      -396.9708
   1   2.0000     -10.456509      -284.5361
   2   2.0000     -10.456128      -284.5257
   3   2.0000     -10.455913      -284.5199
   4   2.0000     -10.455558      -284.5102
   5   2.0000     -10.455350      -284.5046
   6   2.0000     -10.454992      -284.4948
   7   2.0000     -10.434597      -283.9398
   8   2.0000      -0.961079       -26.1523
   9   2.0000      -0.950223       -25.8569
  10   2.0000      -0.843032       -22.9401
  11   2.0000      -0.842924       -22.9371
  12   2.0000      -0.722013       -19.6470
  13   2.0000      -0.685993       -18.6668
  14   2.0000      -0.685910       -18.6646
  15   2.0000      -0.599044       -16.3008
  16   2.0000      -0.532613       -14.4931
  17   2.0000      -0.532145       -14.4804
  18   2.0000      -0.515663       -14.0319
  19   2.0000      -0.488844       -13.3021
  20   2.0000      -0.488651       -13.2969
  21   2.0000      -0.482073       -13.1179
  22   2.0000      -0.440392       -11.9837
  23   2.0000      -0.427234       -11.6256
  24   2.0000      -0.405146       -11.0246
  25   2.0000      -0.404998       -11.0205
  26   2.0000      -0.402927       -10.9642
  27   2.0000      -0.300964        -8.1897
  28   2.0000      -0.300260        -8.1705
  29   2.0000      -0.269957        -7.3459
  30   0.0000       0.010913         0.2970
  31   0.0000       0.011294         0.3073
  32   0.0000       0.134128         3.6498
  33   0.0000       0.151098         4.1116
  34   0.0000       0.186417         5.0727

MULLIKEN ATOMIC CHARGES
-----------------------
   0 C :   -0.229702
   1 H :    0.224911
   2 C :   -0.228555
   3 H :    0.227068
   4 C :   -0.224557
   5 H :    0.227648
   6 C :   -0.224865
   7 H :    0.225873
   8 C :   -0.220794
   9 H :    0.225151
  10 C :   -0.226103
  11 H :    0.224091
  12 N :   -0.745932
  13 H :    0.344345
  14 H :    0.305446
  15 C :   -0.496775
  16 H :    0.209091
  17 H :    0.174891
  18 H :    0.208767
Sum of atomic charges:    0.0000000

LOEWDIN ATOMIC CHARGES
----------------------
   0 C :   -0.140718
   1 H :    0.137749
   2 C :   -0.138838
   3 H :    0.139164
   4 C :   -0.135688
   5 H :    0.139704
   6 C :   -0.136931
   7 H :    0.138366
   8 C :   -0.136010
   9 H :    0.137837
  10 C :   -0.139082
  11 H :    0.137383
  12 N :   -0.486989
  13 H :    0.227149
  14 H :    0.214699
  15 C :   -0.277550
  16 H :    0.114847
  17 H :    0.088204
  18 H :    0.116704

  Mayer bond orders larger than 0.100000
B(  0-C ,  1-H ) :   0.9190 B(  0-C ,  2-C ) :   1.4240 B(  0-C , 10-C ) :   1.4224
B(  2-C ,  3-H ) :   0.9185 B(  2-C ,  4-C ) :   1.4227 B(  4-C ,  5-H ) :   0.9182
B(  4-C ,  6-C ) :   1.4252 B(  6-C ,  7-H ) :   0.9183 B(  6-C ,  8-C ) :   1.4227
B(  8-C ,  9-H ) :   0.9182 B(  8-C , 10-C ) :   1.4257 B( 10-C , 11-H ) :   0.9191
B( 12-N , 13-H ) :   0.8428 B( 12-N , 14-H ) :   0.8720 B( 12-N , 15-C ) :   1.0435
B( 15-C , 16-H ) :   0.9273 B( 15-C , 17-H ) :   0.9168 B( 15-C , 18-H ) :   0.9282

Dispersion correction           -0.009906300
FINAL SINGLE POINT ENERGY      -327.373779853118

DIPOLE MOMENT
-------------
                                X             Y             Z
Electronic contribution:      1.68574       0.71175      -6.50130
Nuclear contribution   :     -1.99320      -0.32463       6.10130
                        -----------------------------------------
Total Dipole Moment    :     -0.30746       0.38711      -0.40000
                        -----------------------------------------
Magnitude (a.u.)       :      0.63591
Magnitude (Debye)      :      1.61637

Rotational constants in cm-1:     0.088631     0.043302     0.042308
Rotational constants in MHz :  2657.086917  1298.156691  1268.359800

                             ****ORCA TERMINATED NORMALLY****
TOTAL RUN TIME: 0 days 0 hours 1 minutes 51 seconds 48 msec
