                         Program Version 5.0.3 -  RELEASE  -
|  1> ! PBEh-3c def2/J TightSCF DefGrid3
|  2>
|  3> %maxcore 60000
|  4>
|  5> %pal
|  6> nprocs 4
|  7> end
|  8>
|  9> *xyzfile 1 1 5p.xyz
| 10>
| 11>                          ****END OF INPUT****

CARTESIAN COORDINATES (ANGSTROEM)
---------------------------------
  C     -1.206366    0.249081   -0.350843
  C      0.203432    0.399730   -0.183743
  C      1.068360   -0.521944    0.479903
  H      0.572740   -1.307925    1.046368
  H      1.901654   -0.040844    1.000589
  H     -1.576606    0.655087   -1.297412
  H     -1.584202    0.992031    0.395495
  H     -1.610549   -0.726512   -0.088454
  H      0.660900    1.299419   -0.602340
  H      1.570638   -0.998123   -0.399563

 Total Charge           Charge          ....    1
 Multiplicity           Mult            ....    1
 Number of Electrons    NEL             ....   24
 Basis Dimension        Dim             ....   59

ORBITAL ENERGIES
----------------

  NO   OCC          E(Eh)            E(eV)
   0   2.0000     -10.794991      -293.7466
   1   2.0000     -10.675843      -290.5045
   2   2.0000     -10.675719      -290.5011
   3   2.0000      -1.169408       -31.8212
   4   2.0000      -1.044566       -28.4241
   5   2.0000      -0.893823       -24.3222
   6   2.0000      -0.789132       -21.4734
   7   2.0000      -0.739140       -20.1130
   8   2.0000      -0.731330       -19.9005
   9   2.0000      -0.677112       -18.4251
  10   2.0000      -0.668864       -18.2007
  11   2.0000      -0.660562       -17.9748
  12   0.0000      -0.316982        -8.6255
  13   0.0000      -0.068780        -1.8716
  14   0.0000      -0.040041        -1.0896
  15   0.0000      -0.028544        -0.7767
  16   0.0000      -0.024381        -0.6634

MULLIKEN ATOMIC CHARGES
-----------------------
   0 C :   -0.741337
   1 C :    0.083643
   2 C :   -0.741034
   3 H :    0.325143
   4 H :    0.347141
   5 H :    0.347291
   6 H :    0.349534
   7 H :    0.324563
   8 H :    0.355706
   9 H :    0.349351
Sum of atomic charges:    1.0000000

LOEWDIN ATOMIC CHARGES
----------------------
   0 C :   -0.351146
   1 C :    0.216309
   2 C :   -0.350768
   3 H :    0.188428
   4 H :    0.208739
   5 H :    0.209399
   6 H :    0.247678
   7 H :    0.188014
   8 H :    0.195212
   9 H :    0.248135

  Mayer bond orders larger than 0.100000
B(  0-C ,  1-C ) :   1.1145 B(  0-C ,  5-H ) :   0.8450 B(  0-C ,  6-H ) :   0.7742
B(  0-C ,  7-H ) :   0.8806 B(  1-C ,  2-C ) :   1.1151 B(  1-C ,  8-H ) :   0.8462
B(  2-C ,  3-H ) :   0.8799 B(  2-C ,  4-H ) :   0.8463 B(  2-C ,  9-H ) :   0.7732

Dispersion correction           -0.003032206
FINAL SINGLE POINT ENERGY      -117.935853844411

DIPOLE MOMENT
-------------
                                X             Y             Z
Electronic contribution:      0.30995       0.60552      -0.27435
Nuclear contribution   :     -0.17110      -0.33178       0.14300
                        -----------------------------------------
Total Dipole Moment    :      0.13886       0.27374      -0.13134
                        -----------------------------------------
Magnitude (a.u.)       :      0.33386
Magnitude (Debye)      :      0.84861

Rotational constants in cm-1:     1.373745     0.288926     0.260616
Rotational constants in MHz : 41183.853021  8661.794168  7813.057073

                             ****ORCA TERMINATED NORMALLY****
TOTAL RUN TIME: 0 days 0 hours 1 minutes 44 seconds 7 msec
