                         Program Version 5.0.3 -  RELEASE  -
|  1> ! PBEh-3c def2/J TightSCF DefGrid3
|  2>
|  3> %maxcore 60000
|  4>
|  5> %pal
|  6> nprocs 4
|  7> end
|  8>
|  9> *xyzfile -1 1 1c.xyz
| 10>
| 11>                          ****END OF INPUT****

CARTESIAN COORDINATES (ANGSTROEM)
---------------------------------
  H      5.218395   -2.815277    0.194392
  O      4.541990   -2.122418    0.130970
  C      5.184678   -0.911398   -0.303327
  H      5.881532   -1.117055   -1.124106
  H      5.739946   -0.447268    0.522867
  C      4.133668    0.068801   -0.771419
  H      4.624924    1.025410   -0.991717
  O      3.500117   -0.417841   -1.988783
  C      2.131109   -0.058039   -2.010391
  H      1.885443    0.489292   -2.921330
  N      1.314327   -1.307255   -2.037577
  C      1.783573   -2.484767   -1.511499
  H      2.787901   -2.433786   -1.100622
  C      1.050952   -3.626554   -1.513638
  H      1.448228   -4.541314   -1.094371
  C     -0.267449   -3.637319   -2.090550
  O     -1.035293   -4.602538   -2.171529
  N     -0.674272   -2.384234   -2.582285
  H     -1.596032   -2.336924   -3.008879
  C      0.040821   -1.204138   -2.586160
  O     -0.411894   -0.149114   -3.028712
  C      2.969475    0.317391    0.185847
  H      2.678831   -0.611153    0.689289
  C      1.839120    0.774361   -0.755571
  H      0.843280    0.566072   -0.360063
  O      1.955757    2.153146   -1.094103
  H      1.755167    2.631350   -0.265730
  O      3.369403    1.280814    1.164816
  P      2.441177    1.466110    2.503963
  O      3.174122    2.446560    3.367265
  O      1.987452    0.137262    3.033755
  O      1.158937    2.207295    1.767465
  C     -0.143632    2.081438    2.372168
  H     -0.212461    2.731101    3.253385
  H     -0.297682    1.041930    2.681470
  C     -1.192383    2.512120    1.375589
  H     -0.989308    3.530418    1.022304
  O     -1.183293    1.618827    0.228572
  C     -2.496260    1.393487   -0.243232
  H     -2.572831    1.641099   -1.303150
  N     -2.806515   -0.066681   -0.114789
  C     -2.027576   -0.925027    0.616527
  H     -1.159321   -0.466228    1.071449
  C     -2.313419   -2.243933    0.748338
  H     -1.673550   -2.894521    1.328845
  C     -3.483520   -2.795460    0.111201
  O     -3.864782   -3.969330    0.153604
  N     -4.221401   -1.847367   -0.618300
  H     -5.059527   -2.180545   -1.088715
  C     -3.953467   -0.503951   -0.771705
  O     -4.666250    0.256770   -1.424616
  C     -2.623216    2.428605    1.909744
  H     -2.745302    1.557834    2.563917
  C     -3.440782    2.245302    0.615536
  H     -4.404886    1.754859    0.781720
  O     -3.609279    3.505897   -0.029470
  H     -3.684705    4.161128    0.693841
  O     -2.949092    3.631715    2.602810
  H     -3.680941    3.445041    3.214690

 Total Charge           Charge          ....   -1
 Multiplicity           Mult            ....    1
 Number of Electrons    NEL             ....  286
 Basis Dimension        Dim             ....  602

ORBITAL ENERGIES
----------------

  NO   OCC          E(Eh)            E(eV)
   0   2.0000     -77.711052     -2114.6252
   1   2.0000     -19.464341      -529.6517
   2   2.0000     -19.449426      -529.2458
   3   2.0000     -19.430376      -528.7274
   4   2.0000     -19.429996      -528.7171
   5   2.0000     -19.426705      -528.6275
   6   2.0000     -19.406779      -528.0853
   7   2.0000     -19.392907      -527.7078
   8   2.0000     -19.391756      -527.6765
   9   2.0000     -19.388830      -527.5969
  10   2.0000     -19.382794      -527.4326
  11   2.0000     -19.381388      -527.3944
  12   2.0000     -19.380891      -527.3809
  13   2.0000     -19.274074      -524.4742
  14   2.0000     -19.261055      -524.1199
  15   2.0000     -14.640029      -398.3754
  16   2.0000     -14.624206      -397.9449
  17   2.0000     -14.622746      -397.9052
  18   2.0000     -14.609442      -397.5431
  19   2.0000     -10.530829      -286.5584
  20   2.0000     -10.516672      -286.1732
  21   2.0000     -10.490830      -285.4700
  22   2.0000     -10.480074      -285.1773
  23   2.0000     -10.476068      -285.0683
  24   2.0000     -10.453111      -284.4436
  25   2.0000     -10.449006      -284.3319
  26   2.0000     -10.445029      -284.2237
  27   2.0000     -10.437976      -284.0318
  28   2.0000     -10.429855      -283.8108
  29   2.0000     -10.428777      -283.7814
  30   2.0000     -10.414852      -283.4025
  31   2.0000     -10.410278      -283.2781
  32   2.0000     -10.402020      -283.0534
  33   2.0000     -10.393562      -282.8232
  34   2.0000     -10.391795      -282.7751
  35   2.0000     -10.379359      -282.4367
  36   2.0000     -10.367845      -282.1234
  37   2.0000      -6.755443      -183.8249
  38   2.0000      -4.850554      -131.9903
  39   2.0000      -4.849429      -131.9597
  40   2.0000      -4.846731      -131.8863
  41   2.0000      -1.122388       -30.5417
  42   2.0000      -1.107679       -30.1415
  43   2.0000      -1.104379       -30.0517
  44   2.0000      -1.090231       -29.6667
  45   2.0000      -1.083214       -29.4757
  46   2.0000      -1.066875       -29.0311
  47   2.0000      -1.057148       -28.7665
  48   2.0000      -1.055931       -28.7334
  49   2.0000      -1.052946       -28.6521
  50   2.0000      -1.044739       -28.4288
  51   2.0000      -1.014922       -27.6174
  52   2.0000      -1.005872       -27.3712
  53   2.0000      -0.997916       -27.1547
  54   2.0000      -0.990650       -26.9570
  55   2.0000      -0.955488       -26.0002
  56   2.0000      -0.941308       -25.6143
  57   2.0000      -0.900460       -24.5028
  58   2.0000      -0.856058       -23.2945
  59   2.0000      -0.820938       -22.3388
  60   2.0000      -0.808007       -21.9870
  61   2.0000      -0.806743       -21.9526
  62   2.0000      -0.778125       -21.1739
  63   2.0000      -0.774801       -21.0834
  64   2.0000      -0.753257       -20.4972
  65   2.0000      -0.697416       -18.9776
  66   2.0000      -0.692653       -18.8481
  67   2.0000      -0.685534       -18.6543
  68   2.0000      -0.681779       -18.5521
  69   2.0000      -0.652186       -17.7469
  70   2.0000      -0.635149       -17.2833
  71   2.0000      -0.622448       -16.9377
  72   2.0000      -0.599769       -16.3205
  73   2.0000      -0.590352       -16.0643
  74   2.0000      -0.575678       -15.6650
  75   2.0000      -0.570710       -15.5298
  76   2.0000      -0.554549       -15.0900
  77   2.0000      -0.548269       -14.9192
  78   2.0000      -0.541656       -14.7392
  79   2.0000      -0.538135       -14.6434
  80   2.0000      -0.522680       -14.2228
  81   2.0000      -0.516002       -14.0411
  82   2.0000      -0.511111       -13.9080
  83   2.0000      -0.503001       -13.6873
  84   2.0000      -0.496737       -13.5169
  85   2.0000      -0.488213       -13.2849
  86   2.0000      -0.481707       -13.1079
  87   2.0000      -0.473757       -12.8916
  88   2.0000      -0.464757       -12.6467
  89   2.0000      -0.462210       -12.5774
  90   2.0000      -0.456953       -12.4343
  91   2.0000      -0.451717       -12.2918
  92   2.0000      -0.448371       -12.2008
  93   2.0000      -0.445228       -12.1153
  94   2.0000      -0.440991       -12.0000
  95   2.0000      -0.432697       -11.7743
  96   2.0000      -0.431391       -11.7387
  97   2.0000      -0.425270       -11.5722
  98   2.0000      -0.420698       -11.4478
  99   2.0000      -0.411313       -11.1924
 100   2.0000      -0.404247       -11.0001
 101   2.0000      -0.400223       -10.8906
 102   2.0000      -0.397793       -10.8245
 103   2.0000      -0.392794       -10.6885
 104   2.0000      -0.389392       -10.5959
 105   2.0000      -0.387705       -10.5500
 106   2.0000      -0.385907       -10.5010
 107   2.0000      -0.380054       -10.3418
 108   2.0000      -0.373722       -10.1695
 109   2.0000      -0.372197       -10.1280
 110   2.0000      -0.366962        -9.9856
 111   2.0000      -0.359793        -9.7905
 112   2.0000      -0.351624        -9.5682
 113   2.0000      -0.342362        -9.3161
 114   2.0000      -0.340733        -9.2718
 115   2.0000      -0.337521        -9.1844
 116   2.0000      -0.332203        -9.0397
 117   2.0000      -0.326554        -8.8860
 118   2.0000      -0.323598        -8.8056
 119   2.0000      -0.302611        -8.2345
 120   2.0000      -0.291636        -7.9358
 121   2.0000      -0.287155        -7.8139
 122   2.0000      -0.283378        -7.7111
 123   2.0000      -0.279138        -7.5957
 124   2.0000      -0.272991        -7.4285
 125   2.0000      -0.269397        -7.3307
 126   2.0000      -0.266014        -7.2386
 127   2.0000      -0.262901        -7.1539
 128   2.0000      -0.260991        -7.1019
 129   2.0000      -0.259250        -7.0546
 130   2.0000      -0.250247        -6.8096
 131   2.0000      -0.247414        -6.7325
 132   2.0000      -0.244837        -6.6623
 133   2.0000      -0.242777        -6.6063
 134   2.0000      -0.231948        -6.3116
 135   2.0000      -0.230957        -6.2847
 136   2.0000      -0.216568        -5.8931
 137   2.0000      -0.207444        -5.6448
 138   2.0000      -0.196391        -5.3441
 139   2.0000      -0.193943        -5.2775
 140   2.0000      -0.185980        -5.0608
 141   2.0000      -0.159332        -4.3356
 142   2.0000      -0.144445        -3.9305
 143   0.0000       0.060718         1.6522
 144   0.0000       0.073727         2.0062
 145   0.0000       0.112919         3.0727
 146   0.0000       0.126839         3.4515
 147   0.0000       0.146382         3.9833

MULLIKEN ATOMIC CHARGES
-----------------------
   0 H :    0.419593
   1 O :   -0.629742
   2 C :   -0.178791
   3 H :    0.191791
   4 H :    0.221872
   5 C :    0.028126
   6 H :    0.240080
   7 O :   -0.506022
   8 C :    0.192156
   9 H :    0.273940
  10 N :   -0.570871
  11 C :    0.075008
  12 H :    0.332113
  13 C :   -0.484306
  14 H :    0.241974
  15 C :    0.562520
  16 O :   -0.425228
  17 N :   -0.737635
  18 H :    0.386712
  19 C :    0.716990
  20 O :   -0.447722
  21 C :   -0.004176
  22 H :    0.252505
  23 C :   -0.053357
  24 H :    0.256974
  25 O :   -0.657825
  26 H :    0.445641
  27 O :   -0.603728
  28 P :    1.356795
  29 O :   -0.709418
  30 O :   -0.758872
  31 O :   -0.639755
  32 C :   -0.122749
  33 H :    0.213415
  34 H :    0.211621
  35 C :    0.017253
  36 H :    0.245114
  37 O :   -0.489391
  38 C :    0.220856
  39 H :    0.301623
  40 N :   -0.578826
  41 C :    0.057273
  42 H :    0.324578
  43 C :   -0.467902
  44 H :    0.271076
  45 C :    0.561700
  46 O :   -0.414572
  47 N :   -0.736186
  48 H :    0.388253
  49 C :    0.713098
  50 O :   -0.446680
  51 C :   -0.062928
  52 H :    0.219433
  53 C :   -0.029581
  54 H :    0.230436
  55 O :   -0.630799
  56 H :    0.422303
  57 O :   -0.630338
  58 H :    0.424577
Sum of atomic charges:   -1.0000000

LOEWDIN ATOMIC CHARGES
----------------------
   0 H :    0.311363
   1 O :   -0.410602
   2 C :   -0.093095
   3 H :    0.107411
   4 H :    0.124993
   5 C :   -0.013428
   6 H :    0.132503
   7 O :   -0.242960
   8 C :    0.084218
   9 H :    0.145888
  10 N :   -0.090567
  11 C :   -0.003131
  12 H :    0.169558
  13 C :   -0.260907
  14 H :    0.154876
  15 C :    0.123831
  16 O :   -0.277420
  17 N :   -0.202144
  18 H :    0.280683
  19 C :    0.155728
  20 O :   -0.285906
  21 C :   -0.036702
  22 H :    0.138202
  23 C :   -0.044983
  24 H :    0.124424
  25 O :   -0.403820
  26 H :    0.320890
  27 O :   -0.332104
  28 P :    0.808372
  29 O :   -0.599446
  30 O :   -0.618368
  31 O :   -0.371121
  32 C :   -0.085868
  33 H :    0.124452
  34 H :    0.123308
  35 C :   -0.014110
  36 H :    0.135349
  37 O :   -0.217290
  38 C :    0.090193
  39 H :    0.156328
  40 N :   -0.095650
  41 C :   -0.012589
  42 H :    0.167785
  43 C :   -0.245444
  44 H :    0.167175
  45 C :    0.126012
  46 O :   -0.266468
  47 N :   -0.202695
  48 H :    0.282322
  49 C :    0.154711
  50 O :   -0.284854
  51 C :   -0.043404
  52 H :    0.119140
  53 C :   -0.042787
  54 H :    0.117503
  55 O :   -0.391833
  56 H :    0.311789
  57 O :   -0.388789
  58 H :    0.319477

  Mayer bond orders larger than 0.100000
B(  0-H ,  1-O ) :   0.7896 B(  1-O ,  2-C ) :   0.9848 B(  2-C ,  3-H ) :   0.9067
B(  2-C ,  4-H ) :   0.8910 B(  2-C ,  5-C ) :   0.9715 B(  5-C ,  6-H ) :   0.8871
B(  5-C ,  7-O ) :   0.9031 B(  5-C , 21-C ) :   0.9201 B(  7-O ,  8-C ) :   1.0081
B(  8-C ,  9-H ) :   0.8769 B(  8-C , 10-N ) :   0.8450 B(  8-C , 23-C ) :   0.9271
B( 10-N , 11-C ) :   1.0866 B( 10-N , 19-C ) :   1.0373 B( 11-C , 12-H ) :   0.8161
B( 11-C , 13-C ) :   1.5865 B( 13-C , 14-H ) :   0.9209 B( 13-C , 15-C ) :   1.0832
B( 15-C , 16-O ) :   2.0008 B( 15-C , 17-N ) :   0.9752 B( 17-N , 18-H ) :   0.8047
B( 17-N , 19-C ) :   1.0620 B( 19-C , 20-O ) :   1.9570 B( 21-C , 22-H ) :   0.8549
B( 21-C , 23-C ) :   0.9057 B( 21-C , 27-O ) :   0.9568 B( 23-C , 24-H ) :   0.8748
B( 23-C , 25-O ) :   1.0215 B( 25-O , 26-H ) :   0.7364 B( 27-O , 28-P ) :   0.8680
B( 28-P , 29-O ) :   1.8140 B( 28-P , 30-O ) :   1.6707 B( 28-P , 31-O ) :   0.8003
B( 31-O , 32-C ) :   0.9535 B( 32-C , 33-H ) :   0.8901 B( 32-C , 34-H ) :   0.8746
B( 32-C , 35-C ) :   0.9808 B( 35-C , 36-H ) :   0.8773 B( 35-C , 37-O ) :   0.9018
B( 35-C , 51-C ) :   0.9157 B( 37-O , 38-C ) :   1.0024 B( 38-C , 39-H ) :   0.8690
B( 38-C , 40-N ) :   0.8259 B( 38-C , 53-C ) :   0.9205 B( 40-N , 41-C ) :   1.0818
B( 40-N , 49-C ) :   1.0340 B( 41-C , 42-H ) :   0.8553 B( 41-C , 43-C ) :   1.6027
B( 43-C , 44-H ) :   0.9078 B( 43-C , 45-C ) :   1.0737 B( 45-C , 46-O ) :   2.0104
B( 45-C , 47-N ) :   0.9723 B( 47-N , 48-H ) :   0.8043 B( 47-N , 49-C ) :   1.0706
B( 49-C , 50-O ) :   1.9552 B( 51-C , 52-H ) :   0.8838 B( 51-C , 53-C ) :   0.9311
B( 51-C , 57-O ) :   0.9960 B( 53-C , 54-H ) :   0.8993 B( 53-C , 55-O ) :   1.0119
B( 55-O , 56-H ) :   0.7546 B( 57-O , 58-H ) :   0.7850

Dispersion correction           -0.050108219
FINAL SINGLE POINT ENERGY     -2308.297726481084

DIPOLE MOMENT
-------------
                                X             Y             Z
Electronic contribution:     -4.58171      -3.92499      -3.52306
Nuclear contribution   :      2.71414       3.60869       2.41149
                        -----------------------------------------
Total Dipole Moment    :     -1.86757      -0.31630      -1.11157
                        -----------------------------------------
Magnitude (a.u.)       :      2.19623
Magnitude (Debye)      :      5.58238

Rotational constants in cm-1:     0.003956     0.003216     0.002172
Rotational constants in MHz :   118.603155    96.403291    65.104954

                             ****ORCA TERMINATED NORMALLY****
TOTAL RUN TIME: 0 days 0 hours 16 minutes 58 seconds 830 msec
