                         Program Version 5.0.3 -  RELEASE  -
|  1> ! PBEh-3c def2/J TightSCF DefGrid3
|  2>
|  3> %maxcore 60000
|  4>
|  5> %pal
|  6> nprocs 4
|  7> end
|  8>
|  9> *xyzfile 0 1 7a.xyz
| 10>
| 11>                          ****END OF INPUT****

CARTESIAN COORDINATES (ANGSTROEM)
---------------------------------
  C     -1.003973   -0.231745    0.000000
  N     -0.362474    0.940359    0.000000
  N      0.887786    0.524256    0.000000
  N      1.052922   -0.791126    0.000000
  N     -0.171594   -1.288174    0.000000
  H     -2.074479   -0.310822    0.000000
  H      1.671812    1.157251    0.000000

 Total Charge           Charge          ....    0
 Multiplicity           Mult            ....    1
 Number of Electrons    NEL             ....   36
 Basis Dimension        Dim             ....   79

ORBITAL ENERGIES
----------------

  NO   OCC          E(Eh)            E(eV)
   0   2.0000     -14.778564      -402.1452
   1   2.0000     -14.730109      -400.8267
   2   2.0000     -14.703458      -400.1014
   3   2.0000     -14.682435      -399.5294
   4   2.0000     -10.513251      -286.0801
   5   2.0000      -1.276867       -34.7453
   6   2.0000      -1.062576       -28.9142
   7   2.0000      -0.992231       -27.0000
   8   2.0000      -0.776879       -21.1400
   9   2.0000      -0.742052       -20.1923
  10   2.0000      -0.653064       -17.7708
  11   2.0000      -0.576221       -15.6798
  12   2.0000      -0.542652       -14.7663
  13   2.0000      -0.455319       -12.3899
  14   2.0000      -0.389562       -10.6005
  15   2.0000      -0.383325       -10.4308
  16   2.0000      -0.362962        -9.8767
  17   2.0000      -0.355895        -9.6844
  18   0.0000      -0.005500        -0.1497
  19   0.0000       0.057018         1.5515
  20   0.0000       0.110922         3.0183
  21   0.0000       0.194169         5.2836
  22   0.0000       0.242496         6.5987

MULLIKEN ATOMIC CHARGES
-----------------------
   0 C :    0.094310
   1 N :   -0.222019
   2 N :   -0.238045
   3 N :   -0.040477
   4 N :   -0.260313
   5 H :    0.259013
   6 H :    0.407530
Sum of atomic charges:   -0.0000000

LOEWDIN ATOMIC CHARGES
----------------------
   0 C :   -0.093288
   1 N :   -0.126616
   2 N :   -0.009438
   3 N :   -0.059141
   4 N :   -0.127212
   5 H :    0.142446
   6 H :    0.273248

  Mayer bond orders larger than 0.100000
B(  0-C ,  1-N ) :   1.4988 B(  0-C ,  4-N ) :   1.4017 B(  0-C ,  5-H ) :   0.9062
B(  1-N ,  2-N ) :   1.3021 B(  1-N ,  3-N ) :   0.1485 B(  2-N ,  3-N ) :   1.2960
B(  2-N ,  6-H ) :   0.7911 B(  3-N ,  4-N ) :   1.5097

Dispersion correction           -0.002650033
FINAL SINGLE POINT ENERGY      -257.692955968432

DIPOLE MOMENT
-------------
                                X             Y             Z
Electronic contribution:      0.77246      -0.17453       0.00000
Nuclear contribution   :     -0.56617       1.07634       0.00000
                        -----------------------------------------
Total Dipole Moment    :      0.20629       0.90181       0.00000
                        -----------------------------------------
Magnitude (a.u.)       :      0.92510
Magnitude (Debye)      :      2.35143

Rotational constants in cm-1:     0.356725     0.345225     0.175441
Rotational constants in MHz : 10694.351694 10349.599318  5259.575777

                             ****ORCA TERMINATED NORMALLY****
TOTAL RUN TIME: 0 days 0 hours 1 minutes 1 seconds 169 msec
