                         Program Version 5.0.3 -  RELEASE  -
|  1> ! PBEh-3c def2/J TightSCF DefGrid3
|  2>
|  3> %maxcore 60000
|  4>
|  5> %pal
|  6> nprocs 4
|  7> end
|  8>
|  9> *xyzfile 0 1 2O_A.xyz
| 10>
| 11>                          ****END OF INPUT****

CARTESIAN COORDINATES (ANGSTROEM)
---------------------------------
  O      0.000000    0.000000   -0.399879
  H     -0.761276    0.000000    0.199939
  H      0.761276    0.000000    0.199939

 Total Charge           Charge          ....    0
 Multiplicity           Mult            ....    1
 Number of Electrons    NEL             ....   10
 Basis Dimension        Dim             ....   19

ORBITAL ENERGIES
----------------

  NO   OCC          E(Eh)            E(eV)
   0   2.0000     -19.476252      -529.9758
   1   2.0000      -1.099231       -29.9116
   2   2.0000      -0.576380       -15.6841
   3   2.0000      -0.435309       -11.8454
   4   2.0000      -0.356006        -9.6874
   5   0.0000       0.128332         3.4921
   6   0.0000       0.205640         5.5957
   7   0.0000       0.867956        23.6183
   8   0.0000       0.974679        26.5224
   9   0.0000       0.991542        26.9812

MULLIKEN ATOMIC CHARGES
-----------------------
   0 O :   -0.813419
   1 H :    0.406710
   2 H :    0.406710
Sum of atomic charges:    0.0000000

LOEWDIN ATOMIC CHARGES
----------------------
   0 O :   -0.597767
   1 H :    0.298884
   2 H :    0.298884

  Mayer bond orders larger than 0.100000
B(  0-O ,  1-H ) :   0.8170 B(  0-O ,  2-H ) :   0.8170

Dispersion correction           -0.000209592
FINAL SINGLE POINT ENERGY       -76.257757531933

DIPOLE MOMENT
-------------
                                X             Y             Z
Electronic contribution:      0.00000      -0.00000      -0.14068
Nuclear contribution   :      0.00000       0.00000       0.99853
                        -----------------------------------------
Total Dipole Moment    :      0.00000      -0.00000       0.85785
                        -----------------------------------------
Magnitude (a.u.)       :      0.85785
Magnitude (Debye)      :      2.18049

Rotational constants in cm-1:    26.170289    14.428530     9.300734
Rotational constants in MHz : 784565.534298 432556.456962 278828.983625

                             ****ORCA TERMINATED NORMALLY****
TOTAL RUN TIME: 0 days 0 hours 0 minutes 8 seconds 363 msec
