                         Program Version 5.0.3 -  RELEASE  -
|  1> ! PBEh-3c def2/J TightSCF DefGrid3
|  2>
|  3> %maxcore 60000
|  4>
|  5> %pal
|  6> nprocs 4
|  7> end
|  8>
|  9> *xyzfile 0 1 ocs.xyz
| 10>
| 11>                          ****END OF INPUT****

CARTESIAN COORDINATES (ANGSTROEM)
---------------------------------
  O     -1.686130    0.000000    0.000000
  C     -0.527698    0.000000    0.000000
  S      1.039153    0.000000    0.000000

 Total Charge           Charge          ....    0
 Multiplicity           Mult            ....    1
 Number of Electrons    NEL             ....   30
 Basis Dimension        Dim             ....   48

ORBITAL ENERGIES
----------------

  NO   OCC          E(Eh)            E(eV)
   0   2.0000     -89.622620     -2438.7555
   1   2.0000     -19.595046      -533.2083
   2   2.0000     -10.626125      -289.1516
   3   2.0000      -8.263919      -224.8727
   4   2.0000      -6.155580      -167.5018
   5   2.0000      -6.148365      -167.3055
   6   2.0000      -6.148365      -167.3055
   7   2.0000      -1.263333       -34.3770
   8   2.0000      -0.916141       -24.9295
   9   2.0000      -0.628684       -17.1074
  10   2.0000      -0.546468       -14.8702
  11   2.0000      -0.546468       -14.8702
  12   2.0000      -0.531491       -14.4626
  13   2.0000      -0.351031        -9.5520
  14   2.0000      -0.351031        -9.5520
  15   0.0000      -0.001248        -0.0340
  16   0.0000      -0.001248        -0.0340
  17   0.0000       0.103668         2.8209
  18   0.0000       0.223545         6.0830
  19   0.0000       0.426428        11.6037

MULLIKEN ATOMIC CHARGES
-----------------------
   0 O :   -0.216212
   1 C :    0.237084
   2 S :   -0.020872
Sum of atomic charges:   -0.0000000

LOEWDIN ATOMIC CHARGES
----------------------
   0 O :   -0.060506
   1 C :   -0.000352
   2 S :    0.060858

  Mayer bond orders larger than 0.100000
B(  0-O ,  1-C ) :   2.1911 B(  0-O ,  2-S ) :   0.2746 B(  1-C ,  2-S ) :   1.8606

Dispersion correction           -0.000772444
FINAL SINGLE POINT ENERGY      -510.845343394938

DIPOLE MOMENT
-------------
                                X             Y             Z
Electronic contribution:      0.26166       0.00000      -0.00000
Nuclear contribution   :     -0.05502       0.00000       0.00000
                        -----------------------------------------
Total Dipole Moment    :      0.20664       0.00000      -0.00000
                        -----------------------------------------
Magnitude (a.u.)       :      0.20664
Magnitude (Debye)      :      0.52523

Rotational constants in cm-1:     0.000000     0.202009     0.202009
Rotational constants in MHz :     0.000000  6056.076908  6056.076908

                             ****ORCA TERMINATED NORMALLY****
TOTAL RUN TIME: 0 days 0 hours 0 minutes 51 seconds 47 msec
