                         Program Version 5.0.3 -  RELEASE  -
|  1> ! PBEh-3c def2/J TightSCF DefGrid3
|  2>
|  3> %maxcore 60000
|  4>
|  5> %pal
|  6> nprocs 4
|  7> end
|  8>
|  9> *xyzfile 0 1 13r_2.xyz
| 10>
| 11>                          ****END OF INPUT****

CARTESIAN COORDINATES (ANGSTROEM)
---------------------------------
  N      0.445311    0.151606    0.000000
  N      1.575259    0.201030    0.000000
  N     -0.785776    0.281313    0.000000
  H     -1.234794   -0.633949    0.000000

 Total Charge           Charge          ....    0
 Multiplicity           Mult            ....    1
 Number of Electrons    NEL             ....   22
 Basis Dimension        Dim             ....   47

ORBITAL ENERGIES
----------------

  NO   OCC          E(Eh)            E(eV)
   0   2.0000     -14.833900      -403.6509
   1   2.0000     -14.723596      -400.6494
   2   2.0000     -14.683776      -399.5659
   3   2.0000      -1.266569       -34.4651
   4   2.0000      -1.083229       -29.4762
   5   2.0000      -0.695094       -18.9145
   6   2.0000      -0.583734       -15.8842
   7   2.0000      -0.582105       -15.8399
   8   2.0000      -0.524469       -14.2715
   9   2.0000      -0.376297       -10.2395
  10   2.0000      -0.321258        -8.7419
  11   0.0000       0.003394         0.0924
  12   0.0000       0.045941         1.2501
  13   0.0000       0.139284         3.7901
  14   0.0000       0.295889         8.0516
  15   0.0000       0.489188        13.3115

MULLIKEN ATOMIC CHARGES
-----------------------
   0 N :    0.306113
   1 N :   -0.164188
   2 N :   -0.506375
   3 H :    0.364450
Sum of atomic charges:   -0.0000000

LOEWDIN ATOMIC CHARGES
----------------------
   0 N :    0.203724
   1 N :   -0.084114
   2 N :   -0.373062
   3 H :    0.253452

  Mayer bond orders larger than 0.100000
B(  0-N ,  1-N ) :   2.4770 B(  0-N ,  2-N ) :   1.5431 B(  1-N ,  2-N ) :   0.4235
B(  2-N ,  3-H ) :   0.7997

Dispersion correction           -0.000901708
FINAL SINGLE POINT ENERGY      -164.416244391962

DIPOLE MOMENT
-------------
                                X             Y             Z
Electronic contribution:      1.15035       0.08710       0.00000
Nuclear contribution   :     -1.50779      -0.77410       0.00000
                        -----------------------------------------
Total Dipole Moment    :     -0.35743      -0.68700       0.00000
                        -----------------------------------------
Magnitude (a.u.)       :      0.77442
Magnitude (Debye)      :      1.96843

Rotational constants in cm-1:    20.474045     0.403940     0.396124
Rotational constants in MHz : 613796.425140 12109.803425 11875.507404

                             ****ORCA TERMINATED NORMALLY****
TOTAL RUN TIME: 0 days 0 hours 1 minutes 1 seconds 941 msec
