                         Program Version 5.0.3 -  RELEASE  -
|  1> ! PBEh-3c def2/J TightSCF DefGrid3
|  2>
|  3> %maxcore 60000
|  4>
|  5> %pal
|  6> nprocs 4
|  7> end
|  8>
|  9> *xyzfile 0 1 ts8h2o.xyz
| 10>
| 11>                          ****END OF INPUT****

CARTESIAN COORDINATES (ANGSTROEM)
---------------------------------
  C     -0.658175    0.947500    0.022898
  H     -1.494993    1.643661    0.048174
  H      0.648850    2.397456    0.032582
  H      1.465025    0.313455   -0.023099
  H      0.520110   -1.058055   -0.053494
  O      1.739790   -0.772010   -0.095677
  N      0.558362    1.389607    0.017551
  H      2.161025   -1.054531    0.725114
  S     -1.073614   -0.717384   -0.014007

 Total Charge           Charge          ....    0
 Multiplicity           Mult            ....    1
 Number of Electrons    NEL             ....   42
 Basis Dimension        Dim             ....   73

ORBITAL ENERGIES
----------------

  NO   OCC          E(Eh)            E(eV)
   0   2.0000     -89.550766     -2436.8002
   1   2.0000     -19.515416      -531.0415
   2   2.0000     -14.648432      -398.6041
   3   2.0000     -10.532195      -286.5956
   4   2.0000      -8.192800      -222.9374
   5   2.0000      -6.083485      -165.5400
   6   2.0000      -6.078351      -165.4003
   7   2.0000      -6.077609      -165.3801
   8   2.0000      -1.133989       -30.8574
   9   2.0000      -1.025154       -27.8959
  10   2.0000      -0.823086       -22.3973
  11   2.0000      -0.667014       -18.1504
  12   2.0000      -0.621680       -16.9168
  13   2.0000      -0.575740       -15.6667
  14   2.0000      -0.548649       -14.9295
  15   2.0000      -0.453647       -12.3444
  16   2.0000      -0.433040       -11.7836
  17   2.0000      -0.419472       -11.4144
  18   2.0000      -0.352571        -9.5939
  19   2.0000      -0.297087        -8.0842
  20   2.0000      -0.274872        -7.4797
  21   0.0000       0.010832         0.2948
  22   0.0000       0.110216         2.9991
  23   0.0000       0.130194         3.5427
  24   0.0000       0.143960         3.9173
  25   0.0000       0.202981         5.5234

MULLIKEN ATOMIC CHARGES
-----------------------
   0 C :   -0.085283
   1 H :    0.248968
   2 H :    0.343897
   3 H :    0.476132
   4 H :    0.345961
   5 O :   -0.818061
   6 N :   -0.671609
   7 H :    0.432306
   8 S :   -0.272311
Sum of atomic charges:   -0.0000000

LOEWDIN ATOMIC CHARGES
----------------------
   0 C :   -0.150998
   1 H :    0.124209
   2 H :    0.239278
   3 H :    0.336298
   4 H :    0.260930
   5 O :   -0.594498
   6 N :   -0.401468
   7 H :    0.315965
   8 S :   -0.129716

  Mayer bond orders larger than 0.100000
B(  0-C ,  1-H ) :   0.8885 B(  0-C ,  6-N ) :   1.6513 B(  0-C ,  8-S ) :   1.3011
B(  2-H ,  6-N ) :   0.8375 B(  3-H ,  5-O ) :   0.4732 B(  3-H ,  6-N ) :   0.2976
B(  4-H ,  5-O ) :   0.3568 B(  4-H ,  8-S ) :   0.5176 B(  5-O ,  7-H ) :   0.7860
B(  6-N ,  8-S ) :   0.1310

Dispersion correction           -0.003503021
FINAL SINGLE POINT ENERGY      -568.427783914566

DIPOLE MOMENT
-------------
                                X             Y             Z
Electronic contribution:     -2.76424      -1.35173      -0.09377
Nuclear contribution   :      3.35373       2.25331       0.72611
                        -----------------------------------------
Total Dipole Moment    :      0.58949       0.90158       0.63234
                        -----------------------------------------
Magnitude (a.u.)       :      1.24908
Magnitude (Debye)      :      3.17490

Rotational constants in cm-1:     0.224705     0.159599     0.094001
Rotational constants in MHz :  6736.487991  4784.666003  2818.064572

                             ****ORCA TERMINATED NORMALLY****
TOTAL RUN TIME: 0 days 0 hours 1 minutes 22 seconds 896 msec
