                         Program Version 5.0.3 -  RELEASE  -
|  1> ! PBEh-3c def2/J TightSCF DefGrid3
|  2>
|  3> %maxcore 60000
|  4>
|  5> %pal
|  6> nprocs 4
|  7> end
|  8>
|  9> *xyzfile 1 1 sih4p.xyz
| 10>
| 11>                          ****END OF INPUT****

CARTESIAN COORDINATES (ANGSTROEM)
---------------------------------
  Si     0.547683    0.096887    0.000000
  H     -1.200135   -0.621431    0.000000
  H      0.355376    1.551877    0.000000
  H      0.816515   -0.585989    1.268312
  H      0.816515   -0.585989   -1.268312
  H     -1.335954    0.144646    0.000000

 Total Charge           Charge          ....    1
 Multiplicity           Mult            ....    1
 Number of Electrons    NEL             ....   18
 Basis Dimension        Dim             ....   28

ORBITAL ENERGIES
----------------

  NO   OCC          E(Eh)            E(eV)
   0   2.0000     -67.039055     -1824.2254
   1   2.0000      -5.822149      -158.4287
   2   2.0000      -4.118840      -112.0793
   3   2.0000      -4.108627      -111.8014
   4   2.0000      -4.108411      -111.7956
   5   2.0000      -0.927013       -25.2253
   6   2.0000      -0.780500       -21.2385
   7   2.0000      -0.676848       -18.4180
   8   2.0000      -0.674390       -18.3511
   9   0.0000      -0.274063        -7.4576
  10   0.0000      -0.191144        -5.2013
  11   0.0000      -0.142631        -3.8812
  12   0.0000      -0.142148        -3.8680
  13   0.0000      -0.100673        -2.7394

MULLIKEN ATOMIC CHARGES
-----------------------
   0 Si:    0.371397
   1 H :    0.148793
   2 H :    0.103410
   3 H :    0.111241
   4 H :    0.111241
   5 H :    0.153919
Sum of atomic charges:    1.0000000

LOEWDIN ATOMIC CHARGES
----------------------
   0 Si:    0.475189
   1 H :    0.163798
   2 H :    0.064465
   3 H :    0.064339
   4 H :    0.064339
   5 H :    0.167869

  Mayer bond orders larger than 0.100000
B(  0-Si,  1-H ) :   0.2590 B(  0-Si,  2-H ) :   0.9389 B(  0-Si,  3-H ) :   0.9474
B(  0-Si,  4-H ) :   0.9474 B(  0-Si,  5-H ) :   0.2598 B(  1-H ,  5-H ) :   0.6957

Dispersion correction           -0.001284817
FINAL SINGLE POINT ENERGY      -291.745812372497

DIPOLE MOMENT
-------------
                                X             Y             Z
Electronic contribution:      1.99816       0.34605      -0.00000
Nuclear contribution   :     -2.61958      -0.46341       0.00000
                        -----------------------------------------
Total Dipole Moment    :     -0.62142      -0.11736      -0.00000
                        -----------------------------------------
Magnitude (a.u.)       :      0.63241
Magnitude (Debye)      :      1.60745

Rotational constants in cm-1:     2.494810     1.716233     1.670130
Rotational constants in MHz : 74792.520245 51451.365372 50069.227457

                             ****ORCA TERMINATED NORMALLY****
TOTAL RUN TIME: 0 days 0 hours 0 minutes 42 seconds 319 msec
