                         Program Version 5.0.3 -  RELEASE  -
|  1> ! PBEh-3c def2/J TightSCF DefGrid3
|  2>
|  3> %maxcore 60000
|  4>
|  5> %pal
|  6> nprocs 4
|  7> end
|  8>
|  9> *xyzfile 0 1 ed5.xyz
| 10>
| 11>                          ****END OF INPUT****

CARTESIAN COORDINATES (ANGSTROEM)
---------------------------------
  B      0.000000    0.000000   -3.093497
  H      0.595021    1.030607   -3.110849
  H      0.595021   -1.030607   -3.110849
  H     -1.190042    0.000000   -3.110849
  P      0.000000    0.000000    2.848934
  H      0.593825    1.028535    3.602930
  H      0.593825   -1.028535    3.602930
  H     -1.187650    0.000000    3.602930
  H      0.000000    0.000000   -0.989664
  H      0.000000    0.000000   -0.242017

 Total Charge           Charge          ....    0
 Multiplicity           Mult            ....    1
 Number of Electrons    NEL             ....   28
 Basis Dimension        Dim             ....   49

ORBITAL ENERGIES
----------------

  NO   OCC          E(Eh)            E(eV)
   0   2.0000     -77.732895     -2115.2196
   1   2.0000      -6.970865      -189.6869
   2   2.0000      -6.814231      -185.4246
   3   2.0000      -4.904342      -133.4539
   4   2.0000      -4.904342      -133.4539
   5   2.0000      -4.902512      -133.4041
   6   2.0000      -0.727090       -19.7851
   7   2.0000      -0.581114       -15.8129
   8   2.0000      -0.483334       -13.1522
   9   2.0000      -0.444482       -12.0950
  10   2.0000      -0.444482       -12.0950
  11   2.0000      -0.395030       -10.7493
  12   2.0000      -0.395030       -10.7493
  13   2.0000      -0.322516        -8.7761
  14   0.0000      -0.034436        -0.9371
  15   0.0000       0.067299         1.8313
  16   0.0000       0.067300         1.8313
  17   0.0000       0.149934         4.0799
  18   0.0000       0.195418         5.3176

MULLIKEN ATOMIC CHARGES
-----------------------
   0 B :   -0.211296
   1 H :    0.056609
   2 H :    0.056609
   3 H :    0.056610
   4 P :   -0.268412
   5 H :    0.092574
   6 H :    0.092574
   7 H :    0.092561
   8 H :   -0.049091
   9 H :    0.081263
Sum of atomic charges:    0.0000000

LOEWDIN ATOMIC CHARGES
----------------------
   0 B :   -0.131042
   1 H :    0.018300
   2 H :    0.018300
   3 H :    0.018299
   4 P :   -0.093037
   5 H :    0.034663
   6 H :    0.034663
   7 H :    0.034655
   8 H :    0.010348
   9 H :    0.054849

  Mayer bond orders larger than 0.100000
B(  0-B ,  1-H ) :   0.9842 B(  0-B ,  2-H ) :   0.9842 B(  0-B ,  3-H ) :   0.9842
B(  4-P ,  5-H ) :   0.9620 B(  4-P ,  6-H ) :   0.9620 B(  4-P ,  7-H ) :   0.9620
B(  8-H ,  9-H ) :   0.9463

Dispersion correction           -0.002004736
FINAL SINGLE POINT ENERGY      -370.438166697783

DIPOLE MOMENT
-------------
                                X             Y             Z
Electronic contribution:      0.00000       0.00000       7.16564
Nuclear contribution   :      0.00000       0.00000      -6.44431
                        -----------------------------------------
Total Dipole Moment    :      0.00000       0.00000       0.72133
                        -----------------------------------------
Magnitude (a.u.)       :      0.72133
Magnitude (Debye)      :      1.83347

Rotational constants in cm-1:     1.972121     0.045822     0.045822
Rotational constants in MHz : 59122.693008  1373.707602  1373.707602

                             ****ORCA TERMINATED NORMALLY****
TOTAL RUN TIME: 0 days 0 hours 1 minutes 37 seconds 623 msec
