                         Program Version 5.0.3 -  RELEASE  -
|  1> ! PBEh-3c def2/J TightSCF DefGrid3
|  2>
|  3> %maxcore 60000
|  4>
|  5> %pal
|  6> nprocs 4
|  7> end
|  8>
|  9> *xyzfile 0 1 tetramethylpentane.xyz
| 10>
| 11>                          ****END OF INPUT****

CARTESIAN COORDINATES (ANGSTROEM)
---------------------------------
  C     -1.728013   -0.654922   -1.432700
  H     -1.334495   -1.654547   -1.667090
  H     -1.540410   -0.004082   -2.297208
  H     -2.818808   -0.751825   -1.326155
  C     -1.130306   -0.076844   -0.131392
  C      0.464513   -0.078830   -0.176593
  C      1.030719    0.781430    0.991753
  H      0.506085    0.514397    1.923324
  H      0.785341    1.837022    0.797222
  C      2.538791    0.678156    1.252388
  H      3.135436    0.925517    0.362104
  H      2.835351   -0.326230    1.584697
  H      2.833120    1.383101    2.043429
  C     -1.691775    1.351800    0.037775
  H     -1.309851    2.043800   -0.727050
  H     -2.787769    1.331668   -0.060324
  H     -1.460861    1.774827    1.024964
  C     -1.661287   -0.930390    1.040458
  H     -2.754146   -0.822326    1.111837
  H     -1.446770   -1.999007    0.901740
  H     -1.240451   -0.622637    2.008435
  C      1.005904   -1.519665   -0.063990
  H      2.084463   -1.544010   -0.273910
  H      0.856461   -1.942603    0.939593
  H      0.524480   -2.191888   -0.788312
  C      0.969319    0.511307   -1.510430
  H      0.546087    1.506543   -1.710623
  H      2.063009    0.618851   -1.492363
  H      0.725864   -0.138613   -2.361581

 Total Charge           Charge          ....    0
 Multiplicity           Mult            ....    1
 Number of Electrons    NEL             ....   74
 Basis Dimension        Dim             ....  175

ORBITAL ENERGIES
----------------

  NO   OCC          E(Eh)            E(eV)
   0   2.0000     -10.452751      -284.4338
   1   2.0000     -10.451903      -284.4107
   2   2.0000     -10.429362      -283.7974
   3   2.0000     -10.423120      -283.6275
   4   2.0000     -10.420627      -283.5597
   5   2.0000     -10.420554      -283.5577
   6   2.0000     -10.420486      -283.5558
   7   2.0000     -10.419929      -283.5407
   8   2.0000     -10.419718      -283.5349
   9   2.0000      -0.926995       -25.2248
  10   2.0000      -0.860517       -23.4159
  11   2.0000      -0.807321       -21.9683
  12   2.0000      -0.769971       -20.9520
  13   2.0000      -0.757387       -20.6096
  14   2.0000      -0.742600       -20.2072
  15   2.0000      -0.703287       -19.1374
  16   2.0000      -0.639837       -17.4109
  17   2.0000      -0.564531       -15.3617
  18   2.0000      -0.534287       -14.5387
  19   2.0000      -0.509499       -13.8642
  20   2.0000      -0.499434       -13.5903
  21   2.0000      -0.489507       -13.3202
  22   2.0000      -0.484581       -13.1861
  23   2.0000      -0.452638       -12.3169
  24   2.0000      -0.451337       -12.2815
  25   2.0000      -0.434787       -11.8311
  26   2.0000      -0.424344       -11.5470
  27   2.0000      -0.417613       -11.3638
  28   2.0000      -0.411763       -11.2047
  29   2.0000      -0.409099       -11.1321
  30   2.0000      -0.405258       -11.0276
  31   2.0000      -0.393303       -10.7023
  32   2.0000      -0.383423       -10.4335
  33   2.0000      -0.376494       -10.2449
  34   2.0000      -0.345960        -9.4141
  35   2.0000      -0.339795        -9.2463
  36   2.0000      -0.336289        -9.1509
  37   0.0000       0.112141         3.0515
  38   0.0000       0.155718         4.2373
  39   0.0000       0.163378         4.4457
  40   0.0000       0.166371         4.5272
  41   0.0000       0.169087         4.6011

MULLIKEN ATOMIC CHARGES
-----------------------
   0 C :   -0.632335
   1 H :    0.212236
   2 H :    0.219704
   3 H :    0.214437
   4 C :   -0.047319
   5 C :   -0.021034
   6 C :   -0.407095
   7 H :    0.208856
   8 H :    0.215494
   9 C :   -0.647763
  10 H :    0.208122
  11 H :    0.214811
  12 H :    0.220804
  13 C :   -0.633483
  14 H :    0.212734
  15 H :    0.214573
  16 H :    0.219225
  17 C :   -0.630261
  18 H :    0.214112
  19 H :    0.219514
  20 H :    0.213168
  21 C :   -0.653607
  22 H :    0.222806
  23 H :    0.218248
  24 H :    0.216789
  25 C :   -0.643524
  26 H :    0.211620
  27 H :    0.217924
  28 H :    0.221242
Sum of atomic charges:   -0.0000000

LOEWDIN ATOMIC CHARGES
----------------------
   0 C :   -0.344211
   1 H :    0.121847
   2 H :    0.125745
   3 H :    0.125364
   4 C :   -0.085461
   5 C :   -0.079965
   6 C :   -0.232120
   7 H :    0.119611
   8 H :    0.123509
   9 C :   -0.361591
  10 H :    0.120794
  11 H :    0.124135
  12 H :    0.127888
  13 C :   -0.345129
  14 H :    0.122202
  15 H :    0.125299
  16 H :    0.125490
  17 C :   -0.344452
  18 H :    0.125277
  19 H :    0.125786
  20 H :    0.121782
  21 C :   -0.345841
  22 H :    0.127206
  23 H :    0.125164
  24 H :    0.123535
  25 C :   -0.344773
  26 H :    0.121980
  27 H :    0.124486
  28 H :    0.126443

  Mayer bond orders larger than 0.100000
B(  0-C ,  1-H ) :   0.9238 B(  0-C ,  2-H ) :   0.9250 B(  0-C ,  3-H ) :   0.9252
B(  0-C ,  4-C ) :   0.9780 B(  4-C ,  5-C ) :   0.9290 B(  4-C , 13-C ) :   0.9767
B(  4-C , 17-C ) :   0.9785 B(  5-C ,  6-C ) :   0.9615 B(  5-C , 21-C ) :   0.9696
B(  5-C , 25-C ) :   0.9766 B(  6-C ,  7-H ) :   0.9145 B(  6-C ,  8-H ) :   0.9172
B(  6-C ,  9-C ) :   0.9912 B(  9-C , 10-H ) :   0.9247 B(  9-C , 11-H ) :   0.9258
B(  9-C , 12-H ) :   0.9290 B( 13-C , 14-H ) :   0.9244 B( 13-C , 15-H ) :   0.9253
B( 13-C , 16-H ) :   0.9248 B( 17-C , 18-H ) :   0.9256 B( 17-C , 19-H ) :   0.9250
B( 17-C , 20-H ) :   0.9226 B( 21-C , 22-H ) :   0.9230 B( 21-C , 23-H ) :   0.9258
B( 21-C , 24-H ) :   0.9214 B( 25-C , 26-H ) :   0.9244 B( 25-C , 27-H ) :   0.9203
B( 25-C , 28-H ) :   0.9241

Dispersion correction           -0.017690611
FINAL SINGLE POINT ENERGY      -354.244553318618

DIPOLE MOMENT
-------------
                                X             Y             Z
Electronic contribution:     -0.52037       0.16760       0.03763
Nuclear contribution   :      0.51501      -0.15807      -0.01852
                        -----------------------------------------
Total Dipole Moment    :     -0.00535       0.00953       0.01912
                        -----------------------------------------
Magnitude (a.u.)       :      0.02202
Magnitude (Debye)      :      0.05597

Rotational constants in cm-1:     0.070714     0.038518     0.037210
Rotational constants in MHz :  2119.964148  1154.754717  1115.519705

                             ****ORCA TERMINATED NORMALLY****
TOTAL RUN TIME: 0 days 0 hours 1 minutes 58 seconds 930 msec
