                         Program Version 5.0.3 -  RELEASE  -
|  1> ! PBEh-3c def2/J TightSCF DefGrid3
|  2>
|  3> %maxcore 60000
|  4>
|  5> %pal
|  6> nprocs 4
|  7> end
|  8>
|  9> *xyzfile 0 1 ar3.xyz
| 10>
| 11>                          ****END OF INPUT****

CARTESIAN COORDINATES (ANGSTROEM)
---------------------------------
  Ar     1.136786    1.968971    0.000000
  Ar     1.136786   -1.968971    0.000000
  Ar    -2.273572    0.000000    0.000000

 Total Charge           Charge          ....    0
 Multiplicity           Mult            ....    1
 Number of Electrons    NEL             ....   54
 Basis Dimension        Dim             ....   54

ORBITAL ENERGIES
----------------

  NO   OCC          E(Eh)            E(eV)
   0   2.0000    -115.892570     -3153.5972
   1   2.0000    -115.892568     -3153.5971
   2   2.0000    -115.892551     -3153.5966
   3   2.0000     -11.451571      -311.6131
   4   2.0000     -11.451571      -311.6131
   5   2.0000     -11.451558      -311.6127
   6   2.0000      -8.926299      -242.8969
   7   2.0000      -8.926298      -242.8969
   8   2.0000      -8.926297      -242.8969
   9   2.0000      -8.926297      -242.8969
  10   2.0000      -8.926296      -242.8969
  11   2.0000      -8.926295      -242.8968
  12   2.0000      -8.926290      -242.8967
  13   2.0000      -8.926289      -242.8967
  14   2.0000      -8.926283      -242.8965
  15   2.0000      -1.050401       -28.5829
  16   2.0000      -1.049217       -28.5506
  17   2.0000      -1.049216       -28.5506
  18   2.0000      -0.476334       -12.9617
  19   2.0000      -0.472695       -12.8627
  20   2.0000      -0.472694       -12.8627
  21   2.0000      -0.470858       -12.8127
  22   2.0000      -0.469744       -12.7824
  23   2.0000      -0.469743       -12.7824
  24   2.0000      -0.467575       -12.7234
  25   2.0000      -0.465772       -12.6743
  26   2.0000      -0.465770       -12.6742
  27   0.0000       0.564116        15.3504
  28   0.0000       0.610179        16.6038
  29   0.0000       0.610184        16.6039
  30   0.0000       0.867394        23.6030
  31   0.0000       0.867396        23.6030

MULLIKEN ATOMIC CHARGES
-----------------------
   0 Ar:   -0.000000
   1 Ar:   -0.000000
   2 Ar:    0.000000
Sum of atomic charges:   -0.0000000

LOEWDIN ATOMIC CHARGES
----------------------
   0 Ar:   -0.000000
   1 Ar:   -0.000000
   2 Ar:    0.000000

Dispersion correction           -0.000578525
FINAL SINGLE POINT ENERGY     -1580.923574673482

DIPOLE MOMENT
-------------
                                X             Y             Z
Electronic contribution:     -0.00000       0.00000      -0.00000
Nuclear contribution   :      0.00000       0.00000       0.00000
                        -----------------------------------------
Total Dipole Moment    :     -0.00000       0.00000      -0.00000
                        -----------------------------------------
Magnitude (a.u.)       :      0.00000
Magnitude (Debye)      :      0.00000

Rotational constants in cm-1:     0.054424     0.054424     0.027212
Rotational constants in MHz :  1631.600783  1631.600702   815.800371

                             ****ORCA TERMINATED NORMALLY****
TOTAL RUN TIME: 0 days 0 hours 1 minutes 14 seconds 815 msec
