                         Program Version 5.0.3 -  RELEASE  -
|  1> ! PBEh-3c def2/J TightSCF DefGrid3
|  2>
|  3> %maxcore 60000
|  4>
|  5> %pal
|  6> nprocs 4
|  7> end
|  8>
|  9> *xyzfile 0 1 H2S2O7_3.xyz
| 10>
| 11>                          ****END OF INPUT****

CARTESIAN COORDINATES (ANGSTROEM)
---------------------------------
  O     -1.723438   -1.309123    0.483509
  S     -1.535208    0.243969    0.172209
  O     -2.427591    0.646139   -0.872224
  O     -1.413560    0.890357    1.436983
  O     -0.065867    0.245739   -0.593518
  S      1.361376    0.125916    0.270912
  O      2.275486   -0.135237   -1.009319
  O      1.650089    1.415027    0.822895
  O      1.339461   -1.085266    1.023616
  H     -1.984482   -1.765920   -0.340432
  H      2.523734    0.728399   -1.394631

 Total Charge           Charge          ....    0
 Multiplicity           Mult            ....    1
 Number of Electrons    NEL             ....   90
 Basis Dimension        Dim             ....  145

ORBITAL ENERGIES
----------------

  NO   OCC          E(Eh)            E(eV)
   0   2.0000     -89.920414     -2446.8589
   1   2.0000     -89.919846     -2446.8434
   2   2.0000     -19.610079      -533.6174
   3   2.0000     -19.603843      -533.4477
   4   2.0000     -19.600069      -533.3450
   5   2.0000     -19.546039      -531.8748
   6   2.0000     -19.544516      -531.8333
   7   2.0000     -19.543963      -531.8183
   8   2.0000     -19.543197      -531.7974
   9   2.0000      -8.516408      -231.7432
  10   2.0000      -8.515486      -231.7181
  11   2.0000      -6.410042      -174.4261
  12   2.0000      -6.409381      -174.4081
  13   2.0000      -6.408613      -174.3872
  14   2.0000      -6.407522      -174.3575
  15   2.0000      -6.405403      -174.2999
  16   2.0000      -6.404560      -174.2769
  17   2.0000      -1.351662       -36.7806
  18   2.0000      -1.320199       -35.9244
  19   2.0000      -1.209954       -32.9245
  20   2.0000      -1.203456       -32.7477
  21   2.0000      -1.187264       -32.3071
  22   2.0000      -1.180339       -32.1187
  23   2.0000      -1.179745       -32.1025
  24   2.0000      -0.839443       -22.8424
  25   2.0000      -0.765342       -20.8260
  26   2.0000      -0.720521       -19.6064
  27   2.0000      -0.652931       -17.7671
  28   2.0000      -0.628042       -17.0899
  29   2.0000      -0.613097       -16.6832
  30   2.0000      -0.603293       -16.4164
  31   2.0000      -0.581299       -15.8179
  32   2.0000      -0.550974       -14.9928
  33   2.0000      -0.538924       -14.6649
  34   2.0000      -0.514421       -13.9981
  35   2.0000      -0.502895       -13.6845
  36   2.0000      -0.474296       -12.9062
  37   2.0000      -0.467170       -12.7124
  38   2.0000      -0.458174       -12.4675
  39   2.0000      -0.443054       -12.0561
  40   2.0000      -0.434485       -11.8229
  41   2.0000      -0.423654       -11.5282
  42   2.0000      -0.420830       -11.4514
  43   2.0000      -0.409981       -11.1562
  44   2.0000      -0.405380       -11.0310
  45   0.0000       0.010302         0.2803
  46   0.0000       0.062660         1.7051
  47   0.0000       0.066526         1.8103
  48   0.0000       0.071501         1.9456
  49   0.0000       0.108375         2.9490

MULLIKEN ATOMIC CHARGES
-----------------------
   0 O :   -0.656786
   1 S :    1.624769
   2 O :   -0.557086
   3 O :   -0.541272
   4 O :   -0.681506
   5 S :    1.617014
   6 O :   -0.663231
   7 O :   -0.549843
   8 O :   -0.539041
   9 H :    0.471540
  10 H :    0.475441
Sum of atomic charges:   -0.0000000

LOEWDIN ATOMIC CHARGES
----------------------
   0 O :   -0.453232
   1 S :    1.309184
   2 O :   -0.486897
   3 O :   -0.468486
   4 O :   -0.500252
   5 S :    1.310971
   6 O :   -0.454277
   7 O :   -0.482246
   8 O :   -0.468715
   9 H :    0.346238
  10 H :    0.347712

  Mayer bond orders larger than 0.100000
B(  0-O ,  1-S ) :   1.0268 B(  0-O ,  9-H ) :   0.7328 B(  1-S ,  2-O ) :   1.8040
B(  1-S ,  3-O ) :   1.8209 B(  1-S ,  4-O ) :   0.8294 B(  4-O ,  5-S ) :   0.8041
B(  5-S ,  6-O ) :   1.0188 B(  5-S ,  7-O ) :   1.8120 B(  5-S ,  8-O ) :   1.8267
B(  6-O , 10-H ) :   0.7301

Dispersion correction           -0.006309798
FINAL SINGLE POINT ENERGY     -1322.032261618920

DIPOLE MOMENT
-------------
                                X             Y             Z
Electronic contribution:     -0.27693       0.69982       0.53832
Nuclear contribution   :      0.62289      -1.20613      -1.97895
                        -----------------------------------------
Total Dipole Moment    :      0.34596      -0.50631      -1.44063
                        -----------------------------------------
Magnitude (a.u.)       :      1.56571
Magnitude (Debye)      :      3.97973

Rotational constants in cm-1:     0.084241     0.029505     0.029262
Rotational constants in MHz :  2525.495131   884.526470   877.263474

                             ****ORCA TERMINATED NORMALLY****
TOTAL RUN TIME: 0 days 0 hours 2 minutes 7 seconds 117 msec
