                         Program Version 5.0.3 -  RELEASE  -
|  1> ! PBEh-3c def2/J TightSCF DefGrid3
|  2>
|  3> %maxcore 60000
|  4>
|  5> %pal
|  6> nprocs 4
|  7> end
|  8>
|  9> *xyzfile -1 1 1b.xyz
| 10>
| 11>                          ****END OF INPUT****

CARTESIAN COORDINATES (ANGSTROEM)
---------------------------------
  H     -4.912587   -1.981645    0.534995
  O     -4.198351   -1.470500    0.122066
  C     -4.133261   -1.843263   -1.262377
  H     -5.094820   -1.665690   -1.760008
  H     -3.869753   -2.903941   -1.375136
  C     -3.056086   -1.026869   -1.937438
  H     -2.990149   -1.345649   -2.985633
  O     -3.390903    0.386671   -1.907848
  C     -2.232957    1.171297   -1.709257
  H     -2.148152    1.931153   -2.489140
  N     -2.375603    1.910192   -0.412697
  C     -3.393285    1.645515    0.469760
  H     -4.026548    0.811735    0.191014
  C     -3.578905    2.366506    1.603892
  H     -4.391879    2.133985    2.278532
  C     -2.695057    3.456453    1.924878
  O     -2.761972    4.205283    2.904890
  N     -1.652899    3.619255    0.993792
  H     -0.992861    4.372163    1.170551
  C     -1.433317    2.901143   -0.163379
  O     -0.513809    3.149087   -0.943837
  C     -1.662665   -1.113913   -1.309602
  H     -1.717508   -1.198997   -0.220814
  C     -1.030086    0.215376   -1.745174
  H     -0.204623    0.548361   -1.111008
  O     -0.608269    0.130260   -3.111104
  H     -0.482432   -0.821033   -3.297227
  O     -0.986168   -2.247824   -1.861480
  P      0.031863   -3.161535   -0.925713
  O      0.352019   -4.342949   -1.787766
  O     -0.528232   -3.277952    0.457190
  O      1.347945   -2.204927   -0.753649
  C      2.106846   -1.777877   -1.901370
  H      1.467913   -1.209161   -2.583066
  H      2.514822   -2.646732   -2.430508
  C      3.234149   -0.889302   -1.412436
  H      3.796595   -0.526592   -2.278707
  O      2.663837    0.268858   -0.725773
  C      3.155551    0.341327    0.609535
  H      3.928781    1.105980    0.712447
  N      2.061381    0.753103    1.495934
  C      0.923085   -0.018260    1.564204
  H      0.919221   -0.875147    0.897486
  C     -0.113723    0.271471    2.384762
  H     -0.990484   -0.361189    2.420180
  C     -0.045641    1.426997    3.245920
  O     -0.901416    1.796376    4.053746
  N      1.133550    2.175383    3.086488
  H      1.226497    3.006692    3.664960
  C      2.204381    1.916617    2.254510
  O      3.199253    2.637173    2.215863
  C      4.195983   -1.556147   -0.418590
  H      4.178200   -2.645159   -0.492688
  C      3.705435   -1.060916    0.946926
  H      2.891187   -1.701237    1.294875
  O      4.713273   -1.052354    1.940837
  H      5.547919   -0.897744    1.450763
  O      5.541318   -1.066329   -0.581846
  H      6.073398   -1.763577   -0.995724

 Total Charge           Charge          ....   -1
 Multiplicity           Mult            ....    1
 Number of Electrons    NEL             ....  286
 Basis Dimension        Dim             ....  602

ORBITAL ENERGIES
----------------

  NO   OCC          E(Eh)            E(eV)
   0   2.0000     -77.724585     -2114.9935
   1   2.0000     -19.449075      -529.2362
   2   2.0000     -19.438250      -528.9417
   3   2.0000     -19.427417      -528.6469
   4   2.0000     -19.425723      -528.6008
   5   2.0000     -19.414791      -528.3033
   6   2.0000     -19.404478      -528.0227
   7   2.0000     -19.402688      -527.9740
   8   2.0000     -19.400088      -527.9032
   9   2.0000     -19.387673      -527.5654
  10   2.0000     -19.386962      -527.5461
  11   2.0000     -19.375459      -527.2331
  12   2.0000     -19.374371      -527.2034
  13   2.0000     -19.283275      -524.7246
  14   2.0000     -19.278235      -524.5875
  15   2.0000     -14.622100      -397.8876
  16   2.0000     -14.618958      -397.8021
  17   2.0000     -14.603723      -397.3875
  18   2.0000     -14.602572      -397.3562
  19   2.0000     -10.512619      -286.0629
  20   2.0000     -10.511977      -286.0454
  21   2.0000     -10.473532      -284.9993
  22   2.0000     -10.472553      -284.9727
  23   2.0000     -10.460589      -284.6471
  24   2.0000     -10.452194      -284.4187
  25   2.0000     -10.434465      -283.9362
  26   2.0000     -10.425589      -283.6947
  27   2.0000     -10.423031      -283.6251
  28   2.0000     -10.419680      -283.5339
  29   2.0000     -10.419410      -283.5266
  30   2.0000     -10.419012      -283.5157
  31   2.0000     -10.417465      -283.4736
  32   2.0000     -10.407094      -283.1914
  33   2.0000     -10.406838      -283.1845
  34   2.0000     -10.403854      -283.1033
  35   2.0000     -10.362572      -281.9799
  36   2.0000     -10.357884      -281.8524
  37   2.0000      -6.768939      -184.1922
  38   2.0000      -4.864207      -132.3618
  39   2.0000      -4.862705      -132.3209
  40   2.0000      -4.860318      -132.2560
  41   2.0000      -1.104977       -30.0679
  42   2.0000      -1.101207       -29.9654
  43   2.0000      -1.089574       -29.6488
  44   2.0000      -1.087235       -29.5852
  45   2.0000      -1.068587       -29.0777
  46   2.0000      -1.057803       -28.7843
  47   2.0000      -1.053478       -28.6666
  48   2.0000      -1.050498       -28.5855
  49   2.0000      -1.048492       -28.5309
  50   2.0000      -1.043934       -28.4069
  51   2.0000      -1.034807       -28.1585
  52   2.0000      -1.011634       -27.5280
  53   2.0000      -0.986917       -26.8554
  54   2.0000      -0.986624       -26.8474
  55   2.0000      -0.936585       -25.4858
  56   2.0000      -0.935863       -25.4661
  57   2.0000      -0.913762       -24.8647
  58   2.0000      -0.871282       -23.7088
  59   2.0000      -0.803631       -21.8679
  60   2.0000      -0.799726       -21.7616
  61   2.0000      -0.793363       -21.5885
  62   2.0000      -0.785373       -21.3711
  63   2.0000      -0.761714       -20.7273
  64   2.0000      -0.759039       -20.6545
  65   2.0000      -0.688967       -18.7478
  66   2.0000      -0.686875       -18.6908
  67   2.0000      -0.678106       -18.4522
  68   2.0000      -0.675237       -18.3741
  69   2.0000      -0.635094       -17.2818
  70   2.0000      -0.633708       -17.2441
  71   2.0000      -0.605932       -16.4882
  72   2.0000      -0.599605       -16.3161
  73   2.0000      -0.589961       -16.0537
  74   2.0000      -0.581821       -15.8322
  75   2.0000      -0.553321       -15.0566
  76   2.0000      -0.551662       -15.0115
  77   2.0000      -0.542095       -14.7511
  78   2.0000      -0.537694       -14.6314
  79   2.0000      -0.526374       -14.3234
  80   2.0000      -0.525070       -14.2879
  81   2.0000      -0.518813       -14.1176
  82   2.0000      -0.504044       -13.7157
  83   2.0000      -0.493505       -13.4289
  84   2.0000      -0.489860       -13.3298
  85   2.0000      -0.485684       -13.2161
  86   2.0000      -0.478122       -13.0104
  87   2.0000      -0.468339       -12.7442
  88   2.0000      -0.463142       -12.6027
  89   2.0000      -0.457375       -12.4458
  90   2.0000      -0.451582       -12.2882
  91   2.0000      -0.450336       -12.2543
  92   2.0000      -0.436596       -11.8804
  93   2.0000      -0.434293       -11.8177
  94   2.0000      -0.427294       -11.6273
  95   2.0000      -0.421068       -11.4578
  96   2.0000      -0.420227       -11.4350
  97   2.0000      -0.414789       -11.2870
  98   2.0000      -0.412982       -11.2378
  99   2.0000      -0.412185       -11.2161
 100   2.0000      -0.404475       -11.0063
 101   2.0000      -0.397584       -10.8188
 102   2.0000      -0.393880       -10.7180
 103   2.0000      -0.391543       -10.6544
 104   2.0000      -0.384456       -10.4616
 105   2.0000      -0.382829       -10.4173
 106   2.0000      -0.380473       -10.3532
 107   2.0000      -0.375715       -10.2237
 108   2.0000      -0.370938       -10.0937
 109   2.0000      -0.364568        -9.9204
 110   2.0000      -0.356502        -9.7009
 111   2.0000      -0.353016        -9.6060
 112   2.0000      -0.343042        -9.3346
 113   2.0000      -0.342001        -9.3063
 114   2.0000      -0.336442        -9.1550
 115   2.0000      -0.332348        -9.0437
 116   2.0000      -0.329888        -8.9767
 117   2.0000      -0.322130        -8.7656
 118   2.0000      -0.319814        -8.7026
 119   2.0000      -0.309269        -8.4156
 120   2.0000      -0.302968        -8.2442
 121   2.0000      -0.299804        -8.1581
 122   2.0000      -0.283616        -7.7176
 123   2.0000      -0.269742        -7.3400
 124   2.0000      -0.267844        -7.2884
 125   2.0000      -0.263833        -7.1792
 126   2.0000      -0.259766        -7.0686
 127   2.0000      -0.256502        -6.9798
 128   2.0000      -0.255716        -6.9584
 129   2.0000      -0.250843        -6.8258
 130   2.0000      -0.248438        -6.7603
 131   2.0000      -0.245073        -6.6688
 132   2.0000      -0.240413        -6.5420
 133   2.0000      -0.238383        -6.4867
 134   2.0000      -0.234490        -6.3808
 135   2.0000      -0.226959        -6.1759
 136   2.0000      -0.225464        -6.1352
 137   2.0000      -0.209439        -5.6991
 138   2.0000      -0.196812        -5.3555
 139   2.0000      -0.189656        -5.1608
 140   2.0000      -0.189002        -5.1430
 141   2.0000      -0.174186        -4.7398
 142   2.0000      -0.161939        -4.4066
 143   0.0000       0.078313         2.1310
 144   0.0000       0.081945         2.2298
 145   0.0000       0.130557         3.5526
 146   0.0000       0.134126         3.6498
 147   0.0000       0.159601         4.3430

MULLIKEN ATOMIC CHARGES
-----------------------
   0 H :    0.422958
   1 O :   -0.629218
   2 C :   -0.181125
   3 H :    0.189847
   4 H :    0.226613
   5 C :    0.048395
   6 H :    0.225003
   7 O :   -0.507538
   8 C :    0.220342
   9 H :    0.265660
  10 N :   -0.579385
  11 C :    0.075739
  12 H :    0.314814
  13 C :   -0.462661
  14 H :    0.240589
  15 C :    0.571830
  16 O :   -0.425159
  17 N :   -0.738573
  18 H :    0.385910
  19 C :    0.718526
  20 O :   -0.446097
  21 C :   -0.069283
  22 H :    0.282109
  23 C :   -0.037072
  24 H :    0.281574
  25 O :   -0.657844
  26 H :    0.434844
  27 O :   -0.633756
  28 P :    1.389244
  29 O :   -0.724970
  30 O :   -0.736024
  31 O :   -0.629291
  32 C :   -0.167530
  33 H :    0.216098
  34 H :    0.211765
  35 C :    0.015813
  36 H :    0.224116
  37 O :   -0.476556
  38 C :    0.193638
  39 H :    0.266194
  40 N :   -0.571563
  41 C :    0.057621
  42 H :    0.364049
  43 C :   -0.503447
  44 H :    0.279613
  45 C :    0.565472
  46 O :   -0.418331
  47 N :   -0.740035
  48 H :    0.385907
  49 C :    0.729894
  50 O :   -0.454067
  51 C :   -0.084698
  52 H :    0.250310
  53 C :   -0.014736
  54 H :    0.284260
  55 O :   -0.634647
  56 H :    0.418457
  57 O :   -0.658686
  58 H :    0.425090
Sum of atomic charges:   -1.0000000

LOEWDIN ATOMIC CHARGES
----------------------
   0 H :    0.313657
   1 O :   -0.409292
   2 C :   -0.094277
   3 H :    0.105493
   4 H :    0.127611
   5 C :   -0.014658
   6 H :    0.126028
   7 O :   -0.237079
   8 C :    0.087029
   9 H :    0.138877
  10 N :   -0.096822
  11 C :   -0.007238
  12 H :    0.167286
  13 C :   -0.252176
  14 H :    0.155005
  15 C :    0.128145
  16 O :   -0.274786
  17 N :   -0.199969
  18 H :    0.281138
  19 C :    0.155796
  20 O :   -0.284135
  21 C :   -0.039349
  22 H :    0.148982
  23 C :   -0.038674
  24 H :    0.138465
  25 O :   -0.402092
  26 H :    0.311831
  27 O :   -0.349337
  28 P :    0.805724
  29 O :   -0.602422
  30 O :   -0.602853
  31 O :   -0.359447
  32 C :   -0.092040
  33 H :    0.119106
  34 H :    0.121331
  35 C :   -0.016069
  36 H :    0.126484
  37 O :   -0.242110
  38 C :    0.066260
  39 H :    0.143418
  40 N :   -0.085918
  41 C :   -0.003999
  42 H :    0.176823
  43 C :   -0.248219
  44 H :    0.169691
  45 C :    0.121851
  46 O :   -0.265301
  47 N :   -0.204074
  48 H :    0.280798
  49 C :    0.167289
  50 O :   -0.292897
  51 C :   -0.036887
  52 H :    0.130156
  53 C :   -0.043745
  54 H :    0.150086
  55 O :   -0.389341
  56 H :    0.309047
  57 O :   -0.405996
  58 H :    0.317793

  Mayer bond orders larger than 0.100000
B(  0-H ,  1-O ) :   0.7876 B(  1-O ,  2-C ) :   0.9973 B(  2-C ,  3-H ) :   0.9027
B(  2-C ,  4-H ) :   0.8873 B(  2-C ,  5-C ) :   0.9774 B(  5-C ,  6-H ) :   0.8931
B(  5-C ,  7-O ) :   0.9082 B(  5-C , 21-C ) :   0.9193 B(  7-O ,  8-C ) :   1.0046
B(  8-C ,  9-H ) :   0.8849 B(  8-C , 10-N ) :   0.8330 B(  8-C , 23-C ) :   0.9236
B( 10-N , 11-C ) :   1.0877 B( 10-N , 19-C ) :   1.0325 B( 11-C , 12-H ) :   0.8404
B( 11-C , 13-C ) :   1.5931 B( 13-C , 14-H ) :   0.9210 B( 13-C , 15-C ) :   1.0795
B( 15-C , 16-O ) :   2.0051 B( 15-C , 17-N ) :   0.9699 B( 17-N , 18-H ) :   0.8062
B( 17-N , 19-C ) :   1.0653 B( 19-C , 20-O ) :   1.9539 B( 21-C , 22-H ) :   0.8387
B( 21-C , 23-C ) :   0.9424 B( 21-C , 27-O ) :   0.9344 B( 23-C , 24-H ) :   0.8762
B( 23-C , 25-O ) :   0.9663 B( 25-O , 26-H ) :   0.7363 B( 27-O , 28-P ) :   0.8165
B( 28-P , 29-O ) :   1.7666 B( 28-P , 30-O ) :   1.7107 B( 28-P , 31-O ) :   0.8299
B( 31-O , 32-C ) :   0.9308 B( 32-C , 33-H ) :   0.8786 B( 32-C , 34-H ) :   0.8928
B( 32-C , 35-C ) :   0.9409 B( 35-C , 36-H ) :   0.9020 B( 35-C , 37-O ) :   0.9424
B( 35-C , 51-C ) :   0.9252 B( 37-O , 38-C ) :   0.9864 B( 38-C , 39-H ) :   0.8665
B( 38-C , 40-N ) :   0.9100 B( 38-C , 53-C ) :   0.8898 B( 40-N , 41-C ) :   1.0423
B( 40-N , 49-C ) :   1.0241 B( 41-C , 42-H ) :   0.7958 B( 41-C , 43-C ) :   1.6175
B( 43-C , 44-H ) :   0.9032 B( 43-C , 45-C ) :   1.0698 B( 45-C , 46-O ) :   1.9916
B( 45-C , 47-N ) :   0.9735 B( 47-N , 48-H ) :   0.8064 B( 47-N , 49-C ) :   1.0653
B( 49-C , 50-O ) :   1.9638 B( 51-C , 52-H ) :   0.8987 B( 51-C , 53-C ) :   0.9467
B( 51-C , 57-O ) :   0.9543 B( 53-C , 54-H ) :   0.8744 B( 53-C , 55-O ) :   1.0465
B( 55-O , 56-H ) :   0.7539 B( 57-O , 58-H ) :   0.7886

Dispersion correction           -0.051392121
FINAL SINGLE POINT ENERGY     -2308.307912380430

DIPOLE MOMENT
-------------
                                X             Y             Z
Electronic contribution:     -0.13258       7.17788       7.10398
Nuclear contribution   :      0.46111      -6.71402      -8.79195
                        -----------------------------------------
Total Dipole Moment    :      0.32853       0.46385      -1.68798
                        -----------------------------------------
Magnitude (a.u.)       :      1.78111
Magnitude (Debye)      :      4.52723

Rotational constants in cm-1:     0.004146     0.003380     0.002301
Rotational constants in MHz :   124.282265   101.338552    68.991225

                             ****ORCA TERMINATED NORMALLY****
TOTAL RUN TIME: 0 days 0 hours 17 minutes 15 seconds 918 msec
