                         Program Version 5.0.3 -  RELEASE  -
|  1> ! PBEh-3c def2/J TightSCF DefGrid3
|  2>
|  3> %maxcore 60000
|  4>
|  5> %pal
|  6> nprocs 4
|  7> end
|  8>
|  9> *xyzfile 0 3 s2.xyz
| 10>
| 11>                          ****END OF INPUT****

CARTESIAN COORDINATES (ANGSTROEM)
---------------------------------
  S      0.948442    0.000000    0.000000
  S     -0.948442    0.000000    0.000000

 Total Charge           Charge          ....    0
 Multiplicity           Mult            ....    3
 Number of Electrons    NEL             ....   32
 Basis Dimension        Dim             ....   36

ORBITAL ENERGIES
----------------
                 SPIN UP ORBITALS
  NO   OCC          E(Eh)            E(eV)
   0   1.0000     -89.641150     -2439.2597
   1   1.0000     -89.641027     -2439.2564
   2   1.0000      -8.280517      -225.3243
   3   1.0000      -8.280371      -225.3203
   4   1.0000      -6.170000      -167.8942
   5   1.0000      -6.170000      -167.8942
   6   1.0000      -6.169960      -167.8931
   7   1.0000      -6.169960      -167.8931
   8   1.0000      -6.168288      -167.8476
   9   1.0000      -6.167542      -167.8274
  10   1.0000      -0.936877       -25.4937
  11   1.0000      -0.708358       -19.2754
  12   1.0000      -0.453336       -12.3359
  13   1.0000      -0.438523       -11.9328
  14   1.0000      -0.438523       -11.9328
  15   1.0000      -0.294696        -8.0191
  16   1.0000      -0.294696        -8.0191
  17   0.0000       0.037284         1.0145
  18   0.0000       0.296756         8.0752
  19   0.0000       0.438143        11.9225
  20   0.0000       0.483821        13.1655
  21   0.0000       0.496387        13.5074

                 SPIN DOWN ORBITALS
  NO   OCC          E(Eh)            E(eV)
   0   1.0000     -89.633921     -2439.0630
   1   1.0000     -89.633800     -2439.0597
   2   1.0000      -8.273302      -225.1280
   3   1.0000      -8.273106      -225.1227
   4   1.0000      -6.164420      -167.7424
   5   1.0000      -6.163648      -167.7214
   6   1.0000      -6.154487      -167.4721
   7   1.0000      -6.154487      -167.4721
   8   1.0000      -6.154431      -167.4706
   9   1.0000      -6.154431      -167.4706
  10   1.0000      -0.899069       -24.4649
  11   1.0000      -0.633735       -17.2448
  12   1.0000      -0.424678       -11.5561
  13   1.0000      -0.368057       -10.0153
  14   1.0000      -0.368057       -10.0153
  15   0.0000      -0.111050        -3.0218
  16   0.0000      -0.111050        -3.0218
  17   0.0000       0.062164         1.6916
  18   0.0000       0.307560         8.3691
  19   0.0000       0.462526        12.5860

MULLIKEN ATOMIC CHARGES AND SPIN POPULATIONS
--------------------------------------------
   0 S :    0.000000    1.000000
   1 S :   -0.000000    1.000000
Sum of atomic charges         :    0.0000000

LOEWDIN ATOMIC CHARGES AND SPIN POPULATIONS
-------------------------------------------
   0 S :    0.000000    1.000000
   1 S :   -0.000000    1.000000

  Mayer bond orders larger than 0.100000
B(  0-S ,  1-S ) :   1.9947

Dispersion correction           -0.000533356
FINAL SINGLE POINT ENERGY      -795.463442651780

DIPOLE MOMENT
-------------
                                X             Y             Z
Electronic contribution:     -0.00000      -0.00000       0.00000
Nuclear contribution   :      0.00000       0.00000       0.00000
                        -----------------------------------------
Total Dipole Moment    :     -0.00000      -0.00000       0.00000
                        -----------------------------------------
Magnitude (a.u.)       :      0.00000
Magnitude (Debye)      :      0.00000

Rotational constants in cm-1:     0.000000     0.292268     0.292268
Rotational constants in MHz :     0.000000  8761.987445  8761.987445

                             ****ORCA TERMINATED NORMALLY****
TOTAL RUN TIME: 0 days 0 hours 0 minutes 38 seconds 698 msec
