                         Program Version 5.0.3 -  RELEASE  -
|  1> ! PBEh-3c def2/J TightSCF DefGrid3
|  2>
|  3> %maxcore 60000
|  4>
|  5> %pal
|  6> nprocs 4
|  7> end
|  8>
|  9> *xyzfile 1 1 A0.xyz
| 10>
| 11>                          ****END OF INPUT****

CARTESIAN COORDINATES (ANGSTROEM)
---------------------------------
  N     -1.724253    0.542656    0.000000
  N      0.133191    1.983198    0.000000
  N      1.366436   -1.358737    0.000000
  N      2.196639    0.705679    0.000000
  N     -1.612857   -1.799409    0.000000
  C      2.448228   -0.641266    0.000000
  C      0.856989    0.854084    0.000000
  C     -1.022439   -0.620264    0.000000
  C     -1.135604    1.782582    0.000000
  C      0.364186   -0.443055    0.000000
  H      2.880124    1.450763    0.000000
  H     -2.611397   -1.931174    0.000000
  H     -1.035968   -2.628839    0.000000
  H     -1.821988    2.620199    0.000000
  H      3.455151   -1.032427    0.000000
  H     -2.736436    0.516009    0.000000

 Total Charge           Charge          ....    1
 Multiplicity           Mult            ....    1
 Number of Electrons    NEL             ....   70
 Basis Dimension        Dim             ....  162

ORBITAL ENERGIES
----------------

  NO   OCC          E(Eh)            E(eV)
   0   2.0000     -14.909208      -405.7002
   1   2.0000     -14.870718      -404.6528
   2   2.0000     -14.860965      -404.3874
   3   2.0000     -14.826922      -403.4611
   4   2.0000     -14.799930      -402.7266
   5   2.0000     -10.757108      -292.7158
   6   2.0000     -10.718074      -291.6536
   7   2.0000     -10.700589      -291.1778
   8   2.0000     -10.679737      -290.6104
   9   2.0000     -10.651453      -289.8408
  10   2.0000      -1.341426       -36.5021
  11   2.0000      -1.308037       -35.5935
  12   2.0000      -1.247569       -33.9481
  13   2.0000      -1.192309       -32.4444
  14   2.0000      -1.158109       -31.5137
  15   2.0000      -1.055095       -28.7106
  16   2.0000      -0.952281       -25.9129
  17   2.0000      -0.943412       -25.6715
  18   2.0000      -0.882348       -24.0099
  19   2.0000      -0.852578       -23.1998
  20   2.0000      -0.830643       -22.6029
  21   2.0000      -0.809104       -22.0168
  22   2.0000      -0.769003       -20.9256
  23   2.0000      -0.750313       -20.4171
  24   2.0000      -0.726256       -19.7624
  25   2.0000      -0.710558       -19.3353
  26   2.0000      -0.672517       -18.3001
  27   2.0000      -0.666443       -18.1348
  28   2.0000      -0.661167       -17.9913
  29   2.0000      -0.612618       -16.6702
  30   2.0000      -0.546402       -14.8684
  31   2.0000      -0.535221       -14.5641
  32   2.0000      -0.509192       -13.8558
  33   2.0000      -0.494687       -13.4611
  34   2.0000      -0.445445       -12.1212
  35   0.0000      -0.179573        -4.8864
  36   0.0000      -0.174205        -4.7404
  37   0.0000      -0.085754        -2.3335
  38   0.0000      -0.064502        -1.7552
  39   0.0000      -0.035804        -0.9743

MULLIKEN ATOMIC CHARGES
-----------------------
   0 N :   -0.668755
   1 N :   -0.347176
   2 N :   -0.373499
   3 N :   -0.643353
   4 N :   -0.796480
   5 C :    0.151163
   6 C :    0.522427
   7 C :    0.640079
   8 C :    0.166583
   9 C :    0.049373
  10 H :    0.419509
  11 H :    0.408089
  12 H :    0.440763
  13 H :    0.312286
  14 H :    0.300628
  15 H :    0.418364
Sum of atomic charges:    1.0000000

LOEWDIN ATOMIC CHARGES
----------------------
   0 N :   -0.122218
   1 N :   -0.115116
   2 N :   -0.146778
   3 N :   -0.109937
   4 N :   -0.283187
   5 C :    0.037959
   6 C :    0.078250
   7 C :    0.154754
   8 C :    0.060997
   9 C :   -0.076232
  10 H :    0.300923
  11 H :    0.284795
  12 H :    0.305181
  13 H :    0.168056
  14 H :    0.164524
  15 H :    0.298030

  Mayer bond orders larger than 0.100000
B(  0-N ,  7-C ) :   1.1149 B(  0-N ,  8-C ) :   1.1131 B(  0-N , 15-H ) :   0.7895
B(  1-N ,  6-C ) :   1.3110 B(  1-N ,  8-C ) :   1.7293 B(  2-N ,  5-C ) :   1.6748
B(  2-N ,  9-C ) :   1.3348 B(  3-N ,  5-C ) :   1.1580 B(  3-N ,  6-C ) :   1.1242
B(  3-N , 10-H ) :   0.7884 B(  4-N ,  7-C ) :   1.2551 B(  4-N , 11-H ) :   0.8040
B(  4-N , 12-H ) :   0.7838 B(  5-C , 14-H ) :   0.8830 B(  6-C ,  9-C ) :   1.2345
B(  7-C ,  9-C ) :   1.1852 B(  8-C , 13-H ) :   0.8709

Dispersion correction           -0.009288477
FINAL SINGLE POINT ENERGY      -466.684460366528

DIPOLE MOMENT
-------------
                                X             Y             Z
Electronic contribution:      1.11854       1.22184       0.00000
Nuclear contribution   :     -2.63784      -1.40867       0.00000
                        -----------------------------------------
Total Dipole Moment    :     -1.51930      -0.18683       0.00000
                        -----------------------------------------
Magnitude (a.u.)       :      1.53075
Magnitude (Debye)      :      3.89085

Rotational constants in cm-1:     0.077894     0.052937     0.031517
Rotational constants in MHz :  2335.190797  1587.000855   944.867084

                             ****ORCA TERMINATED NORMALLY****
TOTAL RUN TIME: 0 days 0 hours 1 minutes 58 seconds 115 msec
