                         Program Version 5.0.3 -  RELEASE  -
|  1> ! PBEh-3c def2/J TightSCF DefGrid3
|  2>
|  3> %maxcore 60000
|  4>
|  5> %pal
|  6> nprocs 4
|  7> end
|  8>
|  9> *xyzfile 0 1 10.xyz
| 10>
| 11>                          ****END OF INPUT****

CARTESIAN COORDINATES (ANGSTROEM)
---------------------------------
  N      0.562126    2.481969   -0.711393
  C      1.379671    1.522918   -1.265931
  C      0.738136    0.302964   -1.259568
  C     -0.545778    0.525405   -0.658908
  C     -1.629947   -0.331139   -0.363669
  C     -2.751301    0.216014    0.242558
  C     -2.812584    1.595880    0.560102
  C     -1.761112    2.446947    0.279955
  C     -0.623865    1.898099   -0.329132
  H      0.804905    3.448528   -0.591942
  H      2.369603    1.777391   -1.608045
  H     -1.575433   -1.380187   -0.614835
  H     -3.713393    1.964208    1.030819
  H     -1.821999    3.498462    0.528934
  O     -3.874712   -0.488624    0.585471
  C     -3.863259   -1.873265    0.284554
  H     -3.057447   -2.387687    0.813407
  H     -3.758170   -2.045406   -0.789065
  H     -4.820121   -2.261160    0.620417
  C      1.320184   -1.017918   -1.647687
  C      1.984622   -1.721882   -0.448532
  N      3.135967   -0.997565    0.056357
  C      3.135184   -0.012388    1.014574
  C      1.962212    0.017519    1.971080
  H      2.067831   -0.889116   -2.434241
  H      0.543544   -1.671678   -2.053768
  H      2.308226   -2.722610   -0.742188
  H      1.262568   -1.838705    0.357432
  H      3.924486   -0.914692   -0.568688
  O      4.075101    0.764920    1.113220
  H      1.799885   -0.960238    2.424868
  H      1.046746    0.310251    1.457444
  H      2.188120    0.742785    2.746404

 Total Charge           Charge          ....    0
 Multiplicity           Mult            ....    1
 Number of Electrons    NEL             ....  124
 Basis Dimension        Dim             ....  287

ORBITAL ENERGIES
----------------

  NO   OCC          E(Eh)            E(eV)
   0   2.0000     -19.523179      -531.2527
   1   2.0000     -19.443542      -529.0857
   2   2.0000     -14.686754      -399.6469
   3   2.0000     -14.649109      -398.6225
   4   2.0000     -10.538209      -286.7592
   5   2.0000     -10.504165      -285.8329
   6   2.0000     -10.489715      -285.4397
   7   2.0000     -10.482042      -285.2309
   8   2.0000     -10.479866      -285.1717
   9   2.0000     -10.478775      -285.1420
  10   2.0000     -10.455219      -284.5010
  11   2.0000     -10.451689      -284.4049
  12   2.0000     -10.448859      -284.3279
  13   2.0000     -10.445681      -284.2414
  14   2.0000     -10.442962      -284.1675
  15   2.0000     -10.442924      -284.1664
  16   2.0000     -10.425787      -283.7001
  17   2.0000      -1.171548       -31.8794
  18   2.0000      -1.129093       -30.7242
  19   2.0000      -1.089189       -29.6383
  20   2.0000      -1.014553       -27.6074
  21   2.0000      -0.940437       -25.5906
  22   2.0000      -0.900214       -24.4961
  23   2.0000      -0.844426       -22.9780
  24   2.0000      -0.835755       -22.7421
  25   2.0000      -0.816616       -22.2213
  26   2.0000      -0.805120       -21.9084
  27   2.0000      -0.779453       -21.2100
  28   2.0000      -0.730664       -19.8824
  29   2.0000      -0.693445       -18.8696
  30   2.0000      -0.672147       -18.2901
  31   2.0000      -0.641170       -17.4471
  32   2.0000      -0.636610       -17.3230
  33   2.0000      -0.613820       -16.7029
  34   2.0000      -0.581729       -15.8296
  35   2.0000      -0.560042       -15.2395
  36   2.0000      -0.547394       -14.8954
  37   2.0000      -0.538822       -14.6621
  38   2.0000      -0.532491       -14.4898
  39   2.0000      -0.528331       -14.3766
  40   2.0000      -0.519915       -14.1476
  41   2.0000      -0.509949       -13.8764
  42   2.0000      -0.494992       -13.4694
  43   2.0000      -0.480198       -13.0669
  44   2.0000      -0.477184       -12.9848
  45   2.0000      -0.466278       -12.6881
  46   2.0000      -0.459119       -12.4933
  47   2.0000      -0.453422       -12.3383
  48   2.0000      -0.446616       -12.1530
  49   2.0000      -0.442697       -12.0464
  50   2.0000      -0.431018       -11.7286
  51   2.0000      -0.418703       -11.3935
  52   2.0000      -0.417741       -11.3673
  53   2.0000      -0.406535       -11.0624
  54   2.0000      -0.401493       -10.9252
  55   2.0000      -0.380387       -10.3509
  56   2.0000      -0.352963        -9.6046
  57   2.0000      -0.325296        -8.8517
  58   2.0000      -0.298562        -8.1243
  59   2.0000      -0.289259        -7.8711
  60   2.0000      -0.246437        -6.7059
  61   2.0000      -0.241660        -6.5759
  62   0.0000       0.003991         0.1086
  63   0.0000       0.054987         1.4963
  64   0.0000       0.071741         1.9522
  65   0.0000       0.084586         2.3017
  66   0.0000       0.125230         3.4077

MULLIKEN ATOMIC CHARGES
-----------------------
   0 N :   -0.691447
   1 C :   -0.043105
   2 C :    0.000089
   3 C :    0.081948
   4 C :   -0.486762
   5 C :    0.392670
   6 C :   -0.317419
   7 C :   -0.255079
   8 C :    0.340587
   9 H :    0.362180
  10 H :    0.253286
  11 H :    0.217851
  12 H :    0.235923
  13 H :    0.216955
  14 O :   -0.465869
  15 C :   -0.404157
  16 H :    0.202175
  17 H :    0.205239
  18 H :    0.241881
  19 C :   -0.530731
  20 C :   -0.288661
  21 N :   -0.597706
  22 C :    0.494724
  23 C :   -0.782566
  24 H :    0.228866
  25 H :    0.225731
  26 H :    0.233053
  27 H :    0.239392
  28 H :    0.349409
  29 O :   -0.427121
  30 H :    0.230578
  31 H :    0.274820
  32 H :    0.263265
Sum of atomic charges:    0.0000000

LOEWDIN ATOMIC CHARGES
----------------------
   0 N :   -0.150827
   1 C :   -0.073355
   2 C :   -0.118026
   3 C :   -0.057269
   4 C :   -0.200974
   5 C :    0.060224
   6 C :   -0.157237
   7 C :   -0.144482
   8 C :   -0.000852
   9 H :    0.264613
  10 H :    0.141892
  11 H :    0.138153
  12 H :    0.146880
  13 H :    0.138942
  14 O :   -0.190212
  15 C :   -0.179910
  16 H :    0.111692
  17 H :    0.113096
  18 H :    0.130643
  19 C :   -0.236311
  20 C :   -0.145497
  21 N :   -0.248221
  22 C :    0.108974
  23 C :   -0.399003
  24 H :    0.133022
  25 H :    0.134048
  26 H :    0.123388
  27 H :    0.133805
  28 H :    0.252528
  29 O :   -0.282092
  30 H :    0.140468
  31 H :    0.158843
  32 H :    0.153054

  Mayer bond orders larger than 0.100000
B(  0-N ,  1-C ) :   1.1456 B(  0-N ,  8-C ) :   1.0092 B(  0-N ,  9-H ) :   0.8322
B(  1-C ,  2-C ) :   1.5424 B(  1-C , 10-H ) :   0.9053 B(  2-C ,  3-C ) :   1.2598
B(  2-C , 19-C ) :   0.9530 B(  3-C ,  4-C ) :   1.2520 B(  3-C ,  8-C ) :   1.2573
B(  4-C ,  5-C ) :   1.4235 B(  4-C , 11-H ) :   0.9157 B(  5-C ,  6-C ) :   1.2983
B(  5-C , 14-O ) :   1.0268 B(  6-C ,  7-C ) :   1.5289 B(  6-C , 12-H ) :   0.9081
B(  7-C ,  8-C ) :   1.2746 B(  7-C , 13-H ) :   0.9194 B( 14-O , 15-C ) :   0.9572
B( 15-C , 16-H ) :   0.9074 B( 15-C , 17-H ) :   0.9067 B( 15-C , 18-H ) :   0.9229
B( 19-C , 20-C ) :   0.9465 B( 19-C , 24-H ) :   0.9265 B( 19-C , 25-H ) :   0.9144
B( 20-C , 21-N ) :   0.9739 B( 20-C , 26-H ) :   0.9134 B( 20-C , 27-H ) :   0.9041
B( 21-N , 22-C ) :   1.1344 B( 21-N , 28-H ) :   0.8266 B( 22-C , 23-C ) :   0.9329
B( 22-C , 29-O ) :   2.0256 B( 23-C , 30-H ) :   0.9120 B( 23-C , 31-H ) :   0.8861
B( 23-C , 32-H ) :   0.9190

Dispersion correction           -0.023005284
FINAL SINGLE POINT ENERGY      -763.327871176884

DIPOLE MOMENT
-------------
                                X             Y             Z
Electronic contribution:      0.62067       8.50805      -1.34487
Nuclear contribution   :     -1.21782      -9.05149       0.61990
                        -----------------------------------------
Total Dipole Moment    :     -0.59715      -0.54344      -0.72497
                        -----------------------------------------
Magnitude (a.u.)       :      1.08512
Magnitude (Debye)      :      2.75816

Rotational constants in cm-1:     0.026159     0.010071     0.008903
Rotational constants in MHz :   784.216537   301.927904   266.899728

                             ****ORCA TERMINATED NORMALLY****
TOTAL RUN TIME: 0 days 0 hours 4 minutes 52 seconds 669 msec
