                         Program Version 5.0.3 -  RELEASE  -
|  1> ! PBEh-3c def2/J TightSCF DefGrid3
|  2>
|  3> %maxcore 60000
|  4>
|  5> %pal
|  6> nprocs 4
|  7> end
|  8>
|  9> *xyzfile 0 1 i3p.xyz
| 10>
| 11>                          ****END OF INPUT****

CARTESIAN COORDINATES (ANGSTROEM)
---------------------------------
  C      3.071974    0.266486   -1.066015
  O      4.016488   -0.480225   -1.114550
  C      2.149823    0.469468    0.135078
  O      2.604722   -0.276224    1.248324
  C      0.707269    0.055065   -0.270772
  H      0.474616    0.493243   -1.251905
  C     -0.343610    0.581617    0.732028
  O     -0.005133    0.231961    2.089781
  C     -1.777882    0.097542    0.421279
  H     -2.466842    0.625557    1.091614
  C     -2.221038    0.346706   -1.024247
  O     -3.604046    0.055703   -1.203793
  H      2.765381    0.891618   -1.944490
  H      2.133775    1.558547    0.337512
  H      1.925219   -0.133161    1.935889
  O      0.635910   -1.374450   -0.424330
  H     -0.324464    1.679337    0.678639
  H     -0.482835   -0.594912    2.277301
  O     -1.920978   -1.298444    0.761590
  H     -1.598108   -0.260689   -1.704042
  H     -2.086763    1.405628   -1.282717
  H     -3.742267   -0.836114   -0.849518
  H      1.308685   -1.749591    0.170796
  H     -1.219896   -1.754668    0.256549

 Total Charge           Charge          ....    0
 Multiplicity           Mult            ....    1
 Number of Electrons    NEL             ....   96
 Basis Dimension        Dim             ....  204

ORBITAL ENERGIES
----------------

  NO   OCC          E(Eh)            E(eV)
   0   2.0000     -19.532419      -531.5041
   1   2.0000     -19.530163      -531.4427
   2   2.0000     -19.516903      -531.0819
   3   2.0000     -19.514391      -531.0136
   4   2.0000     -19.513224      -530.9818
   5   2.0000     -19.497801      -530.5621
   6   2.0000     -10.551629      -287.1244
   7   2.0000     -10.533723      -286.6372
   8   2.0000     -10.528969      -286.5078
   9   2.0000     -10.528157      -286.4857
  10   2.0000     -10.516729      -286.1747
  11   2.0000     -10.502939      -285.7995
  12   2.0000      -1.187437       -32.3118
  13   2.0000      -1.173461       -31.9315
  14   2.0000      -1.156474       -31.4693
  15   2.0000      -1.146182       -31.1892
  16   2.0000      -1.138176       -30.9713
  17   2.0000      -1.123758       -30.5790
  18   2.0000      -0.901903       -24.5420
  19   2.0000      -0.856420       -23.3044
  20   2.0000      -0.793137       -21.5824
  21   2.0000      -0.737596       -20.0710
  22   2.0000      -0.692226       -18.8364
  23   2.0000      -0.664415       -18.0797
  24   2.0000      -0.633327       -17.2337
  25   2.0000      -0.603929       -16.4337
  26   2.0000      -0.590502       -16.0684
  27   2.0000      -0.584176       -15.8962
  28   2.0000      -0.579411       -15.7666
  29   2.0000      -0.552387       -15.0312
  30   2.0000      -0.541454       -14.7337
  31   2.0000      -0.530874       -14.4458
  32   2.0000      -0.517762       -14.0890
  33   2.0000      -0.504158       -13.7188
  34   2.0000      -0.493415       -13.4265
  35   2.0000      -0.482711       -13.1352
  36   2.0000      -0.463516       -12.6129
  37   2.0000      -0.454997       -12.3811
  38   2.0000      -0.437211       -11.8971
  39   2.0000      -0.434108       -11.8127
  40   2.0000      -0.411762       -11.2046
  41   2.0000      -0.402205       -10.9446
  42   2.0000      -0.399485       -10.8705
  43   2.0000      -0.371193       -10.1007
  44   2.0000      -0.364147        -9.9089
  45   2.0000      -0.344958        -9.3868
  46   2.0000      -0.332835        -9.0569
  47   2.0000      -0.320117        -8.7108
  48   0.0000      -0.004209        -0.1145
  49   0.0000       0.081542         2.2189
  50   0.0000       0.117060         3.1854
  51   0.0000       0.125330         3.4104
  52   0.0000       0.131102         3.5675

MULLIKEN ATOMIC CHARGES
-----------------------
   0 C :    0.177275
   1 O :   -0.286868
   2 C :   -0.090699
   3 O :   -0.629438
   4 C :   -0.038136
   5 H :    0.232919
   6 C :    0.018360
   7 O :   -0.656676
   8 C :   -0.078976
   9 H :    0.256513
  10 C :   -0.148187
  11 O :   -0.620093
  12 H :    0.149105
  13 H :    0.224959
  14 H :    0.442757
  15 O :   -0.654418
  16 H :    0.224820
  17 H :    0.438006
  18 O :   -0.659952
  19 H :    0.191698
  20 H :    0.205976
  21 H :    0.423518
  22 H :    0.442096
  23 H :    0.435441
Sum of atomic charges:   -0.0000000

LOEWDIN ATOMIC CHARGES
----------------------
   0 C :    0.063761
   1 O :   -0.149887
   2 C :   -0.070939
   3 O :   -0.389378
   4 C :   -0.049786
   5 H :    0.128200
   6 C :   -0.044718
   7 O :   -0.400285
   8 C :   -0.056100
   9 H :    0.138099
  10 C :   -0.106164
  11 O :   -0.403241
  12 H :    0.084446
  13 H :    0.128171
  14 H :    0.316685
  15 O :   -0.401559
  16 H :    0.129788
  17 H :    0.321189
  18 O :   -0.418540
  19 H :    0.106973
  20 H :    0.122631
  21 H :    0.315542
  22 H :    0.324257
  23 H :    0.310854

  Mayer bond orders larger than 0.100000
B(  0-C ,  1-O ) :   2.1708 B(  0-C ,  2-C ) :   0.8747 B(  0-C , 12-H ) :   0.8642
B(  2-C ,  3-O ) :   1.0421 B(  2-C ,  4-C ) :   0.9029 B(  2-C , 13-H ) :   0.8733
B(  3-O , 14-H ) :   0.7166 B(  4-C ,  5-H ) :   0.8830 B(  4-C ,  6-C ) :   0.8983
B(  4-C , 15-O ) :   0.9708 B(  6-C ,  7-O ) :   0.9691 B(  6-C ,  8-C ) :   0.9353
B(  6-C , 16-H ) :   0.8898 B(  7-O , 17-H ) :   0.7472 B(  8-C ,  9-H ) :   0.8910
B(  8-C , 10-C ) :   0.9441 B(  8-C , 18-O ) :   0.9908 B( 10-C , 11-O ) :   1.0325
B( 10-C , 19-H ) :   0.8952 B( 10-C , 20-H ) :   0.9037 B( 11-O , 21-H ) :   0.7750
B( 15-O , 22-H ) :   0.7441 B( 18-O , 23-H ) :   0.7294

Dispersion correction           -0.013710458
FINAL SINGLE POINT ENERGY      -685.694828071025

DIPOLE MOMENT
-------------
                                X             Y             Z
Electronic contribution:      5.24227      -2.32898       0.95464
Nuclear contribution   :     -5.81316       2.90364      -0.78465
                        -----------------------------------------
Total Dipole Moment    :     -0.57089       0.57466       0.16999
                        -----------------------------------------
Magnitude (a.u.)       :      0.82768
Magnitude (Debye)      :      2.10379

Rotational constants in cm-1:     0.057875     0.016300     0.014568
Rotational constants in MHz :  1735.044094   488.647321   436.725295

                             ****ORCA TERMINATED NORMALLY****
TOTAL RUN TIME: 0 days 0 hours 2 minutes 4 seconds 418 msec
