                         Program Version 5.0.3 -  RELEASE  -
|  1> ! PBEh-3c def2/J TightSCF DefGrid3
|  2>
|  3> %maxcore 60000
|  4>
|  5> %pal
|  6> nprocs 4
|  7> end
|  8>
|  9> *xyzfile 0 1 21a.xyz
| 10>
| 11>                          ****END OF INPUT****

CARTESIAN COORDINATES (ANGSTROEM)
---------------------------------
  C      1.474597   -1.938934    0.000000
  C      0.100833   -2.031062    0.000000
  C     -0.402523   -0.696695    0.000000
  C      0.726644    0.169977    0.000000
  C      0.601109    1.562156    0.000000
  C     -0.681941    2.087034    0.000000
  C     -1.814743    1.247868    0.000000
  C     -1.689108   -0.131333    0.000000
  H      2.797234   -0.285498    0.000000
  H      2.221712   -2.714930    0.000000
  H     -0.467867   -2.945218    0.000000
  H      1.471836    2.204341    0.000000
  H     -0.817048    3.160175    0.000000
  H     -2.799891    1.694326    0.000000
  H     -2.567310   -0.763903    0.000000
  N      1.846469   -0.618305    0.000000

 Total Charge           Charge          ....    0
 Multiplicity           Mult            ....    1
 Number of Electrons    NEL             ....   62
 Basis Dimension        Dim             ....  149

ORBITAL ENERGIES
----------------

  NO   OCC          E(Eh)            E(eV)
   0   2.0000     -14.685344      -399.6085
   1   2.0000     -10.478501      -285.1345
   2   2.0000     -10.476512      -285.0804
   3   2.0000     -10.444736      -284.2157
   4   2.0000     -10.440880      -284.1108
   5   2.0000     -10.439831      -284.0822
   6   2.0000     -10.439271      -284.0670
   7   2.0000     -10.433757      -283.9170
   8   2.0000     -10.430712      -283.8341
   9   2.0000      -1.089192       -29.6384
  10   2.0000      -0.934204       -25.4210
  11   2.0000      -0.873366       -23.7655
  12   2.0000      -0.822486       -22.3810
  13   2.0000      -0.801934       -21.8217
  14   2.0000      -0.700667       -19.0661
  15   2.0000      -0.668693       -18.1960
  16   2.0000      -0.654666       -17.8144
  17   2.0000      -0.608205       -16.5501
  18   2.0000      -0.547554       -14.8997
  19   2.0000      -0.534019       -14.5314
  20   2.0000      -0.497452       -13.5364
  21   2.0000      -0.489336       -13.3155
  22   2.0000      -0.483873       -13.1668
  23   2.0000      -0.468357       -12.7446
  24   2.0000      -0.449041       -12.2190
  25   2.0000      -0.409451       -11.1417
  26   2.0000      -0.387947       -10.5566
  27   2.0000      -0.385585       -10.4923
  28   2.0000      -0.323559        -8.8045
  29   2.0000      -0.258945        -7.0462
  30   2.0000      -0.240764        -6.5515
  31   0.0000       0.011125         0.3027
  32   0.0000       0.052437         1.4269
  33   0.0000       0.098188         2.6718
  34   0.0000       0.126337         3.4378
  35   0.0000       0.157499         4.2858

MULLIKEN ATOMIC CHARGES
-----------------------
   0 C :   -0.008036
   1 C :   -0.368576
   2 C :    0.095228
   3 C :    0.366533
   4 C :   -0.271654
   5 C :   -0.241983
   6 C :   -0.228691
   7 C :   -0.307863
   8 H :    0.359901
   9 H :    0.237276
  10 H :    0.212147
  11 H :    0.209867
  12 H :    0.213603
  13 H :    0.211899
  14 H :    0.208792
  15 N :   -0.688442
Sum of atomic charges:   -0.0000000

LOEWDIN ATOMIC CHARGES
----------------------
   0 C :   -0.080842
   1 C :   -0.201056
   2 C :   -0.062943
   3 C :    0.015516
   4 C :   -0.162961
   5 C :   -0.143713
   6 C :   -0.157341
   7 C :   -0.128345
   8 H :    0.262435
   9 H :    0.134572
  10 H :    0.139345
  11 H :    0.134288
  12 H :    0.133943
  13 H :    0.133089
  14 H :    0.136029
  15 N :   -0.152015

  Mayer bond orders larger than 0.100000
B(  0-C ,  1-C ) :   1.5840 B(  0-C ,  9-H ) :   0.9111 B(  0-C , 15-N ) :   1.1487
B(  1-C ,  2-C ) :   1.2496 B(  1-C , 10-H ) :   0.9349 B(  2-C ,  3-C ) :   1.2400
B(  2-C ,  7-C ) :   1.2831 B(  3-C ,  4-C ) :   1.2936 B(  3-C , 15-N ) :   1.0241
B(  4-C ,  5-C ) :   1.4988 B(  4-C , 11-H ) :   0.9208 B(  5-C ,  6-C ) :   1.3579
B(  5-C , 12-H ) :   0.9209 B(  6-C ,  7-C ) :   1.5021 B(  6-C , 13-H ) :   0.9213
B(  7-C , 14-H ) :   0.9311 B(  8-H , 15-N ) :   0.8321

Dispersion correction           -0.009398635
FINAL SINGLE POINT ENERGY      -363.014981236921

DIPOLE MOMENT
-------------
                                X             Y             Z
Electronic contribution:      1.34555      -0.70852       0.00000
Nuclear contribution   :     -0.44757       0.60916       0.00000
                        -----------------------------------------
Total Dipole Moment    :      0.89799      -0.09936       0.00000
                        -----------------------------------------
Magnitude (a.u.)       :      0.90347
Magnitude (Debye)      :      2.29643

Rotational constants in cm-1:     0.129507     0.054848     0.038530
Rotational constants in MHz :  3882.532957  1644.305472  1155.103459

                             ****ORCA TERMINATED NORMALLY****
TOTAL RUN TIME: 0 days 0 hours 1 minutes 52 seconds 691 msec
