                         Program Version 5.0.3 -  RELEASE  -
|  1> ! PBEh-3c def2/J TightSCF DefGrid3
|  2>
|  3> %maxcore 60000
|  4>
|  5> %pal
|  6> nprocs 4
|  7> end
|  8>
|  9> *xyzfile 0 1 pbh4_bih3.xyz
| 10>
| 11>                          ****END OF INPUT****

CARTESIAN COORDINATES (ANGSTROEM)
---------------------------------
  Pb    -0.000000   -2.635533    0.000000
  H      1.624384   -3.208530    0.000000
  H     -0.812192   -3.208530   -1.406757
  H     -0.812192   -3.208530    1.406757
  H     -0.000000   -0.911226    0.000000
  Bi    -0.000000    2.525944    0.000000
  H      0.718095    3.548802   -1.243777
  H     -1.436189    3.548802    0.000000
  H      0.718095    3.548802    1.243777

 Total Charge           Charge          ....    0
 Multiplicity           Mult            ....    1
 Number of Electrons    NEL             ....   52
 Basis Dimension        Dim             ....   66

ORBITAL ENERGIES
----------------

  NO   OCC          E(Eh)            E(eV)
   0   2.0000      -6.169737      -167.8871
   1   2.0000      -5.699722      -155.0973
   2   2.0000      -3.860336      -105.0451
   3   2.0000      -3.860336      -105.0451
   4   2.0000      -3.856161      -104.9315
   5   2.0000      -3.492112       -95.0252
   6   2.0000      -3.492112       -95.0252
   7   2.0000      -3.492065       -95.0239
   8   2.0000      -1.141141       -31.0520
   9   2.0000      -1.141140       -31.0520
  10   2.0000      -1.134386       -30.8682
  11   2.0000      -1.134386       -30.8682
  12   2.0000      -1.130748       -30.7692
  13   2.0000      -0.935205       -25.4482
  14   2.0000      -0.935205       -25.4482
  15   2.0000      -0.935129       -25.4462
  16   2.0000      -0.923753       -25.1366
  17   2.0000      -0.923753       -25.1366
  18   2.0000      -0.683089       -18.5878
  19   2.0000      -0.627356       -17.0712
  20   2.0000      -0.369060       -10.0426
  21   2.0000      -0.369058       -10.0426
  22   2.0000      -0.367449        -9.9988
  23   2.0000      -0.364259        -9.9120
  24   2.0000      -0.364258        -9.9120
  25   2.0000      -0.307474        -8.3668
  26   0.0000       0.027467         0.7474
  27   0.0000       0.027468         0.7475
  28   0.0000       0.041605         1.1321
  29   0.0000       0.073391         1.9971
  30   0.0000       0.078462         2.1351

MULLIKEN ATOMIC CHARGES
-----------------------
   0 Pb:   -0.021772
   1 H :    0.006550
   2 H :    0.006547
   3 H :    0.006547
   4 H :    0.005492
   5 Bi:    0.006678
   6 H :   -0.003354
   7 H :   -0.003335
   8 H :   -0.003354
Sum of atomic charges:    0.0000000

LOEWDIN ATOMIC CHARGES
----------------------
   0 Pb:   -0.059613
   1 H :    0.015078
   2 H :    0.015073
   3 H :    0.015073
   4 H :    0.016577
   5 Bi:    0.004348
   6 H :   -0.002183
   7 H :   -0.002171
   8 H :   -0.002183

  Mayer bond orders larger than 0.100000
B(  0-Pb,  1-H ) :   0.9432 B(  0-Pb,  2-H ) :   0.9431 B(  0-Pb,  3-H ) :   0.9431
B(  0-Pb,  4-H ) :   0.9357 B(  5-Bi,  6-H ) :   0.9837 B(  5-Bi,  7-H ) :   0.9837
B(  5-Bi,  8-H ) :   0.9837

Dispersion correction           -0.002188933
FINAL SINGLE POINT ENERGY      -411.580309309818

DIPOLE MOMENT
-------------
                                X             Y             Z
Electronic contribution:      0.00003      -4.92901      -0.00000
Nuclear contribution   :      0.00000       4.62660       0.00000
                        -----------------------------------------
Total Dipole Moment    :      0.00003      -0.30241      -0.00000
                        -----------------------------------------
Magnitude (a.u.)       :      0.30241
Magnitude (Debye)      :      0.76867

Rotational constants in cm-1:     1.185771     0.005917     0.005917
Rotational constants in MHz : 35548.507285   177.389522   177.389522

                             ****ORCA TERMINATED NORMALLY****
TOTAL RUN TIME: 0 days 0 hours 0 minutes 57 seconds 851 msec
