                         Program Version 5.0.3 -  RELEASE  -
|  1> ! PBEh-3c def2/J TightSCF DefGrid3
|  2>
|  3> %maxcore 60000
|  4>
|  5> %pal
|  6> nprocs 4
|  7> end
|  8>
|  9> *xyzfile -1 1 hoch3fcomp1.xyz
| 10>
| 11>                          ****END OF INPUT****

CARTESIAN COORDINATES (ANGSTROEM)
---------------------------------
  C     -0.703486   -0.157458   -0.000016
  O      0.117288    0.960081    0.000072
  H     -1.757412    0.151828   -0.008621
  H     -0.546342   -0.803762   -0.878083
  H     -0.558666   -0.795454    0.886379
  H      1.105092    0.603221    0.000261
  F      2.343527    0.041543    0.000008

 Total Charge           Charge          ....   -1
 Multiplicity           Mult            ....    1
 Number of Electrons    NEL             ....   28
 Basis Dimension        Dim             ....   53

ORBITAL ENERGIES
----------------

  NO   OCC          E(Eh)            E(eV)
   0   2.0000     -24.641618      -670.5325
   1   2.0000     -19.220739      -523.0229
   2   2.0000     -10.280127      -279.7365
   3   2.0000      -0.873382       -23.7659
   4   2.0000      -0.828373       -22.5412
   5   2.0000      -0.544983       -14.8297
   6   2.0000      -0.333942        -9.0870
   7   2.0000      -0.292695        -7.9646
   8   2.0000      -0.267540        -7.2801
   9   2.0000      -0.170826        -4.6484
  10   2.0000      -0.087343        -2.3767
  11   2.0000      -0.061867        -1.6835
  12   2.0000      -0.059384        -1.6159
  13   2.0000      -0.056008        -1.5241
  14   0.0000       0.344799         9.3825
  15   0.0000       0.402251        10.9458
  16   0.0000       0.411039        11.1849
  17   0.0000       0.412124        11.2145
  18   0.0000       0.598637        16.2897

MULLIKEN ATOMIC CHARGES
-----------------------
   0 C :   -0.297343
   1 O :   -0.714838
   2 H :    0.107224
   3 H :    0.119828
   4 H :    0.118906
   5 H :    0.443820
   6 F :   -0.777597
Sum of atomic charges:   -1.0000000

LOEWDIN ATOMIC CHARGES
----------------------
   0 C :   -0.199156
   1 O :   -0.534134
   2 H :    0.060805
   3 H :    0.060413
   4 H :    0.059882
   5 H :    0.322541
   6 F :   -0.770351

  Mayer bond orders larger than 0.100000
B(  0-C ,  1-O ) :   1.1466 B(  0-C ,  2-H ) :   0.9317 B(  0-C ,  3-H ) :   0.9170
B(  0-C ,  4-H ) :   0.9168 B(  1-O ,  5-H ) :   0.5042 B(  5-H ,  6-F ) :   0.3266

Dispersion correction           -0.001466157
FINAL SINGLE POINT ENERGY      -215.136703526728

DIPOLE MOMENT
-------------
                                X             Y             Z
Electronic contribution:      4.39673       1.21865      -0.00069
Nuclear contribution   :     -5.83202      -1.56255      -0.00012
                        -----------------------------------------
Total Dipole Moment    :     -1.43529      -0.34390      -0.00081
                        -----------------------------------------
Magnitude (a.u.)       :      1.47592
Magnitude (Debye)      :      3.75148

Rotational constants in cm-1:     1.149261     0.184186     0.163580
Rotational constants in MHz : 34453.974063  5521.771895  4903.993891

                             ****ORCA TERMINATED NORMALLY****
TOTAL RUN TIME: 0 days 0 hours 0 minutes 33 seconds 174 msec
