                         Program Version 5.0.3 -  RELEASE  -
|  1> ! PBEh-3c def2/J TightSCF DefGrid3
|  2>
|  3> %maxcore 60000
|  4>
|  5> %pal
|  6> nprocs 4
|  7> end
|  8>
|  9> *xyzfile 0 1 bih3_hi.xyz
| 10>
| 11>                          ****END OF INPUT****

CARTESIAN COORDINATES (ANGSTROEM)
---------------------------------
  Bi     0.000000    0.000000    1.056590
  H     -0.719706    1.246568    2.070328
  H     -0.719706   -1.246568    2.070328
  H      1.439413    0.000000    2.070328
  I      0.000000    0.000000   -2.836912
  H      0.000000    0.000000   -4.430661

 Total Charge           Charge          ....    0
 Multiplicity           Mult            ....    1
 Number of Electrons    NEL             ....   52
 Basis Dimension        Dim             ....   60

ORBITAL ENERGIES
----------------

  NO   OCC          E(Eh)            E(eV)
   0   2.0000      -7.105387      -193.3474
   1   2.0000      -6.175394      -168.0410
   2   2.0000      -5.089034      -138.4797
   3   2.0000      -5.072247      -138.0229
   4   2.0000      -5.072247      -138.0229
   5   2.0000      -3.865963      -105.1982
   6   2.0000      -3.865963      -105.1982
   7   2.0000      -3.861894      -105.0875
   8   2.0000      -2.044093       -55.6226
   9   2.0000      -2.037512       -55.4435
  10   2.0000      -2.037512       -55.4435
  11   2.0000      -2.023027       -55.0494
  12   2.0000      -2.023013       -55.0490
  13   2.0000      -1.146782       -31.2055
  14   2.0000      -1.146774       -31.2053
  15   2.0000      -1.139983       -31.0205
  16   2.0000      -1.139978       -31.0204
  17   2.0000      -1.136550       -30.9271
  18   2.0000      -0.790712       -21.5164
  19   2.0000      -0.688555       -18.7365
  20   2.0000      -0.465195       -12.6586
  21   2.0000      -0.374157       -10.1813
  22   2.0000      -0.374155       -10.1813
  23   2.0000      -0.321951        -8.7607
  24   2.0000      -0.321951        -8.7607
  25   2.0000      -0.314426        -8.5560
  26   0.0000       0.002972         0.0809
  27   0.0000       0.025722         0.6999
  28   0.0000       0.025723         0.7000
  29   0.0000       0.108609         2.9554
  30   0.0000       0.276601         7.5267

MULLIKEN ATOMIC CHARGES
-----------------------
   0 Bi:    0.003478
   1 H :    0.002488
   2 H :    0.002488
   3 H :    0.002506
   4 I :   -0.155151
   5 H :    0.144191
Sum of atomic charges:    0.0000000

LOEWDIN ATOMIC CHARGES
----------------------
   0 Bi:    0.001723
   1 H :    0.001515
   2 H :    0.001515
   3 H :    0.001525
   4 I :   -0.097901
   5 H :    0.091624

  Mayer bond orders larger than 0.100000
B(  0-Bi,  1-H ) :   0.9814 B(  0-Bi,  2-H ) :   0.9814 B(  0-Bi,  3-H ) :   0.9814
B(  4-I ,  5-H ) :   0.9463

Dispersion correction           -0.001560014
FINAL SINGLE POINT ENERGY      -514.730056391261

DIPOLE MOMENT
-------------
                                X             Y             Z
Electronic contribution:      0.00001       0.00000      44.61249
Nuclear contribution   :      0.00000       0.00000     -45.01501
                        -----------------------------------------
Total Dipole Moment    :      0.00001       0.00000      -0.40252
                        -----------------------------------------
Magnitude (a.u.)       :      0.40252
Magnitude (Debye)      :      1.02313

Rotational constants in cm-1:     2.690571     0.013651     0.013651
Rotational constants in MHz : 80661.294844   409.233484   409.233483

                             ****ORCA TERMINATED NORMALLY****
TOTAL RUN TIME: 0 days 0 hours 1 minutes 24 seconds 228 msec
