                         Program Version 5.0.3 -  RELEASE  -
|  1> ! PBEh-3c def2/J TightSCF DefGrid3
|  2>
|  3> %maxcore 60000
|  4>
|  5> %pal
|  6> nprocs 4
|  7> end
|  8>
|  9> *xyzfile 0 1 ax-methylcyclohexene.xyz
| 10>
| 11>                          ****END OF INPUT****

CARTESIAN COORDINATES (ANGSTROEM)
---------------------------------
  C     -0.816418   -0.781259   -0.935339
  C      0.627000   -1.193062   -1.011188
  C      1.276646    0.262070   -0.961729
  C      0.705917    1.221664    0.119464
  C     -0.887886    1.238711    0.256456
  C     -1.142937   -0.238606    0.279082
  H      2.365919    0.168879   -0.815447
  H      0.955212   -1.783405   -0.144514
  H      0.944031   -1.713234   -1.928126
  H     -1.082725   -0.147661   -1.796912
  H      1.124723    0.951810    1.101526
  H      1.051841    2.245884   -0.092845
  H     -1.188101    1.810145    1.149870
  H     -1.315097    1.718349   -0.636911
  H      1.131643    0.716985   -1.955113
  C     -0.954428   -0.973465    1.577211
  H     -1.897672   -0.944773    2.149545
  H     -0.710853   -2.032546    1.413763
  H     -0.186815   -0.526485    2.231208

 Total Charge           Charge          ....    0
 Multiplicity           Mult            ....    1
 Number of Electrons    NEL             ....   54
 Basis Dimension        Dim             ....  129

ORBITAL ENERGIES
----------------

  NO   OCC          E(Eh)            E(eV)
   0   2.0000     -10.450120      -284.3622
   1   2.0000     -10.449042      -284.3329
   2   2.0000     -10.448336      -284.3137
   3   2.0000     -10.447063      -284.2790
   4   2.0000     -10.444999      -284.2229
   5   2.0000     -10.430887      -283.8389
   6   2.0000     -10.424345      -283.6609
   7   2.0000      -0.941253       -25.6128
   8   2.0000      -0.839409       -22.8415
   9   2.0000      -0.820723       -22.3330
  10   2.0000      -0.766304       -20.8522
  11   2.0000      -0.679152       -18.4807
  12   2.0000      -0.650869       -17.7110
  13   2.0000      -0.586747       -15.9662
  14   2.0000      -0.522434       -14.2162
  15   2.0000      -0.512343       -13.9415
  16   2.0000      -0.494005       -13.4426
  17   2.0000      -0.485262       -13.2047
  18   2.0000      -0.454649       -12.3716
  19   2.0000      -0.441714       -12.0197
  20   2.0000      -0.414139       -11.2693
  21   2.0000      -0.405858       -11.0440
  22   2.0000      -0.390352       -10.6220
  23   2.0000      -0.385200       -10.4818
  24   2.0000      -0.377315       -10.2673
  25   2.0000      -0.369636       -10.0583
  26   2.0000      -0.227832        -6.1996
  27   0.0000      -0.000864        -0.0235
  28   0.0000       0.128971         3.5095
  29   0.0000       0.156970         4.2714
  30   0.0000       0.167179         4.5492
  31   0.0000       0.170722         4.6456

MULLIKEN ATOMIC CHARGES
-----------------------
   0 C :   -0.225523
   1 C :   -0.455135
   2 C :   -0.433635
   3 C :   -0.433121
   4 C :   -0.472000
   5 C :    0.088464
   6 H :    0.226515
   7 H :    0.219909
   8 H :    0.222597
   9 H :    0.176375
  10 H :    0.214179
  11 H :    0.230724
  12 H :    0.218023
  13 H :    0.229392
  14 H :    0.213404
  15 C :   -0.701136
  16 H :    0.239368
  17 H :    0.228883
  18 H :    0.212717
Sum of atomic charges:    0.0000000

LOEWDIN ATOMIC CHARGES
----------------------
   0 C :   -0.189086
   1 C :   -0.224037
   2 C :   -0.242558
   3 C :   -0.240105
   4 C :   -0.221542
   5 C :   -0.061188
   6 H :    0.132256
   7 H :    0.128297
   8 H :    0.123724
   9 H :    0.112972
  10 H :    0.122017
  11 H :    0.133465
  12 H :    0.120859
  13 H :    0.135644
  14 H :    0.123834
  15 C :   -0.357692
  16 H :    0.142753
  17 H :    0.134925
  18 H :    0.125460

  Mayer bond orders larger than 0.100000
B(  0-C ,  1-C ) :   1.0110 B(  0-C ,  5-C ) :   1.7659 B(  0-C ,  9-H ) :   0.9174
B(  1-C ,  2-C ) :   0.9321 B(  1-C ,  7-H ) :   0.9107 B(  1-C ,  8-H ) :   0.9168
B(  2-C ,  3-C ) :   0.9913 B(  2-C ,  6-H ) :   0.9108 B(  2-C , 14-H ) :   0.9178
B(  3-C ,  4-C ) :   0.9251 B(  3-C , 10-H ) :   0.9152 B(  3-C , 11-H ) :   0.9141
B(  4-C ,  5-C ) :   1.0052 B(  4-C , 12-H ) :   0.9164 B(  4-C , 13-H ) :   0.9118
B(  5-C , 15-C ) :   0.9744 B( 15-C , 16-H ) :   0.9103 B( 15-C , 17-H ) :   0.9239
B( 15-C , 18-H ) :   0.9144

Dispersion correction           -0.010351908
FINAL SINGLE POINT ENERGY      -273.271620572648

DIPOLE MOMENT
-------------
                                X             Y             Z
Electronic contribution:     -2.17329      -0.66822      -1.29659
Nuclear contribution   :      2.65387       1.03284       1.50501
                        -----------------------------------------
Total Dipole Moment    :      0.48057       0.36463       0.20842
                        -----------------------------------------
Magnitude (a.u.)       :      0.63823
Magnitude (Debye)      :      1.62226

Rotational constants in cm-1:     0.119238     0.092719     0.070396
Rotational constants in MHz :  3574.679448  2779.658762  2110.428648

                             ****ORCA TERMINATED NORMALLY****
TOTAL RUN TIME: 0 days 0 hours 1 minutes 34 seconds 924 msec
