                         Program Version 5.0.3 -  RELEASE  -
|  1> ! PBEh-3c def2/J TightSCF DefGrid3
|  2>
|  3> %maxcore 60000
|  4>
|  5> %pal
|  6> nprocs 4
|  7> end
|  8>
|  9> *xyzfile 0 1 h2s.xyz
| 10>
| 11>                          ****END OF INPUT****

CARTESIAN COORDINATES (ANGSTROEM)
---------------------------------
  S      0.000000    0.000000   -0.621460
  H      0.969657    0.000000    0.310730
  H     -0.969657    0.000000    0.310730

 Total Charge           Charge          ....    0
 Multiplicity           Mult            ....    1
 Number of Electrons    NEL             ....   18
 Basis Dimension        Dim             ....   22

ORBITAL ENERGIES
----------------

  NO   OCC          E(Eh)            E(eV)
   0   2.0000     -89.583017     -2437.6778
   1   2.0000      -8.225976      -223.8402
   2   2.0000      -6.116646      -166.4424
   3   2.0000      -6.114009      -166.3706
   4   2.0000      -6.108063      -166.2088
   5   2.0000      -0.821529       -22.3549
   6   2.0000      -0.497925       -13.5492
   7   2.0000      -0.412855       -11.2343
   8   2.0000      -0.303196        -8.2504
   9   0.0000       0.064907         1.7662
  10   0.0000       0.103004         2.8029
  11   0.0000       0.431632        11.7453
  12   0.0000       0.555057        15.1039
  13   0.0000       0.630606        17.1597

MULLIKEN ATOMIC CHARGES
-----------------------
   0 S :   -0.374825
   1 H :    0.187413
   2 H :    0.187413
Sum of atomic charges:   -0.0000000

LOEWDIN ATOMIC CHARGES
----------------------
   0 S :   -0.210476
   1 H :    0.105238
   2 H :    0.105238

  Mayer bond orders larger than 0.100000
B(  0-S ,  1-H ) :   0.9349 B(  0-S ,  2-H ) :   0.9349

Dispersion correction           -0.000417655
FINAL SINGLE POINT ENERGY      -398.931630394382

DIPOLE MOMENT
-------------
                                X             Y             Z
Electronic contribution:     -0.00000      -0.00000      -1.06065
Nuclear contribution   :      0.00000       0.00000       1.64723
                        -----------------------------------------
Total Dipole Moment    :     -0.00000      -0.00000       0.58658
                        -----------------------------------------
Magnitude (a.u.)       :      0.58658
Magnitude (Debye)      :      1.49098

Rotational constants in cm-1:    10.227791     8.893452     4.757032
Rotational constants in MHz : 306621.456864 266618.985092 142612.236774

                             ****ORCA TERMINATED NORMALLY****
TOTAL RUN TIME: 0 days 0 hours 0 minutes 29 seconds 757 msec
