                         Program Version 5.0.3 -  RELEASE  -
|  1> ! PBEh-3c def2/J TightSCF DefGrid3
|  2>
|  3> %maxcore 60000
|  4>
|  5> %pal
|  6> nprocs 4
|  7> end
|  8>
|  9> *xyzfile 0 1 9.xyz
| 10>
| 11>                          ****END OF INPUT****

CARTESIAN COORDINATES (ANGSTROEM)
---------------------------------
  P      0.149262    1.534574   -0.258234
  H      1.007715    1.328534   -1.371948
  F     -0.149262    3.112691   -0.514178
  C      1.462789    1.691622    1.010513
  P     -0.149262   -1.534574   -0.258234
  H     -1.007715   -1.328534   -1.371948
  F      0.149262   -3.112691   -0.514178
  C     -1.462789   -1.691622    1.010513
  H      1.016315    1.975209    1.962070
  H      1.944027    0.721139    1.125970
  H      2.205499    2.432422    0.721938
  H     -1.016315   -1.975209    1.962070
  H     -1.944027   -0.721139    1.125970
  H     -2.205499   -2.432422    0.721938

 Total Charge           Charge          ....    0
 Multiplicity           Mult            ....    1
 Number of Electrons    NEL             ....   68
 Basis Dimension        Dim             ....  112

ORBITAL ENERGIES
----------------

  NO   OCC          E(Eh)            E(eV)
   0   2.0000     -77.798189     -2116.9964
   1   2.0000     -77.798141     -2116.9950
   2   2.0000     -25.079485      -682.4475
   3   2.0000     -25.079479      -682.4473
   4   2.0000     -10.445527      -284.2372
   5   2.0000     -10.445520      -284.2370
   6   2.0000      -6.863137      -186.7555
   7   2.0000      -6.863124      -186.7551
   8   2.0000      -4.955556      -134.8475
   9   2.0000      -4.955543      -134.8472
  10   2.0000      -4.953259      -134.7850
  11   2.0000      -4.953249      -134.7848
  12   2.0000      -4.951396      -134.7343
  13   2.0000      -4.951385      -134.7340
  14   2.0000      -1.301548       -35.4169
  15   2.0000      -1.301505       -35.4157
  16   2.0000      -0.828872       -22.5548
  17   2.0000      -0.824105       -22.4250
  18   2.0000      -0.679882       -18.5005
  19   2.0000      -0.669015       -18.2048
  20   2.0000      -0.546213       -14.8632
  21   2.0000      -0.538296       -14.6478
  22   2.0000      -0.518955       -14.1215
  23   2.0000      -0.513321       -13.9682
  24   2.0000      -0.512299       -13.9404
  25   2.0000      -0.502318       -13.6688
  26   2.0000      -0.476357       -12.9623
  27   2.0000      -0.475672       -12.9437
  28   2.0000      -0.463995       -12.6259
  29   2.0000      -0.463704       -12.6180
  30   2.0000      -0.401889       -10.9359
  31   2.0000      -0.393734       -10.7140
  32   2.0000      -0.320355        -8.7173
  33   2.0000      -0.283838        -7.7236
  34   0.0000       0.007529         0.2049
  35   0.0000       0.068394         1.8611
  36   0.0000       0.075919         2.0659
  37   0.0000       0.093620         2.5475
  38   0.0000       0.154189         4.1957

MULLIKEN ATOMIC CHARGES
-----------------------
   0 P :    0.523378
   1 H :    0.052737
   2 F :   -0.458466
   3 C :   -0.883816
   4 P :    0.523378
   5 H :    0.052737
   6 F :   -0.458466
   7 C :   -0.883816
   8 H :    0.250037
   9 H :    0.254342
  10 H :    0.261788
  11 H :    0.250037
  12 H :    0.254342
  13 H :    0.261788
Sum of atomic charges:   -0.0000000

LOEWDIN ATOMIC CHARGES
----------------------
   0 P :    0.441938
   1 H :    0.009903
   2 F :   -0.350746
   3 C :   -0.543434
   4 P :    0.441938
   5 H :    0.009903
   6 F :   -0.350746
   7 C :   -0.543434
   8 H :    0.144275
   9 H :    0.151281
  10 H :    0.146784
  11 H :    0.144275
  12 H :    0.151281
  13 H :    0.146784

  Mayer bond orders larger than 0.100000
B(  0-P ,  1-H ) :   0.9331 B(  0-P ,  2-F ) :   0.8348 B(  0-P ,  3-C ) :   0.9883
B(  0-P ,  4-P ) :   0.1291 B(  3-C ,  8-H ) :   0.9055 B(  3-C ,  9-H ) :   0.8933
B(  3-C , 10-H ) :   0.9002 B(  4-P ,  5-H ) :   0.9331 B(  4-P ,  6-F ) :   0.8348
B(  4-P ,  7-C ) :   0.9883 B(  7-C , 11-H ) :   0.9055 B(  7-C , 12-H ) :   0.8933
B(  7-C , 13-H ) :   0.9002

Dispersion correction           -0.005994148
FINAL SINGLE POINT ENERGY      -962.095014810600

DIPOLE MOMENT
-------------
                                X             Y             Z
Electronic contribution:      0.00000       0.00000      -5.69032
Nuclear contribution   :      0.00000      -0.00000       6.17461
                        -----------------------------------------
Total Dipole Moment    :      0.00000       0.00000       0.48429
                        -----------------------------------------
Magnitude (a.u.)       :      0.48429
Magnitude (Debye)      :      1.23097

Rotational constants in cm-1:     0.142861     0.025106     0.024706
Rotational constants in MHz :  4282.850342   752.646869   740.652774

                             ****ORCA TERMINATED NORMALLY****
TOTAL RUN TIME: 0 days 0 hours 1 minutes 15 seconds 349 msec
