                         Program Version 5.0.3 -  RELEASE  -
|  1> ! PBEh-3c def2/J TightSCF DefGrid3
|  2>
|  3> %maxcore 60000
|  4>
|  5> %pal
|  6> nprocs 4
|  7> end
|  8>
|  9> *xyzfile 1 1 Gp.xyz
| 10>
| 11>                          ****END OF INPUT****

CARTESIAN COORDINATES (ANGSTROEM)
---------------------------------
  N     -2.149529   -0.397318    0.000000
  C     -2.600939    0.856421    0.000000
  N     -1.580002    1.680862    0.000000
  C     -0.419859    0.943985    0.000000
  C      0.954862    1.315874    0.000000
  O      1.428431    2.432589    0.000000
  N      1.750217    0.173125    0.000000
  C      1.303958   -1.120760    0.000000
  N      2.219471   -2.080294    0.000000
  N      0.024893   -1.438694    0.000000
  C     -0.779895   -0.381602    0.000000
  H     -2.738499   -1.221144    0.000000
  H      3.208576   -1.894610    0.000000
  H      1.923026   -3.042377    0.000000
  H     -3.639602    1.143538    0.000000
  H      2.750565    0.339505    0.000000
  H     -1.655674    2.690900    0.000000

 Total Charge           Charge          ....    1
 Multiplicity           Mult            ....    1
 Number of Electrons    NEL             ....   78
 Basis Dimension        Dim             ....  177

ORBITAL ENERGIES
----------------

  NO   OCC          E(Eh)            E(eV)
   0   2.0000     -19.619593      -533.8763
   1   2.0000     -14.914796      -405.8522
   2   2.0000     -14.904611      -405.5751
   3   2.0000     -14.855551      -404.2401
   4   2.0000     -14.823963      -403.3805
   5   2.0000     -14.792385      -402.5213
   6   2.0000     -10.745202      -292.3918
   7   2.0000     -10.738430      -292.2075
   8   2.0000     -10.724184      -291.8199
   9   2.0000     -10.709761      -291.4274
  10   2.0000     -10.658708      -290.0382
  11   2.0000      -1.375335       -37.4248
  12   2.0000      -1.320734       -35.9390
  13   2.0000      -1.281602       -34.8742
  14   2.0000      -1.227766       -33.4092
  15   2.0000      -1.176684       -32.0192
  16   2.0000      -1.169866       -31.8337
  17   2.0000      -1.054880       -28.7047
  18   2.0000      -0.952609       -25.9218
  19   2.0000      -0.941291       -25.6138
  20   2.0000      -0.920948       -25.0603
  21   2.0000      -0.852536       -23.1987
  22   2.0000      -0.825389       -22.4600
  23   2.0000      -0.788420       -21.4540
  24   2.0000      -0.781638       -21.2695
  25   2.0000      -0.756054       -20.5733
  26   2.0000      -0.740885       -20.1605
  27   2.0000      -0.726662       -19.7735
  28   2.0000      -0.708815       -19.2878
  29   2.0000      -0.702838       -19.1252
  30   2.0000      -0.678670       -18.4676
  31   2.0000      -0.639505       -17.4018
  32   2.0000      -0.618405       -16.8277
  33   2.0000      -0.574196       -15.6247
  34   2.0000      -0.529352       -14.4044
  35   2.0000      -0.513971       -13.9859
  36   2.0000      -0.490025       -13.3343
  37   2.0000      -0.480728       -13.0813
  38   2.0000      -0.422747       -11.5035
  39   0.0000      -0.178404        -4.8546
  40   0.0000      -0.139476        -3.7953
  41   0.0000      -0.096984        -2.6391
  42   0.0000      -0.053777        -1.4633
  43   0.0000      -0.037484        -1.0200

MULLIKEN ATOMIC CHARGES
-----------------------
   0 N :   -0.630046
   1 C :    0.238174
   2 N :   -0.595445
   3 C :    0.077798
   4 C :    0.563861
   5 O :   -0.352847
   6 N :   -0.732991
   7 C :    0.745920
   8 N :   -0.811876
   9 N :   -0.464597
  10 C :    0.516550
  11 H :    0.433657
  12 H :    0.398541
  13 H :    0.419328
  14 H :    0.339989
  15 H :    0.411141
  16 H :    0.442842
Sum of atomic charges:    1.0000000

LOEWDIN ATOMIC CHARGES
----------------------
   0 N :   -0.080461
   1 C :    0.071877
   2 N :   -0.042433
   3 C :   -0.087066
   4 C :    0.117237
   5 O :   -0.209455
   6 N :   -0.172867
   7 C :    0.173511
   8 N :   -0.310088
   9 N :   -0.223995
  10 C :    0.088925
  11 H :    0.310197
  12 H :    0.277363
  13 H :    0.292790
  14 H :    0.184245
  15 H :    0.294568
  16 H :    0.315652

  Mayer bond orders larger than 0.100000
B(  0-N ,  1-C ) :   1.2818 B(  0-N , 10-C ) :   1.0303 B(  0-N , 11-H ) :   0.7805
B(  1-C ,  2-N ) :   1.4011 B(  1-C , 14-H ) :   0.8640 B(  2-N ,  3-C ) :   0.9843
B(  2-N , 16-H ) :   0.7749 B(  3-C ,  4-C ) :   1.0324 B(  3-C , 10-C ) :   1.3321
B(  4-C ,  5-O ) :   2.0808 B(  4-C ,  6-N ) :   0.9743 B(  6-N ,  7-C ) :   1.1096
B(  6-N , 15-H ) :   0.7874 B(  7-C ,  8-N ) :   1.2023 B(  7-C ,  9-N ) :   1.4919
B(  8-N , 12-H ) :   0.8131 B(  8-N , 13-H ) :   0.8001 B(  9-N , 10-C ) :   1.4176

Dispersion correction           -0.010098352
FINAL SINGLE POINT ENERGY      -541.777777923997

DIPOLE MOMENT
-------------
                                X             Y             Z
Electronic contribution:     -1.16247       1.91355      -0.00000
Nuclear contribution   :     -0.41391      -2.85894       0.00000
                        -----------------------------------------
Total Dipole Moment    :     -1.57638      -0.94540      -0.00000
                        -----------------------------------------
Magnitude (a.u.)       :      1.83814
Magnitude (Debye)      :      4.67217

Rotational constants in cm-1:     0.064673     0.037254     0.023638
Rotational constants in MHz :  1938.853979  1116.833357   708.638208

                             ****ORCA TERMINATED NORMALLY****
TOTAL RUN TIME: 0 days 0 hours 1 minutes 45 seconds 631 msec
