                         Program Version 5.0.3 -  RELEASE  -
|  1> ! PBEh-3c def2/J TightSCF DefGrid3
|  2>
|  3> %maxcore 60000
|  4>
|  5> %pal
|  6> nprocs 4
|  7> end
|  8>
|  9> *xyzfile 0 1 neo-hexane.xyz
| 10>
| 11>                          ****END OF INPUT****

CARTESIAN COORDINATES (ANGSTROEM)
---------------------------------
  C     -0.771334   -0.873779   -1.517540
  H     -0.382458   -1.903458   -1.524557
  H     -0.383764   -0.362299   -2.412106
  H     -1.866845   -0.926845   -1.608815
  C     -0.357775   -0.133964   -0.232096
  C      1.192067   -0.103940   -0.175902
  H      1.555410    0.377987   -1.100066
  H      1.553229   -1.146305   -0.217670
  C      1.826711    0.593881    1.030955
  H      1.541595    0.117122    1.979634
  H      1.542625    1.654345    1.090139
  C     -0.930040    1.294558   -0.273684
  H     -0.702118    1.854673    0.644609
  H     -0.521876    1.860526   -1.125485
  H     -2.024987    1.271150   -0.381445
  C     -0.933307   -0.885235    0.981991
  H     -2.028705   -0.960450    0.908844
  H     -0.530883   -1.908255    1.042082
  H     -0.701023   -0.374330    1.927411
  H      2.923477    0.554619    0.963699

 Total Charge           Charge          ....    0
 Multiplicity           Mult            ....    1
 Number of Electrons    NEL             ....   50
 Basis Dimension        Dim             ....  118

ORBITAL ENERGIES
----------------

  NO   OCC          E(Eh)            E(eV)
   0   2.0000     -10.450309      -284.3674
   1   2.0000     -10.430468      -283.8275
   2   2.0000     -10.423002      -283.6243
   3   2.0000     -10.421362      -283.5797
   4   2.0000     -10.421193      -283.5751
   5   2.0000     -10.421123      -283.5732
   6   2.0000      -0.912000       -24.8168
   7   2.0000      -0.817351       -22.2413
   8   2.0000      -0.758578       -20.6420
   9   2.0000      -0.758551       -20.6412
  10   2.0000      -0.693484       -18.8707
  11   2.0000      -0.589447       -16.0397
  12   2.0000      -0.513395       -13.9702
  13   2.0000      -0.511718       -13.9246
  14   2.0000      -0.489947       -13.3321
  15   2.0000      -0.475018       -12.9259
  16   2.0000      -0.448956       -12.2167
  17   2.0000      -0.430171       -11.7055
  18   2.0000      -0.424093       -11.5401
  19   2.0000      -0.409441       -11.1414
  20   2.0000      -0.404682       -11.0120
  21   2.0000      -0.388967       -10.5843
  22   2.0000      -0.359938        -9.7944
  23   2.0000      -0.359245        -9.7756
  24   2.0000      -0.351702        -9.5703
  25   0.0000       0.117607         3.2002
  26   0.0000       0.168243         4.5781
  27   0.0000       0.180524         4.9123
  28   0.0000       0.181445         4.9374
  29   0.0000       0.186328         5.0702

MULLIKEN ATOMIC CHARGES
-----------------------
   0 C :   -0.608005
   1 H :    0.210227
   2 H :    0.210181
   3 H :    0.210763
   4 C :   -0.087718
   5 C :   -0.374929
   6 H :    0.204101
   7 H :    0.204034
   8 C :   -0.650312
   9 H :    0.211551
  10 H :    0.211630
  11 C :   -0.616871
  12 H :    0.214038
  13 H :    0.209463
  14 H :    0.212321
  15 C :   -0.616687
  16 H :    0.212297
  17 H :    0.209505
  18 H :    0.214007
  19 H :    0.220401
Sum of atomic charges:    0.0000000

LOEWDIN ATOMIC CHARGES
----------------------
   0 C :   -0.342170
   1 H :    0.123753
   2 H :    0.123732
   3 H :    0.123673
   4 C :   -0.105824
   5 C :   -0.230683
   6 H :    0.120141
   7 H :    0.120117
   8 C :   -0.363966
   9 H :    0.123262
  10 H :    0.123298
  11 C :   -0.345074
  12 H :    0.124032
  13 H :    0.123998
  14 H :    0.125177
  15 C :   -0.345034
  16 H :    0.125173
  17 H :    0.124009
  18 H :    0.124031
  19 H :    0.128355

  Mayer bond orders larger than 0.100000
B(  0-C ,  1-H ) :   0.9294 B(  0-C ,  2-H ) :   0.9294 B(  0-C ,  3-H ) :   0.9297
B(  0-C ,  4-C ) :   0.9830 B(  4-C ,  5-C ) :   0.9642 B(  4-C , 11-C ) :   0.9744
B(  4-C , 15-C ) :   0.9746 B(  5-C ,  6-H ) :   0.9219 B(  5-C ,  7-H ) :   0.9220
B(  5-C ,  8-C ) :   0.9928 B(  8-C ,  9-H ) :   0.9264 B(  8-C , 10-H ) :   0.9263
B(  8-C , 19-H ) :   0.9291 B( 11-C , 12-H ) :   0.9275 B( 11-C , 13-H ) :   0.9303
B( 11-C , 14-H ) :   0.9289 B( 15-C , 16-H ) :   0.9289 B( 15-C , 17-H ) :   0.9303
B( 15-C , 18-H ) :   0.9275

Dispersion correction           -0.009814229
FINAL SINGLE POINT ENERGY      -236.565938673846

DIPOLE MOMENT
-------------
                                X             Y             Z
Electronic contribution:      0.08426      -0.28694      -0.49297
Nuclear contribution   :     -0.06884       0.28369       0.48714
                        -----------------------------------------
Total Dipole Moment    :      0.01543      -0.00325      -0.00583
                        -----------------------------------------
Magnitude (a.u.)       :      0.01681
Magnitude (Debye)      :      0.04272

Rotational constants in cm-1:     0.142168     0.082492     0.082229
Rotational constants in MHz :  4262.087668  2473.058074  2465.164684

                             ****ORCA TERMINATED NORMALLY****
TOTAL RUN TIME: 0 days 0 hours 1 minutes 36 seconds 557 msec
