                         Program Version 5.0.3 -  RELEASE  -
|  1> ! PBEh-3c def2/J TightSCF DefGrid3
|  2>
|  3> %maxcore 60000
|  4>
|  5> %pal
|  6> nprocs 4
|  7> end
|  8>
|  9> *xyzfile 0 1 nme3-ch2.xyz
| 10>
| 11>                          ****END OF INPUT****

CARTESIAN COORDINATES (ANGSTROEM)
---------------------------------
  C      0.549819    1.469129    0.000000
  N      0.018806    0.045923    0.000000
  H      0.083357    1.928012    0.883086
  H      0.083357    1.928012   -0.883086
  C      0.549819   -0.633410    1.202875
  H      0.224313   -1.674277    1.215677
  H      1.631249   -0.550129    1.170622
  H      0.174282   -0.108840    2.077760
  C      0.549819   -0.633410   -1.202875
  H      0.224313   -1.674277   -1.215677
  H      0.174282   -0.108840   -2.077760
  H      1.631249   -0.550129   -1.170622
  C     -1.466855   -0.076231    0.000000
  H     -1.775586   -1.124782    0.000000
  H     -1.839038    0.428660    0.886814
  H     -1.839038    0.428660   -0.886814

 Total Charge           Charge          ....    0
 Multiplicity           Mult            ....    1
 Number of Electrons    NEL             ....   42
 Basis Dimension        Dim             ....   97

ORBITAL ENERGIES
----------------

  NO   OCC          E(Eh)            E(eV)
   0   2.0000     -14.736965      -401.0132
   1   2.0000     -10.480955      -285.2013
   2   2.0000     -10.477059      -285.0953
   3   2.0000     -10.477007      -285.0938
   4   2.0000     -10.357850      -281.8514
   5   2.0000      -1.094211       -29.7750
   6   2.0000      -0.822116       -22.3709
   7   2.0000      -0.821930       -22.3658
   8   2.0000      -0.756606       -20.5883
   9   2.0000      -0.660472       -17.9724
  10   2.0000      -0.566163       -15.4061
  11   2.0000      -0.565704       -15.3936
  12   2.0000      -0.531275       -14.4567
  13   2.0000      -0.489806       -13.3283
  14   2.0000      -0.487270       -13.2593
  15   2.0000      -0.448999       -12.2179
  16   2.0000      -0.445023       -12.1097
  17   2.0000      -0.441009       -12.0005
  18   2.0000      -0.405297       -11.0287
  19   2.0000      -0.362719        -9.8701
  20   2.0000      -0.166052        -4.5185
  21   0.0000       0.092116         2.5066
  22   0.0000       0.159381         4.3370
  23   0.0000       0.165147         4.4939
  24   0.0000       0.166033         4.5180
  25   0.0000       0.169257         4.6057

MULLIKEN ATOMIC CHARGES
-----------------------
   0 C :   -0.596519
   1 N :   -0.334175
   2 H :    0.112562
   3 H :    0.112562
   4 C :   -0.492752
   5 H :    0.211235
   6 H :    0.276752
   7 H :    0.248418
   8 C :   -0.492752
   9 H :    0.211235
  10 H :    0.248418
  11 H :    0.276752
  12 C :   -0.492643
  13 H :    0.210754
  14 H :    0.250078
  15 H :    0.250078
Sum of atomic charges:   -0.0000000

LOEWDIN ATOMIC CHARGES
----------------------
   0 C :   -0.632295
   1 N :    0.004452
   2 H :    0.070925
   3 H :    0.070925
   4 C :   -0.241176
   5 H :    0.117632
   6 H :    0.155289
   7 H :    0.140143
   8 C :   -0.241176
   9 H :    0.117632
  10 H :    0.140143
  11 H :    0.155289
  12 C :   -0.255428
  13 H :    0.118001
  14 H :    0.139822
  15 H :    0.139822

  Mayer bond orders larger than 0.100000
B(  0-C ,  1-N ) :   0.8183 B(  0-C ,  2-H ) :   0.9429 B(  0-C ,  3-H ) :   0.9429
B(  1-N ,  4-C ) :   0.9038 B(  1-N ,  8-C ) :   0.9038 B(  1-N , 12-C ) :   0.8861
B(  4-C ,  5-H ) :   0.9111 B(  4-C ,  6-H ) :   0.9019 B(  4-C ,  7-H ) :   0.9169
B(  8-C ,  9-H ) :   0.9111 B(  8-C , 10-H ) :   0.9169 B(  8-C , 11-H ) :   0.9019
B( 12-C , 13-H ) :   0.9030 B( 12-C , 14-H ) :   0.9178 B( 12-C , 15-H ) :   0.9178

Dispersion correction           -0.007565472
FINAL SINGLE POINT ENERGY      -213.203956181440

DIPOLE MOMENT
-------------
                                X             Y             Z
Electronic contribution:      0.22435      -0.51105       0.00000
Nuclear contribution   :     -1.32346      -1.16224       0.00000
                        -----------------------------------------
Total Dipole Moment    :     -1.09911      -1.67329       0.00000
                        -----------------------------------------
Magnitude (a.u.)       :      2.00198
Magnitude (Debye)      :      5.08863

Rotational constants in cm-1:     0.163643     0.163146     0.160496
Rotational constants in MHz :  4905.886712  4890.992760  4811.546606

                             ****ORCA TERMINATED NORMALLY****
TOTAL RUN TIME: 0 days 0 hours 1 minutes 17 seconds 622 msec
