                         Program Version 5.0.3 -  RELEASE  -
|  1> ! PBEh-3c def2/J TightSCF DefGrid3
|  2>
|  3> %maxcore 60000
|  4>
|  5> %pal
|  6> nprocs 4
|  7> end
|  8>
|  9> *xyzfile 0 2 P17.xyz
| 10>
| 11>                          ****END OF INPUT****

CARTESIAN COORDINATES (ANGSTROEM)
---------------------------------
  C     -1.924756   -0.512035    0.000000
  C     -0.696622    0.247101    0.000000
  O      0.398971   -0.558353    0.000000
  O     -0.631564    1.463118    0.000000
  C      1.667446    0.115132    0.000000
  H     -1.912267   -1.592293    0.000000
  H     -2.859170    0.028681    0.000000
  H      2.415969   -0.673071    0.000000
  H      1.770996    0.740859    0.887613
  H      1.770996    0.740859   -0.887613

 Total Charge           Charge          ....    0
 Multiplicity           Mult            ....    2
 Number of Electrons    NEL             ....   39
 Basis Dimension        Dim             ....   85

ORBITAL ENERGIES
----------------
                 SPIN UP ORBITALS
  NO   OCC          E(Eh)            E(eV)
   0   1.0000     -19.538514      -531.6700
   1   1.0000     -19.488449      -530.3077
   2   1.0000     -10.576064      -287.7893
   3   1.0000     -10.491297      -285.4827
   4   1.0000     -10.484346      -285.2936
   5   1.0000      -1.213311       -33.0159
   6   1.0000      -1.124935       -30.6110
   7   1.0000      -0.866986       -23.5919
   8   1.0000      -0.783229       -21.3128
   9   1.0000      -0.639398       -17.3989
  10   1.0000      -0.578230       -15.7344
  11   1.0000      -0.552345       -15.0301
  12   1.0000      -0.548663       -14.9299
  13   1.0000      -0.497203       -13.5296
  14   1.0000      -0.476735       -12.9726
  15   1.0000      -0.466734       -12.7005
  16   1.0000      -0.418783       -11.3957
  17   1.0000      -0.366184        -9.9644
  18   1.0000      -0.342414        -9.3176
  19   1.0000      -0.312459        -8.5024
  20   0.0000       0.077090         2.0977
  21   0.0000       0.145297         3.9537
  22   0.0000       0.170317         4.6345
  23   0.0000       0.180979         4.9247
  24   0.0000       0.208729         5.6798

                 SPIN DOWN ORBITALS
  NO   OCC          E(Eh)            E(eV)
   0   1.0000     -19.537887      -531.6529
   1   1.0000     -19.482489      -530.1455
   2   1.0000     -10.578404      -287.8530
   3   1.0000     -10.491334      -285.4837
   4   1.0000     -10.469826      -284.8985
   5   1.0000      -1.209663       -32.9166
   6   1.0000      -1.115799       -30.3624
   7   1.0000      -0.843206       -22.9448
   8   1.0000      -0.764776       -20.8106
   9   1.0000      -0.634499       -17.2656
  10   1.0000      -0.570142       -15.5144
  11   1.0000      -0.546341       -14.8667
  12   1.0000      -0.542176       -14.7534
  13   1.0000      -0.489660       -13.3243
  14   1.0000      -0.472043       -12.8449
  15   1.0000      -0.446640       -12.1537
  16   1.0000      -0.416904       -11.3445
  17   1.0000      -0.346162        -9.4195
  18   1.0000      -0.335143        -9.1197
  19   0.0000      -0.084482        -2.2989
  20   0.0000       0.111544         3.0353
  21   0.0000       0.149174         4.0592
  22   0.0000       0.172058         4.6819
  23   0.0000       0.191010         5.1976

MULLIKEN ATOMIC CHARGES AND SPIN POPULATIONS
--------------------------------------------
   0 C :   -0.487116    1.021389
   1 C :    0.559317   -0.125418
   2 O :   -0.472656    0.018472
   3 O :   -0.397246    0.196137
   4 C :   -0.391201   -0.003193
   5 H :    0.251616   -0.053626
   6 H :    0.259661   -0.055959
   7 H :    0.225343    0.000119
   8 H :    0.226141    0.001040
   9 H :    0.226141    0.001040
Sum of atomic charges         :   -0.0000000

LOEWDIN ATOMIC CHARGES AND SPIN POPULATIONS
-------------------------------------------
   0 C :   -0.195780    0.899189
   1 C :    0.104472   -0.049720
   2 O :   -0.194216    0.017902
   3 O :   -0.218874    0.185283
   4 C :   -0.179006   -0.001766
   5 H :    0.149702   -0.026464
   6 H :    0.153187   -0.026457
   7 H :    0.127638    0.000051
   8 H :    0.126438    0.000991
   9 H :    0.126438    0.000991

  Mayer bond orders larger than 0.100000
B(  0-C ,  1-C ) :   1.0675 B(  0-C ,  5-H ) :   0.9001 B(  0-C ,  6-H ) :   0.9102
B(  1-C ,  2-O ) :   1.0649 B(  1-C ,  3-O ) :   1.9491 B(  2-O ,  4-C ) :   0.9062
B(  4-C ,  7-H ) :   0.9226 B(  4-C ,  8-H ) :   0.9129 B(  4-C ,  9-H ) :   0.9129

Dispersion correction           -0.003350849
FINAL SINGLE POINT ENERGY      -267.150083212885

DIPOLE MOMENT
-------------
                                X             Y             Z
Electronic contribution:     -1.88256       0.78037       0.00000
Nuclear contribution   :      2.01304      -1.46463       0.00000
                        -----------------------------------------
Total Dipole Moment    :      0.13048      -0.68426       0.00000
                        -----------------------------------------
Magnitude (a.u.)       :      0.69659
Magnitude (Debye)      :      1.77059

Rotational constants in cm-1:     0.358339     0.145708     0.105650
Rotational constants in MHz : 10742.736080  4368.222847  3167.297746

                             ****ORCA TERMINATED NORMALLY****
TOTAL RUN TIME: 0 days 0 hours 2 minutes 53 seconds 788 msec
