                         Program Version 5.0.3 -  RELEASE  -
|  1> ! PBEh-3c def2/J TightSCF DefGrid3
|  2>
|  3> %maxcore 60000
|  4>
|  5> %pal
|  6> nprocs 4
|  7> end
|  8>
|  9> *xyzfile 0 1 15B.xyz
| 10>
| 11>                          ****END OF INPUT****

CARTESIAN COORDINATES (ANGSTROEM)
---------------------------------
  C     -1.457521   -1.133306    0.420270
  H     -0.899296   -2.043309    0.214363
  H     -2.386213   -1.139836   -0.144055
  H     -1.716740   -1.109860    1.477211
  C     -0.689885    0.121106    0.084034
  O     -1.235071    1.222542    0.027061
  N      0.636873   -0.047708   -0.129714
  H      1.013194   -0.974954   -0.052957
  C      1.524111    1.058758   -0.418663
  H      0.909919    1.949567   -0.498486
  H      2.251526    1.198224    0.378740
  H      2.049102    0.898776   -1.357805

 Total Charge           Charge          ....    0
 Multiplicity           Mult            ....    1
 Number of Electrons    NEL             ....   40
 Basis Dimension        Dim             ....   89

ORBITAL ENERGIES
----------------

  NO   OCC          E(Eh)            E(eV)
   0   2.0000     -19.444726      -529.1179
   1   2.0000     -14.661302      -398.9543
   2   2.0000     -10.542215      -286.8683
   3   2.0000     -10.464214      -284.7457
   4   2.0000     -10.440166      -284.0914
   5   2.0000      -1.130727       -30.7686
   6   2.0000      -1.017981       -27.7007
   7   2.0000      -0.841293       -22.8927
   8   2.0000      -0.769751       -20.9460
   9   2.0000      -0.654484       -17.8094
  10   2.0000      -0.569736       -15.5033
  11   2.0000      -0.529097       -14.3975
  12   2.0000      -0.520955       -14.1759
  13   2.0000      -0.483035       -13.1440
  14   2.0000      -0.461043       -12.5456
  15   2.0000      -0.452194       -12.3048
  16   2.0000      -0.440626       -11.9900
  17   2.0000      -0.403448       -10.9784
  18   2.0000      -0.300958        -8.1895
  19   2.0000      -0.297928        -8.1070
  20   0.0000       0.069732         1.8975
  21   0.0000       0.120549         3.2803
  22   0.0000       0.176744         4.8094
  23   0.0000       0.189402         5.1539
  24   0.0000       0.198137         5.3916

MULLIKEN ATOMIC CHARGES
-----------------------
   0 C :   -0.749315
   1 H :    0.206582
   2 H :    0.262679
   3 H :    0.255787
   4 C :    0.519086
   5 O :   -0.437719
   6 N :   -0.623256
   7 H :    0.351720
   8 C :   -0.493261
   9 H :    0.271572
  10 H :    0.218173
  11 H :    0.217954
Sum of atomic charges:    0.0000000

LOEWDIN ATOMIC CHARGES
----------------------
   0 C :   -0.389700
   1 H :    0.124643
   2 H :    0.157247
   3 H :    0.156111
   4 C :    0.103777
   5 O :   -0.293575
   6 N :   -0.249023
   7 H :    0.249931
   8 C :   -0.259461
   9 H :    0.157387
  10 H :    0.120960
  11 H :    0.121703

  Mayer bond orders larger than 0.100000
B(  0-C ,  1-H ) :   0.9220 B(  0-C ,  2-H ) :   0.9120 B(  0-C ,  3-H ) :   0.9087
B(  0-C ,  4-C ) :   0.9266 B(  4-C ,  5-O ) :   1.9885 B(  4-C ,  6-N ) :   1.1421
B(  6-N ,  7-H ) :   0.8298 B(  6-N ,  8-C ) :   0.9478 B(  8-C ,  9-H ) :   0.8942
B(  8-C , 10-H ) :   0.9218 B(  8-C , 11-H ) :   0.9230

Dispersion correction           -0.004435809
FINAL SINGLE POINT ENERGY      -247.988749028499

DIPOLE MOMENT
-------------
                                X             Y             Z
Electronic contribution:     -1.69255       1.61615      -0.01906
Nuclear contribution   :      2.67181      -2.77003       0.04612
                        -----------------------------------------
Total Dipole Moment    :      0.97926      -1.15389       0.02706
                        -----------------------------------------
Magnitude (a.u.)       :      1.51365
Magnitude (Debye)      :      3.84740

Rotational constants in cm-1:     0.334196     0.129652     0.096786
Rotational constants in MHz : 10018.946973  3886.884127  2901.566167

                             ****ORCA TERMINATED NORMALLY****
TOTAL RUN TIME: 0 days 0 hours 1 minutes 27 seconds 882 msec
