                         Program Version 5.0.3 -  RELEASE  -
|  1> ! PBEh-3c def2/J TightSCF DefGrid3
|  2>
|  3> %maxcore 60000
|  4>
|  5> %pal
|  6> nprocs 4
|  7> end
|  8>
|  9> *xyzfile 0 1 SI5H12_1.xyz
| 10>
| 11>                          ****END OF INPUT****

CARTESIAN COORDINATES (ANGSTROEM)
---------------------------------
  Si     0.631399    1.115159   -2.085325
  Si     0.703672    3.039506   -0.744268
  Si     0.720984   -0.801374   -0.734688
  Si    -0.986299   -0.760306    0.874959
  Si    -0.978168   -2.707407    2.183592
  H     -0.640693    1.101770   -2.857483
  H      1.757991    1.130220   -3.058215
  H      2.033989   -0.848305   -0.035373
  H      0.599659   -2.036500   -1.556459
  H     -2.300803   -0.616380    0.191675
  H     -0.796689    0.433022    1.743826
  H     -2.048964   -2.680522    3.213599
  H     -1.185257   -3.895070    1.315454
  H      0.333548   -2.846383    2.867099
  H      0.727297    4.276218   -1.567374
  H     -0.490368    3.079756    0.138329
  H      1.918701    3.016598    0.110653

 Total Charge           Charge          ....    0
 Multiplicity           Mult            ....    1
 Number of Electrons    NEL             ....   82
 Basis Dimension        Dim             ....  114

ORBITAL ENERGIES
----------------

  NO   OCC          E(Eh)            E(eV)
   0   2.0000     -66.736230     -1815.9852
   1   2.0000     -66.734595     -1815.9407
   2   2.0000     -66.734526     -1815.9388
   3   2.0000     -66.732908     -1815.8947
   4   2.0000     -66.732651     -1815.8878
   5   2.0000      -5.518093      -150.1549
   6   2.0000      -5.516951      -150.1239
   7   2.0000      -5.516896      -150.1224
   8   2.0000      -5.516431      -150.1097
   9   2.0000      -5.516116      -150.1012
  10   2.0000      -3.808794      -103.6426
  11   2.0000      -3.808618      -103.6378
  12   2.0000      -3.808541      -103.6357
  13   2.0000      -3.807632      -103.6109
  14   2.0000      -3.807582      -103.6096
  15   2.0000      -3.807402      -103.6047
  16   2.0000      -3.807380      -103.6041
  17   2.0000      -3.807349      -103.6032
  18   2.0000      -3.807264      -103.6009
  19   2.0000      -3.807018      -103.5942
  20   2.0000      -3.806915      -103.5914
  21   2.0000      -3.806741      -103.5867
  22   2.0000      -3.806651      -103.5843
  23   2.0000      -3.806613      -103.5832
  24   2.0000      -3.806382      -103.5769
  25   2.0000      -0.659120       -17.9356
  26   2.0000      -0.633109       -17.2278
  27   2.0000      -0.598396       -16.2832
  28   2.0000      -0.563117       -15.3232
  29   2.0000      -0.535020       -14.5586
  30   2.0000      -0.429062       -11.6754
  31   2.0000      -0.420156       -11.4330
  32   2.0000      -0.410257       -11.1637
  33   2.0000      -0.407087       -11.0774
  34   2.0000      -0.401618       -10.9286
  35   2.0000      -0.392031       -10.6677
  36   2.0000      -0.388140       -10.5618
  37   2.0000      -0.366951        -9.9852
  38   2.0000      -0.355778        -9.6812
  39   2.0000      -0.335571        -9.1313
  40   2.0000      -0.314607        -8.5609
  41   0.0000       0.002409         0.0656
  42   0.0000       0.014117         0.3841
  43   0.0000       0.030887         0.8405
  44   0.0000       0.034419         0.9366
  45   0.0000       0.043710         1.1894

MULLIKEN ATOMIC CHARGES
-----------------------
   0 Si:   -0.052079
   1 Si:    0.034085
   2 Si:   -0.046087
   3 Si:   -0.077655
   4 Si:    0.052929
   5 H :    0.014615
   6 H :    0.018363
   7 H :    0.016522
   8 H :    0.020420
   9 H :    0.015300
  10 H :    0.014785
  11 H :    0.000382
  12 H :   -0.003921
  13 H :   -0.004199
  14 H :    0.001790
  15 H :   -0.002023
  16 H :   -0.003227
Sum of atomic charges:   -0.0000000

LOEWDIN ATOMIC CHARGES
----------------------
   0 Si:   -0.000167
   1 Si:    0.049437
   2 Si:    0.005890
   3 Si:   -0.005427
   4 Si:    0.053660
   5 H :   -0.004203
   6 H :   -0.004009
   7 H :   -0.004154
   8 H :   -0.003676
   9 H :   -0.004443
  10 H :   -0.004776
  11 H :   -0.012778
  12 H :   -0.013347
  13 H :   -0.013382
  14 H :   -0.012190
  15 H :   -0.012937
  16 H :   -0.013499

  Mayer bond orders larger than 0.100000
B(  0-Si,  1-Si) :   0.9729 B(  0-Si,  2-Si) :   0.9726 B(  0-Si,  5-H ) :   0.9599
B(  0-Si,  6-H ) :   0.9611 B(  1-Si, 14-H ) :   0.9654 B(  1-Si, 15-H ) :   0.9608
B(  1-Si, 16-H ) :   0.9630 B(  2-Si,  3-Si) :   0.9609 B(  2-Si,  7-H ) :   0.9600
B(  2-Si,  8-H ) :   0.9630 B(  3-Si,  4-Si) :   0.9772 B(  3-Si,  9-H ) :   0.9607
B(  3-Si, 10-H ) :   0.9580 B(  4-Si, 11-H ) :   0.9643 B(  4-Si, 12-H ) :   0.9636
B(  4-Si, 13-H ) :   0.9635

Dispersion correction           -0.008487092
FINAL SINGLE POINT ENERGY     -1452.862019147879

DIPOLE MOMENT
-------------
                                X             Y             Z
Electronic contribution:      0.26590      -0.34260      -1.51401
Nuclear contribution   :     -0.26957       0.33677       1.48848
                        -----------------------------------------
Total Dipole Moment    :     -0.00367      -0.00583      -0.02553
                        -----------------------------------------
Magnitude (a.u.)       :      0.02644
Magnitude (Debye)      :      0.06722

Rotational constants in cm-1:     0.096060     0.017954     0.016072
Rotational constants in MHz :  2879.803186   538.236910   481.816772

                             ****ORCA TERMINATED NORMALLY****
TOTAL RUN TIME: 0 days 0 hours 1 minutes 40 seconds 458 msec
