                         Program Version 5.0.3 -  RELEASE  -
|  1> ! PBEh-3c def2/J TightSCF DefGrid3
|  2>
|  3> %maxcore 60000
|  4>
|  5> %pal
|  6> nprocs 4
|  7> end
|  8>
|  9> *xyzfile 0 2 42.xyz
| 10>
| 11>                          ****END OF INPUT****

CARTESIAN COORDINATES (ANGSTROEM)
---------------------------------
  B     -1.135764   -0.982029   -2.569805
  H     -2.894803   -1.747504   -3.074667
  H      0.079384   -0.624808    1.842725
  O     -1.965237   -1.744608   -3.351230
  H      0.019130   -0.959171   -2.884927
  H     -2.524299   -0.241616   -1.147936
  N     -1.544073   -0.223522   -1.423618
  F     -1.116221    1.535102    0.899602
  P      1.776115    1.472557   -0.337696
  C      1.084717   -0.313397    2.164710
  B      2.152532    0.423935    1.307500
  Al     0.585505    2.389697    1.557140
  O      1.084470    1.053361    2.670001
  H      3.286290    0.411437    1.665516
  F      1.458902   -1.169271    3.172475
  Al    -0.346649    0.719837   -0.489789

 Total Charge           Charge          ....    0
 Multiplicity           Mult            ....    2
 Number of Electrons    NEL             ....  103
 Basis Dimension        Dim             ....  184

ORBITAL ENERGIES
----------------
                 SPIN UP ORBITALS
  NO   OCC          E(Eh)            E(eV)
   0   1.0000     -77.718028     -2114.8151
   1   1.0000     -56.672450     -1542.1358
   2   1.0000     -56.662613     -1541.8681
   3   1.0000     -25.139604      -684.0834
   4   1.0000     -25.090571      -682.7492
   5   1.0000     -19.531659      -531.4835
   6   1.0000     -19.520595      -531.1824
   7   1.0000     -14.650861      -398.6702
   8   1.0000     -10.570545      -287.6392
   9   1.0000      -7.005916      -190.6407
  10   1.0000      -6.988542      -190.1679
  11   1.0000      -6.793999      -184.8741
  12   1.0000      -4.884818      -132.9227
  13   1.0000      -4.883739      -132.8933
  14   1.0000      -4.883119      -132.8764
  15   1.0000      -4.406199      -119.8988
  16   1.0000      -4.394154      -119.5710
  17   1.0000      -2.898388       -78.8691
  18   1.0000      -2.895885       -78.8010
  19   1.0000      -2.890708       -78.6602
  20   1.0000      -2.883329       -78.4594
  21   1.0000      -2.882448       -78.4354
  22   1.0000      -2.880039       -78.3699
  23   1.0000      -1.339809       -36.4580
  24   1.0000      -1.327857       -36.1328
  25   1.0000      -1.140710       -31.0403
  26   1.0000      -1.136638       -30.9295
  27   1.0000      -0.958668       -26.0867
  28   1.0000      -0.759936       -20.6789
  29   1.0000      -0.704906       -19.1815
  30   1.0000      -0.646580       -17.5943
  31   1.0000      -0.624300       -16.9881
  32   1.0000      -0.607376       -16.5275
  33   1.0000      -0.590807       -16.0767
  34   1.0000      -0.586210       -15.9516
  35   1.0000      -0.576751       -15.6942
  36   1.0000      -0.562627       -15.3099
  37   1.0000      -0.547300       -14.8928
  38   1.0000      -0.525359       -14.2957
  39   1.0000      -0.485937       -13.2230
  40   1.0000      -0.457229       -12.4418
  41   1.0000      -0.452551       -12.3145
  42   1.0000      -0.442377       -12.0377
  43   1.0000      -0.440607       -11.9895
  44   1.0000      -0.411600       -11.2002
  45   1.0000      -0.407533       -11.0895
  46   1.0000      -0.369400       -10.0519
  47   1.0000      -0.365435        -9.9440
  48   1.0000      -0.344548        -9.3756
  49   1.0000      -0.327483        -8.9113
  50   1.0000      -0.308436        -8.3930
  51   1.0000      -0.242086        -6.5875
  52   0.0000      -0.020098        -0.5469
  53   0.0000      -0.013286        -0.3615
  54   0.0000      -0.001361        -0.0370
  55   0.0000       0.005781         0.1573
  56   0.0000       0.058785         1.5996

                 SPIN DOWN ORBITALS
  NO   OCC          E(Eh)            E(eV)
   0   1.0000     -77.717063     -2114.7888
   1   1.0000     -56.672457     -1542.1359
   2   1.0000     -56.658871     -1541.7663
   3   1.0000     -25.138914      -684.0646
   4   1.0000     -25.090494      -682.7470
   5   1.0000     -19.530437      -531.4502
   6   1.0000     -19.520592      -531.1823
   7   1.0000     -14.650774      -398.6678
   8   1.0000     -10.570195      -287.6296
   9   1.0000      -7.005907      -190.6404
  10   1.0000      -6.988701      -190.1722
  11   1.0000      -6.792929      -184.8450
  12   1.0000      -4.883123      -132.8765
  13   1.0000      -4.882489      -132.8593
  14   1.0000      -4.881325      -132.8276
  15   1.0000      -4.406202      -119.8989
  16   1.0000      -4.387888      -119.4005
  17   1.0000      -2.898354       -78.8682
  18   1.0000      -2.895875       -78.8008
  19   1.0000      -2.890738       -78.6610
  20   1.0000      -2.879647       -78.3592
  21   1.0000      -2.876995       -78.2870
  22   1.0000      -2.874076       -78.2076
  23   1.0000      -1.338317       -36.4175
  24   1.0000      -1.327603       -36.1259
  25   1.0000      -1.140702       -31.0401
  26   1.0000      -1.134377       -30.8680
  27   1.0000      -0.958488       -26.0818
  28   1.0000      -0.757670       -20.6173
  29   1.0000      -0.699412       -19.0320
  30   1.0000      -0.646521       -17.5927
  31   1.0000      -0.622305       -16.9338
  32   1.0000      -0.603491       -16.4218
  33   1.0000      -0.590627       -16.0718
  34   1.0000      -0.584811       -15.9135
  35   1.0000      -0.574976       -15.6459
  36   1.0000      -0.559641       -15.2286
  37   1.0000      -0.546299       -14.8655
  38   1.0000      -0.524709       -14.2781
  39   1.0000      -0.485081       -13.1997
  40   1.0000      -0.454397       -12.3648
  41   1.0000      -0.450951       -12.2710
  42   1.0000      -0.442332       -12.0365
  43   1.0000      -0.440377       -11.9833
  44   1.0000      -0.411193       -11.1891
  45   1.0000      -0.406572       -11.0634
  46   1.0000      -0.365201        -9.9376
  47   1.0000      -0.364245        -9.9116
  48   1.0000      -0.340935        -9.2773
  49   1.0000      -0.310252        -8.4424
  50   1.0000      -0.301844        -8.2136
  51   0.0000      -0.085557        -2.3281
  52   0.0000      -0.018594        -0.5060
  53   0.0000      -0.008916        -0.2426
  54   0.0000       0.009428         0.2565
  55   0.0000       0.021495         0.5849

MULLIKEN ATOMIC CHARGES AND SPIN POPULATIONS
--------------------------------------------
   0 B :    0.298467   -0.000359
   1 H :    0.430510    0.000012
   2 H :    0.176898   -0.000851
   3 O :   -0.574421    0.000046
   4 H :    0.012623    0.000002
   5 H :    0.351251    0.000133
   6 N :   -0.811226    0.001680
   7 F :   -0.495533    0.006837
   8 P :   -0.422652    0.163106
   9 C :    0.292313    0.014221
  10 B :    0.000988   -0.006238
  11 Al:    0.683375    0.764952
  12 O :   -0.618054    0.017979
  13 H :    0.080609    0.001349
  14 F :   -0.332378    0.001341
  15 Al:    0.927230    0.035789
Sum of atomic charges         :   -0.0000000

LOEWDIN ATOMIC CHARGES AND SPIN POPULATIONS
-------------------------------------------
   0 B :    0.023932    0.000762
   1 H :    0.327585    0.000020
   2 H :    0.116008   -0.000501
   3 O :   -0.327957    0.000092
   4 H :    0.003665    0.000063
   5 H :    0.263360    0.000064
   6 N :   -0.420356    0.001668
   7 F :   -0.214699    0.013548
   8 P :   -0.041747    0.142631
   9 C :    0.143548    0.012684
  10 B :   -0.184877   -0.003992
  11 Al:    0.285667    0.784290
  12 O :   -0.273616    0.024940
  13 H :    0.037961    0.000880
  14 F :   -0.190209    0.002020
  15 Al:    0.451734    0.020833

  Mayer bond orders larger than 0.100000
B(  0-B ,  3-O ) :   1.2969 B(  0-B ,  4-H ) :   0.9554 B(  0-B ,  6-N ) :   1.1367
B(  1-H ,  3-O ) :   0.7627 B(  2-H ,  9-C ) :   0.8864 B(  5-H ,  6-N ) :   0.8156
B(  6-N , 15-Al) :   1.0126 B(  7-F , 11-Al) :   0.3255 B(  7-F , 15-Al) :   0.5402
B(  8-P , 10-B ) :   0.9537 B(  8-P , 11-Al) :   0.8421 B(  8-P , 15-Al) :   1.0545
B(  9-C , 10-B ) :   0.9084 B(  9-C , 12-O ) :   0.8217 B(  9-C , 14-F ) :   0.9448
B( 10-B , 12-O ) :   0.3981 B( 10-B , 13-H ) :   0.9662 B( 11-Al, 12-O ) :   0.7103
B( 11-Al, 15-Al) :   0.1000

Dispersion correction           -0.008636709
FINAL SINGLE POINT ENERGY     -1320.099348202066

DIPOLE MOMENT
-------------
                                X             Y             Z
Electronic contribution:      2.29350       6.59400       5.93582
Nuclear contribution   :     -4.46886      -6.31679      -6.40149
                        -----------------------------------------
Total Dipole Moment    :     -2.17536       0.27721      -0.46566
                        -----------------------------------------
Magnitude (a.u.)       :      2.24185
Magnitude (Debye)      :      5.69833

Rotational constants in cm-1:     0.038420     0.014196     0.013000
Rotational constants in MHz :  1151.815412   425.588061   389.721741

                             ****ORCA TERMINATED NORMALLY****
TOTAL RUN TIME: 0 days 0 hours 3 minutes 53 seconds 945 msec
