                         Program Version 5.0.3 -  RELEASE  -
|  1> ! PBEh-3c def2/J TightSCF DefGrid3
|  2>
|  3> %maxcore 60000
|  4>
|  5> %pal
|  6> nprocs 4
|  7> end
|  8>
|  9> *xyzfile 0 1 1-pentene.xyz
| 10>
| 11>                          ****END OF INPUT****

CARTESIAN COORDINATES (ANGSTROEM)
---------------------------------
  C     -1.701227   -0.528066   -1.416371
  H     -1.704047   -1.628038   -1.380484
  H     -1.173606   -0.228485   -2.334534
  H     -2.744641   -0.194413   -1.508118
  C     -1.032190    0.065106   -0.174464
  H     -1.066627    1.165720   -0.218364
  H     -1.599883   -0.222313    0.726299
  C      0.432270   -0.382418   -0.011305
  H      0.455962   -1.487540    0.019260
  H      1.014639   -0.081538   -0.897767
  C      1.081857    0.159300    1.228183
  H      0.599993   -0.109850    2.175924
  C      2.168264    0.936548    1.257180
  H      2.587257    1.302652    2.195439
  H      2.681980    1.233335    0.339121

 Total Charge           Charge          ....    0
 Multiplicity           Mult            ....    1
 Number of Electrons    NEL             ....   40
 Basis Dimension        Dim             ....   95

ORBITAL ENERGIES
----------------

  NO   OCC          E(Eh)            E(eV)
   0   2.0000     -10.445443      -284.2349
   1   2.0000     -10.438897      -284.0568
   2   2.0000     -10.437354      -284.0148
   3   2.0000     -10.432465      -283.8818
   4   2.0000     -10.427376      -283.7433
   5   2.0000      -0.895529       -24.3686
   6   2.0000      -0.838832       -22.8258
   7   2.0000      -0.756077       -20.5739
   8   2.0000      -0.663567       -18.0566
   9   2.0000      -0.619738       -16.8639
  10   2.0000      -0.534834       -14.5536
  11   2.0000      -0.506646       -13.7865
  12   2.0000      -0.482300       -13.1241
  13   2.0000      -0.464449       -12.6383
  14   2.0000      -0.438735       -11.9386
  15   2.0000      -0.412912       -11.2359
  16   2.0000      -0.391310       -10.6481
  17   2.0000      -0.380570       -10.3558
  18   2.0000      -0.376167       -10.2360
  19   2.0000      -0.296291        -8.0625
  20   0.0000       0.047385         1.2894
  21   0.0000       0.142541         3.8787
  22   0.0000       0.168651         4.5892
  23   0.0000       0.175573         4.7776
  24   0.0000       0.198146         5.3918

MULLIKEN ATOMIC CHARGES
-----------------------
   0 C :   -0.637244
   1 H :    0.208610
   2 H :    0.209710
   3 H :    0.220183
   4 C :   -0.410349
   5 H :    0.218792
   6 H :    0.205376
   7 C :   -0.461064
   8 H :    0.214856
   9 H :    0.212856
  10 C :   -0.120881
  11 H :    0.208798
  12 C :   -0.489161
  13 H :    0.212676
  14 H :    0.206842
Sum of atomic charges:    0.0000000

LOEWDIN ATOMIC CHARGES
----------------------
   0 C :   -0.362321
   1 H :    0.123405
   2 H :    0.124072
   3 H :    0.127823
   4 C :   -0.242982
   5 H :    0.125180
   6 H :    0.120112
   7 C :   -0.238494
   8 H :    0.129064
   9 H :    0.126012
  10 C :   -0.138402
  11 H :    0.126909
  12 C :   -0.278733
  13 H :    0.131192
  14 H :    0.127161

  Mayer bond orders larger than 0.100000
B(  0-C ,  1-H ) :   0.9292 B(  0-C ,  2-H ) :   0.9288 B(  0-C ,  3-H ) :   0.9310
B(  0-C ,  4-C ) :   0.9907 B(  4-C ,  5-H ) :   0.9176 B(  4-C ,  6-H ) :   0.9214
B(  4-C ,  7-C ) :   0.9637 B(  7-C ,  8-H ) :   0.9097 B(  7-C ,  9-H ) :   0.9213
B(  7-C , 10-C ) :   1.0021 B( 10-C , 11-H ) :   0.9176 B( 10-C , 12-C ) :   1.9352
B( 12-C , 13-H ) :   0.9297 B( 12-C , 14-H ) :   0.9304

Dispersion correction           -0.005968271
FINAL SINGLE POINT ENERGY      -196.093985631024

DIPOLE MOMENT
-------------
                                X             Y             Z
Electronic contribution:      2.15450       0.55128       2.07336
Nuclear contribution   :     -2.28704      -0.60364      -2.12858
                        -----------------------------------------
Total Dipole Moment    :     -0.13254      -0.05236      -0.05523
                        -----------------------------------------
Magnitude (a.u.)       :      0.15284
Magnitude (Debye)      :      0.38848

Rotational constants in cm-1:     0.609793     0.070010     0.068846
Rotational constants in MHz : 18281.147219  2098.860369  2063.962352

                             ****ORCA TERMINATED NORMALLY****
TOTAL RUN TIME: 0 days 0 hours 1 minutes 10 seconds 941 msec
