                         Program Version 5.0.3 -  RELEASE  -
|  1> ! PBEh-3c def2/J TightSCF DefGrid3
|  2>
|  3> %maxcore 60000
|  4>
|  5> %pal
|  6> nprocs 4
|  7> end
|  8>
|  9> *xyzfile 0 1 E33.xyz
| 10>
| 11>                          ****END OF INPUT****

CARTESIAN COORDINATES (ANGSTROEM)
---------------------------------
  C     -2.924098   -0.887538    0.396298
  C     -1.945864   -0.004591   -0.380111
  C     -0.542153    0.022473    0.230521
  C      0.434062    0.915454   -0.540792
  C      1.840245    0.954238    0.059206
  C      2.620508   -0.326522   -0.127892
  O      3.677148   -0.396518    0.723329
  O      2.390063   -1.190212   -0.936287
  H      4.151593   -1.218613    0.520970
  H     -3.913941   -0.888347   -0.066153
  H     -2.575245   -1.923120    0.435184
  H     -3.039853   -0.539228    1.426590
  H     -2.338440    1.017505   -0.430847
  H     -1.878721   -0.357131   -1.415050
  H     -0.607372    0.370109    1.269180
  H     -0.149078   -0.998680    0.267496
  H      0.045288    1.938379   -0.567067
  H      0.499645    0.575395   -1.577688
  H      2.438184    1.742525   -0.412109
  H      1.818029    1.194423    1.125224

 Total Charge           Charge          ....    0
 Multiplicity           Mult            ....    1
 Number of Electrons    NEL             ....   64
 Basis Dimension        Dim             ....  144

ORBITAL ENERGIES
----------------

  NO   OCC          E(Eh)            E(eV)
   0   2.0000     -19.540413      -531.7217
   1   2.0000     -19.486611      -530.2576
   2   2.0000     -10.582501      -287.9645
   3   2.0000     -10.455136      -284.4987
   4   2.0000     -10.439219      -284.0656
   5   2.0000     -10.431085      -283.8442
   6   2.0000     -10.430753      -283.8352
   7   2.0000     -10.421697      -283.5888
   8   2.0000      -1.218010       -33.1437
   9   2.0000      -1.123996       -30.5855
  10   2.0000      -0.903281       -24.5795
  11   2.0000      -0.857813       -23.3423
  12   2.0000      -0.786867       -21.4118
  13   2.0000      -0.714559       -19.4441
  14   2.0000      -0.658596       -17.9213
  15   2.0000      -0.641328       -17.4514
  16   2.0000      -0.569945       -15.5090
  17   2.0000      -0.552511       -15.0346
  18   2.0000      -0.537143       -14.6164
  19   2.0000      -0.522156       -14.2086
  20   2.0000      -0.485267       -13.2048
  21   2.0000      -0.476375       -12.9628
  22   2.0000      -0.463927       -12.6241
  23   2.0000      -0.450517       -12.2592
  24   2.0000      -0.442318       -12.0361
  25   2.0000      -0.410988       -11.1836
  26   2.0000      -0.396552       -10.7907
  27   2.0000      -0.380077       -10.3424
  28   2.0000      -0.376404       -10.2425
  29   2.0000      -0.370862       -10.0917
  30   2.0000      -0.368428       -10.0254
  31   2.0000      -0.334905        -9.1132
  32   0.0000       0.045838         1.2473
  33   0.0000       0.131279         3.5723
  34   0.0000       0.139007         3.7826
  35   0.0000       0.149398         4.0653
  36   0.0000       0.181617         4.9420

MULLIKEN ATOMIC CHARGES
-----------------------
   0 C :   -0.639030
   1 C :   -0.410880
   2 C :   -0.403640
   3 C :   -0.417893
   4 C :   -0.560798
   5 C :    0.532193
   6 O :   -0.593672
   7 O :   -0.389143
   8 H :    0.438779
   9 H :    0.218898
  10 H :    0.212581
  11 H :    0.207774
  12 H :    0.202313
  13 H :    0.211601
  14 H :    0.196232
  15 H :    0.224859
  16 H :    0.216552
  17 H :    0.235216
  18 H :    0.266246
  19 H :    0.251810
Sum of atomic charges:    0.0000000

LOEWDIN ATOMIC CHARGES
----------------------
   0 C :   -0.362003
   1 C :   -0.244249
   2 C :   -0.241957
   3 C :   -0.236513
   4 C :   -0.275437
   5 C :    0.138563
   6 O :   -0.309029
   7 O :   -0.229169
   8 H :    0.331345
   9 H :    0.126721
  10 H :    0.125025
  11 H :    0.122772
  12 H :    0.118186
  13 H :    0.122694
  14 H :    0.116659
  15 H :    0.128485
  16 H :    0.125388
  17 H :    0.136558
  18 H :    0.157733
  19 H :    0.148228

  Mayer bond orders larger than 0.100000
B(  0-C ,  1-C ) :   0.9973 B(  0-C ,  9-H ) :   0.9317 B(  0-C , 10-H ) :   0.9284
B(  0-C , 11-H ) :   0.9297 B(  1-C ,  2-C ) :   0.9927 B(  1-C , 12-H ) :   0.9211
B(  1-C , 13-H ) :   0.9183 B(  2-C ,  3-C ) :   0.9857 B(  2-C , 14-H ) :   0.9183
B(  2-C , 15-H ) :   0.9090 B(  3-C ,  4-C ) :   0.9700 B(  3-C , 16-H ) :   0.9192
B(  3-C , 17-H ) :   0.9069 B(  4-C ,  5-C ) :   0.9243 B(  4-C , 18-H ) :   0.8992
B(  4-C , 19-H ) :   0.8998 B(  5-C ,  6-O ) :   1.1357 B(  5-C ,  7-O ) :   2.0527
B(  6-O ,  8-H ) :   0.7610

Dispersion correction           -0.009195417
FINAL SINGLE POINT ENERGY      -385.514566453370

DIPOLE MOMENT
-------------
                                X             Y             Z
Electronic contribution:     13.53497      -2.03623      -0.88461
Nuclear contribution   :    -13.40226       2.42461       1.23508
                        -----------------------------------------
Total Dipole Moment    :      0.13270       0.38837       0.35047
                        -----------------------------------------
Magnitude (a.u.)       :      0.53970
Magnitude (Debye)      :      1.37181

Rotational constants in cm-1:     0.149798     0.026725     0.025465
Rotational constants in MHz :  4490.818029   801.189052   763.421832

                             ****ORCA TERMINATED NORMALLY****
TOTAL RUN TIME: 0 days 0 hours 1 minutes 42 seconds 293 msec
