                         Program Version 5.0.3 -  RELEASE  -
|  1> ! PBEh-3c def2/J TightSCF DefGrid3
|  2>
|  3> %maxcore 60000
|  4>
|  5> %pal
|  6> nprocs 4
|  7> end
|  8>
|  9> *xyzfile -1 1 228B.xyz
| 10>
| 11>                          ****END OF INPUT****

CARTESIAN COORDINATES (ANGSTROEM)
---------------------------------
  O      2.124660   -0.082500   -1.835370
  N      1.393200    0.001190   -2.925420
  O      1.935420   -0.075870   -4.037530
  O      0.127250    0.187340   -2.795260

 Total Charge           Charge          ....   -1
 Multiplicity           Mult            ....    1
 Number of Electrons    NEL             ....   32
 Basis Dimension        Dim             ....   60

ORBITAL ENERGIES
----------------

  NO   OCC          E(Eh)            E(eV)
   0   2.0000     -19.271795      -524.4122
   1   2.0000     -19.258665      -524.0549
   2   2.0000     -19.249077      -523.7940
   3   2.0000     -14.663592      -399.0166
   4   2.0000      -1.093993       -29.7691
   5   2.0000      -0.885326       -24.0910
   6   2.0000      -0.849810       -23.1245
   7   2.0000      -0.444261       -12.0890
   8   2.0000      -0.354233        -9.6392
   9   2.0000      -0.339667        -9.2428
  10   2.0000      -0.336525        -9.1573
  11   2.0000      -0.137045        -3.7292
  12   2.0000      -0.134265        -3.6535
  13   2.0000      -0.116296        -3.1646
  14   2.0000      -0.100374        -2.7313
  15   2.0000      -0.069092        -1.8801
  16   0.0000       0.235564         6.4100
  17   0.0000       0.459461        12.5026
  18   0.0000       0.590954        16.0807
  19   0.0000       0.640962        17.4415
  20   0.0000       0.953829        25.9550

MULLIKEN ATOMIC CHARGES
-----------------------
   0 O :   -0.569359
   1 N :    0.629398
   2 O :   -0.510983
   3 O :   -0.549056
Sum of atomic charges:   -1.0000000

LOEWDIN ATOMIC CHARGES
----------------------
   0 O :   -0.462937
   1 N :    0.268389
   2 O :   -0.375240
   3 O :   -0.430212

  Mayer bond orders larger than 0.100000
B(  0-O ,  1-N ) :   1.4703 B(  0-O ,  2-O ) :   0.1427 B(  0-O ,  3-O ) :   0.1366
B(  1-N ,  2-O ) :   1.5789 B(  1-N ,  3-O ) :   1.5123 B(  2-O ,  3-O ) :   0.1484

Dispersion correction           -0.000858684
FINAL SINGLE POINT ENERGY      -279.754082293173

DIPOLE MOMENT
-------------
                                X             Y             Z
Electronic contribution:      0.00270      -0.01092      -0.16941
Nuclear contribution   :      0.00001       0.00005       0.00021
                        -----------------------------------------
Total Dipole Moment    :      0.00272      -0.01087      -0.16920
                        -----------------------------------------
Magnitude (a.u.)       :      0.16957
Magnitude (Debye)      :      0.43102

Rotational constants in cm-1:     0.434349     0.422788     0.214249
Rotational constants in MHz : 13021.443623 12674.874769  6423.036529

                             ****ORCA TERMINATED NORMALLY****
TOTAL RUN TIME: 0 days 0 hours 1 minutes 1 seconds 252 msec
