                         Program Version 5.0.3 -  RELEASE  -
|  1> ! PBEh-3c def2/J TightSCF DefGrid3
|  2>
|  3> %maxcore 60000
|  4>
|  5> %pal
|  6> nprocs 4
|  7> end
|  8>
|  9> *xyzfile 0 1 MeI_FMe.xyz
| 10>
| 11>                          ****END OF INPUT****

CARTESIAN COORDINATES (ANGSTROEM)
---------------------------------
  C      1.063213    2.394112    0.000000
  I      0.000000    0.549601    0.000000
  H      0.786114    2.944863    0.891582
  H      2.125112    2.176413    0.000000
  H      0.786114    2.944863   -0.891582
  H     -0.074575   -3.863191   -0.894505
  H     -0.074575   -3.863191    0.894505
  F     -1.165488   -2.418227    0.000000
  H      0.845164   -2.615977    0.000000
  C     -0.047207   -3.242210    0.000000

 Total Charge           Charge          ....    0
 Multiplicity           Mult            ....    1
 Number of Electrons    NEL             ....   52
 Basis Dimension        Dim             ....   83

ORBITAL ENERGIES
----------------

  NO   OCC          E(Eh)            E(eV)
   0   2.0000     -25.071638      -682.2339
   1   2.0000     -10.506517      -285.8969
   2   2.0000     -10.479385      -285.1586
   3   2.0000      -7.080640      -192.6740
   4   2.0000      -5.063884      -137.7953
   5   2.0000      -5.047620      -137.3527
   6   2.0000      -5.047499      -137.3494
   7   2.0000      -2.017745       -54.9056
   8   2.0000      -2.012681       -54.7678
   9   2.0000      -2.012556       -54.7644
  10   2.0000      -1.998425       -54.3799
  11   2.0000      -1.998421       -54.3798
  12   2.0000      -1.303152       -35.4606
  13   2.0000      -0.834571       -22.7098
  14   2.0000      -0.781177       -21.2569
  15   2.0000      -0.707603       -19.2549
  16   2.0000      -0.548225       -14.9180
  17   2.0000      -0.546646       -14.8750
  18   2.0000      -0.544889       -14.8272
  19   2.0000      -0.494417       -13.4538
  20   2.0000      -0.494298       -13.4505
  21   2.0000      -0.408025       -11.1029
  22   2.0000      -0.403838       -10.9890
  23   2.0000      -0.393064       -10.6958
  24   2.0000      -0.292231        -7.9520
  25   2.0000      -0.291558        -7.9337
  26   0.0000       0.011791         0.3209
  27   0.0000       0.140696         3.8285
  28   0.0000       0.163487         4.4487
  29   0.0000       0.179239         4.8773
  30   0.0000       0.186804         5.0832

MULLIKEN ATOMIC CHARGES
-----------------------
   0 C :   -0.820972
   1 I :    0.006602
   2 H :    0.267435
   3 H :    0.264802
   4 H :    0.267435
   5 H :    0.197360
   6 H :    0.197360
   7 F :   -0.363616
   8 H :    0.201886
   9 C :   -0.218293
Sum of atomic charges:    0.0000000

LOEWDIN ATOMIC CHARGES
----------------------
   0 C :   -0.494588
   1 I :    0.049266
   2 H :    0.145983
   3 H :    0.144728
   4 H :    0.145983
   5 H :    0.113104
   6 H :    0.113104
   7 F :   -0.256374
   8 H :    0.115021
   9 C :   -0.076227

  Mayer bond orders larger than 0.100000
B(  0-C ,  1-I ) :   1.0130 B(  0-C ,  2-H ) :   0.8969 B(  0-C ,  3-H ) :   0.8979
B(  0-C ,  4-H ) :   0.8969 B(  5-H ,  9-C ) :   0.9207 B(  6-H ,  9-C ) :   0.9207
B(  7-F ,  9-C ) :   0.9139 B(  8-H ,  9-C ) :   0.9142

Dispersion correction           -0.002801526
FINAL SINGLE POINT ENERGY      -477.020912948563

DIPOLE MOMENT
-------------
                                X             Y             Z
Electronic contribution:     -2.21543      35.39940       0.00000
Nuclear contribution   :      3.07705     -35.40318       0.00000
                        -----------------------------------------
Total Dipole Moment    :      0.86162      -0.00378       0.00000
                        -----------------------------------------
Magnitude (a.u.)       :      0.86163
Magnitude (Debye)      :      2.19009

Rotational constants in cm-1:     0.654295     0.039251     0.037560
Rotational constants in MHz : 19615.272174  1176.723855  1126.034685

                             ****ORCA TERMINATED NORMALLY****
TOTAL RUN TIME: 0 days 0 hours 1 minutes 34 seconds 652 msec
