                         Program Version 5.0.3 -  RELEASE  -
|  1> ! PBEh-3c def2/J TightSCF DefGrid3
|  2>
|  3> %maxcore 60000
|  4>
|  5> %pal
|  6> nprocs 4
|  7> end
|  8>
|  9> *xyzfile 1 1 c2cl42.xyz
| 10>
| 11>                          ****END OF INPUT****

CARTESIAN COORDINATES (ANGSTROEM)
---------------------------------
  C     -0.251773    0.275687    0.000000
  C      1.076771    0.181421    0.000000
  Cl    -1.265423    1.599312    0.000000
  Cl    -1.098445   -1.367188    0.000000
  Cl     2.018568    1.576048    0.000000
  Cl     1.853305   -1.328278    0.000000
  H     -2.333003   -0.937002    0.000000

 Total Charge           Charge          ....    1
 Multiplicity           Mult            ....    1
 Number of Electrons    NEL             ....   80
 Basis Dimension        Dim             ....  104

ORBITAL ENERGIES
----------------

  NO   OCC          E(Eh)            E(eV)
   0   2.0000    -102.652101     -2793.3057
   1   2.0000    -102.546473     -2790.4314
   2   2.0000    -102.526189     -2789.8794
   3   2.0000    -102.513887     -2789.5447
   4   2.0000     -10.794188      -293.7248
   5   2.0000     -10.786928      -293.5272
   6   2.0000     -10.119145      -275.3559
   7   2.0000     -10.013656      -272.4854
   8   2.0000      -9.993722      -271.9430
   9   2.0000      -9.981570      -271.6123
  10   2.0000      -7.805288      -212.3927
  11   2.0000      -7.801888      -212.3002
  12   2.0000      -7.795475      -212.1257
  13   2.0000      -7.702031      -209.5829
  14   2.0000      -7.692640      -209.3274
  15   2.0000      -7.691806      -209.3047
  16   2.0000      -7.681807      -209.0326
  17   2.0000      -7.672469      -208.7785
  18   2.0000      -7.672412      -208.7770
  19   2.0000      -7.669941      -208.7097
  20   2.0000      -7.660315      -208.4478
  21   2.0000      -7.659877      -208.4359
  22   2.0000      -1.302365       -35.4392
  23   2.0000      -1.232205       -33.5300
  24   2.0000      -1.192469       -32.4487
  25   2.0000      -1.132241       -30.8098
  26   2.0000      -1.033057       -28.1109
  27   2.0000      -0.860680       -23.4203
  28   2.0000      -0.825700       -22.4684
  29   2.0000      -0.782563       -21.2946
  30   2.0000      -0.749651       -20.3990
  31   2.0000      -0.729878       -19.8610
  32   2.0000      -0.698510       -19.0074
  33   2.0000      -0.664622       -18.0853
  34   2.0000      -0.620362       -16.8809
  35   2.0000      -0.605146       -16.4669
  36   2.0000      -0.591894       -16.1063
  37   2.0000      -0.570621       -15.5274
  38   2.0000      -0.554707       -15.0943
  39   2.0000      -0.493655       -13.4330
  40   0.0000      -0.252655        -6.8751
  41   0.0000      -0.204964        -5.5774
  42   0.0000      -0.204739        -5.5712
  43   0.0000      -0.141689        -3.8556
  44   0.0000      -0.116088        -3.1589

MULLIKEN ATOMIC CHARGES
-----------------------
   0 C :   -0.022971
   1 C :    0.022482
   2 Cl:    0.152343
   3 Cl:    0.183713
   4 Cl:    0.140760
   5 Cl:    0.107205
   6 H :    0.416469
Sum of atomic charges:    1.0000000

LOEWDIN ATOMIC CHARGES
----------------------
   0 C :   -0.283003
   1 C :   -0.251107
   2 Cl:    0.281355
   3 Cl:    0.476899
   4 Cl:    0.271464
   5 Cl:    0.233352
   6 H :    0.271040

  Mayer bond orders larger than 0.100000
B(  0-C ,  1-C ) :   1.4912 B(  0-C ,  2-Cl) :   1.2648 B(  0-C ,  3-Cl) :   0.7930
B(  1-C ,  4-Cl) :   1.2417 B(  1-C ,  5-Cl) :   1.1834 B(  3-Cl,  6-H ) :   0.7794

Dispersion correction           -0.004885268
FINAL SINGLE POINT ENERGY     -1915.027208598770

DIPOLE MOMENT
-------------
                                X             Y             Z
Electronic contribution:      0.56373      -0.02017       0.00000
Nuclear contribution   :     -2.59236      -0.95066       0.00000
                        -----------------------------------------
Total Dipole Moment    :     -2.02863      -0.97083       0.00000
                        -----------------------------------------
Magnitude (a.u.)       :      2.24896
Magnitude (Debye)      :      5.71640

Rotational constants in cm-1:     0.054941     0.046341     0.025138
Rotational constants in MHz :  1647.103433  1389.265088   753.618436

                             ****ORCA TERMINATED NORMALLY****
TOTAL RUN TIME: 0 days 0 hours 1 minutes 21 seconds 537 msec
