                         Program Version 5.0.3 -  RELEASE  -
|  1> ! PBEh-3c def2/J TightSCF DefGrid3
|  2>
|  3> %maxcore 60000
|  4>
|  5> %pal
|  6> nprocs 4
|  7> end
|  8>
|  9> *xyzfile 0 1 23b.xyz
| 10>
| 11>                          ****END OF INPUT****

CARTESIAN COORDINATES (ANGSTROEM)
---------------------------------
  P      0.125688    0.681169    0.000000
  C      0.000857   -0.471366    1.362961
  C     -1.622355    1.145604    0.000000
  C      0.000857   -0.471366   -1.362961
  N     -2.680734    1.591908    0.000000
  N      0.000857   -1.137959    2.297598
  N      0.000857   -1.137959   -2.297598

 Total Charge           Charge          ....    0
 Multiplicity           Mult            ....    1
 Number of Electrons    NEL             ....   54
 Basis Dimension        Dim             ....  108

ORBITAL ENERGIES
----------------

  NO   OCC          E(Eh)            E(eV)
   0   2.0000     -77.902603     -2119.8376
   1   2.0000     -14.709731      -400.2721
   2   2.0000     -14.709717      -400.2717
   3   2.0000     -14.705965      -400.1696
   4   2.0000     -10.542071      -286.8643
   5   2.0000     -10.542071      -286.8643
   6   2.0000     -10.540201      -286.8134
   7   2.0000      -6.970821      -189.6857
   8   2.0000      -5.061477      -137.7298
   9   2.0000      -5.061407      -137.7279
  10   2.0000      -5.059326      -137.6713
  11   2.0000      -1.072572       -29.1862
  12   2.0000      -1.065726       -28.9999
  13   2.0000      -1.062622       -28.9154
  14   2.0000      -0.897658       -24.4265
  15   2.0000      -0.667957       -18.1760
  16   2.0000      -0.657497       -17.8914
  17   2.0000      -0.519963       -14.1489
  18   2.0000      -0.486533       -13.2392
  19   2.0000      -0.483695       -13.1620
  20   2.0000      -0.481816       -13.1109
  21   2.0000      -0.466636       -12.6978
  22   2.0000      -0.464586       -12.6420
  23   2.0000      -0.443596       -12.0708
  24   2.0000      -0.439598       -11.9621
  25   2.0000      -0.439284       -11.9535
  26   2.0000      -0.395830       -10.7711
  27   0.0000      -0.074499        -2.0272
  28   0.0000      -0.068292        -1.8583
  29   0.0000      -0.020878        -0.5681
  30   0.0000      -0.018371        -0.4999
  31   0.0000      -0.013976        -0.3803

MULLIKEN ATOMIC CHARGES
-----------------------
   0 P :    0.707979
   1 C :   -0.127983
   2 C :   -0.127061
   3 C :   -0.127983
   4 N :   -0.112004
   5 N :   -0.106474
   6 N :   -0.106474
Sum of atomic charges:   -0.0000000

LOEWDIN ATOMIC CHARGES
----------------------
   0 P :    0.517763
   1 C :   -0.172288
   2 C :   -0.169666
   3 C :   -0.172288
   4 N :   -0.004882
   5 N :    0.000680
   6 N :    0.000680

  Mayer bond orders larger than 0.100000
B(  0-P ,  1-C ) :   0.9376 B(  0-P ,  2-C ) :   0.9316 B(  0-P ,  3-C ) :   0.9376
B(  1-C ,  5-N ) :   3.0557 B(  2-C ,  4-N ) :   3.0583 B(  3-C ,  6-N ) :   3.0557

Dispersion correction           -0.004040207
FINAL SINGLE POINT ENERGY      -618.798960007044

DIPOLE MOMENT
-------------
                                X             Y             Z
Electronic contribution:      1.45571       1.22792       0.00000
Nuclear contribution   :     -0.55415      -0.50014       0.00000
                        -----------------------------------------
Total Dipole Moment    :      0.90156       0.72777       0.00000
                        -----------------------------------------
Magnitude (a.u.)       :      1.15865
Magnitude (Debye)      :      2.94505

Rotational constants in cm-1:     0.079382     0.074591     0.045392
Rotational constants in MHz :  2379.800992  2236.196379  1360.809867

                             ****ORCA TERMINATED NORMALLY****
TOTAL RUN TIME: 0 days 0 hours 1 minutes 26 seconds 775 msec
