                         Program Version 5.0.3 -  RELEASE  -
|  1> ! PBEh-3c def2/J TightSCF DefGrid3
|  2>
|  3> %maxcore 60000
|  4>
|  5> %pal
|  6> nprocs 4
|  7> end
|  8>
|  9> *xyzfile 0 1 P7.xyz
| 10>
| 11>                          ****END OF INPUT****

CARTESIAN COORDINATES (ANGSTROEM)
---------------------------------
  C      1.074935    0.146988   -1.062085
  C     -0.284735    0.876396   -0.761182
  C     -0.284735    0.876396    0.761182
  C      1.074935    0.146988    1.062085
  C      0.904268   -1.301553   -0.664536
  C      0.904268   -1.301553    0.664536
  O      1.861952    0.665133    0.000000
  C     -1.527053    0.118263   -1.141362
  C     -1.527053    0.118263    1.141362
  O     -2.185463   -0.287891    0.000000
  O     -1.944740   -0.139933    2.221710
  O     -1.944740   -0.139933   -2.221710
  H      1.512704    0.369553   -2.030799
  H     -0.291673    1.864034   -1.220510
  H     -0.291673    1.864034    1.220510
  H      1.512704    0.369553    2.030799
  H      0.718049   -2.122368   -1.342241
  H      0.718049   -2.122368    1.342241

 Total Charge           Charge          ....    0
 Multiplicity           Mult            ....    1
 Number of Electrons    NEL             ....   86
 Basis Dimension        Dim             ....  192

ORBITAL ENERGIES
----------------

  NO   OCC          E(Eh)            E(eV)
   0   2.0000     -19.578560      -532.7597
   1   2.0000     -19.532484      -531.5059
   2   2.0000     -19.516072      -531.0593
   3   2.0000     -19.516050      -531.0587
   4   2.0000     -10.608568      -288.6738
   5   2.0000     -10.608513      -288.6723
   6   2.0000     -10.537531      -286.7408
   7   2.0000     -10.537446      -286.7385
   8   2.0000     -10.495797      -285.6052
   9   2.0000     -10.495552      -285.5985
  10   2.0000     -10.476382      -285.0768
  11   2.0000     -10.475378      -285.0495
  12   2.0000      -1.272264       -34.6201
  13   2.0000      -1.211003       -32.9531
  14   2.0000      -1.200795       -32.6753
  15   2.0000      -1.158146       -31.5148
  16   2.0000      -0.958699       -26.0875
  17   2.0000      -0.904489       -24.6124
  18   2.0000      -0.875557       -23.8251
  19   2.0000      -0.781876       -21.2759
  20   2.0000      -0.721092       -19.6219
  21   2.0000      -0.715288       -19.4640
  22   2.0000      -0.661206       -17.9923
  23   2.0000      -0.658408       -17.9162
  24   2.0000      -0.642783       -17.4910
  25   2.0000      -0.597495       -16.2587
  26   2.0000      -0.566332       -15.4107
  27   2.0000      -0.550932       -14.9916
  28   2.0000      -0.536719       -14.6049
  29   2.0000      -0.521704       -14.1963
  30   2.0000      -0.508301       -13.8316
  31   2.0000      -0.498735       -13.5713
  32   2.0000      -0.492180       -13.3929
  33   2.0000      -0.486211       -13.2305
  34   2.0000      -0.472157       -12.8481
  35   2.0000      -0.461638       -12.5618
  36   2.0000      -0.433525       -11.7968
  37   2.0000      -0.408436       -11.1141
  38   2.0000      -0.395096       -10.7511
  39   2.0000      -0.378381       -10.2963
  40   2.0000      -0.353136        -9.6093
  41   2.0000      -0.348808        -9.4915
  42   2.0000      -0.328788        -8.9468
  43   0.0000      -0.010296        -0.2802
  44   0.0000       0.007738         0.2105
  45   0.0000       0.019016         0.5174
  46   0.0000       0.114995         3.1292
  47   0.0000       0.133233         3.6255

MULLIKEN ATOMIC CHARGES
-----------------------
   0 C :    0.000395
   1 C :   -0.431941
   2 C :   -0.431940
   3 C :    0.000393
   4 C :   -0.210056
   5 C :   -0.210055
   6 O :   -0.433617
   7 C :    0.579468
   8 C :    0.579468
   9 O :   -0.428963
  10 O :   -0.317899
  11 O :   -0.317899
  12 H :    0.247422
  13 H :    0.309550
  14 H :    0.309550
  15 H :    0.247422
  16 H :    0.254352
  17 H :    0.254352
Sum of atomic charges:    0.0000000

LOEWDIN ATOMIC CHARGES
----------------------
   0 C :    0.018261
   1 C :   -0.180172
   2 C :   -0.180172
   3 C :    0.018261
   4 C :   -0.141685
   5 C :   -0.141685
   6 O :   -0.216218
   7 C :    0.160054
   8 C :    0.160054
   9 O :   -0.117908
  10 O :   -0.151106
  11 O :   -0.151106
  12 H :    0.140728
  13 H :    0.168731
  14 H :    0.168731
  15 H :    0.140728
  16 H :    0.152253
  17 H :    0.152253

  Mayer bond orders larger than 0.100000
B(  0-C ,  1-C ) :   0.9153 B(  0-C ,  4-C ) :   0.9774 B(  0-C ,  6-O ) :   0.9707
B(  0-C , 12-H ) :   0.9213 B(  1-C ,  2-C ) :   0.9449 B(  1-C ,  7-C ) :   0.9181
B(  1-C , 13-H ) :   0.8778 B(  2-C ,  3-C ) :   0.9153 B(  2-C ,  8-C ) :   0.9181
B(  2-C , 14-H ) :   0.8778 B(  3-C ,  5-C ) :   0.9774 B(  3-C ,  6-O ) :   0.9707
B(  3-C , 15-H ) :   0.9213 B(  4-C ,  5-C ) :   1.8606 B(  4-C , 16-H ) :   0.9088
B(  5-C , 17-H ) :   0.9088 B(  7-C ,  9-O ) :   1.0006 B(  7-C , 11-O ) :   2.1613
B(  8-C ,  9-O ) :   1.0006 B(  8-C , 10-O ) :   2.1613

Dispersion correction           -0.012154372
FINAL SINGLE POINT ENERGY      -608.041681260335

DIPOLE MOMENT
-------------
                                X             Y             Z
Electronic contribution:     -4.46647       0.16425      -0.00000
Nuclear contribution   :      5.61239       0.28063       0.00000
                        -----------------------------------------
Total Dipole Moment    :      1.14592       0.44488      -0.00000
                        -----------------------------------------
Magnitude (a.u.)       :      1.22925
Magnitude (Debye)      :      3.12450

Rotational constants in cm-1:     0.049411     0.039372     0.028162
Rotational constants in MHz :  1481.290680  1180.345581   844.261420

                             ****ORCA TERMINATED NORMALLY****
TOTAL RUN TIME: 0 days 0 hours 2 minutes 15 seconds 348 msec
