                         Program Version 5.0.3 -  RELEASE  -
|  1> ! PBEh-3c def2/J TightSCF DefGrid3
|  2>
|  3> %maxcore 60000
|  4>
|  5> %pal
|  6> nprocs 4
|  7> end
|  8>
|  9> *xyzfile 0 2 P45.xyz
| 10>
| 11>                          ****END OF INPUT****

CARTESIAN COORDINATES (ANGSTROEM)
---------------------------------
  C      1.593602   -0.255826    0.000000
  C      0.117845    0.001673    0.000000
  C     -0.278473    0.794531   -1.260185
  C     -0.637097   -1.353847    0.000000
  C     -0.278473    0.794531    1.260185
  H      2.123663   -0.436412    0.927758
  H      2.123663   -0.436412   -0.927758
  H     -0.005505    0.249404   -2.167651
  H     -1.357368    0.970049   -1.286396
  H      0.223653    1.764495   -1.286427
  H     -1.719228   -1.188723    0.000000
  H     -0.383531   -1.943706   -0.883784
  H     -0.383531   -1.943706    0.883784
  H     -1.357368    0.970049    1.286396
  H     -0.005505    0.249404    2.167651
  H      0.223653    1.764495    1.286427

 Total Charge           Charge          ....    0
 Multiplicity           Mult            ....    2
 Number of Electrons    NEL             ....   41
 Basis Dimension        Dim             ....   97

ORBITAL ENERGIES
----------------
                 SPIN UP ORBITALS
  NO   OCC          E(Eh)            E(eV)
   0   1.0000     -10.455341      -284.5043
   1   1.0000     -10.438425      -284.0440
   2   1.0000     -10.423634      -283.6415
   3   1.0000     -10.421840      -283.5927
   4   1.0000     -10.421784      -283.5912
   5   1.0000      -0.913264       -24.8512
   6   1.0000      -0.763531       -20.7767
   7   1.0000      -0.762749       -20.7555
   8   1.0000      -0.754744       -20.5376
   9   1.0000      -0.599354       -16.3093
  10   1.0000      -0.510905       -13.9024
  11   1.0000      -0.508674       -13.8417
  12   1.0000      -0.493290       -13.4231
  13   1.0000      -0.462426       -12.5833
  14   1.0000      -0.442231       -12.0337
  15   1.0000      -0.420760       -11.4495
  16   1.0000      -0.413693       -11.2571
  17   1.0000      -0.383569       -10.4375
  18   1.0000      -0.381290       -10.3754
  19   1.0000      -0.369519       -10.0551
  20   1.0000      -0.250892        -6.8271
  21   0.0000       0.128192         3.4883
  22   0.0000       0.178997         4.8707
  23   0.0000       0.191589         5.2134
  24   0.0000       0.195637         5.3236
  25   0.0000       0.208378         5.6703

                 SPIN DOWN ORBITALS
  NO   OCC          E(Eh)            E(eV)
   0   1.0000     -10.456564      -284.5376
   1   1.0000     -10.422529      -283.6114
   2   1.0000     -10.422101      -283.5998
   3   1.0000     -10.421451      -283.5821
   4   1.0000     -10.421392      -283.5805
   5   1.0000      -0.905189       -24.6315
   6   1.0000      -0.762735       -20.7551
   7   1.0000      -0.759413       -20.6647
   8   1.0000      -0.718371       -19.5479
   9   1.0000      -0.591074       -16.0839
  10   1.0000      -0.505769       -13.7627
  11   1.0000      -0.505156       -13.7460
  12   1.0000      -0.487777       -13.2731
  13   1.0000      -0.458371       -12.4729
  14   1.0000      -0.436841       -11.8870
  15   1.0000      -0.417617       -11.3639
  16   1.0000      -0.413150       -11.2424
  17   1.0000      -0.375791       -10.2258
  18   1.0000      -0.372811       -10.1447
  19   1.0000      -0.368196       -10.0191
  20   0.0000      -0.003358        -0.0914
  21   0.0000       0.129961         3.5364
  22   0.0000       0.185637         5.0514
  23   0.0000       0.193960         5.2779
  24   0.0000       0.197111         5.3637

MULLIKEN ATOMIC CHARGES AND SPIN POPULATIONS
--------------------------------------------
   0 C :   -0.405250    1.140172
   1 C :   -0.112833   -0.084882
   2 C :   -0.616390    0.010090
   3 C :   -0.602041    0.039193
   4 C :   -0.616390    0.010090
   5 H :    0.211259   -0.062689
   6 H :    0.211259   -0.062689
   7 H :    0.212140   -0.000967
   8 H :    0.211802    0.001296
   9 H :    0.220646    0.000030
  10 H :    0.209441    0.014043
  11 H :    0.215884   -0.002024
  12 H :    0.215884   -0.002024
  13 H :    0.211802    0.001296
  14 H :    0.212140   -0.000967
  15 H :    0.220646    0.000030
Sum of atomic charges         :   -0.0000000

LOEWDIN ATOMIC CHARGES AND SPIN POPULATIONS
-------------------------------------------
   0 C :   -0.233939    0.996479
   1 C :   -0.120747   -0.017338
   2 C :   -0.342909    0.012376
   3 C :   -0.342427    0.047039
   4 C :   -0.342909    0.012376
   5 H :    0.126115   -0.029294
   6 H :    0.126115   -0.029294
   7 H :    0.124952   -0.000500
   8 H :    0.124296    0.000897
   9 H :    0.128103   -0.000379
  10 H :    0.123532    0.009787
  11 H :    0.126234   -0.001083
  12 H :    0.126234   -0.001083
  13 H :    0.124296    0.000897
  14 H :    0.124952   -0.000500
  15 H :    0.128103   -0.000379

  Mayer bond orders larger than 0.100000
B(  0-C ,  1-C ) :   0.9850 B(  0-C ,  5-H ) :   0.9243 B(  0-C ,  6-H ) :   0.9243
B(  1-C ,  2-C ) :   0.9782 B(  1-C ,  3-C ) :   0.9612 B(  1-C ,  4-C ) :   0.9782
B(  2-C ,  7-H ) :   0.9294 B(  2-C ,  8-H ) :   0.9286 B(  2-C ,  9-H ) :   0.9288
B(  3-C , 10-H ) :   0.9249 B(  3-C , 11-H ) :   0.9300 B(  3-C , 12-H ) :   0.9300
B(  4-C , 13-H ) :   0.9286 B(  4-C , 14-H ) :   0.9294 B(  4-C , 15-H ) :   0.9288

Dispersion correction           -0.007173303
FINAL SINGLE POINT ENERGY      -196.668273595441

DIPOLE MOMENT
-------------
                                X             Y             Z
Electronic contribution:      1.24523      -0.09241      -0.00000
Nuclear contribution   :     -1.31124       0.04799      -0.00000
                        -----------------------------------------
Total Dipole Moment    :     -0.06600      -0.04442      -0.00000
                        -----------------------------------------
Magnitude (a.u.)       :      0.07956
Magnitude (Debye)      :      0.20222

Rotational constants in cm-1:     0.154907     0.152229     0.148798
Rotational constants in MHz :  4643.996821  4563.714200  4460.843677

                             ****ORCA TERMINATED NORMALLY****
TOTAL RUN TIME: 0 days 0 hours 2 minutes 36 seconds 978 msec
