                         Program Version 5.0.3 -  RELEASE  -
|  1> ! PBEh-3c def2/J TightSCF DefGrid3
|  2>
|  3> %maxcore 60000
|  4>
|  5> %pal
|  6> nprocs 4
|  7> end
|  8>
|  9> *xyzfile 0 1 59.xyz
| 10>
| 11>                          ****END OF INPUT****

CARTESIAN COORDINATES (ANGSTROEM)
---------------------------------
  C     -1.219464    0.093803    0.000000
  H     -0.153595    0.054725    0.000000
  C     -2.431340    0.137249    0.000000
  H     -3.491872    0.176317    0.000000
  O      2.051306   -0.052659    0.000000
  H      2.622482   -0.204718    0.753346
  H      2.622482   -0.204718   -0.753346

 Total Charge           Charge          ....    0
 Multiplicity           Mult            ....    1
 Number of Electrons    NEL             ....   24
 Basis Dimension        Dim             ....   53

ORBITAL ENERGIES
----------------

  NO   OCC          E(Eh)            E(eV)
   0   2.0000     -19.497526      -530.5547
   1   2.0000     -10.436903      -284.0026
   2   2.0000     -10.434044      -283.9248
   3   2.0000      -1.126346       -30.6494
   4   2.0000      -0.819281       -22.2938
   5   2.0000      -0.617018       -16.7899
   6   2.0000      -0.602817       -16.4035
   7   2.0000      -0.539076       -14.6690
   8   2.0000      -0.458839       -12.4856
   9   2.0000      -0.379582       -10.3290
  10   2.0000      -0.317817        -8.6482
  11   2.0000      -0.317623        -8.6430
  12   0.0000       0.087867         2.3910
  13   0.0000       0.088346         2.4040
  14   0.0000       0.111846         3.0435
  15   0.0000       0.191240         5.2039
  16   0.0000       0.195668         5.3244

MULLIKEN ATOMIC CHARGES
-----------------------
   0 C :   -0.243637
   1 H :    0.293713
   2 C :   -0.306623
   3 H :    0.227940
   4 O :   -0.816848
   5 H :    0.422728
   6 H :    0.422728
Sum of atomic charges:   -0.0000000

LOEWDIN ATOMIC CHARGES
----------------------
   0 C :   -0.164712
   1 H :    0.173703
   2 C :   -0.191338
   3 H :    0.157494
   4 O :   -0.587709
   5 H :    0.306281
   6 H :    0.306281

  Mayer bond orders larger than 0.100000
B(  0-C ,  1-H ) :   0.8618 B(  0-C ,  2-C ) :   2.8393 B(  2-C ,  3-H ) :   0.9343
B(  4-O ,  5-H ) :   0.8034 B(  4-O ,  6-H ) :   0.8034

Dispersion correction           -0.001303341
FINAL SINGLE POINT ENERGY      -153.406034217372

DIPOLE MOMENT
-------------
                                X             Y             Z
Electronic contribution:     -1.24648       0.08501      -0.00000
Nuclear contribution   :      2.33645      -0.31805       0.00000
                        -----------------------------------------
Total Dipole Moment    :      1.08997      -0.23304      -0.00000
                        -----------------------------------------
Magnitude (a.u.)       :      1.11460
Magnitude (Debye)      :      2.83309

Rotational constants in cm-1:    14.360788     0.093252     0.092680
Rotational constants in MHz : 430525.578821  2795.611960  2778.483670

                             ****ORCA TERMINATED NORMALLY****
TOTAL RUN TIME: 0 days 0 hours 0 minutes 48 seconds 548 msec
