                         Program Version 5.0.3 -  RELEASE  -
|  1> ! PBEh-3c def2/J TightSCF DefGrid3
|  2>
|  3> %maxcore 60000
|  4>
|  5> %pal
|  6> nprocs 4
|  7> end
|  8>
|  9> *xyzfile 0 1 c2h3f.xyz
| 10>
| 11>                          ****END OF INPUT****

CARTESIAN COORDINATES (ANGSTROEM)
---------------------------------
  C     -1.267363    0.218011    0.000000
  C     -0.122898   -0.450169    0.000000
  H     -1.288100    1.297870    0.000000
  H     -2.194353   -0.334152    0.000000
  H     -0.018240   -1.525932    0.000000
  F      1.064656    0.176599    0.000000

 Total Charge           Charge          ....    0
 Multiplicity           Mult            ....    1
 Number of Electrons    NEL             ....   24
 Basis Dimension        Dim             ....   51

ORBITAL ENERGIES
----------------

  NO   OCC          E(Eh)            E(eV)
   0   2.0000     -25.104250      -683.1214
   1   2.0000     -10.532899      -286.6147
   2   2.0000     -10.443542      -284.1832
   3   2.0000      -1.345234       -36.6057
   4   2.0000      -0.862586       -23.4722
   5   2.0000      -0.684312       -18.6211
   6   2.0000      -0.598758       -16.2930
   7   2.0000      -0.550043       -14.9674
   8   2.0000      -0.531224       -14.4553
   9   2.0000      -0.470242       -12.7959
  10   2.0000      -0.437270       -11.8987
  11   2.0000      -0.312505        -8.5037
  12   0.0000       0.043582         1.1859
  13   0.0000       0.158919         4.3244
  14   0.0000       0.180032         4.8989
  15   0.0000       0.200344         5.4516
  16   0.0000       0.295238         8.0338

MULLIKEN ATOMIC CHARGES
-----------------------
   0 C :   -0.575127
   1 C :    0.205252
   2 H :    0.243077
   3 H :    0.232468
   4 H :    0.197849
   5 F :   -0.303519
Sum of atomic charges:    0.0000000

LOEWDIN ATOMIC CHARGES
----------------------
   0 C :   -0.325071
   1 C :    0.079459
   2 H :    0.149008
   3 H :    0.147595
   4 H :    0.122019
   5 F :   -0.173010

  Mayer bond orders larger than 0.100000
B(  0-C ,  1-C ) :   1.8911 B(  0-C ,  2-H ) :   0.9172 B(  0-C ,  3-H ) :   0.9170
B(  1-C ,  4-H ) :   0.9128 B(  1-C ,  5-F ) :   1.0105

Dispersion correction           -0.001357506
FINAL SINGLE POINT ENERGY      -177.455467168421

DIPOLE MOMENT
-------------
                                X             Y             Z
Electronic contribution:      3.82179       0.38248       0.00000
Nuclear contribution   :     -4.27068      -0.69108       0.00000
                        -----------------------------------------
Total Dipole Moment    :     -0.44889      -0.30859       0.00000
                        -----------------------------------------
Magnitude (a.u.)       :      0.54473
Magnitude (Debye)      :      1.38459

Rotational constants in cm-1:     2.173777     0.354642     0.304899
Rotational constants in MHz : 65168.185869 10631.912291  9140.653550

                             ****ORCA TERMINATED NORMALLY****
TOTAL RUN TIME: 0 days 0 hours 0 minutes 32 seconds 843 msec
