                         Program Version 5.0.3 -  RELEASE  -
|  1> ! PBEh-3c def2/J TightSCF DefGrid3
|  2>
|  3> %maxcore 60000
|  4>
|  5> %pal
|  6> nprocs 4
|  7> end
|  8>
|  9> *xyzfile 1 1 hclp.xyz
| 10>
| 11>                          ****END OF INPUT****

CARTESIAN COORDINATES (ANGSTROEM)
---------------------------------
  Cl     0.000000    0.000000   -0.592400
  H     -0.970966    0.000000    0.296200
  H      0.970966    0.000000    0.296200

 Total Charge           Charge          ....    1
 Multiplicity           Mult            ....    1
 Number of Electrons    NEL             ....   18
 Basis Dimension        Dim             ....   22

ORBITAL ENERGIES
----------------

  NO   OCC          E(Eh)            E(eV)
   0   2.0000    -102.704634     -2794.7352
   1   2.0000     -10.174213      -276.8544
   2   2.0000      -7.859888      -213.8784
   3   2.0000      -7.857300      -213.8080
   4   2.0000      -7.850166      -213.6139
   5   2.0000      -1.332048       -36.2469
   6   2.0000      -0.914946       -24.8969
   7   2.0000      -0.839272       -22.8378
   8   2.0000      -0.738208       -20.0877
   9   0.0000      -0.266359        -7.2480
  10   0.0000      -0.240291        -6.5387
  11   0.0000       0.238397         6.4871
  12   0.0000       0.271361         7.3841
  13   0.0000       0.360657         9.8140

MULLIKEN ATOMIC CHARGES
-----------------------
   0 Cl:    0.104289
   1 H :    0.447856
   2 H :    0.447856
Sum of atomic charges:    1.0000000

LOEWDIN ATOMIC CHARGES
----------------------
   0 Cl:    0.399030
   1 H :    0.300485
   2 H :    0.300485

  Mayer bond orders larger than 0.100000
B(  0-Cl,  1-H ) :   0.7822 B(  0-Cl,  2-H ) :   0.7822

Dispersion correction           -0.000388883
FINAL SINGLE POINT ENERGY      -460.506727280039

DIPOLE MOMENT
-------------
                                X             Y             Z
Electronic contribution:      0.00000      -0.00000      -0.58472
Nuclear contribution   :      0.00000       0.00000       1.64179
                        -----------------------------------------
Total Dipole Moment    :      0.00000      -0.00000       1.05707
                        -----------------------------------------
Magnitude (a.u.)       :      1.05707
Magnitude (Debye)      :      2.68687

Rotational constants in cm-1:    11.192115     8.869483     4.948174
Rotational constants in MHz : 335531.181356 265900.424657 148342.525927

                             ****ORCA TERMINATED NORMALLY****
TOTAL RUN TIME: 0 days 0 hours 0 minutes 18 seconds 291 msec
