                         Program Version 5.0.3 -  RELEASE  -
|  1> ! PBEh-3c def2/J TightSCF DefGrid3
|  2>
|  3> %maxcore 60000
|  4>
|  5> %pal
|  6> nprocs 4
|  7> end
|  8>
|  9> *xyzfile 0 1 P24.xyz
| 10>
| 11>                          ****END OF INPUT****

CARTESIAN COORDINATES (ANGSTROEM)
---------------------------------
  C      0.000000    1.175480   -0.045165
  O      0.000000    0.000000   -0.828850
  C      0.000000   -1.175480   -0.045165
  H      0.000000    2.022668   -0.730289
  H     -0.891536    1.235012    0.594939
  H      0.891536    1.235012    0.594939
  H      0.000000   -2.022668   -0.730289
  H     -0.891536   -1.235012    0.594939
  H      0.891536   -1.235012    0.594939

 Total Charge           Charge          ....    0
 Multiplicity           Mult            ....    1
 Number of Electrons    NEL             ....   26
 Basis Dimension        Dim             ....   57

ORBITAL ENERGIES
----------------

  NO   OCC          E(Eh)            E(eV)
   0   2.0000     -19.491096      -530.3797
   1   2.0000     -10.475017      -285.0397
   2   2.0000     -10.474973      -285.0385
   3   2.0000      -1.134399       -30.8686
   4   2.0000      -0.801600       -21.8126
   5   2.0000      -0.713614       -19.4184
   6   2.0000      -0.533094       -14.5062
   7   2.0000      -0.531033       -14.4501
   8   2.0000      -0.530842       -14.4449
   9   2.0000      -0.448587       -12.2067
  10   2.0000      -0.428918       -11.6714
  11   2.0000      -0.370698       -10.0872
  12   2.0000      -0.308934        -8.4065
  13   0.0000       0.133299         3.6272
  14   0.0000       0.192268         5.2319
  15   0.0000       0.201227         5.4757
  16   0.0000       0.203687         5.5426
  17   0.0000       0.226456         6.1622

MULLIKEN ATOMIC CHARGES
-----------------------
   0 C :   -0.360782
   1 O :   -0.454919
   2 C :   -0.360782
   3 H :    0.221758
   4 H :    0.183242
   5 H :    0.183242
   6 H :    0.221758
   7 H :    0.183242
   8 H :    0.183242
Sum of atomic charges:    0.0000000

LOEWDIN ATOMIC CHARGES
----------------------
   0 C :   -0.187294
   1 O :   -0.273077
   2 C :   -0.187294
   3 H :    0.123973
   4 H :    0.099930
   5 H :    0.099930
   6 H :    0.123973
   7 H :    0.099930
   8 H :    0.099930

  Mayer bond orders larger than 0.100000
B(  0-C ,  1-O ) :   0.9816 B(  0-C ,  3-H ) :   0.9300 B(  0-C ,  4-H ) :   0.9127
B(  0-C ,  5-H ) :   0.9127 B(  1-O ,  2-C ) :   0.9816 B(  2-C ,  6-H ) :   0.9300
B(  2-C ,  7-H ) :   0.9127 B(  2-C ,  8-H ) :   0.9127

Dispersion correction           -0.002349659
FINAL SINGLE POINT ENERGY      -154.682274903067

DIPOLE MOMENT
-------------
                                X             Y             Z
Electronic contribution:     -0.00000       0.00000      -1.94556
Nuclear contribution   :      0.00000       0.00000       2.49406
                        -----------------------------------------
Total Dipole Moment    :     -0.00000       0.00000       0.54850
                        -----------------------------------------
Magnitude (a.u.)       :      0.54850
Magnitude (Debye)      :      1.39418

Rotational constants in cm-1:     1.313055     0.331877     0.294591
Rotational constants in MHz : 39364.385844  9949.412681  8831.625611

                             ****ORCA TERMINATED NORMALLY****
TOTAL RUN TIME: 0 days 0 hours 0 minutes 51 seconds 604 msec
