                         Program Version 5.0.3 -  RELEASE  -
|  1> ! PBEh-3c def2/J TightSCF DefGrid3
|  2>
|  3> %maxcore 60000
|  4>
|  5> %pal
|  6> nprocs 4
|  7> end
|  8>
|  9> *xyzfile 0 1 LEU_xap.xyz
| 10>
| 11>                          ****END OF INPUT****

CARTESIAN COORDINATES (ANGSTROEM)
---------------------------------
  N     -1.031200   -1.117674   -0.518750
  C      0.085480   -0.353330    0.020721
  C     -0.112576    1.124962   -0.330710
  O      0.426969    1.650907   -1.299561
  C      1.393588   -0.891567   -0.526629
  C      2.638961   -0.199004    0.025855
  C      2.687482   -0.241562    1.549794
  C      3.882377   -0.855043   -0.562983
  H     -0.950143   -1.490039   -1.450021
  H      0.034301   -0.474797    1.101876
  H      1.384445   -0.781065   -1.613694
  H      1.443940   -1.959752   -0.294678
  H      2.609838    0.842163   -0.298425
  H      2.616955   -1.271062    1.907951
  H      3.627808    0.172867    1.912576
  H      1.880684    0.332186    2.004392
  H      3.950010   -1.897401   -0.245285
  H      4.787414   -0.345936   -0.233172
  H      3.860758   -0.834930   -1.652425
  N     -0.951162    1.768921    0.513908
  H     -1.505119    1.181009    1.124719
  C     -1.379918    3.122063    0.228563
  H     -1.762027    3.575305    1.138429
  H     -0.526542    3.690186   -0.129048
  H     -2.153321    3.152758   -0.539799
  C     -2.215434   -1.210071    0.134948
  O     -2.411177   -0.665431    1.221727
  C     -3.278747   -2.036108   -0.542727
  H     -3.582502   -2.828817    0.136574
  H     -2.949930   -2.473509   -1.481936
  H     -4.145797   -1.404882   -0.722363

 Total Charge           Charge          ....    0
 Multiplicity           Mult            ....    1
 Number of Electrons    NEL             ....  102
 Basis Dimension        Dim             ....  231

ORBITAL ENERGIES
----------------

  NO   OCC          E(Eh)            E(eV)
   0   2.0000     -19.469986      -529.8053
   1   2.0000     -19.453118      -529.3463
   2   2.0000     -14.677222      -399.3875
   3   2.0000     -14.648951      -398.6182
   4   2.0000     -10.562234      -287.4130
   5   2.0000     -10.536676      -286.7175
   6   2.0000     -10.487273      -285.3732
   7   2.0000     -10.458432      -284.5884
   8   2.0000     -10.452076      -284.4155
   9   2.0000     -10.438690      -284.0512
  10   2.0000     -10.437793      -284.0268
  11   2.0000     -10.420907      -283.5673
  12   2.0000     -10.419674      -283.5337
  13   2.0000      -1.156040       -31.4575
  14   2.0000      -1.134530       -30.8721
  15   2.0000      -1.038240       -28.2520
  16   2.0000      -1.011310       -27.5192
  17   2.0000      -0.911388       -24.8001
  18   2.0000      -0.861348       -23.4385
  19   2.0000      -0.817114       -22.2348
  20   2.0000      -0.787749       -21.4357
  21   2.0000      -0.764137       -20.7932
  22   2.0000      -0.719053       -19.5664
  23   2.0000      -0.676606       -18.4114
  24   2.0000      -0.642958       -17.4958
  25   2.0000      -0.629145       -17.1199
  26   2.0000      -0.598661       -16.2904
  27   2.0000      -0.563427       -15.3316
  28   2.0000      -0.558382       -15.1943
  29   2.0000      -0.532229       -14.4827
  30   2.0000      -0.517218       -14.0742
  31   2.0000      -0.512910       -13.9570
  32   2.0000      -0.501355       -13.6426
  33   2.0000      -0.493153       -13.4194
  34   2.0000      -0.479166       -13.0388
  35   2.0000      -0.475755       -12.9459
  36   2.0000      -0.466781       -12.7018
  37   2.0000      -0.454689       -12.3727
  38   2.0000      -0.440857       -11.9963
  39   2.0000      -0.438148       -11.9226
  40   2.0000      -0.436414       -11.8754
  41   2.0000      -0.419979       -11.4282
  42   2.0000      -0.414684       -11.2841
  43   2.0000      -0.411375       -11.1941
  44   2.0000      -0.379118       -10.3163
  45   2.0000      -0.374060       -10.1787
  46   2.0000      -0.369933       -10.0664
  47   2.0000      -0.335451        -9.1281
  48   2.0000      -0.321924        -8.7600
  49   2.0000      -0.298261        -8.1161
  50   2.0000      -0.288011        -7.8372
  51   0.0000       0.041915         1.1406
  52   0.0000       0.064300         1.7497
  53   0.0000       0.115442         3.1413
  54   0.0000       0.131150         3.5688
  55   0.0000       0.159913         4.3515

MULLIKEN ATOMIC CHARGES
-----------------------
   0 N :   -0.621561
   1 C :   -0.216235
   2 C :    0.563975
   3 O :   -0.438350
   4 C :   -0.409243
   5 C :   -0.255581
   6 C :   -0.643569
   7 C :   -0.628280
   8 H :    0.364046
   9 H :    0.268211
  10 H :    0.230248
  11 H :    0.215429
  12 H :    0.253591
  13 H :    0.204167
  14 H :    0.224119
  15 H :    0.221591
  16 H :    0.200389
  17 H :    0.219703
  18 H :    0.219701
  19 N :   -0.644195
  20 H :    0.399978
  21 C :   -0.492040
  22 H :    0.220301
  23 H :    0.249500
  24 H :    0.219217
  25 C :    0.540441
  26 O :   -0.461571
  27 C :   -0.744918
  28 H :    0.264065
  29 H :    0.216505
  30 H :    0.260366
Sum of atomic charges:   -0.0000000

LOEWDIN ATOMIC CHARGES
----------------------
   0 N :   -0.210673
   1 C :   -0.094979
   2 C :    0.101615
   3 O :   -0.282565
   4 C :   -0.229709
   5 C :   -0.165335
   6 C :   -0.356419
   7 C :   -0.349778
   8 H :    0.260628
   9 H :    0.146279
  10 H :    0.135788
  11 H :    0.126361
  12 H :    0.138477
  13 H :    0.122329
  14 H :    0.129391
  15 H :    0.125522
  16 H :    0.120830
  17 H :    0.126993
  18 H :    0.127205
  19 N :   -0.248137
  20 H :    0.266682
  21 C :   -0.254567
  22 H :    0.125903
  23 H :    0.142988
  24 H :    0.119897
  25 C :    0.113618
  26 O :   -0.302249
  27 C :   -0.384332
  28 H :    0.160502
  29 H :    0.129395
  30 H :    0.158339

  Mayer bond orders larger than 0.100000
B(  0-N ,  1-C ) :   0.9140 B(  0-N ,  8-H ) :   0.8197 B(  0-N , 25-C ) :   1.1715
B(  1-C ,  2-C ) :   0.8697 B(  1-C ,  4-C ) :   0.9963 B(  1-C ,  9-H ) :   0.8756
B(  2-C ,  3-O ) :   1.9556 B(  2-C , 19-N ) :   1.1705 B(  4-C ,  5-C ) :   0.9803
B(  4-C , 10-H ) :   0.9038 B(  4-C , 11-H ) :   0.9114 B(  5-C ,  6-C ) :   0.9792
B(  5-C ,  7-C ) :   0.9943 B(  5-C , 12-H ) :   0.8859 B(  6-C , 13-H ) :   0.9267
B(  6-C , 14-H ) :   0.9285 B(  6-C , 15-H ) :   0.9250 B(  7-C , 16-H ) :   0.9280
B(  7-C , 17-H ) :   0.9305 B(  7-C , 18-H ) :   0.9294 B( 19-N , 20-H ) :   0.7513
B( 19-N , 21-C ) :   0.9625 B( 21-C , 22-H ) :   0.9260 B( 21-C , 23-H ) :   0.9105
B( 21-C , 24-H ) :   0.9181 B( 25-C , 26-O ) :   1.8934 B( 25-C , 27-C ) :   0.9321
B( 27-C , 28-H ) :   0.9069 B( 27-C , 29-H ) :   0.9215 B( 27-C , 30-H ) :   0.9075

Dispersion correction           -0.018214912
FINAL SINGLE POINT ENERGY      -612.480698023785

DIPOLE MOMENT
-------------
                                X             Y             Z
Electronic contribution:     -9.07695       2.10793      -0.94807
Nuclear contribution   :      8.62623      -2.94680       0.68515
                        -----------------------------------------
Total Dipole Moment    :     -0.45072      -0.83888      -0.26292
                        -----------------------------------------
Magnitude (a.u.)       :      0.98792
Magnitude (Debye)      :      2.51110

Rotational constants in cm-1:     0.032031     0.017303     0.013494
Rotational constants in MHz :   960.262166   518.744277   404.527583

                             ****ORCA TERMINATED NORMALLY****
TOTAL RUN TIME: 0 days 0 hours 3 minutes 26 seconds 466 msec
