                         Program Version 5.0.3 -  RELEASE  -
|  1> ! PBEh-3c def2/J TightSCF DefGrid3
|  2>
|  3> %maxcore 60000
|  4>
|  5> %pal
|  6> nprocs 4
|  7> end
|  8>
|  9> *xyzfile 0 1 PMe3.xyz
| 10>
| 11>                          ****END OF INPUT****

CARTESIAN COORDINATES (ANGSTROEM)
---------------------------------
  P      0.000000    0.000000    0.612941
  C      1.407338   -0.812527   -0.282540
  C     -1.407338   -0.812527   -0.282540
  C      0.000000    1.625053   -0.282540
  H     -0.883483    2.201805   -0.000750
  H      0.883483    2.201805   -0.000750
  H      0.000000    1.483385   -1.367967
  H      1.465078   -1.866021   -0.000750
  H      1.284649   -0.741692   -1.367967
  H      2.348560   -0.335784   -0.000750
  H     -2.348560   -0.335784   -0.000750
  H     -1.465078   -1.866021   -0.000750
  H     -1.284649   -0.741692   -1.367967

 Total Charge           Charge          ....    0
 Multiplicity           Mult            ....    1
 Number of Electrons    NEL             ....   42
 Basis Dimension        Dim             ....   81

ORBITAL ENERGIES
----------------

  NO   OCC          E(Eh)            E(eV)
   0   2.0000     -77.725359     -2115.0146
   1   2.0000     -10.431181      -283.8469
   2   2.0000     -10.431181      -283.8469
   3   2.0000     -10.431139      -283.8457
   4   2.0000      -6.797619      -184.9726
   5   2.0000      -4.888468      -133.0220
   6   2.0000      -4.888468      -133.0220
   7   2.0000      -4.886203      -132.9603
   8   2.0000      -0.844621       -22.9833
   9   2.0000      -0.767954       -20.8971
  10   2.0000      -0.767954       -20.8971
  11   2.0000      -0.590394       -16.0654
  12   2.0000      -0.494546       -13.4573
  13   2.0000      -0.480233       -13.0678
  14   2.0000      -0.480232       -13.0678
  15   2.0000      -0.450614       -12.2618
  16   2.0000      -0.450612       -12.2618
  17   2.0000      -0.438097       -11.9212
  18   2.0000      -0.370602       -10.0846
  19   2.0000      -0.370602       -10.0846
  20   2.0000      -0.263036        -7.1576
  21   0.0000       0.101749         2.7687
  22   0.0000       0.101750         2.7688
  23   0.0000       0.129651         3.5280
  24   0.0000       0.164353         4.4723
  25   0.0000       0.176068         4.7911

MULLIKEN ATOMIC CHARGES
-----------------------
   0 P :    0.418759
   1 C :   -0.846111
   2 C :   -0.846111
   3 C :   -0.846062
   4 H :    0.240429
   5 H :    0.240429
   6 H :    0.225647
   7 H :    0.240431
   8 H :    0.225651
   9 H :    0.240428
  10 H :    0.240428
  11 H :    0.240431
  12 H :    0.225651
Sum of atomic charges:   -0.0000000

LOEWDIN ATOMIC CHARGES
----------------------
   0 P :    0.369070
   1 C :   -0.525675
   2 C :   -0.525675
   3 C :   -0.525661
   4 H :    0.138364
   5 H :    0.138364
   6 H :    0.125918
   7 H :    0.138364
   8 H :    0.125920
   9 H :    0.138364
  10 H :    0.138364
  11 H :    0.138364
  12 H :    0.125920

  Mayer bond orders larger than 0.100000
B(  0-P ,  1-C ) :   0.9692 B(  0-P ,  2-C ) :   0.9692 B(  0-P ,  3-C ) :   0.9692
B(  1-C ,  7-H ) :   0.9148 B(  1-C ,  8-H ) :   0.9050 B(  1-C ,  9-H ) :   0.9148
B(  2-C , 10-H ) :   0.9148 B(  2-C , 11-H ) :   0.9148 B(  2-C , 12-H ) :   0.9050
B(  3-C ,  4-H ) :   0.9148 B(  3-C ,  5-H ) :   0.9148 B(  3-C ,  6-H ) :   0.9050

Dispersion correction           -0.005541776
FINAL SINGLE POINT ENERGY      -460.436957543435

DIPOLE MOMENT
-------------
                                X             Y             Z
Electronic contribution:      0.00000       0.00002       4.35051
Nuclear contribution   :      0.00000       0.00000      -4.86484
                        -----------------------------------------
Total Dipole Moment    :      0.00000       0.00003      -0.51433
                        -----------------------------------------
Magnitude (a.u.)       :      0.51433
Magnitude (Debye)      :      1.30732

Rotational constants in cm-1:     0.191974     0.191974     0.124089
Rotational constants in MHz :  5755.249347  5755.246967  3720.098796

                             ****ORCA TERMINATED NORMALLY****
TOTAL RUN TIME: 0 days 0 hours 0 minutes 41 seconds 431 msec
