                         Program Version 5.0.3 -  RELEASE  -
|  1> ! PBEh-3c def2/J TightSCF DefGrid3
|  2>
|  3> %maxcore 60000
|  4>
|  5> %pal
|  6> nprocs 4
|  7> end
|  8>
|  9> *xyzfile 0 1 sbh3_2.xyz
| 10>
| 11>                          ****END OF INPUT****

CARTESIAN COORDINATES (ANGSTROEM)
---------------------------------
  Sb     0.002407   -2.018397    0.000000
  H     -0.845279   -2.833392    1.203851
  H     -0.845279   -2.833392   -1.203851
  H     -1.128672   -0.769179    0.000000
  Sb     0.002407    2.221346    0.000000
  H      0.834198    1.387842    1.202127
  H      1.146019    3.457330    0.000000
  H      0.834198    1.387842   -1.202127

 Total Charge           Charge          ....    0
 Multiplicity           Mult            ....    1
 Number of Electrons    NEL             ....   52
 Basis Dimension        Dim             ....   64

ORBITAL ENERGIES
----------------

  NO   OCC          E(Eh)            E(eV)
   0   2.0000      -5.938079      -161.5833
   1   2.0000      -5.936320      -161.5355
   2   2.0000      -4.124596      -112.2360
   3   2.0000      -4.124407      -112.2308
   4   2.0000      -4.122745      -112.1856
   5   2.0000      -4.122740      -112.1855
   6   2.0000      -4.119327      -112.0926
   7   2.0000      -4.117581      -112.0451
   8   2.0000      -1.397485       -38.0275
   9   2.0000      -1.397340       -38.0235
  10   2.0000      -1.395686       -37.9785
  11   2.0000      -1.395628       -37.9770
  12   2.0000      -1.392165       -37.8827
  13   2.0000      -1.392120       -37.8815
  14   2.0000      -1.390397       -37.8346
  15   2.0000      -1.390343       -37.8332
  16   2.0000      -1.388656       -37.7873
  17   2.0000      -1.386908       -37.7397
  18   2.0000      -0.655494       -17.8369
  19   2.0000      -0.646650       -17.5962
  20   2.0000      -0.407100       -11.0778
  21   2.0000      -0.394274       -10.7287
  22   2.0000      -0.389291       -10.5932
  23   2.0000      -0.378421       -10.2973
  24   2.0000      -0.310143        -8.4394
  25   2.0000      -0.297394        -8.0925
  26   0.0000       0.014726         0.4007
  27   0.0000       0.020297         0.5523
  28   0.0000       0.035952         0.9783
  29   0.0000       0.039996         1.0883
  30   0.0000       0.106169         2.8890

MULLIKEN ATOMIC CHARGES
-----------------------
   0 Sb:   -0.025150
   1 H :    0.013613
   2 H :    0.013613
   3 H :    0.003672
   4 Sb:   -0.041892
   5 H :    0.012742
   6 H :    0.010660
   7 H :    0.012742
Sum of atomic charges:   -0.0000000

LOEWDIN ATOMIC CHARGES
----------------------
   0 Sb:   -0.015524
   1 H :    0.008540
   2 H :    0.008540
   3 H :    0.006543
   4 Sb:   -0.029863
   5 H :    0.008187
   6 H :    0.005389
   7 H :    0.008187

  Mayer bond orders larger than 0.100000
B(  0-Sb,  1-H ) :   0.9830 B(  0-Sb,  2-H ) :   0.9830 B(  0-Sb,  3-H ) :   0.9690
B(  4-Sb,  5-H ) :   0.9797 B(  4-Sb,  6-H ) :   0.9804 B(  4-Sb,  7-H ) :   0.9797

Dispersion correction           -0.002559101
FINAL SINGLE POINT ENERGY      -484.080158787079

DIPOLE MOMENT
-------------
                                X             Y             Z
Electronic contribution:      0.04001       1.16868      -0.00000
Nuclear contribution   :     -0.02875      -1.21185       0.00000
                        -----------------------------------------
Total Dipole Moment    :      0.01126      -0.04316      -0.00000
                        -----------------------------------------
Magnitude (a.u.)       :      0.04461
Magnitude (Debye)      :      0.11339

Rotational constants in cm-1:     1.510908     0.014885     0.014878
Rotational constants in MHz : 45295.878365   446.243766   446.041804

                             ****ORCA TERMINATED NORMALLY****
TOTAL RUN TIME: 0 days 0 hours 1 minutes 7 seconds 706 msec
