                         Program Version 5.0.3 -  RELEASE  -
|  1> ! PBEh-3c def2/J TightSCF DefGrid3
|  2>
|  3> %maxcore 60000
|  4>
|  5> %pal
|  6> nprocs 4
|  7> end
|  8>
|  9> *xyzfile 0 1 NH3_NBS.xyz
| 10>
| 11>                          ****END OF INPUT****

CARTESIAN COORDINATES (ANGSTROEM)
---------------------------------
  N     -0.000811    3.847110    0.000000
  H     -0.472573    4.207199    0.817797
  H     -0.472573    4.207199   -0.817797
  H      0.944485    4.204703    0.000000
  Br     0.000153    1.184226    0.000000
  C     -1.148036   -1.452575    0.000000
  N      0.000000   -0.666147    0.000000
  O     -2.282186   -1.062991    0.000000
  O      2.282189   -1.062869    0.000000
  C      1.148059   -1.452528    0.000000
  C      0.661620   -2.873890    0.000000
  C     -0.661512   -2.873919    0.000000
  H     -1.349891   -3.704731    0.000000
  H      1.350046   -3.704663    0.000000

 Total Charge           Charge          ....    0
 Multiplicity           Mult            ....    1
 Number of Electrons    NEL             ....   94
 Basis Dimension        Dim             ....  162

ORBITAL ENERGIES
----------------

  NO   OCC          E(Eh)            E(eV)
   0   2.0000    -484.547638    -13185.2116
   1   2.0000     -63.208067     -1719.9790
   2   2.0000     -56.913636     -1548.6988
   3   2.0000     -56.909374     -1548.5828
   4   2.0000     -56.909308     -1548.5810
   5   2.0000     -19.496149      -530.5172
   6   2.0000     -19.496132      -530.5167
   7   2.0000     -14.701603      -400.0510
   8   2.0000     -14.645652      -398.5284
   9   2.0000     -10.574531      -287.7476
  10   2.0000     -10.574492      -287.7466
  11   2.0000     -10.485875      -285.3352
  12   2.0000     -10.484861      -285.3076
  13   2.0000      -9.036180      -245.8870
  14   2.0000      -6.815440      -185.4576
  15   2.0000      -6.795005      -184.9015
  16   2.0000      -6.794802      -184.8960
  17   2.0000      -2.828553       -76.9688
  18   2.0000      -2.822211       -76.7963
  19   2.0000      -2.822139       -76.7943
  20   2.0000      -2.804586       -76.3167
  21   2.0000      -2.804582       -76.3166
  22   2.0000      -1.189914       -32.3792
  23   2.0000      -1.171162       -31.8689
  24   2.0000      -1.068170       -29.0664
  25   2.0000      -0.979135       -26.6436
  26   2.0000      -0.931833       -25.3565
  27   2.0000      -0.834528       -22.7087
  28   2.0000      -0.760564       -20.6960
  29   2.0000      -0.681225       -18.5371
  30   2.0000      -0.637980       -17.3603
  31   2.0000      -0.568540       -15.4708
  32   2.0000      -0.556225       -15.1357
  33   2.0000      -0.556142       -15.1334
  34   2.0000      -0.539452       -14.6792
  35   2.0000      -0.526973       -14.3397
  36   2.0000      -0.513258       -13.9664
  37   2.0000      -0.502513       -13.6741
  38   2.0000      -0.488090       -13.2816
  39   2.0000      -0.456431       -12.4201
  40   2.0000      -0.385793       -10.4980
  41   2.0000      -0.366394        -9.9701
  42   2.0000      -0.353001        -9.6056
  43   2.0000      -0.341839        -9.3019
  44   2.0000      -0.340103        -9.2547
  45   2.0000      -0.323992        -8.8163
  46   2.0000      -0.296335        -8.0637
  47   0.0000      -0.065233        -1.7751
  48   0.0000       0.011270         0.3067
  49   0.0000       0.105420         2.8686
  50   0.0000       0.108588         2.9548
  51   0.0000       0.121270         3.2999

MULLIKEN ATOMIC CHARGES
-----------------------
   0 N :   -0.954436
   1 H :    0.349440
   2 H :    0.349440
   3 H :    0.349878
   4 Br:    0.225379
   5 C :    0.567710
   6 N :   -0.712023
   7 O :   -0.338944
   8 O :   -0.339037
   9 C :    0.567750
  10 C :   -0.294163
  11 C :   -0.294183
  12 H :    0.261597
  13 H :    0.261591
Sum of atomic charges:    0.0000000

LOEWDIN ATOMIC CHARGES
----------------------
   0 N :   -0.600284
   1 H :    0.235596
   2 H :    0.235596
   3 H :    0.235902
   4 Br:    0.199110
   5 C :    0.116772
   6 N :   -0.238032
   7 O :   -0.177253
   8 O :   -0.177326
   9 C :    0.116772
  10 C :   -0.131008
  11 C :   -0.131004
  12 H :    0.157580
  13 H :    0.157578

  Mayer bond orders larger than 0.100000
B(  0-N ,  1-H ) :   0.8579 B(  0-N ,  2-H ) :   0.8579 B(  0-N ,  3-H ) :   0.8576
B(  0-N ,  4-Br) :   0.1398 B(  4-Br,  6-N ) :   0.8491 B(  5-C ,  6-N ) :   0.9872
B(  5-C ,  7-O ) :   2.0900 B(  5-C , 11-C ) :   0.9656 B(  6-N ,  9-C ) :   0.9873
B(  8-O ,  9-C ) :   2.0899 B(  9-C , 10-C ) :   0.9656 B( 10-C , 11-C ) :   1.7754
B( 10-C , 13-H ) :   0.9133 B( 11-C , 12-H ) :   0.9133

Dispersion correction           -0.007020958
FINAL SINGLE POINT ENERGY     -2987.483293379557

DIPOLE MOMENT
-------------
                                X             Y             Z
Electronic contribution:      0.00280       6.81989      -0.00000
Nuclear contribution   :     -0.00185      -5.96884       0.00000
                        -----------------------------------------
Total Dipole Moment    :      0.00095       0.85106      -0.00000
                        -----------------------------------------
Magnitude (a.u.)       :      0.85106
Magnitude (Debye)      :      2.16322

Rotational constants in cm-1:     0.078333     0.024321     0.018614
Rotational constants in MHz :  2348.369612   729.136835   558.043095

                             ****ORCA TERMINATED NORMALLY****
TOTAL RUN TIME: 0 days 0 hours 2 minutes 15 seconds 551 msec
