                         Program Version 5.0.3 -  RELEASE  -
|  1> ! PBEh-3c def2/J TightSCF DefGrid3
|  2>
|  3> %maxcore 60000
|  4>
|  5> %pal
|  6> nprocs 4
|  7> end
|  8>
|  9> *xyzfile 0 1 E15.xyz
| 10>
| 11>                          ****END OF INPUT****

CARTESIAN COORDINATES (ANGSTROEM)
---------------------------------
  C      0.211135   -1.064768    0.000000
  C     -0.610753    0.227548    0.000000
  N      0.155112    1.476136    0.000000
  H      0.755599    1.531258   -0.815893
  H      0.755599    1.531258    0.815893
  H     -0.435526   -1.947527    0.000000
  H      0.853390   -1.120757   -0.883794
  H      0.853390   -1.120757    0.883794
  H     -1.268972    0.243804    0.873427
  H     -1.268972    0.243804   -0.873427

 Total Charge           Charge          ....    0
 Multiplicity           Mult            ....    1
 Number of Electrons    NEL             ....   26
 Basis Dimension        Dim             ....   59

ORBITAL ENERGIES
----------------

  NO   OCC          E(Eh)            E(eV)
   0   2.0000     -14.603170      -397.3725
   1   2.0000     -10.455148      -284.4991
   2   2.0000     -10.422921      -283.6221
   3   2.0000      -0.968192       -26.3458
   4   2.0000      -0.810042       -22.0424
   5   2.0000      -0.680609       -18.5203
   6   2.0000      -0.555059       -15.1039
   7   2.0000      -0.492844       -13.4110
   8   2.0000      -0.465805       -12.6752
   9   2.0000      -0.458850       -12.4859
  10   2.0000      -0.409489       -11.1428
  11   2.0000      -0.386266       -10.5108
  12   2.0000      -0.280397        -7.6300
  13   0.0000       0.132860         3.6153
  14   0.0000       0.185127         5.0376
  15   0.0000       0.195471         5.3190
  16   0.0000       0.208826         5.6824
  17   0.0000       0.217636         5.9222

MULLIKEN ATOMIC CHARGES
-----------------------
   0 C :   -0.648793
   1 C :   -0.286018
   2 N :   -0.730141
   3 H :    0.310406
   4 H :    0.310406
   5 H :    0.210890
   6 H :    0.205037
   7 H :    0.205037
   8 H :    0.211587
   9 H :    0.211587
Sum of atomic charges:   -0.0000000

LOEWDIN ATOMIC CHARGES
----------------------
   0 C :   -0.388991
   1 C :   -0.175736
   2 N :   -0.474880
   3 H :    0.218002
   4 H :    0.218002
   5 H :    0.126784
   6 H :    0.120986
   7 H :    0.120986
   8 H :    0.117424
   9 H :    0.117424

  Mayer bond orders larger than 0.100000
B(  0-C ,  1-C ) :   0.9713 B(  0-C ,  5-H ) :   0.9213 B(  0-C ,  6-H ) :   0.9309
B(  0-C ,  7-H ) :   0.9309 B(  1-C ,  2-N ) :   1.0531 B(  1-C ,  8-H ) :   0.9198
B(  1-C ,  9-H ) :   0.9198 B(  2-N ,  3-H ) :   0.8643 B(  2-N ,  4-H ) :   0.8643

Dispersion correction           -0.003035267
FINAL SINGLE POINT ENERGY      -134.873929547070

DIPOLE MOMENT
-------------
                                X             Y             Z
Electronic contribution:     -0.18660       1.66135      -0.00000
Nuclear contribution   :      0.57732      -2.04570       0.00000
                        -----------------------------------------
Total Dipole Moment    :      0.39072      -0.38435      -0.00000
                        -----------------------------------------
Magnitude (a.u.)       :      0.54807
Magnitude (Debye)      :      1.39309

Rotational constants in cm-1:     1.071112     0.289603     0.259194
Rotational constants in MHz : 32111.143303  8682.076493  7770.447360

                             ****ORCA TERMINATED NORMALLY****
TOTAL RUN TIME: 0 days 0 hours 0 minutes 33 seconds 990 msec
