                         Program Version 5.0.3 -  RELEASE  -
|  1> ! PBEh-3c def2/J TightSCF DefGrid3
|  2>
|  3> %maxcore 60000
|  4>
|  5> %pal
|  6> nprocs 4
|  7> end
|  8>
|  9> *xyzfile 0 3 RKT19.xyz
| 10>
| 11>                          ****END OF INPUT****

CARTESIAN COORDINATES (ANGSTROEM)
---------------------------------
  C     -1.153807   -0.544471    0.003889
  C     -0.194568    0.619251    0.005213
  N      2.168748   -0.473163    0.006222
  H     -0.958911   -1.215761   -0.832501
  H     -1.080918   -1.122695    0.924960
  H     -2.187534   -0.200163   -0.086148
  H     -0.176510    1.213670   -0.904014
  H     -0.199949    1.234287    0.900655
  H      1.069679    0.085782   -0.025375
  H      2.713769    0.403263    0.007096

 Total Charge           Charge          ....    0
 Multiplicity           Mult            ....    3
 Number of Electrons    NEL             ....   26
 Basis Dimension        Dim             ....   59

ORBITAL ENERGIES
----------------
                 SPIN UP ORBITALS
  NO   OCC          E(Eh)            E(eV)
   0   1.0000     -14.667672      -399.1276
   1   1.0000     -10.451373      -284.3963
   2   1.0000     -10.431402      -283.8529
   3   1.0000      -0.940962       -25.6049
   4   1.0000      -0.850193       -23.1349
   5   1.0000      -0.698473       -19.0064
   6   1.0000      -0.528354       -14.3773
   7   1.0000      -0.511395       -13.9158
   8   1.0000      -0.457640       -12.4530
   9   1.0000      -0.441193       -12.0055
  10   1.0000      -0.411691       -11.2027
  11   1.0000      -0.409820       -11.1518
  12   1.0000      -0.373876       -10.1737
  13   1.0000      -0.268529        -7.3070
  14   0.0000       0.145982         3.9724
  15   0.0000       0.167614         4.5610
  16   0.0000       0.190652         5.1879
  17   0.0000       0.205391         5.5890
  18   0.0000       0.215431         5.8622

                 SPIN DOWN ORBITALS
  NO   OCC          E(Eh)            E(eV)
   0   1.0000     -14.633386      -398.1947
   1   1.0000     -10.439642      -284.0771
   2   1.0000     -10.431934      -283.8674
   3   1.0000      -0.852198       -23.1895
   4   1.0000      -0.816922       -22.2296
   5   1.0000      -0.677862       -18.4456
   6   1.0000      -0.505772       -13.7628
   7   1.0000      -0.487913       -13.2768
   8   1.0000      -0.435997       -11.8641
   9   1.0000      -0.429257       -11.6807
  10   1.0000      -0.406120       -11.0511
  11   1.0000      -0.345473        -9.4008
  12   0.0000      -0.042522        -1.1571
  13   0.0000      -0.029055        -0.7906
  14   0.0000       0.155551         4.2328
  15   0.0000       0.177689         4.8352
  16   0.0000       0.200348         5.4517

MULLIKEN ATOMIC CHARGES AND SPIN POPULATIONS
--------------------------------------------
   0 C :   -0.628816   -0.043119
   1 C :   -0.605271    0.661062
   2 N :   -0.487719    1.590792
   3 H :    0.229151    0.007885
   4 H :    0.227722    0.004712
   5 H :    0.224011    0.032410
   6 H :    0.231453   -0.023168
   7 H :    0.230964   -0.024140
   8 H :    0.278001   -0.149643
   9 H :    0.300504   -0.056791
Sum of atomic charges         :    0.0000000

LOEWDIN ATOMIC CHARGES AND SPIN POPULATIONS
-------------------------------------------
   0 C :   -0.370773   -0.012038
   1 C :   -0.339498    0.564567
   2 N :   -0.350574    1.540953
   3 H :    0.134641    0.006867
   4 H :    0.133555    0.004110
   5 H :    0.133182    0.028841
   6 H :    0.129067   -0.012599
   7 H :    0.129716   -0.012423
   8 H :    0.201513   -0.069810
   9 H :    0.199173   -0.038469

  Mayer bond orders larger than 0.100000
B(  0-C ,  1-C ) :   0.9965 B(  0-C ,  3-H ) :   0.9239 B(  0-C ,  4-H ) :   0.9253
B(  0-C ,  5-H ) :   0.9159 B(  1-C ,  2-N ) :   0.1604 B(  1-C ,  6-H ) :   0.9118
B(  1-C ,  7-H ) :   0.9145 B(  1-C ,  8-H ) :   0.4000 B(  2-N ,  8-H ) :   0.4811
B(  2-N ,  9-H ) :   0.8697

Dispersion correction           -0.002872865
FINAL SINGLE POINT ENERGY      -134.720692677180

DIPOLE MOMENT
-------------
                                X             Y             Z
Electronic contribution:      2.45219      -0.47139       0.02824
Nuclear contribution   :     -2.70474       1.14787      -0.04074
                        -----------------------------------------
Total Dipole Moment    :     -0.25254       0.67648      -0.01250
                        -----------------------------------------
Magnitude (a.u.)       :      0.72219
Magnitude (Debye)      :      1.83567

Rotational constants in cm-1:     0.853547     0.173283     0.152403
Rotational constants in MHz : 25588.702755  5194.898705  4568.938273

                             ****ORCA TERMINATED NORMALLY****
TOTAL RUN TIME: 0 days 0 hours 2 minutes 31 seconds 11 msec
