                         Program Version 5.0.3 -  RELEASE  -
|  1> ! PBEh-3c def2/J TightSCF DefGrid3
|  2>
|  3> %maxcore 60000
|  4>
|  5> %pal
|  6> nprocs 4
|  7> end
|  8>
|  9> *xyzfile 0 1 pf3-ch2.xyz
| 10>
| 11>                          ****END OF INPUT****

CARTESIAN COORDINATES (ANGSTROEM)
---------------------------------
  C     -0.490383    1.663527    0.000000
  P     -0.024764    0.116191    0.000000
  H     -0.502339    2.193755    0.937358
  H     -0.502339    2.193755   -0.937358
  F     -0.490383   -0.698790   -1.233203
  F     -0.490383   -0.698790    1.233203
  F      1.460593   -0.392593    0.000000

 Total Charge           Charge          ....    0
 Multiplicity           Mult            ....    1
 Number of Electrons    NEL             ....   50
 Basis Dimension        Dim             ....   82

ORBITAL ENERGIES
----------------

  NO   OCC          E(Eh)            E(eV)
   0   2.0000     -77.970334     -2121.6807
   1   2.0000     -25.159643      -684.6287
   2   2.0000     -25.159635      -684.6285
   3   2.0000     -25.141123      -684.1247
   4   2.0000     -10.428320      -283.7690
   5   2.0000      -7.011692      -190.7978
   6   2.0000      -5.107277      -138.9761
   7   2.0000      -5.105045      -138.9153
   8   2.0000      -5.102095      -138.8351
   9   2.0000      -1.428111       -38.8609
  10   2.0000      -1.381635       -37.5962
  11   2.0000      -1.360540       -37.0222
  12   2.0000      -0.844164       -22.9709
  13   2.0000      -0.728930       -19.8352
  14   2.0000      -0.662191       -18.0191
  15   2.0000      -0.648972       -17.6594
  16   2.0000      -0.608403       -16.5555
  17   2.0000      -0.583002       -15.8643
  18   2.0000      -0.574765       -15.6402
  19   2.0000      -0.551369       -15.0035
  20   2.0000      -0.530645       -14.4396
  21   2.0000      -0.519311       -14.1312
  22   2.0000      -0.487839       -13.2748
  23   2.0000      -0.487361       -13.2618
  24   2.0000      -0.280551        -7.6342
  25   0.0000       0.057182         1.5560
  26   0.0000       0.089875         2.4456
  27   0.0000       0.123308         3.3554
  28   0.0000       0.187519         5.1027
  29   0.0000       0.259365         7.0577

MULLIKEN ATOMIC CHARGES
-----------------------
   0 C :   -0.978364
   1 P :    1.615548
   2 H :    0.265674
   3 H :    0.265674
   4 F :   -0.386679
   5 F :   -0.386679
   6 F :   -0.395174
Sum of atomic charges:   -0.0000000

LOEWDIN ATOMIC CHARGES
----------------------
   0 C :   -0.721960
   1 P :    1.097108
   2 H :    0.167676
   3 H :    0.167676
   4 F :   -0.227771
   5 F :   -0.227771
   6 F :   -0.254958

  Mayer bond orders larger than 0.100000
B(  0-C ,  1-P ) :   1.6810 B(  0-C ,  2-H ) :   0.8879 B(  0-C ,  3-H ) :   0.8879
B(  1-P ,  4-F ) :   0.9538 B(  1-P ,  5-F ) :   0.9538 B(  1-P ,  6-F ) :   0.9446

Dispersion correction           -0.002343995
FINAL SINGLE POINT ENERGY      -679.179140861791

DIPOLE MOMENT
-------------
                                X             Y             Z
Electronic contribution:      1.44909      -5.47381      -0.00000
Nuclear contribution   :     -1.33954       5.56527       0.00000
                        -----------------------------------------
Total Dipole Moment    :      0.10955       0.09146      -0.00000
                        -----------------------------------------
Magnitude (a.u.)       :      0.14271
Magnitude (Debye)      :      0.36274

Rotational constants in cm-1:     0.157693     0.143410     0.129917
Rotational constants in MHz :  4727.507889  4299.333804  3894.816363

                             ****ORCA TERMINATED NORMALLY****
TOTAL RUN TIME: 0 days 0 hours 1 minutes 0 seconds 744 msec
