                         Program Version 5.0.3 -  RELEASE  -
|  1> ! PBEh-3c def2/J TightSCF DefGrid3
|  2>
|  3> %maxcore 60000
|  4>
|  5> %pal
|  6> nprocs 4
|  7> end
|  8>
|  9> *xyzfile 0 1 h9.xyz
| 10>
| 11>                          ****END OF INPUT****

CARTESIAN COORDINATES (ANGSTROEM)
---------------------------------
  C     -1.381903    0.434251   -1.247339
  C     -0.896114   -0.301437    0.000000
  C      0.633949   -0.424254    0.000000
  C      1.425064    0.878597    0.000000
  C      2.927232    0.620279    0.000000
  C     -1.381903    0.434251    1.247339
  C     -1.482286   -1.712102    0.000000
  H     -1.043622    1.469829   -1.261560
  H     -1.019700   -0.055252   -2.153139
  H     -2.472372    0.441400   -1.281994
  H      0.929283   -1.011942   -0.876079
  H      0.929283   -1.011942    0.876079
  H      1.161983    1.474161   -0.875320
  H      1.161983    1.474161    0.875320
  H      3.221440    0.048153   -0.879826
  H      3.494489    1.549825    0.000000
  H      3.221440    0.048153    0.879826
  H     -1.043622    1.469829    1.261560
  H     -2.472372    0.441400    1.281994
  H     -1.019700   -0.055252    2.153139
  H     -1.159809   -2.266110   -0.882955
  H     -1.159809   -2.266110    0.882955
  H     -2.572937   -1.679886    0.000000

 Total Charge           Charge          ....    0
 Multiplicity           Mult            ....    1
 Number of Electrons    NEL             ....   58
 Basis Dimension        Dim             ....  137

ORBITAL ENERGIES
----------------

  NO   OCC          E(Eh)            E(eV)
   0   2.0000     -10.444801      -284.2175
   1   2.0000     -10.426183      -283.7109
   2   2.0000     -10.423913      -283.6491
   3   2.0000     -10.419016      -283.5158
   4   2.0000     -10.416863      -283.4572
   5   2.0000     -10.416832      -283.4564
   6   2.0000     -10.416757      -283.4544
   7   2.0000      -0.920780       -25.0557
   8   2.0000      -0.855209       -23.2714
   9   2.0000      -0.762132       -20.7387
  10   2.0000      -0.762101       -20.7378
  11   2.0000      -0.752990       -20.4899
  12   2.0000      -0.662661       -18.0319
  13   2.0000      -0.593222       -16.1424
  14   2.0000      -0.526614       -14.3299
  15   2.0000      -0.516847       -14.0641
  16   2.0000      -0.494138       -13.4462
  17   2.0000      -0.491678       -13.3792
  18   2.0000      -0.459700       -12.5091
  19   2.0000      -0.443879       -12.0786
  20   2.0000      -0.440591       -11.9891
  21   2.0000      -0.413448       -11.2505
  22   2.0000      -0.412732       -11.2310
  23   2.0000      -0.409644       -11.1470
  24   2.0000      -0.393337       -10.7032
  25   2.0000      -0.377776       -10.2798
  26   2.0000      -0.359188        -9.7740
  27   2.0000      -0.355309        -9.6685
  28   2.0000      -0.348963        -9.4958
  29   0.0000       0.119947         3.2639
  30   0.0000       0.155251         4.2246
  31   0.0000       0.175120         4.7653
  32   0.0000       0.182348         4.9619
  33   0.0000       0.184784         5.0282

MULLIKEN ATOMIC CHARGES
-----------------------
   0 C :   -0.618411
   1 C :   -0.102891
   2 C :   -0.361317
   3 C :   -0.428431
   4 C :   -0.634992
   5 C :   -0.618411
   6 C :   -0.607589
   7 H :    0.215517
   8 H :    0.210571
   9 H :    0.213805
  10 H :    0.200781
  11 H :    0.200781
  12 H :    0.210373
  13 H :    0.210373
  14 H :    0.208742
  15 H :    0.218328
  16 H :    0.208742
  17 H :    0.215517
  18 H :    0.213805
  19 H :    0.210571
  20 H :    0.211355
  21 H :    0.211355
  22 H :    0.211427
Sum of atomic charges:    0.0000000

LOEWDIN ATOMIC CHARGES
----------------------
   0 C :   -0.343954
   1 C :   -0.110857
   2 C :   -0.224491
   3 C :   -0.247795
   4 C :   -0.359312
   5 C :   -0.343954
   6 C :   -0.340619
   7 H :    0.124154
   8 H :    0.124350
   9 H :    0.125330
  10 H :    0.119577
  11 H :    0.119577
  12 H :    0.120477
  13 H :    0.120477
  14 H :    0.123048
  15 H :    0.125348
  16 H :    0.123048
  17 H :    0.124154
  18 H :    0.125330
  19 H :    0.124350
  20 H :    0.124115
  21 H :    0.124115
  22 H :    0.123534

  Mayer bond orders larger than 0.100000
B(  0-C ,  1-C ) :   0.9793 B(  0-C ,  7-H ) :   0.9271 B(  0-C ,  8-H ) :   0.9304
B(  0-C ,  9-H ) :   0.9286 B(  1-C ,  2-C ) :   0.9706 B(  1-C ,  5-C ) :   0.9793
B(  1-C ,  6-C ) :   0.9893 B(  2-C ,  3-C ) :   0.9876 B(  2-C , 10-H ) :   0.9200
B(  2-C , 11-H ) :   0.9200 B(  3-C ,  4-C ) :   0.9978 B(  3-C , 12-H ) :   0.9170
B(  3-C , 13-H ) :   0.9170 B(  4-C , 14-H ) :   0.9297 B(  4-C , 15-H ) :   0.9327
B(  4-C , 16-H ) :   0.9297 B(  5-C , 17-H ) :   0.9271 B(  5-C , 18-H ) :   0.9286
B(  5-C , 19-H ) :   0.9304 B(  6-C , 20-H ) :   0.9295 B(  6-C , 21-H ) :   0.9295
B(  6-C , 22-H ) :   0.9295

Dispersion correction           -0.011766459
FINAL SINGLE POINT ENERGY      -275.794291559169

DIPOLE MOMENT
-------------
                                X             Y             Z
Electronic contribution:     -0.40204      -0.17122      -0.00000
Nuclear contribution   :      0.40338       0.18213       0.00000
                        -----------------------------------------
Total Dipole Moment    :      0.00134       0.01090      -0.00000
                        -----------------------------------------
Magnitude (a.u.)       :      0.01099
Magnitude (Debye)      :      0.02792

Rotational constants in cm-1:     0.136433     0.047249     0.046644
Rotational constants in MHz :  4090.169459  1416.478891  1398.349755

                             ****ORCA TERMINATED NORMALLY****
TOTAL RUN TIME: 0 days 0 hours 1 minutes 16 seconds 641 msec
