                         Program Version 5.0.3 -  RELEASE  -
|  1> ! PBEh-3c def2/J TightSCF DefGrid3
|  2>
|  3> %maxcore 60000
|  4>
|  5> %pal
|  6> nprocs 4
|  7> end
|  8>
|  9> *xyzfile 0 1 ortho-xylylene.xyz
| 10>
| 11>                          ****END OF INPUT****

CARTESIAN COORDINATES (ANGSTROEM)
---------------------------------
  H     -0.144883    1.244000    2.888823
  C     -0.079370    0.721429    1.938265
  C     -0.128693    1.408985    0.775518
  C      0.079370   -0.721429    1.938265
  C      0.128693   -1.408985    0.775518
  H      0.144883   -1.244000    2.888823
  H     -0.221218    2.492346    0.775544
  C     -0.006727    0.748467   -0.523309
  C      0.006727   -0.748467   -0.523309
  H      0.221218   -2.492346    0.775544
  C      0.128693    1.497447   -1.641474
  C     -0.128693   -1.497447   -1.641474
  H      0.089546    2.581731   -1.590975
  H      0.294457    1.064480   -2.622392
  H     -0.294457   -1.064480   -2.622392
  H     -0.089546   -2.581731   -1.590975

 Total Charge           Charge          ....    0
 Multiplicity           Mult            ....    1
 Number of Electrons    NEL             ....   56
 Basis Dimension        Dim             ....  136

ORBITAL ENERGIES
----------------

  NO   OCC          E(Eh)            E(eV)
   0   2.0000     -10.467538      -284.8362
   1   2.0000     -10.467310      -284.8300
   2   2.0000     -10.452622      -284.4303
   3   2.0000     -10.452544      -284.4282
   4   2.0000     -10.451816      -284.4084
   5   2.0000     -10.451628      -284.4033
   6   2.0000     -10.445661      -284.2409
   7   2.0000     -10.445614      -284.2396
   8   2.0000      -0.956598       -26.0304
   9   2.0000      -0.873359       -23.7653
  10   2.0000      -0.864426       -23.5222
  11   2.0000      -0.785636       -21.3782
  12   2.0000      -0.726611       -19.7721
  13   2.0000      -0.665539       -18.1102
  14   2.0000      -0.637145       -17.3376
  15   2.0000      -0.568453       -15.4684
  16   2.0000      -0.548366       -14.9218
  17   2.0000      -0.531262       -14.4564
  18   2.0000      -0.485310       -13.2060
  19   2.0000      -0.480214       -13.0673
  20   2.0000      -0.466183       -12.6855
  21   2.0000      -0.445611       -12.1257
  22   2.0000      -0.429581       -11.6895
  23   2.0000      -0.405677       -11.0390
  24   2.0000      -0.386027       -10.5043
  25   2.0000      -0.332845        -9.0572
  26   2.0000      -0.329541        -8.9673
  27   2.0000      -0.229663        -6.2494
  28   0.0000      -0.054310        -1.4779
  29   0.0000       0.047431         1.2907
  30   0.0000       0.066007         1.7961
  31   0.0000       0.146620         3.9897
  32   0.0000       0.159861         4.3500

MULLIKEN ATOMIC CHARGES
-----------------------
   0 H :    0.221772
   1 C :   -0.227129
   2 C :   -0.253809
   3 C :   -0.227128
   4 C :   -0.253810
   5 H :    0.221772
   6 H :    0.215148
   7 C :    0.167935
   8 C :    0.167935
   9 H :    0.215148
  10 C :   -0.571523
  11 C :   -0.571523
  12 H :    0.227490
  13 H :    0.220117
  14 H :    0.220117
  15 H :    0.227490
Sum of atomic charges:    0.0000000

LOEWDIN ATOMIC CHARGES
----------------------
   0 H :    0.138113
   1 C :   -0.142959
   2 C :   -0.118518
   3 C :   -0.142959
   4 C :   -0.118518
   5 H :    0.138113
   6 H :    0.138212
   7 C :   -0.042876
   8 C :   -0.042876
   9 H :    0.138212
  10 C :   -0.242218
  11 C :   -0.242218
  12 H :    0.136345
  13 H :    0.133900
  14 H :    0.133900
  15 H :    0.136345

  Mayer bond orders larger than 0.100000
B(  0-H ,  1-C ) :   0.9176 B(  1-C ,  2-C ) :   1.7291 B(  1-C ,  3-C ) :   1.1218
B(  2-C ,  6-H ) :   0.9214 B(  2-C ,  7-C ) :   1.0901 B(  3-C ,  4-C ) :   1.7291
B(  3-C ,  5-H ) :   0.9176 B(  4-C ,  8-C ) :   1.0901 B(  4-C ,  9-H ) :   0.9214
B(  7-C ,  8-C ) :   1.0137 B(  7-C , 10-C ) :   1.6932 B(  8-C , 11-C ) :   1.6932
B( 10-C , 11-C ) :   0.1196 B( 10-C , 12-H ) :   0.9272 B( 10-C , 13-H ) :   0.9282
B( 11-C , 14-H ) :   0.9282 B( 11-C , 15-H ) :   0.9272

Dispersion correction           -0.009013556
FINAL SINGLE POINT ENERGY      -308.906686436124

DIPOLE MOMENT
-------------
                                X             Y             Z
Electronic contribution:      0.00000      -0.00000       1.91467
Nuclear contribution   :     -0.00000       0.00000      -1.90072
                        -----------------------------------------
Total Dipole Moment    :      0.00000      -0.00000       0.01394
                        -----------------------------------------
Magnitude (a.u.)       :      0.01394
Magnitude (Debye)      :      0.03544

Rotational constants in cm-1:     0.105255     0.079194     0.045500
Rotational constants in MHz :  3155.478993  2374.175914  1364.058419

                             ****ORCA TERMINATED NORMALLY****
TOTAL RUN TIME: 0 days 0 hours 1 minutes 38 seconds 705 msec
