                         Program Version 5.0.3 -  RELEASE  -
|  1> ! PBEh-3c def2/J TightSCF DefGrid3
|  2>
|  3> %maxcore 60000
|  4>
|  5> %pal
|  6> nprocs 4
|  7> end
|  8>
|  9> *xyzfile 0 1 13dip.xyz
| 10>
| 11>                          ****END OF INPUT****

CARTESIAN COORDINATES (ANGSTROEM)
---------------------------------
  C      0.000000    1.195548    0.159154
  C      0.000000    0.000000   -0.809523
  C      0.000000   -1.195548    0.159154
  N      0.000000   -0.614761    1.535780
  N      0.000000    0.614761    1.535780
  H     -0.879014    1.838263    0.080560
  H      0.879014    1.838263    0.080560
  H     -0.880122    0.000000   -1.451293
  H      0.880122    0.000000   -1.451293
  H      0.879014   -1.838263    0.080560
  H     -0.879014   -1.838263    0.080560

 Total Charge           Charge          ....    0
 Multiplicity           Mult            ....    1
 Number of Electrons    NEL             ....   38
 Basis Dimension        Dim             ....   87

ORBITAL ENERGIES
----------------

  NO   OCC          E(Eh)            E(eV)
   0   2.0000     -14.682498      -399.5311
   1   2.0000     -14.681913      -399.5152
   2   2.0000     -10.470962      -284.9294
   3   2.0000     -10.470908      -284.9279
   4   2.0000     -10.452592      -284.4295
   5   2.0000      -1.147929       -31.2367
   6   2.0000      -0.880489       -23.9593
   7   2.0000      -0.851871       -23.1806
   8   2.0000      -0.697820       -18.9886
   9   2.0000      -0.628681       -17.1073
  10   2.0000      -0.565729       -15.3943
  11   2.0000      -0.560436       -15.2502
  12   2.0000      -0.482247       -13.1226
  13   2.0000      -0.480824       -13.0839
  14   2.0000      -0.447717       -12.1830
  15   2.0000      -0.420548       -11.4437
  16   2.0000      -0.391221       -10.6457
  17   2.0000      -0.363329        -9.8867
  18   2.0000      -0.283539        -7.7155
  19   0.0000       0.011478         0.3123
  20   0.0000       0.117672         3.2020
  21   0.0000       0.143864         3.9147
  22   0.0000       0.170597         4.6422
  23   0.0000       0.189909         5.1677

MULLIKEN ATOMIC CHARGES
-----------------------
   0 C :   -0.327720
   1 C :   -0.528940
   2 C :   -0.327720
   3 N :   -0.138345
   4 N :   -0.138344
   5 H :    0.243583
   6 H :    0.243583
   7 H :    0.243369
   8 H :    0.243369
   9 H :    0.243583
  10 H :    0.243583
Sum of atomic charges:   -0.0000000

LOEWDIN ATOMIC CHARGES
----------------------
   0 C :   -0.195418
   1 C :   -0.281464
   2 C :   -0.195418
   3 N :   -0.073441
   4 N :   -0.073440
   5 H :    0.136295
   6 H :    0.136295
   7 H :    0.137000
   8 H :    0.137000
   9 H :    0.136295
  10 H :    0.136295

  Mayer bond orders larger than 0.100000
B(  0-C ,  1-C ) :   0.9497 B(  0-C ,  4-N ) :   0.9801 B(  0-C ,  5-H ) :   0.9049
B(  0-C ,  6-H ) :   0.9049 B(  1-C ,  2-C ) :   0.9497 B(  1-C ,  7-H ) :   0.9241
B(  1-C ,  8-H ) :   0.9241 B(  2-C ,  3-N ) :   0.9801 B(  2-C ,  9-H ) :   0.9049
B(  2-C , 10-H ) :   0.9049 B(  3-N ,  4-N ) :   1.9500

Dispersion correction           -0.004521316
FINAL SINGLE POINT ENERGY      -226.882961610268

DIPOLE MOMENT
-------------
                                X             Y             Z
Electronic contribution:      0.00000       0.00000       3.90985
Nuclear contribution   :      0.00000       0.00000      -5.18168
                        -----------------------------------------
Total Dipole Moment    :      0.00000       0.00000      -1.27183
                        -----------------------------------------
Magnitude (a.u.)       :      1.27183
Magnitude (Debye)      :      3.23274

Rotational constants in cm-1:     0.266630     0.253495     0.140047
Rotational constants in MHz :  7993.371036  7599.595478  4198.492967

                             ****ORCA TERMINATED NORMALLY****
TOTAL RUN TIME: 0 days 0 hours 0 minutes 53 seconds 177 msec
