                         Program Version 5.0.3 -  RELEASE  -
|  1> ! PBEh-3c def2/J TightSCF DefGrid3
|  2>
|  3> %maxcore 60000
|  4>
|  5> %pal
|  6> nprocs 4
|  7> end
|  8>
|  9> *xyzfile -1 1 15.xyz
| 10>
| 11>                          ****END OF INPUT****

CARTESIAN COORDINATES (ANGSTROEM)
---------------------------------
  S      0.771612    1.326269   -0.938716
  H     -0.190751    1.842740   -1.717475
  N     -1.149550   -0.039944    1.597736
  H     -0.799390   -0.991974    1.588838
  H     -0.713148    0.397698    2.402145
  H     -0.700673    0.408099    0.784634

 Total Charge           Charge          ....   -1
 Multiplicity           Mult            ....    1
 Number of Electrons    NEL             ....   28
 Basis Dimension        Dim             ....   41

ORBITAL ENERGIES
----------------

  NO   OCC          E(Eh)            E(eV)
   0   2.0000     -89.249258     -2428.5958
   1   2.0000     -14.419089      -392.3634
   2   2.0000      -7.886814      -214.6111
   3   2.0000      -5.778987      -157.2542
   4   2.0000      -5.772823      -157.0865
   5   2.0000      -5.771842      -157.0598
   6   2.0000      -0.757163       -20.6034
   7   2.0000      -0.466988       -12.7074
   8   2.0000      -0.338220        -9.2034
   9   2.0000      -0.319253        -8.6873
  10   2.0000      -0.150621        -4.0986
  11   2.0000      -0.138023        -3.7558
  12   2.0000      -0.000944        -0.0257
  13   2.0000       0.002568         0.0699
  14   0.0000       0.308892         8.4054
  15   0.0000       0.355017         9.6605
  16   0.0000       0.378059        10.2875
  17   0.0000       0.452884        12.3236
  18   0.0000       0.717602        19.5269

MULLIKEN ATOMIC CHARGES
-----------------------
   0 S :   -0.940557
   1 H :    0.033979
   2 N :   -0.993911
   3 H :    0.269978
   4 H :    0.270002
   5 H :    0.360509
Sum of atomic charges:   -1.0000000

LOEWDIN ATOMIC CHARGES
----------------------
   0 S :   -0.915788
   1 H :    0.010883
   2 N :   -0.700743
   3 H :    0.192261
   4 H :    0.192275
   5 H :    0.221114

  Mayer bond orders larger than 0.100000
B(  0-S ,  1-H ) :   0.9551 B(  0-S ,  5-H ) :   0.1732 B(  2-N ,  3-H ) :   0.9028
B(  2-N ,  4-H ) :   0.9028 B(  2-N ,  5-H ) :   0.7494

Dispersion correction           -0.001244097
FINAL SINGLE POINT ENERGY      -454.789061034639

DIPOLE MOMENT
-------------
                                X             Y             Z
Electronic contribution:      2.46869       1.19348      -2.30031
Nuclear contribution   :     -2.74648      -1.73223       3.24993
                        -----------------------------------------
Total Dipole Moment    :     -0.27779      -0.53875       0.94962
                        -----------------------------------------
Magnitude (a.u.)       :      1.12659
Magnitude (Debye)      :      2.86355

Rotational constants in cm-1:     4.651695     0.124967     0.124045
Rotational constants in MHz : 139454.318250  3746.425496  3718.772872

                             ****ORCA TERMINATED NORMALLY****
TOTAL RUN TIME: 0 days 0 hours 0 minutes 47 seconds 246 msec
