                         Program Version 5.0.3 -  RELEASE  -
|  1> ! PBEh-3c def2/J TightSCF DefGrid3
|  2>
|  3> %maxcore 60000
|  4>
|  5> %pal
|  6> nprocs 4
|  7> end
|  8>
|  9> *xyzfile 0 1 B12.xyz
| 10>
| 11>                          ****END OF INPUT****

CARTESIAN COORDINATES (ANGSTROEM)
---------------------------------
  C     -1.364274   -0.322795   -0.651615
  H     -0.748878   -1.201609   -0.863555
  O     -2.032418   -0.463070    0.604678
  C     -0.491832    0.917952   -0.586926
  H      0.057410    0.992318   -1.526104
  H     -1.135020    1.796542   -0.510021
  C      0.491815    0.917895    0.586962
  H     -0.057400    0.992210    1.526162
  H      1.135029    1.796474    0.510132
  H     -2.599507   -1.236151    0.550061
  H     -2.089218   -0.217100   -1.463860
  C      1.364246   -0.322865    0.651588
  H      2.089035   -0.217300    1.463996
  H      0.748811   -1.201710    0.863243
  O      2.032653   -0.462880   -0.604600
  H      2.598128   -1.237197   -0.550732

 Total Charge           Charge          ....    0
 Multiplicity           Mult            ....    1
 Number of Electrons    NEL             ....   50
 Basis Dimension        Dim             ....  110

ORBITAL ENERGIES
----------------

  NO   OCC          E(Eh)            E(eV)
   0   2.0000     -19.480160      -530.0821
   1   2.0000     -19.480139      -530.0815
   2   2.0000     -10.473116      -284.9880
   3   2.0000     -10.473092      -284.9873
   4   2.0000     -10.421156      -283.5741
   5   2.0000     -10.420936      -283.5681
   6   2.0000      -1.116407       -30.3790
   7   2.0000      -1.114013       -30.3138
   8   2.0000      -0.872357       -23.7380
   9   2.0000      -0.789672       -21.4881
  10   2.0000      -0.704110       -19.1598
  11   2.0000      -0.625085       -17.0094
  12   2.0000      -0.581218       -15.8157
  13   2.0000      -0.566519       -15.4158
  14   2.0000      -0.539757       -14.6875
  15   2.0000      -0.487307       -13.2603
  16   2.0000      -0.469490       -12.7755
  17   2.0000      -0.453363       -12.3366
  18   2.0000      -0.425991       -11.5918
  19   2.0000      -0.412551       -11.2261
  20   2.0000      -0.379236       -10.3195
  21   2.0000      -0.372655       -10.1405
  22   2.0000      -0.360318        -9.8047
  23   2.0000      -0.324042        -8.8176
  24   2.0000      -0.315119        -8.5748
  25   0.0000       0.119790         3.2597
  26   0.0000       0.139622         3.7993
  27   0.0000       0.181154         4.9294
  28   0.0000       0.193509         5.2656
  29   0.0000       0.195233         5.3126

MULLIKEN ATOMIC CHARGES
-----------------------
   0 C :   -0.174441
   1 H :    0.190000
   2 O :   -0.636088
   3 C :   -0.440884
   4 H :    0.231935
   5 H :    0.222000
   6 C :   -0.440909
   7 H :    0.231939
   8 H :    0.222019
   9 H :    0.415153
  10 H :    0.192308
  11 C :   -0.174440
  12 H :    0.192308
  13 H :    0.190037
  14 O :   -0.636084
  15 H :    0.415147
Sum of atomic charges:    0.0000000

LOEWDIN ATOMIC CHARGES
----------------------
   0 C :   -0.095251
   1 H :    0.099465
   2 O :   -0.424095
   3 C :   -0.252917
   4 H :    0.136227
   5 H :    0.128479
   6 C :   -0.252919
   7 H :    0.136229
   8 H :    0.128486
   9 H :    0.307059
  10 H :    0.101023
  11 C :   -0.095251
  12 H :    0.101021
  13 H :    0.099487
  14 O :   -0.424096
  15 H :    0.307055

  Mayer bond orders larger than 0.100000
B(  0-C ,  1-H ) :   0.9013 B(  0-C ,  2-O ) :   0.9966 B(  0-C ,  3-C ) :   0.9862
B(  0-C , 10-H ) :   0.9113 B(  2-O ,  9-H ) :   0.7953 B(  3-C ,  4-H ) :   0.9105
B(  3-C ,  5-H ) :   0.9183 B(  3-C ,  6-C ) :   0.9787 B(  6-C ,  7-H ) :   0.9105
B(  6-C ,  8-H ) :   0.9183 B(  6-C , 11-C ) :   0.9862 B( 11-C , 12-H ) :   0.9113
B( 11-C , 13-H ) :   0.9013 B( 11-C , 14-O ) :   0.9966 B( 14-O , 15-H ) :   0.7953

Dispersion correction           -0.006761386
FINAL SINGLE POINT ENERGY      -308.206594158844

DIPOLE MOMENT
-------------
                                X             Y             Z
Electronic contribution:      0.00043      -1.07164       0.00019
Nuclear contribution   :     -0.00167       0.26245      -0.00071
                        -----------------------------------------
Total Dipole Moment    :     -0.00125      -0.80919      -0.00051
                        -----------------------------------------
Magnitude (a.u.)       :      0.80920
Magnitude (Debye)      :      2.05681

Rotational constants in cm-1:     0.196403     0.067246     0.066573
Rotational constants in MHz :  5888.026071  2015.980941  1995.806837

                             ****ORCA TERMINATED NORMALLY****
TOTAL RUN TIME: 0 days 0 hours 1 minutes 13 seconds 127 msec
