                         Program Version 5.0.3 -  RELEASE  -
|  1> ! PBEh-3c def2/J TightSCF DefGrid3
|  2>
|  3> %maxcore 60000
|  4>
|  5> %pal
|  6> nprocs 4
|  7> end
|  8>
|  9> *xyzfile 0 1 01.xyz
| 10>
| 11>                          ****END OF INPUT****

CARTESIAN COORDINATES (ANGSTROEM)
---------------------------------
  O     -1.692973   -0.055914    0.000000
  H     -2.012972    0.847175    0.000000
  H     -0.733253    0.042355    0.000000
  O      1.230103    0.027070    0.000000
  H      1.604547   -0.430343    0.756463
  H      1.604547   -0.430343   -0.756463

 Total Charge           Charge          ....    0
 Multiplicity           Mult            ....    1
 Number of Electrons    NEL             ....   20
 Basis Dimension        Dim             ....   38

ORBITAL ENERGIES
----------------

  NO   OCC          E(Eh)            E(eV)
   0   2.0000     -19.509739      -530.8870
   1   2.0000     -19.437753      -528.9282
   2   2.0000      -1.136726       -30.9319
   3   2.0000      -1.067469       -29.0473
   4   2.0000      -0.612497       -16.6669
   5   2.0000      -0.550993       -14.9933
   6   2.0000      -0.472904       -12.8684
   7   2.0000      -0.407185       -11.0801
   8   2.0000      -0.384722       -10.4688
   9   2.0000      -0.324221        -8.8225
  10   0.0000       0.104787         2.8514
  11   0.0000       0.180381         4.9084
  12   0.0000       0.188875         5.1395
  13   0.0000       0.303500         8.2587
  14   0.0000       0.840218        22.8635

MULLIKEN ATOMIC CHARGES
-----------------------
   0 O :   -0.862844
   1 H :    0.395611
   2 H :    0.423421
   3 O :   -0.811616
   4 H :    0.427714
   5 H :    0.427714
Sum of atomic charges:   -0.0000000

LOEWDIN ATOMIC CHARGES
----------------------
   0 O :   -0.626844
   1 H :    0.291739
   2 H :    0.286488
   3 O :   -0.572683
   4 H :    0.310651
   5 H :    0.310651

  Mayer bond orders larger than 0.100000
B(  0-O ,  1-H ) :   0.8267 B(  0-O ,  2-H ) :   0.7493 B(  3-O ,  4-H ) :   0.7984
B(  3-O ,  5-H ) :   0.7984

Dispersion correction           -0.000820107
FINAL SINGLE POINT ENERGY      -152.525325680926

DIPOLE MOMENT
-------------
                                X             Y             Z
Electronic contribution:      0.09562      -0.03883       0.00000
Nuclear contribution   :      1.15582       0.07203       0.00000
                        -----------------------------------------
Total Dipole Moment    :      1.25145       0.03320       0.00000
                        -----------------------------------------
Magnitude (a.u.)       :      1.25189
Magnitude (Debye)      :      3.18205

Rotational constants in cm-1:     7.358675     0.211513     0.211470
Rotational constants in MHz : 220607.538160  6341.008251  6339.703253

                             ****ORCA TERMINATED NORMALLY****
TOTAL RUN TIME: 0 days 0 hours 0 minutes 56 seconds 981 msec
