                         Program Version 5.0.3 -  RELEASE  -
|  1> ! PBEh-3c def2/J TightSCF DefGrid3
|  2>
|  3> %maxcore 60000
|  4>
|  5> %pal
|  6> nprocs 4
|  7> end
|  8>
|  9> *xyzfile 0 1 B41.xyz
| 10>
| 11>                          ****END OF INPUT****

CARTESIAN COORDINATES (ANGSTROEM)
---------------------------------
  C      1.862550    0.117363   -0.347634
  H      2.886109    0.438300   -0.132128
  O      1.691604   -1.255748    0.006482
  C      0.872886    1.053049    0.337385
  H      0.929916    0.898396    1.420290
  H      1.207479    2.078292    0.157832
  C     -0.576626    0.924638   -0.135230
  H     -0.629137    1.096378   -1.212803
  H     -1.177626    1.704474    0.336791
  H      1.883995   -1.333763    0.944917
  H      1.726275    0.155763   -1.428548
  C     -1.236628   -0.407545    0.179924
  H     -0.779814   -1.212494   -0.395087
  H     -1.108446   -0.640190    1.243456
  O     -2.622276   -0.266242   -0.140503
  H     -3.026464   -1.134266   -0.069222

 Total Charge           Charge          ....    0
 Multiplicity           Mult            ....    1
 Number of Electrons    NEL             ....   50
 Basis Dimension        Dim             ....  110

ORBITAL ENERGIES
----------------

  NO   OCC          E(Eh)            E(eV)
   0   2.0000     -19.488960      -530.3216
   1   2.0000     -19.475424      -529.9532
   2   2.0000     -10.482582      -285.2456
   3   2.0000     -10.469695      -284.8949
   4   2.0000     -10.437922      -284.0303
   5   2.0000     -10.427426      -283.7447
   6   2.0000      -1.124405       -30.5966
   7   2.0000      -1.111232       -30.2381
   8   2.0000      -0.880601       -23.9624
   9   2.0000      -0.793716       -21.5981
  10   2.0000      -0.709173       -19.2976
  11   2.0000      -0.650669       -17.7056
  12   2.0000      -0.576728       -15.6936
  13   2.0000      -0.549438       -14.9510
  14   2.0000      -0.532475       -14.4894
  15   2.0000      -0.513639       -13.9768
  16   2.0000      -0.490572       -13.3491
  17   2.0000      -0.454028       -12.3547
  18   2.0000      -0.422615       -11.4999
  19   2.0000      -0.415428       -11.3044
  20   2.0000      -0.398331       -10.8391
  21   2.0000      -0.378150       -10.2900
  22   2.0000      -0.368257       -10.0208
  23   2.0000      -0.325637        -8.8610
  24   2.0000      -0.314000        -8.5444
  25   0.0000       0.119436         3.2500
  26   0.0000       0.137540         3.7426
  27   0.0000       0.162998         4.4354
  28   0.0000       0.179535         4.8854
  29   0.0000       0.192992         5.2516

MULLIKEN ATOMIC CHARGES
-----------------------
   0 C :   -0.162694
   1 H :    0.193669
   2 O :   -0.623653
   3 C :   -0.466732
   4 H :    0.199970
   5 H :    0.222127
   6 C :   -0.441048
   7 H :    0.218688
   8 H :    0.231862
   9 H :    0.409547
  10 H :    0.211304
  11 C :   -0.143195
  12 H :    0.209929
  13 H :    0.160929
  14 O :   -0.634566
  15 H :    0.413863
Sum of atomic charges:   -0.0000000

LOEWDIN ATOMIC CHARGES
----------------------
   0 C :   -0.097347
   1 H :    0.102079
   2 O :   -0.411934
   3 C :   -0.266061
   4 H :    0.117578
   5 H :    0.131804
   6 C :   -0.250207
   7 H :    0.127635
   8 H :    0.133241
   9 H :    0.305191
  10 H :    0.120217
  11 C :   -0.098519
  12 H :    0.111110
  13 H :    0.090269
  14 O :   -0.421723
  15 H :    0.306667

  Mayer bond orders larger than 0.100000
B(  0-C ,  1-H ) :   0.9158 B(  0-C ,  2-O ) :   1.0073 B(  0-C ,  3-C ) :   0.9576
B(  0-C , 10-H ) :   0.9155 B(  2-O ,  9-H ) :   0.7943 B(  3-C ,  4-H ) :   0.9185
B(  3-C ,  5-H ) :   0.9135 B(  3-C ,  6-C ) :   0.9801 B(  6-C ,  7-H ) :   0.9151
B(  6-C ,  8-H ) :   0.9137 B(  6-C , 11-C ) :   0.9870 B( 11-C , 12-H ) :   0.8954
B( 11-C , 13-H ) :   0.9108 B( 11-C , 14-O ) :   1.0078 B( 14-O , 15-H ) :   0.7958

Dispersion correction           -0.006669607
FINAL SINGLE POINT ENERGY      -308.205615339255

DIPOLE MOMENT
-------------
                                X             Y             Z
Electronic contribution:     -1.50610      -2.18970      -0.33447
Nuclear contribution   :      1.97724       2.11195       0.89961
                        -----------------------------------------
Total Dipole Moment    :      0.47115      -0.07775       0.56515
                        -----------------------------------------
Magnitude (a.u.)       :      0.73987
Magnitude (Debye)      :      1.88061

Rotational constants in cm-1:     0.214620     0.062131     0.051754
Rotational constants in MHz :  6434.147811  1862.632305  1551.532510

                             ****ORCA TERMINATED NORMALLY****
TOTAL RUN TIME: 0 days 0 hours 1 minutes 24 seconds 218 msec
