                         Program Version 5.0.3 -  RELEASE  -
|  1> ! PBEh-3c def2/J TightSCF DefGrid3
|  2>
|  3> %maxcore 60000
|  4>
|  5> %pal
|  6> nprocs 4
|  7> end
|  8>
|  9> *xyzfile -1 1 214B.xyz
| 10>
| 11>                          ****END OF INPUT****

CARTESIAN COORDINATES (ANGSTROEM)
---------------------------------
  O      2.596390    0.512110    1.059730
  Cl     1.950960    0.926710    2.349490
  O      2.892330    0.830170    3.455330
  O      1.404160    2.291180    2.200060
  O      0.783070   -0.023370    2.593360

 Total Charge           Charge          ....   -1
 Multiplicity           Mult            ....    1
 Number of Electrons    NEL             ....   50
 Basis Dimension        Dim             ....   78

ORBITAL ENERGIES
----------------

  NO   OCC          E(Eh)            E(eV)
   0   2.0000    -102.486326     -2788.7947
   1   2.0000     -19.315086      -525.5902
   2   2.0000     -19.305382      -525.3261
   3   2.0000     -19.297567      -525.1135
   4   2.0000     -19.288482      -524.8663
   5   2.0000      -9.896879      -269.3078
   6   2.0000      -7.584616      -206.3879
   7   2.0000      -7.584188      -206.3762
   8   2.0000      -7.583776      -206.3650
   9   2.0000      -1.183111       -32.1941
  10   2.0000      -0.954289       -25.9675
  11   2.0000      -0.929575       -25.2950
  12   2.0000      -0.906631       -24.6707
  13   2.0000      -0.532647       -14.4941
  14   2.0000      -0.408204       -11.1078
  15   2.0000      -0.407847       -11.0981
  16   2.0000      -0.407575       -11.0907
  17   2.0000      -0.237987        -6.4760
  18   2.0000      -0.237908        -6.4738
  19   2.0000      -0.214148        -5.8273
  20   2.0000      -0.206790        -5.6270
  21   2.0000      -0.203329        -5.5329
  22   2.0000      -0.142237        -3.8705
  23   2.0000      -0.134505        -3.6601
  24   2.0000      -0.129479        -3.5233
  25   0.0000       0.304006         8.2724
  26   0.0000       0.318872         8.6770
  27   0.0000       0.334078         9.0907
  28   0.0000       0.352985         9.6052
  29   0.0000       0.644152        17.5283

MULLIKEN ATOMIC CHARGES
-----------------------
   0 O :   -0.677630
   1 Cl:    1.684089
   2 O :   -0.650921
   3 O :   -0.665483
   4 O :   -0.690056
Sum of atomic charges:   -1.0000000

LOEWDIN ATOMIC CHARGES
----------------------
   0 O :   -0.677590
   1 Cl:    1.675915
   2 O :   -0.642231
   3 O :   -0.660789
   4 O :   -0.695305

  Mayer bond orders larger than 0.100000
B(  0-O ,  1-Cl) :   1.4017 B(  1-Cl,  2-O ) :   1.4641 B(  1-Cl,  3-O ) :   1.4337
B(  1-Cl,  4-O ) :   1.3677

Dispersion correction           -0.001800541
FINAL SINGLE POINT ENERGY      -759.682478861720

DIPOLE MOMENT
-------------
                                X             Y             Z
Electronic contribution:      0.19274       0.15060       0.13527
Nuclear contribution   :     -0.02829      -0.02140      -0.01979
                        -----------------------------------------
Total Dipole Moment    :      0.16445       0.12920       0.11548
                        -----------------------------------------
Magnitude (a.u.)       :      0.23890
Magnitude (Debye)      :      0.60723

Rotational constants in cm-1:     0.178489     0.178253     0.177570
Rotational constants in MHz :  5350.959108  5343.878857  5323.417070

                             ****ORCA TERMINATED NORMALLY****
TOTAL RUN TIME: 0 days 0 hours 0 minutes 57 seconds 313 msec
