                         Program Version 5.0.3 -  RELEASE  -
|  1> ! PBEh-3c def2/J TightSCF DefGrid3
|  2>
|  3> %maxcore 60000
|  4>
|  5> %pal
|  6> nprocs 4
|  7> end
|  8>
|  9> *xyzfile 1 1 7p5.xyz
| 10>
| 11>                          ****END OF INPUT****

CARTESIAN COORDINATES (ANGSTROEM)
---------------------------------
  O     -2.463020    1.185181    0.000000
  C     -1.341806    1.203647    0.000000
  C      0.033890    1.252510    0.000000
  H      0.467256    2.248928    0.000000
  C      0.755287    0.100423    0.000000
  H      1.836173    0.226289    0.000000
  C      0.244163   -1.268123    0.000000
  H     -0.842428   -1.353314    0.000000
  H      0.655242   -1.797771    0.869468
  H      0.655242   -1.797771   -0.869468

 Total Charge           Charge          ....    1
 Multiplicity           Mult            ....    1
 Number of Electrons    NEL             ....   36
 Basis Dimension        Dim             ....   85

ORBITAL ENERGIES
----------------

  NO   OCC          E(Eh)            E(eV)
   0   2.0000     -19.859253      -540.3977
   1   2.0000     -10.865507      -295.6655
   2   2.0000     -10.743696      -292.3508
   3   2.0000     -10.719150      -291.6829
   4   2.0000     -10.649245      -289.7807
   5   2.0000      -1.533681       -41.7336
   6   2.0000      -1.180061       -32.1111
   7   2.0000      -1.058068       -28.7915
   8   2.0000      -0.946346       -25.7514
   9   2.0000      -0.858116       -23.3505
  10   2.0000      -0.827731       -22.5237
  11   2.0000      -0.794645       -21.6234
  12   2.0000      -0.778937       -21.1960
  13   2.0000      -0.752304       -20.4712
  14   2.0000      -0.687525       -18.7085
  15   2.0000      -0.677372       -18.4322
  16   2.0000      -0.649571       -17.6757
  17   2.0000      -0.572875       -15.5887
  18   0.0000      -0.289938        -7.8896
  19   0.0000      -0.249001        -6.7757
  20   0.0000      -0.117591        -3.1998
  21   0.0000      -0.058174        -1.5830
  22   0.0000      -0.034993        -0.9522

MULLIKEN ATOMIC CHARGES
-----------------------
   0 O :   -0.019451
   1 C :    0.514661
   2 C :   -0.370338
   3 H :    0.388645
   4 C :   -0.043071
   5 H :    0.342180
   6 C :   -0.724458
   7 H :    0.262434
   8 H :    0.324699
   9 H :    0.324698
Sum of atomic charges:    1.0000000

LOEWDIN ATOMIC CHARGES
----------------------
   0 O :    0.162294
   1 C :    0.372546
   2 C :   -0.250903
   3 H :    0.227466
   4 C :    0.090148
   5 H :    0.194075
   6 C :   -0.356160
   7 H :    0.157081
   8 H :    0.201727
   9 H :    0.201727

  Mayer bond orders larger than 0.100000
B(  0-O ,  1-C ) :   2.5298 B(  1-C ,  2-C ) :   1.2166 B(  2-C ,  3-H ) :   0.8192
B(  2-C ,  4-C ) :   1.5427 B(  4-C ,  5-H ) :   0.8620 B(  4-C ,  6-C ) :   1.0469
B(  6-C ,  7-H ) :   0.9050 B(  6-C ,  8-H ) :   0.8493 B(  6-C ,  9-H ) :   0.8493

Dispersion correction           -0.003794834
FINAL SINGLE POINT ENERGY      -229.831079623664

DIPOLE MOMENT
-------------
                                X             Y             Z
Electronic contribution:     -4.30575       4.45168      -0.00000
Nuclear contribution   :      5.30997      -4.47908       0.00000
                        -----------------------------------------
Total Dipole Moment    :      1.00422      -0.02741      -0.00000
                        -----------------------------------------
Magnitude (a.u.)       :      1.00460
Magnitude (Debye)      :      2.55348

Rotational constants in cm-1:     0.400821     0.115607     0.091207
Rotational constants in MHz : 12016.319495  3465.809800  2734.319371

                             ****ORCA TERMINATED NORMALLY****
TOTAL RUN TIME: 0 days 0 hours 1 minutes 59 seconds 924 msec
