                         Program Version 5.0.3 -  RELEASE  -
|  1> ! PBEh-3c def2/J TightSCF DefGrid3
|  2>
|  3> %maxcore 60000
|  4>
|  5> %pal
|  6> nprocs 4
|  7> end
|  8>
|  9> *xyzfile 0 1 h2o.xyz
| 10>
| 11>                          ****END OF INPUT****

CARTESIAN COORDINATES (ANGSTROEM)
---------------------------------
  O      0.000000    0.065900    0.000000
  H     -0.755453   -0.523051    0.000000
  H      0.755453   -0.523051    0.000000

 Total Charge           Charge          ....    0
 Multiplicity           Mult            ....    1
 Number of Electrons    NEL             ....   10
 Basis Dimension        Dim             ....   19

ORBITAL ENERGIES
----------------

  NO   OCC          E(Eh)            E(eV)
   0   2.0000     -19.474006      -529.9146
   1   2.0000      -1.103966       -30.0404
   2   2.0000      -0.582314       -15.8456
   3   2.0000      -0.435408       -11.8481
   4   2.0000      -0.356821        -9.7096
   5   0.0000       0.132208         3.5976
   6   0.0000       0.210254         5.7213
   7   0.0000       0.873262        23.7627
   8   0.0000       0.984150        26.7801
   9   0.0000       0.991516        26.9805

MULLIKEN ATOMIC CHARGES
-----------------------
   0 O :   -0.816847
   1 H :    0.408424
   2 H :    0.408424
Sum of atomic charges:   -0.0000000

LOEWDIN ATOMIC CHARGES
----------------------
   0 O :   -0.596728
   1 H :    0.298364
   2 H :    0.298364

  Mayer bond orders larger than 0.100000
B(  0-O ,  1-H ) :   0.8158 B(  0-O ,  2-H ) :   0.8158

Dispersion correction           -0.000209581
FINAL SINGLE POINT ENERGY       -76.258033403409

DIPOLE MOMENT
-------------
                                X             Y             Z
Electronic contribution:      0.00000       0.12935       0.00000
Nuclear contribution   :      0.00000      -0.98044       0.00000
                        -----------------------------------------
Total Dipole Moment    :      0.00000      -0.85109       0.00000
                        -----------------------------------------
Magnitude (a.u.)       :      0.85109
Magnitude (Debye)      :      2.16330

Rotational constants in cm-1:    27.144986    14.651820     9.515642
Rotational constants in MHz : 813786.207035 439250.526572 285271.780443

                             ****ORCA TERMINATED NORMALLY****
TOTAL RUN TIME: 0 days 0 hours 0 minutes 22 seconds 873 msec
