                         Program Version 5.0.3 -  RELEASE  -
|  1> ! PBEh-3c def2/J TightSCF DefGrid3
|  2>
|  3> %maxcore 60000
|  4>
|  5> %pal
|  6> nprocs 4
|  7> end
|  8>
|  9> *xyzfile 0 1 07A.xyz
| 10>
| 11>                          ****END OF INPUT****

CARTESIAN COORDINATES (ANGSTROEM)
---------------------------------
  O      0.509504    0.446623   -0.864533
  H      1.429408    0.276602   -0.606089
  C     -0.303892   -0.077677    0.162419
  H     -1.339209    0.124786   -0.100724
  H     -0.189462   -1.158333    0.276410
  H     -0.106349    0.387999    1.132518

 Total Charge           Charge          ....    0
 Multiplicity           Mult            ....    1
 Number of Electrons    NEL             ....   18
 Basis Dimension        Dim             ....   38

ORBITAL ENERGIES
----------------

  NO   OCC          E(Eh)            E(eV)
   0   2.0000     -19.484447      -530.1988
   1   2.0000     -10.472855      -284.9809
   2   2.0000      -1.119843       -30.4725
   3   2.0000      -0.758989       -20.6532
   4   2.0000      -0.567592       -15.4450
   5   2.0000      -0.497447       -13.5362
   6   2.0000      -0.481067       -13.0905
   7   2.0000      -0.388743       -10.5782
   8   2.0000      -0.325062        -8.8454
   9   0.0000       0.128627         3.5001
  10   0.0000       0.194030         5.2798
  11   0.0000       0.219691         5.9781
  12   0.0000       0.233195         6.3456
  13   0.0000       0.240059         6.5323

MULLIKEN ATOMIC CHARGES
-----------------------
   0 O :   -0.621412
   1 H :    0.412067
   2 C :   -0.371831
   3 H :    0.217506
   4 H :    0.182232
   5 H :    0.181438
Sum of atomic charges:   -0.0000000

LOEWDIN ATOMIC CHARGES
----------------------
   0 O :   -0.419295
   1 H :    0.307363
   2 C :   -0.200808
   3 H :    0.121432
   4 H :    0.095705
   5 H :    0.095604

  Mayer bond orders larger than 0.100000
B(  0-O ,  1-H ) :   0.7983 B(  0-O ,  2-C ) :   1.0202 B(  2-C ,  3-H ) :   0.9245
B(  2-C ,  4-H ) :   0.9172 B(  2-C ,  5-H ) :   0.9181

Dispersion correction           -0.001081489
FINAL SINGLE POINT ENERGY      -115.467027038890

DIPOLE MOMENT
-------------
                                X             Y             Z
Electronic contribution:      0.95274       0.71242      -1.38921
Nuclear contribution   :     -0.69028      -1.02627       1.95966
                        -----------------------------------------
Total Dipole Moment    :      0.26246      -0.31386       0.57044
                        -----------------------------------------
Magnitude (a.u.)       :      0.70199
Magnitude (Debye)      :      1.78432

Rotational constants in cm-1:     4.282163     0.835840     0.804692
Rotational constants in MHz : 128376.024678 25057.852467 24124.047890

                             ****ORCA TERMINATED NORMALLY****
TOTAL RUN TIME: 0 days 0 hours 0 minutes 57 seconds 57 msec
