                         Program Version 5.0.3 -  RELEASE  -
|  1> ! PBEh-3c def2/J TightSCF DefGrid3
|  2>
|  3> %maxcore 60000
|  4>
|  5> %pal
|  6> nprocs 4
|  7> end
|  8>
|  9> *xyzfile 0 1 20.xyz
| 10>
| 11>                          ****END OF INPUT****

CARTESIAN COORDINATES (ANGSTROEM)
---------------------------------
  C      0.000000    0.000000    1.058728
  C      0.000000   -1.206009    1.757367
  C      0.000000   -1.207177    3.151284
  C      0.000000    0.000000    3.848269
  C      0.000000    1.207177    3.151284
  C      0.000000    1.206009    1.757367
  C     -1.394064    0.000000   -2.454461
  C     -0.697047    1.207238   -2.454936
  C      0.697047    1.207238   -2.454936
  C      1.394064    0.000000   -2.454461
  C      0.697047   -1.207238   -2.454936
  C     -0.697047   -1.207238   -2.454936
  H      0.000000    0.000000   -0.021888
  H      0.000000   -2.141639    1.214115
  H      0.000000   -2.143566    3.692689
  H      0.000000    0.000000    4.929844
  H      0.000000    2.143566    3.692689
  H      0.000000    2.141639    1.214115
  H     -2.475400    0.000000   -2.450630
  H     -1.238232    2.143566   -2.453985
  H      1.238232    2.143566   -2.453985
  H      2.475400    0.000000   -2.450630
  H      1.238232   -2.143566   -2.453985
  H     -1.238232   -2.143566   -2.453985

 Total Charge           Charge          ....    0
 Multiplicity           Mult            ....    1
 Number of Electrons    NEL             ....   84
 Basis Dimension        Dim             ....  204

ORBITAL ENERGIES
----------------

  NO   OCC          E(Eh)            E(eV)
   0   2.0000     -10.454615      -284.4845
   1   2.0000     -10.454439      -284.4798
   2   2.0000     -10.454247      -284.4745
   3   2.0000     -10.453818      -284.4628
   4   2.0000     -10.453578      -284.4563
   5   2.0000     -10.453450      -284.4528
   6   2.0000     -10.441245      -284.1207
   7   2.0000     -10.440935      -284.1123
   8   2.0000     -10.440456      -284.0993
   9   2.0000     -10.439212      -284.0654
  10   2.0000     -10.439158      -284.0639
  11   2.0000     -10.435524      -283.9650
  12   2.0000      -0.958545       -26.0833
  13   2.0000      -0.943528       -25.6747
  14   2.0000      -0.841295       -22.8928
  15   2.0000      -0.840983       -22.8843
  16   2.0000      -0.827270       -22.5112
  17   2.0000      -0.826411       -22.4878
  18   2.0000      -0.684294       -18.6206
  19   2.0000      -0.684168       -18.6172
  20   2.0000      -0.670647       -18.2492
  21   2.0000      -0.669997       -18.2315
  22   2.0000      -0.597404       -16.2562
  23   2.0000      -0.583602       -15.8806
  24   2.0000      -0.530640       -14.4394
  25   2.0000      -0.517647       -14.0859
  26   2.0000      -0.513908       -13.9841
  27   2.0000      -0.499761       -13.5992
  28   2.0000      -0.487144       -13.2559
  29   2.0000      -0.486762       -13.2455
  30   2.0000      -0.475250       -12.9322
  31   2.0000      -0.473811       -12.8931
  32   2.0000      -0.425980       -11.5915
  33   2.0000      -0.412696       -11.2300
  34   2.0000      -0.403455       -10.9786
  35   2.0000      -0.403269       -10.9735
  36   2.0000      -0.389854       -10.6085
  37   2.0000      -0.385734       -10.4964
  38   2.0000      -0.299991        -8.1632
  39   2.0000      -0.299375        -8.1464
  40   2.0000      -0.284787        -7.7494
  41   2.0000      -0.282264        -7.6808
  42   0.0000       0.012171         0.3312
  43   0.0000       0.013048         0.3550
  44   0.0000       0.027741         0.7549
  45   0.0000       0.027950         0.7606
  46   0.0000       0.135812         3.6956

MULLIKEN ATOMIC CHARGES
-----------------------
   0 C :   -0.205953
   1 C :   -0.229171
   2 C :   -0.219495
   3 C :   -0.222757
   4 C :   -0.219496
   5 C :   -0.229171
   6 C :   -0.220506
   7 C :   -0.226152
   8 C :   -0.226152
   9 C :   -0.220506
  10 C :   -0.226152
  11 C :   -0.226152
  12 H :    0.254295
  13 H :    0.212423
  14 H :    0.215024
  15 H :    0.215614
  16 H :    0.215025
  17 H :    0.212423
  18 H :    0.225335
  19 H :    0.224047
  20 H :    0.224047
  21 H :    0.225335
  22 H :    0.224047
  23 H :    0.224047
Sum of atomic charges:   -0.0000000

LOEWDIN ATOMIC CHARGES
----------------------
   0 C :   -0.128792
   1 C :   -0.137076
   2 C :   -0.138363
   3 C :   -0.140038
   4 C :   -0.138363
   5 C :   -0.137076
   6 C :   -0.135105
   7 C :   -0.138340
   8 C :   -0.138340
   9 C :   -0.135105
  10 C :   -0.138340
  11 C :   -0.138340
  12 H :    0.148738
  13 H :    0.133441
  14 H :    0.133426
  15 H :    0.133616
  16 H :    0.133426
  17 H :    0.133441
  18 H :    0.138459
  19 H :    0.137569
  20 H :    0.137569
  21 H :    0.138459
  22 H :    0.137569
  23 H :    0.137569

  Mayer bond orders larger than 0.100000
B(  0-C ,  1-C ) :   1.4288 B(  0-C ,  5-C ) :   1.4288 B(  0-C , 12-H ) :   0.8973
B(  1-C ,  2-C ) :   1.4220 B(  1-C , 13-H ) :   0.9229 B(  2-C ,  3-C ) :   1.4271
B(  2-C , 14-H ) :   0.9216 B(  3-C ,  4-C ) :   1.4271 B(  3-C , 15-H ) :   0.9212
B(  4-C ,  5-C ) :   1.4220 B(  4-C , 16-H ) :   0.9216 B(  5-C , 17-H ) :   0.9229
B(  6-C ,  7-C ) :   1.4249 B(  6-C , 11-C ) :   1.4249 B(  6-C , 18-H ) :   0.9187
B(  7-C ,  8-C ) :   1.4230 B(  7-C , 19-H ) :   0.9192 B(  8-C ,  9-C ) :   1.4249
B(  8-C , 20-H ) :   0.9192 B(  9-C , 10-C ) :   1.4249 B(  9-C , 21-H ) :   0.9187
B( 10-C , 11-C ) :   1.4230 B( 10-C , 22-H ) :   0.9192 B( 11-C , 23-H ) :   0.9192

Dispersion correction           -0.014406110
FINAL SINGLE POINT ENERGY      -463.455901085055

DIPOLE MOMENT
-------------
                                X             Y             Z
Electronic contribution:      0.00000      -0.00000      -0.20602
Nuclear contribution   :      0.00000       0.00000       0.00756
                        -----------------------------------------
Total Dipole Moment    :      0.00000      -0.00000      -0.19847
                        -----------------------------------------
Magnitude (a.u.)       :      0.19847
Magnitude (Debye)      :      0.50447

Rotational constants in cm-1:     0.063478     0.015075     0.013970
Rotational constants in MHz :  1903.029138   451.936531   418.813789

                             ****ORCA TERMINATED NORMALLY****
TOTAL RUN TIME: 0 days 0 hours 2 minutes 16 seconds 551 msec
