                         Program Version 5.0.3 -  RELEASE  -
|  1> ! PBEh-3c def2/J TightSCF DefGrid3
|  2>
|  3> %maxcore 60000
|  4>
|  5> %pal
|  6> nprocs 4
|  7> end
|  8>
|  9> *xyzfile 0 1 94.xyz
| 10>
| 11>                          ****END OF INPUT****

CARTESIAN COORDINATES (ANGSTROEM)
---------------------------------
  C      1.204811    0.695598    0.000000
  C      1.204811   -0.695598    0.000000
  C      0.000000   -1.391196    0.000000
  C     -1.204811   -0.695598    0.000000
  C     -1.204811    0.695598    0.000000
  C      0.000000    1.391196    0.000000
  H      2.142018    1.236694    0.000000
  H      2.142018   -1.236694    0.000000
  H      0.000000   -2.473389    0.000000
  H     -2.142018   -1.236694    0.000000
  H     -2.142018    1.236694    0.000000
  H      0.000000    2.473389    0.000000

 Total Charge           Charge          ....    0
 Multiplicity           Mult            ....    1
 Number of Electrons    NEL             ....   42
 Basis Dimension        Dim             ....  102

ORBITAL ENERGIES
----------------

  NO   OCC          E(Eh)            E(eV)
   0   2.0000     -10.448102      -284.3073
   1   2.0000     -10.447877      -284.3012
   2   2.0000     -10.447875      -284.3011
   3   2.0000     -10.447252      -284.2842
   4   2.0000     -10.447250      -284.2841
   5   2.0000     -10.447016      -284.2778
   6   2.0000      -0.953482       -25.9456
   7   2.0000      -0.836086       -22.7510
   8   2.0000      -0.836085       -22.7510
   9   2.0000      -0.679153       -18.4807
  10   2.0000      -0.679153       -18.4807
  11   2.0000      -0.592499       -16.1227
  12   2.0000      -0.525036       -14.2870
  13   2.0000      -0.509259       -13.8576
  14   2.0000      -0.481857       -13.1120
  15   2.0000      -0.481855       -13.1119
  16   2.0000      -0.421829       -11.4785
  17   2.0000      -0.398089       -10.8326
  18   2.0000      -0.398088       -10.8325
  19   2.0000      -0.292865        -7.9693
  20   2.0000      -0.292862        -7.9692
  21   0.0000       0.019785         0.5384
  22   0.0000       0.019786         0.5384
  23   0.0000       0.140340         3.8188
  24   0.0000       0.197617         5.3774
  25   0.0000       0.201487         5.4827

MULLIKEN ATOMIC CHARGES
-----------------------
   0 C :   -0.219572
   1 C :   -0.219571
   2 C :   -0.219586
   3 C :   -0.219571
   4 C :   -0.219572
   5 C :   -0.219585
   6 H :    0.219572
   7 H :    0.219572
   8 H :    0.219584
   9 H :    0.219572
  10 H :    0.219572
  11 H :    0.219585
Sum of atomic charges:   -0.0000000

LOEWDIN ATOMIC CHARGES
----------------------
   0 C :   -0.135610
   1 C :   -0.135610
   2 C :   -0.135616
   3 C :   -0.135610
   4 C :   -0.135610
   5 C :   -0.135616
   6 H :    0.135612
   7 H :    0.135612
   8 H :    0.135611
   9 H :    0.135612
  10 H :    0.135612
  11 H :    0.135611

  Mayer bond orders larger than 0.100000
B(  0-C ,  1-C ) :   1.4268 B(  0-C ,  5-C ) :   1.4268 B(  0-C ,  6-H ) :   0.9201
B(  1-C ,  2-C ) :   1.4268 B(  1-C ,  7-H ) :   0.9201 B(  2-C ,  3-C ) :   1.4268
B(  2-C ,  8-H ) :   0.9201 B(  3-C ,  4-C ) :   1.4268 B(  3-C ,  9-H ) :   0.9201
B(  4-C ,  5-C ) :   1.4268 B(  4-C , 10-H ) :   0.9201 B(  5-C , 11-H ) :   0.9201

Dispersion correction           -0.005884428
FINAL SINGLE POINT ENERGY      -231.725952680737

DIPOLE MOMENT
-------------
                                X             Y             Z
Electronic contribution:     -0.00000      -0.00000       0.00000
Nuclear contribution   :      0.00000       0.00000       0.00000
                        -----------------------------------------
Total Dipole Moment    :     -0.00000      -0.00000       0.00000
                        -----------------------------------------
Magnitude (a.u.)       :      0.00000
Magnitude (Debye)      :      0.00000

Rotational constants in cm-1:     0.191045     0.191045     0.095523
Rotational constants in MHz :  5727.391181  5727.390991  2863.695543

                             ****ORCA TERMINATED NORMALLY****
TOTAL RUN TIME: 0 days 0 hours 0 minutes 56 seconds 635 msec
