                         Program Version 5.0.3 -  RELEASE  -
|  1> ! PBEh-3c def2/J TightSCF DefGrid3
|  2>
|  3> %maxcore 60000
|  4>
|  5> %pal
|  6> nprocs 4
|  7> end
|  8>
|  9> *xyzfile 1 1 i23p.xyz
| 10>
| 11>                          ****END OF INPUT****

CARTESIAN COORDINATES (ANGSTROEM)
---------------------------------
  C      1.253010    0.596370    0.669666
  C      2.138984   -0.713233    0.885711
  C      2.694386   -1.036775   -0.531511
  C      2.047549    0.057201   -1.409056
  C      0.498133   -0.147168   -1.545825
  C      0.045740    0.107907   -0.097239
  C      2.093367    1.259999   -0.470472
  C      1.093938    1.520302    1.879205
  C     -0.019881    0.934874   -2.556372
  C      0.112306   -1.551594   -2.053725
  C     -2.985623   -0.152878    2.175270
  C     -1.626853   -0.301620    1.784755
  C     -1.257769   -0.104198    0.382361
  C     -2.356489   -0.053864   -0.554175
  C     -3.659937    0.024460   -0.142868
  C     -3.980303    0.011441    1.242651
  H      2.928684   -0.448546    1.598373
  H      1.582976   -1.566080    1.296903
  H      2.455318   -2.052018   -0.857629
  H      3.783407   -0.927501   -0.553639
  H      2.517426    0.176566   -2.388530
  H      3.096161    1.500989   -0.100999
  H      1.630516    2.170046   -0.861852
  H      0.874644    1.015759    2.822983
  H      2.037424    2.060474    2.018762
  H      0.302897    2.258352    1.699991
  H     -0.128051    1.923160   -2.100345
  H      0.701520    1.010839   -3.377528
  H     -0.980889    0.652067   -2.995286
  H      0.382233   -2.332321   -1.334970
  H     -0.959662   -1.631862   -2.255051
  H      0.649892   -1.744910   -2.990149
  H     -3.238579   -0.229348    3.230635
  N     -0.754189   -0.734293    2.709046
  H     -2.143541    0.024544   -1.607448
  Cl    -4.954597    0.178464   -1.308181
  H     -5.016501    0.105046    1.557222
  H      0.203608   -0.948511    2.483479
  H     -1.061255   -0.912138    3.655839

 Total Charge           Charge          ....    1
 Multiplicity           Mult            ....    1
 Number of Electrons    NEL             ....  140
 Basis Dimension        Dim             ....  315

ORBITAL ENERGIES
----------------

  NO   OCC          E(Eh)            E(eV)
   0   2.0000    -102.422508     -2787.0581
   1   2.0000     -14.835442      -403.6929
   2   2.0000     -10.692801      -290.9659
   3   2.0000     -10.669657      -290.3361
   4   2.0000     -10.648565      -289.7622
   5   2.0000     -10.633501      -289.3523
   6   2.0000     -10.625875      -289.1448
   7   2.0000     -10.619130      -288.9612
   8   2.0000     -10.616292      -288.8840
   9   2.0000     -10.613848      -288.8175
  10   2.0000     -10.608017      -288.6588
  11   2.0000     -10.593476      -288.2631
  12   2.0000     -10.580126      -287.8999
  13   2.0000     -10.574167      -287.7377
  14   2.0000     -10.567476      -287.5556
  15   2.0000     -10.566672      -287.5338
  16   2.0000     -10.564922      -287.4861
  17   2.0000     -10.560491      -287.3656
  18   2.0000      -9.889378      -269.1036
  19   2.0000      -7.577379      -206.1910
  20   2.0000      -7.568498      -205.9493
  21   2.0000      -7.568392      -205.9464
  22   2.0000      -1.215643       -33.0793
  23   2.0000      -1.139490       -31.0071
  24   2.0000      -1.121305       -30.5123
  25   2.0000      -1.061025       -28.8720
  26   2.0000      -1.032911       -28.1069
  27   2.0000      -1.017491       -27.6873
  28   2.0000      -0.973739       -26.4968
  29   2.0000      -0.957031       -26.0421
  30   2.0000      -0.935722       -25.4623
  31   2.0000      -0.918192       -24.9853
  32   2.0000      -0.897668       -24.4268
  33   2.0000      -0.871608       -23.7177
  34   2.0000      -0.851718       -23.1764
  35   2.0000      -0.838191       -22.8083
  36   2.0000      -0.798071       -21.7166
  37   2.0000      -0.774050       -21.0630
  38   2.0000      -0.765760       -20.8374
  39   2.0000      -0.747959       -20.3530
  40   2.0000      -0.729830       -19.8597
  41   2.0000      -0.690117       -18.7790
  42   2.0000      -0.679943       -18.5022
  43   2.0000      -0.671202       -18.2643
  44   2.0000      -0.667904       -18.1746
  45   2.0000      -0.658436       -17.9170
  46   2.0000      -0.645459       -17.5638
  47   2.0000      -0.630503       -17.1569
  48   2.0000      -0.621315       -16.9068
  49   2.0000      -0.619709       -16.8631
  50   2.0000      -0.600793       -16.3484
  51   2.0000      -0.596494       -16.2314
  52   2.0000      -0.585995       -15.9457
  53   2.0000      -0.577573       -15.7166
  54   2.0000      -0.576837       -15.6965
  55   2.0000      -0.573776       -15.6132
  56   2.0000      -0.562872       -15.3165
  57   2.0000      -0.557086       -15.1591
  58   2.0000      -0.549780       -14.9603
  59   2.0000      -0.537204       -14.6181
  60   2.0000      -0.532965       -14.5027
  61   2.0000      -0.520234       -14.1563
  62   2.0000      -0.512679       -13.9507
  63   2.0000      -0.504947       -13.7403
  64   2.0000      -0.500804       -13.6276
  65   2.0000      -0.486472       -13.2376
  66   2.0000      -0.482999       -13.1431
  67   2.0000      -0.479753       -13.0547
  68   2.0000      -0.462913       -12.5965
  69   2.0000      -0.398637       -10.8475
  70   0.0000      -0.239489        -6.5168
  71   0.0000      -0.128651        -3.5008
  72   0.0000      -0.112816        -3.0699
  73   0.0000      -0.050840        -1.3834
  74   0.0000      -0.035375        -0.9626

MULLIKEN ATOMIC CHARGES
-----------------------
   0 C :   -0.217994
   1 C :   -0.459196
   2 C :   -0.425676
   3 C :   -0.247511
   4 C :   -0.166384
   5 C :    0.311230
   6 C :   -0.404689
   7 C :   -0.659418
   8 C :   -0.636281
   9 C :   -0.624120
  10 C :   -0.301878
  11 C :    0.361674
  12 C :    0.021554
  13 C :   -0.204738
  14 C :   -0.032278
  15 C :   -0.158003
  16 H :    0.282799
  17 H :    0.229106
  18 H :    0.255107
  19 H :    0.272240
  20 H :    0.257734
  21 H :    0.265949
  22 H :    0.266291
  23 H :    0.222045
  24 H :    0.261418
  25 H :    0.248310
  26 H :    0.245792
  27 H :    0.266106
  28 H :    0.251291
  29 H :    0.231729
  30 H :    0.241503
  31 H :    0.260914
  32 H :    0.271924
  33 N :   -0.821985
  34 H :    0.258461
  35 Cl:   -0.045281
  36 H :    0.302255
  37 H :    0.414400
  38 H :    0.405599
Sum of atomic charges:    1.0000000

LOEWDIN ATOMIC CHARGES
----------------------
   0 C :   -0.094143
   1 C :   -0.213280
   2 C :   -0.226405
   3 C :   -0.127445
   4 C :   -0.083775
   5 C :    0.167417
   6 C :   -0.197040
   7 C :   -0.348728
   8 C :   -0.326270
   9 C :   -0.333781
  10 C :   -0.163061
  11 C :    0.116886
  12 C :   -0.095700
  13 C :   -0.084063
  14 C :   -0.139554
  15 C :   -0.044121
  16 H :    0.154298
  17 H :    0.123019
  18 H :    0.139016
  19 H :    0.149794
  20 H :    0.144182
  21 H :    0.147269
  22 H :    0.142109
  23 H :    0.129151
  24 H :    0.152719
  25 H :    0.147585
  26 H :    0.140563
  27 H :    0.152331
  28 H :    0.137008
  29 H :    0.135376
  30 H :    0.138403
  31 H :    0.152546
  32 H :    0.161825
  33 N :   -0.275543
  34 H :    0.164255
  35 Cl:    0.129646
  36 H :    0.176891
  37 H :    0.269392
  38 H :    0.281230

  Mayer bond orders larger than 0.100000
B(  0-C ,  1-C ) :   0.9046 B(  0-C ,  5-C ) :   0.9787 B(  0-C ,  6-C ) :   0.9211
B(  0-C ,  7-C ) :   0.9892 B(  1-C ,  2-C ) :   0.9344 B(  1-C , 16-H ) :   0.8980
B(  1-C , 17-H ) :   0.9091 B(  2-C ,  3-C ) :   0.9793 B(  2-C , 18-H ) :   0.9127
B(  2-C , 19-H ) :   0.9086 B(  3-C ,  4-C ) :   0.9395 B(  3-C ,  6-C ) :   0.9324
B(  3-C , 20-H ) :   0.9084 B(  4-C ,  5-C ) :   0.9629 B(  4-C ,  8-C ) :   0.9315
B(  4-C ,  9-C ) :   0.9734 B(  5-C , 12-C ) :   1.3627 B(  6-C , 21-H ) :   0.9071
B(  6-C , 22-H ) :   0.9064 B(  7-C , 23-H ) :   0.9143 B(  7-C , 24-H ) :   0.9072
B(  7-C , 25-H ) :   0.9160 B(  8-C , 26-H ) :   0.9149 B(  8-C , 27-H ) :   0.9041
B(  8-C , 28-H ) :   0.9012 B(  9-C , 29-H ) :   0.9194 B(  9-C , 30-H ) :   0.9087
B(  9-C , 31-H ) :   0.9074 B( 10-C , 11-C ) :   1.2116 B( 10-C , 15-C ) :   1.5573
B( 10-C , 32-H ) :   0.8968 B( 11-C , 12-C ) :   1.1155 B( 11-C , 33-N ) :   1.2086
B( 12-C , 13-C ) :   1.1682 B( 13-C , 14-C ) :   1.5229 B( 13-C , 34-H ) :   0.8794
B( 14-C , 15-C ) :   1.1914 B( 14-C , 35-Cl) :   1.0831 B( 15-C , 36-H ) :   0.8811
B( 33-N , 37-H ) :   0.7707 B( 33-N , 38-H ) :   0.8120

Dispersion correction           -0.031381450
FINAL SINGLE POINT ENERGY     -1135.074465262265

DIPOLE MOMENT
-------------
                                X             Y             Z
Electronic contribution:    -30.03854      -0.06065       0.01346
Nuclear contribution   :     31.28657      -0.25494       1.72770
                        -----------------------------------------
Total Dipole Moment    :      1.24803      -0.31558       1.74116
                        -----------------------------------------
Magnitude (a.u.)       :      2.16536
Magnitude (Debye)      :      5.50392

Rotational constants in cm-1:     0.021232     0.009317     0.007407
Rotational constants in MHz :   636.517201   279.307417   222.054088

                             ****ORCA TERMINATED NORMALLY****
TOTAL RUN TIME: 0 days 0 hours 5 minutes 59 seconds 905 msec
