                         Program Version 5.0.3 -  RELEASE  -
|  1> ! PBEh-3c def2/J TightSCF DefGrid3
|  2>
|  3> %maxcore 60000
|  4>
|  5> %pal
|  6> nprocs 4
|  7> end
|  8>
|  9> *xyzfile 0 1 P10.xyz
| 10>
| 11>                          ****END OF INPUT****

CARTESIAN COORDINATES (ANGSTROEM)
---------------------------------
  C      0.000000   -2.556848   -0.299506
  C      0.000000   -1.282382    0.546081
  C      0.000000    0.000000   -0.289752
  C      0.000000    1.282382    0.546081
  C      0.000000    2.556848   -0.299506
  H      0.000000   -3.452237    0.326766
  H     -0.882040   -2.603307   -0.944406
  H      0.882040   -2.603307   -0.944406
  H      0.875425   -1.282445    1.205307
  H     -0.875425   -1.282445    1.205307
  H      0.875927    0.000000   -0.950267
  H     -0.875927    0.000000   -0.950267
  H      0.875425    1.282445    1.205307
  H     -0.875425    1.282445    1.205307
  H      0.882040    2.603307   -0.944406
  H      0.000000    3.452237    0.326766
  H     -0.882040    2.603307   -0.944406

 Total Charge           Charge          ....    0
 Multiplicity           Mult            ....    1
 Number of Electrons    NEL             ....   42
 Basis Dimension        Dim             ....   99

ORBITAL ENERGIES
----------------

  NO   OCC          E(Eh)            E(eV)
   0   2.0000     -10.429053      -283.7890
   1   2.0000     -10.429025      -283.7882
   2   2.0000     -10.426927      -283.7311
   3   2.0000     -10.420882      -283.5666
   4   2.0000     -10.420873      -283.5664
   5   2.0000      -0.889464       -24.2036
   6   2.0000      -0.834777       -22.7154
   7   2.0000      -0.754033       -20.5183
   8   2.0000      -0.670630       -18.2488
   9   2.0000      -0.642931       -17.4950
  10   2.0000      -0.533110       -14.5067
  11   2.0000      -0.492846       -13.4110
  12   2.0000      -0.486588       -13.2407
  13   2.0000      -0.456751       -12.4288
  14   2.0000      -0.446457       -12.1487
  15   2.0000      -0.427743       -11.6395
  16   2.0000      -0.401858       -10.9351
  17   2.0000      -0.382164       -10.3992
  18   2.0000      -0.371633       -10.1127
  19   2.0000      -0.365364        -9.9421
  20   2.0000      -0.362768        -9.8714
  21   0.0000       0.137631         3.7451
  22   0.0000       0.154143         4.1944
  23   0.0000       0.185994         5.0612
  24   0.0000       0.186037         5.0623
  25   0.0000       0.200354         5.4519

MULLIKEN ATOMIC CHARGES
-----------------------
   0 C :   -0.638139
   1 C :   -0.409062
   2 C :   -0.390904
   3 C :   -0.409062
   4 C :   -0.638138
   5 H :    0.217840
   6 H :    0.208807
   7 H :    0.208807
   8 H :    0.204054
   9 H :    0.204054
  10 H :    0.199090
  11 H :    0.199090
  12 H :    0.204054
  13 H :    0.204054
  14 H :    0.208807
  15 H :    0.217839
  16 H :    0.208807
Sum of atomic charges:   -0.0000000

LOEWDIN ATOMIC CHARGES
----------------------
   0 C :   -0.362367
   1 C :   -0.245864
   2 C :   -0.241586
   3 C :   -0.245864
   4 C :   -0.362367
   5 H :    0.126058
   6 H :    0.123192
   7 H :    0.123192
   8 H :    0.119229
   9 H :    0.119229
  10 H :    0.118125
  11 H :    0.118125
  12 H :    0.119229
  13 H :    0.119229
  14 H :    0.123192
  15 H :    0.126058
  16 H :    0.123192

  Mayer bond orders larger than 0.100000
B(  0-C ,  1-C ) :   0.9969 B(  0-C ,  5-H ) :   0.9320 B(  0-C ,  6-H ) :   0.9295
B(  0-C ,  7-H ) :   0.9295 B(  1-C ,  2-C ) :   0.9906 B(  1-C ,  8-H ) :   0.9204
B(  1-C ,  9-H ) :   0.9204 B(  2-C ,  3-C ) :   0.9906 B(  2-C , 10-H ) :   0.9185
B(  2-C , 11-H ) :   0.9185 B(  3-C ,  4-C ) :   0.9969 B(  3-C , 12-H ) :   0.9204
B(  3-C , 13-H ) :   0.9204 B(  4-C , 14-H ) :   0.9295 B(  4-C , 15-H ) :   0.9320
B(  4-C , 16-H ) :   0.9295

Dispersion correction           -0.006768575
FINAL SINGLE POINT ENERGY      -197.333774027051

DIPOLE MOMENT
-------------
                                X             Y             Z
Electronic contribution:      0.00000       0.00000       0.56033
Nuclear contribution   :      0.00000       0.00000      -0.54003
                        -----------------------------------------
Total Dipole Moment    :      0.00000       0.00000       0.02030
                        -----------------------------------------
Magnitude (a.u.)       :      0.02030
Magnitude (Debye)      :      0.05161

Rotational constants in cm-1:     0.571051     0.064267     0.061017
Rotational constants in MHz : 17119.671504  1926.689099  1829.244294

                             ****ORCA TERMINATED NORMALLY****
TOTAL RUN TIME: 0 days 0 hours 1 minutes 13 seconds 305 msec
