                         Program Version 5.0.3 -  RELEASE  -
|  1> ! PBEh-3c def2/J TightSCF DefGrid3
|  2>
|  3> %maxcore 60000
|  4>
|  5> %pal
|  6> nprocs 4
|  7> end
|  8>
|  9> *xyzfile 0 1 CYS_xao.xyz
| 10>
| 11>                          ****END OF INPUT****

CARTESIAN COORDINATES (ANGSTROEM)
---------------------------------
  N      0.498020    0.715346    0.478228
  C      0.199037   -0.517101   -0.231647
  C     -1.221383   -1.000579    0.111022
  O     -1.421533   -1.967871    0.839322
  C      1.190187   -1.606837    0.137681
  S      2.933445   -1.119223   -0.017408
  H      1.239722    0.683702    1.159191
  H      0.247589   -0.301538   -1.302264
  H      0.988794   -2.492239   -0.458293
  H      1.049133   -1.890126    1.179599
  C      0.140973    1.924579   -0.019978
  O     -0.607878    2.041145   -0.991262
  N     -2.194392   -0.266912   -0.464623
  C     -3.584852   -0.517245   -0.150504
  H     -4.208570   -0.045363   -0.903660
  H     -3.763032   -1.588666   -0.151632
  H     -3.855607   -0.130584    0.832292
  H     -1.908464    0.598263   -0.909563
  C      0.714396    3.122459    0.690530
  H      1.369757    3.649309    0.000184
  H      1.271891    2.861601    1.586193
  H     -0.099021    3.794121    0.951761
  H      2.875887   -0.754704   -1.303603

 Total Charge           Charge          ....    0
 Multiplicity           Mult            ....    1
 Number of Electrons    NEL             ....   94
 Basis Dimension        Dim             ....  192

ORBITAL ENERGIES
----------------

  NO   OCC          E(Eh)            E(eV)
   0   2.0000     -89.590358     -2437.8776
   1   2.0000     -19.477217      -530.0020
   2   2.0000     -19.457805      -529.4738
   3   2.0000     -14.681128      -399.4938
   4   2.0000     -14.651126      -398.6774
   5   2.0000     -10.567472      -287.5555
   6   2.0000     -10.543197      -286.8950
   7   2.0000     -10.503689      -285.8199
   8   2.0000     -10.483731      -285.2768
   9   2.0000     -10.460925      -284.6563
  10   2.0000     -10.454640      -284.4852
  11   2.0000      -8.231308      -223.9853
  12   2.0000      -6.122400      -166.5990
  13   2.0000      -6.119197      -166.5118
  14   2.0000      -6.113539      -166.3578
  15   2.0000      -1.162883       -31.6437
  16   2.0000      -1.139973       -31.0202
  17   2.0000      -1.046218       -28.4690
  18   2.0000      -1.015212       -27.6253
  19   2.0000      -0.909041       -24.7363
  20   2.0000      -0.851012       -23.1572
  21   2.0000      -0.815773       -22.1983
  22   2.0000      -0.776048       -21.1173
  23   2.0000      -0.703324       -19.1384
  24   2.0000      -0.680451       -18.5160
  25   2.0000      -0.645130       -17.5549
  26   2.0000      -0.598774       -16.2935
  27   2.0000      -0.584737       -15.9115
  28   2.0000      -0.566574       -15.4173
  29   2.0000      -0.526971       -14.3396
  30   2.0000      -0.520166       -14.1544
  31   2.0000      -0.506155       -13.7732
  32   2.0000      -0.501994       -13.6600
  33   2.0000      -0.484052       -13.1717
  34   2.0000      -0.481172       -13.0934
  35   2.0000      -0.469142       -12.7660
  36   2.0000      -0.464378       -12.6364
  37   2.0000      -0.445986       -12.1359
  38   2.0000      -0.438814       -11.9407
  39   2.0000      -0.422769       -11.5041
  40   2.0000      -0.416741       -11.3401
  41   2.0000      -0.389376       -10.5955
  42   2.0000      -0.343454        -9.3459
  43   2.0000      -0.330797        -9.0014
  44   2.0000      -0.301351        -8.2002
  45   2.0000      -0.297806        -8.1037
  46   2.0000      -0.293188        -7.9781
  47   0.0000       0.037949         1.0326
  48   0.0000       0.055033         1.4975
  49   0.0000       0.064327         1.7504
  50   0.0000       0.110555         3.0084
  51   0.0000       0.119226         3.2443

MULLIKEN ATOMIC CHARGES
-----------------------
   0 N :   -0.607763
   1 C :   -0.205735
   2 C :    0.581354
   3 O :   -0.439171
   4 C :   -0.593502
   5 S :   -0.171331
   6 H :    0.373556
   7 H :    0.263116
   8 H :    0.287550
   9 H :    0.291393
  10 C :    0.542202
  11 O :   -0.464838
  12 N :   -0.651588
  13 C :   -0.491058
  14 H :    0.220869
  15 H :    0.247434
  16 H :    0.223283
  17 H :    0.408201
  18 C :   -0.744595
  19 H :    0.261710
  20 H :    0.223354
  21 H :    0.264082
  22 H :    0.181478
Sum of atomic charges:   -0.0000000

LOEWDIN ATOMIC CHARGES
----------------------
   0 N :   -0.216865
   1 C :   -0.111755
   2 C :    0.103561
   3 O :   -0.279819
   4 C :   -0.341122
   5 S :   -0.013667
   6 H :    0.261367
   7 H :    0.141946
   8 H :    0.151905
   9 H :    0.159193
  10 C :    0.117250
  11 O :   -0.300732
  12 N :   -0.247506
  13 C :   -0.252801
  14 H :    0.126929
  15 H :    0.141161
  16 H :    0.122238
  17 H :    0.268281
  18 C :   -0.382957
  19 H :    0.160222
  20 H :    0.133071
  21 H :    0.159927
  22 H :    0.100176

  Mayer bond orders larger than 0.100000
B(  0-N ,  1-C ) :   0.9246 B(  0-N ,  6-H ) :   0.8041 B(  0-N , 10-C ) :   1.1761
B(  1-C ,  2-C ) :   0.8672 B(  1-C ,  4-C ) :   0.9411 B(  1-C ,  7-H ) :   0.8820
B(  2-C ,  3-O ) :   1.9499 B(  2-C , 12-N ) :   1.1993 B(  3-O , 12-N ) :   0.1022
B(  4-C ,  5-S ) :   1.0375 B(  4-C ,  8-H ) :   0.8839 B(  4-C ,  9-H ) :   0.8705
B(  5-S , 22-H ) :   0.9180 B( 10-C , 11-O ) :   1.8754 B( 10-C , 18-C ) :   0.9349
B( 12-N , 13-C ) :   0.9602 B( 12-N , 17-H ) :   0.7306 B( 13-C , 14-H ) :   0.9262
B( 13-C , 15-H ) :   0.9116 B( 13-C , 16-H ) :   0.9170 B( 18-C , 19-H ) :   0.9057
B( 18-C , 20-H ) :   0.9194 B( 18-C , 21-H ) :   0.9073

Dispersion correction           -0.013575718
FINAL SINGLE POINT ENERGY      -892.532265206032

DIPOLE MOMENT
-------------
                                X             Y             Z
Electronic contribution:      5.13628      -3.68466      -0.41781
Nuclear contribution   :     -4.76181       4.60473       0.35905
                        -----------------------------------------
Total Dipole Moment    :      0.37446       0.92007      -0.05875
                        -----------------------------------------
Magnitude (a.u.)       :      0.99509
Magnitude (Debye)      :      2.52931

Rotational constants in cm-1:     0.034542     0.024069     0.015509
Rotational constants in MHz :  1035.531223   721.580135   464.949149

                             ****ORCA TERMINATED NORMALLY****
TOTAL RUN TIME: 0 days 0 hours 2 minutes 48 seconds 787 msec
