                         Program Version 5.0.3 -  RELEASE  -
|  1> ! PBEh-3c def2/J TightSCF DefGrid3
|  2>
|  3> %maxcore 60000
|  4>
|  5> %pal
|  6> nprocs 4
|  7> end
|  8>
|  9> *xyzfile 0 1 NCH_NIS.xyz
| 10>
| 11>                          ****END OF INPUT****

CARTESIAN COORDINATES (ANGSTROEM)
---------------------------------
  N      0.000000    0.000000    3.716503
  C      0.000000    0.000000    4.857258
  H      0.000000    0.000000    5.925157
  N      0.000000    0.000000   -1.177232
  O      0.000000    2.280463   -1.583208
  O      0.000000   -2.280463   -1.583208
  C      0.000000   -1.144745   -1.970477
  C      0.000000   -0.661512   -3.392201
  C      0.000000    0.661512   -3.392201
  H      0.000000    1.350667   -4.222380
  H      0.000000   -1.350667   -4.222380
  C      0.000000    1.144745   -1.970477
  I      0.000000    0.000000    0.854427

 Total Charge           Charge          ....    0
 Multiplicity           Mult            ....    1
 Number of Electrons    NEL             ....   88
 Basis Dimension        Dim             ....  167

ORBITAL ENERGIES
----------------

  NO   OCC          E(Eh)            E(eV)
   0   2.0000     -19.497628      -530.5574
   1   2.0000     -19.497612      -530.5570
   2   2.0000     -14.701904      -400.0591
   3   2.0000     -14.698134      -399.9566
   4   2.0000     -10.575699      -287.7794
   5   2.0000     -10.575660      -287.7783
   6   2.0000     -10.535521      -286.6861
   7   2.0000     -10.486976      -285.3651
   8   2.0000     -10.485960      -285.3375
   9   2.0000      -7.114655      -193.5996
  10   2.0000      -5.104037      -138.8879
  11   2.0000      -5.078201      -138.1849
  12   2.0000      -5.078042      -138.1805
  13   2.0000      -2.056884       -55.9707
  14   2.0000      -2.048803       -55.7508
  15   2.0000      -2.048646       -55.7465
  16   2.0000      -2.026765       -55.1511
  17   2.0000      -2.026751       -55.1507
  18   2.0000      -1.189790       -32.3758
  19   2.0000      -1.172324       -31.9006
  20   2.0000      -1.062255       -28.9054
  21   2.0000      -1.061550       -28.8862
  22   2.0000      -0.915872       -24.9221
  23   2.0000      -0.780346       -21.2343
  24   2.0000      -0.759901       -20.6780
  25   2.0000      -0.704327       -19.1657
  26   2.0000      -0.680131       -18.5073
  27   2.0000      -0.632640       -17.2150
  28   2.0000      -0.569045       -15.4845
  29   2.0000      -0.538148       -14.6437
  30   2.0000      -0.527379       -14.3507
  31   2.0000      -0.516985       -14.0679
  32   2.0000      -0.510958       -13.9039
  33   2.0000      -0.488690       -13.2979
  34   2.0000      -0.457527       -12.4500
  35   2.0000      -0.455672       -12.3995
  36   2.0000      -0.451003       -12.2724
  37   2.0000      -0.450930       -12.2704
  38   2.0000      -0.368821       -10.0361
  39   2.0000      -0.357458        -9.7269
  40   2.0000      -0.353589        -9.6216
  41   2.0000      -0.325733        -8.8637
  42   2.0000      -0.311152        -8.4669
  43   2.0000      -0.287304        -7.8179
  44   0.0000      -0.066081        -1.7982
  45   0.0000      -0.025617        -0.6971
  46   0.0000       0.025089         0.6827
  47   0.0000       0.025252         0.6871
  48   0.0000       0.103009         2.8030

MULLIKEN ATOMIC CHARGES
-----------------------
   0 N :   -0.198452
   1 C :   -0.074172
   2 H :    0.322514
   3 N :   -0.769377
   4 O :   -0.339924
   5 O :   -0.339924
   6 C :    0.566491
   7 C :   -0.292143
   8 C :   -0.292143
   9 H :    0.262493
  10 H :    0.262493
  11 C :    0.566491
  12 I :    0.325654
Sum of atomic charges:   -0.0000000

LOEWDIN ATOMIC CHARGES
----------------------
   0 N :   -0.052902
   1 C :   -0.056733
   2 H :    0.171725
   3 N :   -0.288163
   4 O :   -0.177068
   5 O :   -0.177068
   6 C :    0.116498
   7 C :   -0.129218
   8 C :   -0.129218
   9 H :    0.158148
  10 H :    0.158148
  11 C :    0.116498
  12 I :    0.289352

  Mayer bond orders larger than 0.100000
B(  0-N ,  1-C ) :   3.0878 B(  1-C ,  2-H ) :   0.8513 B(  3-N ,  6-C ) :   0.9960
B(  3-N , 11-C ) :   0.9960 B(  3-N , 12-I ) :   0.8113 B(  4-O , 11-C ) :   2.0809
B(  5-O ,  6-C ) :   2.0809 B(  6-C ,  7-C ) :   0.9670 B(  7-C ,  8-C ) :   1.7760
B(  7-C , 10-H ) :   0.9124 B(  8-C ,  9-H ) :   0.9124 B(  8-C , 11-C ) :   0.9670

Dispersion correction           -0.007094212
FINAL SINGLE POINT ENERGY      -748.998178855934

DIPOLE MOMENT
-------------
                                X             Y             Z
Electronic contribution:      0.00000       0.00000      60.05513
Nuclear contribution   :      0.00000      -0.00000     -58.72232
                        -----------------------------------------
Total Dipole Moment    :      0.00000       0.00000       1.33281
                        -----------------------------------------
Magnitude (a.u.)       :      1.33281
Magnitude (Debye)      :      3.38775

Rotational constants in cm-1:     0.079489     0.015208     0.012766
Rotational constants in MHz :  2383.021052   455.921883   382.702813

                             ****ORCA TERMINATED NORMALLY****
TOTAL RUN TIME: 0 days 0 hours 2 minutes 36 seconds 485 msec
