                         Program Version 5.0.3 -  RELEASE  -
|  1> ! PBEh-3c def2/J TightSCF DefGrid3
|  2>
|  3> %maxcore 60000
|  4>
|  5> %pal
|  6> nprocs 4
|  7> end
|  8>
|  9> *xyzfile 0 2 RKT03.xyz
| 10>
| 11>                          ****END OF INPUT****

CARTESIAN COORDINATES (ANGSTROEM)
---------------------------------
  C      0.000000    0.485491    0.000000
  H      1.053428    0.737346    0.000000
  H     -0.526627    0.737703    0.912249
  H     -0.526627    0.737703   -0.912249
  H     -0.000260   -0.897093    0.000000
  H      0.000085   -1.801150    0.000000

 Total Charge           Charge          ....    0
 Multiplicity           Mult            ....    2
 Number of Electrons    NEL             ....   11
 Basis Dimension        Dim             ....   25

ORBITAL ENERGIES
----------------
                 SPIN UP ORBITALS
  NO   OCC          E(Eh)            E(eV)
   0   1.0000     -10.446819      -284.2724
   1   1.0000      -0.789333       -21.4788
   2   1.0000      -0.510402       -13.8887
   3   1.0000      -0.472788       -12.8652
   4   1.0000      -0.472787       -12.8652
   5   1.0000      -0.259268        -7.0550
   6   0.0000       0.168615         4.5882
   7   0.0000       0.213765         5.8169
   8   0.0000       0.213770         5.8170
   9   0.0000       0.233054         6.3417
  10   0.0000       0.489304        13.3146

                 SPIN DOWN ORBITALS
  NO   OCC          E(Eh)            E(eV)
   0   1.0000     -10.434162      -283.9280
   1   1.0000      -0.754956       -20.5434
   2   1.0000      -0.463843       -12.6218
   3   1.0000      -0.463842       -12.6218
   4   1.0000      -0.452922       -12.3246
   5   0.0000      -0.036454        -0.9920
   6   0.0000       0.178295         4.8517
   7   0.0000       0.220413         5.9977
   8   0.0000       0.220418         5.9979
   9   0.0000       0.269142         7.3237

MULLIKEN ATOMIC CHARGES AND SPIN POPULATIONS
--------------------------------------------
   0 C :   -0.747700    0.719930
   1 H :    0.239427   -0.026804
   2 H :    0.239436   -0.026799
   3 H :    0.239436   -0.026799
   4 H :    0.034302   -0.188595
   5 H :   -0.004900    0.549066
Sum of atomic charges         :   -0.0000000

LOEWDIN ATOMIC CHARGES AND SPIN POPULATIONS
-------------------------------------------
   0 C :   -0.466932    0.639001
   1 H :    0.137890   -0.015597
   2 H :    0.137895   -0.015593
   3 H :    0.137895   -0.015593
   4 H :    0.096614   -0.087487
   5 H :   -0.043361    0.495269

  Mayer bond orders larger than 0.100000
B(  0-C ,  1-H ) :   0.9214 B(  0-C ,  2-H ) :   0.9214 B(  0-C ,  3-H ) :   0.9214
B(  0-C ,  4-H ) :   0.3988 B(  4-H ,  5-H ) :   0.5567

Dispersion correction           -0.001075379
FINAL SINGLE POINT ENERGY       -40.903436719624

DIPOLE MOMENT
-------------
                                X             Y             Z
Electronic contribution:      0.00002       2.16938      -0.00000
Nuclear contribution   :     -0.00000      -1.92507       0.00000
                        -----------------------------------------
Total Dipole Moment    :      0.00002       0.24431      -0.00000
                        -----------------------------------------
Magnitude (a.u.)       :      0.24431
Magnitude (Debye)      :      0.62099

Rotational constants in cm-1:     5.024023     1.968977     1.968974
Rotational constants in MHz : 150616.418012 59028.451437 59028.363786

                             ****ORCA TERMINATED NORMALLY****
TOTAL RUN TIME: 0 days 0 hours 0 minutes 55 seconds 412 msec
