                         Program Version 5.0.3 -  RELEASE  -
|  1> ! PBEh-3c def2/J TightSCF DefGrid3
|  2>
|  3> %maxcore 60000
|  4>
|  5> %pal
|  6> nprocs 4
|  7> end
|  8>
|  9> *xyzfile 1 3 IP_61.xyz
| 10>
| 11>                          ****END OF INPUT****

CARTESIAN COORDINATES (ANGSTROEM)
---------------------------------
  O      0.000000    0.000000    0.488782
  H      0.000000    0.000000   -0.488782

 Total Charge           Charge          ....    1
 Multiplicity           Mult            ....    3
 Number of Electrons    NEL             ....    8
 Basis Dimension        Dim             ....   17

ORBITAL ENERGIES
----------------
                 SPIN UP ORBITALS
  NO   OCC          E(Eh)            E(eV)
   0   1.0000     -20.189048      -549.3719
   1   1.0000      -1.707520       -46.4640
   2   1.0000      -1.072078       -29.1727
   3   1.0000      -1.040414       -28.3111
   4   1.0000      -1.040414       -28.3111
   5   0.0000      -0.242634        -6.6024
   6   0.0000       0.441670        12.0185
   7   0.0000       0.449456        12.2303
   8   0.0000       0.449456        12.2303
   9   0.0000       0.578153        15.7323

                 SPIN DOWN ORBITALS
  NO   OCC          E(Eh)            E(eV)
   0   1.0000     -20.125228      -547.6353
   1   1.0000      -1.511904       -41.1410
   2   1.0000      -1.002949       -27.2916
   3   0.0000      -0.573829       -15.6147
   4   0.0000      -0.573829       -15.6147
   5   0.0000      -0.219175        -5.9641
   6   0.0000       0.462119        12.5749
   7   0.0000       0.587061        15.9747

MULLIKEN ATOMIC CHARGES AND SPIN POPULATIONS
--------------------------------------------
   0 O :    0.404733    2.054319
   1 H :    0.595267   -0.054319
Sum of atomic charges         :    1.0000000

LOEWDIN ATOMIC CHARGES AND SPIN POPULATIONS
-------------------------------------------
   0 O :    0.575759    2.045156
   1 H :    0.424241   -0.045156

  Mayer bond orders larger than 0.100000
B(  0-O ,  1-H ) :   0.6278

Dispersion correction           -0.000087289
FINAL SINGLE POINT ENERGY       -75.101363998967

DIPOLE MOMENT
-------------
                                X             Y             Z
Electronic contribution:     -0.00000       0.00000      -0.02426
Nuclear contribution   :      0.00000       0.00000      -0.86191
                        -----------------------------------------
Total Dipole Moment    :     -0.00000       0.00000      -0.88617
                        -----------------------------------------
Magnitude (a.u.)       :      0.88617
Magnitude (Debye)      :      2.25246

Rotational constants in cm-1:     0.000000    18.602923    18.602923
Rotational constants in MHz :     0.000000 557701.613590 557701.613590

                             ****ORCA TERMINATED NORMALLY****
TOTAL RUN TIME: 0 days 0 hours 0 minutes 9 seconds 197 msec
