                         Program Version 5.0.3 -  RELEASE  -
|  1> ! PBEh-3c def2/J TightSCF DefGrid3
|  2>
|  3> %maxcore 60000
|  4>
|  5> %pal
|  6> nprocs 4
|  7> end
|  8>
|  9> *xyzfile 0 3 EA_17n.xyz
| 10>
| 11>                          ****END OF INPUT****

CARTESIAN COORDINATES (ANGSTROEM)
---------------------------------
  P      0.000000    0.000000    0.715859
  H      0.000000    0.000000   -0.715859

 Total Charge           Charge          ....    0
 Multiplicity           Mult            ....    3
 Number of Electrons    NEL             ....   16
 Basis Dimension        Dim             ....   20

ORBITAL ENERGIES
----------------
                 SPIN UP ORBITALS
  NO   OCC          E(Eh)            E(eV)
   0   1.0000     -77.759628     -2115.9470
   1   1.0000      -6.835950      -186.0157
   2   1.0000      -4.930785      -134.1735
   3   1.0000      -4.930785      -134.1735
   4   1.0000      -4.922063      -133.9361
   5   1.0000      -0.695964       -18.9381
   6   1.0000      -0.393695       -10.7130
   7   1.0000      -0.301067        -8.1925
   8   1.0000      -0.301067        -8.1925
   9   0.0000       0.084348         2.2952
  10   0.0000       0.258093         7.0231
  11   0.0000       0.519638        14.1401
  12   0.0000       0.559304        15.2194
  13   0.0000       0.559305        15.2195

                 SPIN DOWN ORBITALS
  NO   OCC          E(Eh)            E(eV)
   0   1.0000     -77.749941     -2115.6835
   1   1.0000      -6.825631      -185.7349
   2   1.0000      -4.916264      -133.7783
   3   1.0000      -4.909062      -133.5824
   4   1.0000      -4.909062      -133.5824
   5   1.0000      -0.609012       -16.5721
   6   1.0000      -0.362374        -9.8607
   7   0.0000      -0.074805        -2.0356
   8   0.0000      -0.074805        -2.0356
   9   0.0000       0.112610         3.0643
  10   0.0000       0.295638         8.0447
  11   0.0000       0.541122        14.7247

MULLIKEN ATOMIC CHARGES AND SPIN POPULATIONS
--------------------------------------------
   0 P :   -0.047245    2.065204
   1 H :    0.047245   -0.065204
Sum of atomic charges         :   -0.0000000

LOEWDIN ATOMIC CHARGES AND SPIN POPULATIONS
-------------------------------------------
   0 P :   -0.021636    2.037055
   1 H :    0.021636   -0.037055

  Mayer bond orders larger than 0.100000
B(  0-P ,  1-H ) :   0.9596

Dispersion correction           -0.000202703
FINAL SINGLE POINT ENERGY      -341.469845119610

DIPOLE MOMENT
-------------
                                X             Y             Z
Electronic contribution:     -0.00000       0.00000       1.05990
Nuclear contribution   :      0.00000       0.00000      -1.34119
                        -----------------------------------------
Total Dipole Moment    :     -0.00000       0.00000      -0.28129
                        -----------------------------------------
Magnitude (a.u.)       :      0.28129
Magnitude (Debye)      :      0.71498

Rotational constants in cm-1:     0.000000     8.424211     8.424211
Rotational constants in MHz :     0.000000 252551.493587 252551.493587

                             ****ORCA TERMINATED NORMALLY****
TOTAL RUN TIME: 0 days 0 hours 0 minutes 33 seconds 597 msec
