                         Program Version 5.0.3 -  RELEASE  -
|  1> ! PBEh-3c def2/J TightSCF DefGrid3
|  2>
|  3> %maxcore 60000
|  4>
|  5> %pal
|  6> nprocs 4
|  7> end
|  8>
|  9> *xyzfile 0 1 20A.xyz
| 10>
| 11>                          ****END OF INPUT****

CARTESIAN COORDINATES (ANGSTROEM)
---------------------------------
  C      0.554449    0.153696    0.038659
  O      1.257997    1.127014    0.278412
  O      1.026855   -1.048526   -0.249612
  H      2.020594   -1.015722   -0.234989
  C     -0.942270    0.199105    0.042856
  H     -1.279840    1.204020    0.264915
  H     -1.316731   -0.121054   -0.926396
  H     -1.321054   -0.498534    0.786156

 Total Charge           Charge          ....    0
 Multiplicity           Mult            ....    1
 Number of Electrons    NEL             ....   32
 Basis Dimension        Dim             ....   68

ORBITAL ENERGIES
----------------

  NO   OCC          E(Eh)            E(eV)
   0   2.0000     -19.551973      -532.0362
   1   2.0000     -19.478847      -530.0464
   2   2.0000     -10.583612      -287.9947
   3   2.0000     -10.447036      -284.2783
   4   2.0000      -1.225109       -33.3369
   5   2.0000      -1.116401       -30.3788
   6   2.0000      -0.848646       -23.0928
   7   2.0000      -0.693737       -18.8775
   8   2.0000      -0.557819       -15.1790
   9   2.0000      -0.549848       -14.9621
  10   2.0000      -0.536361       -14.5951
  11   2.0000      -0.471039       -12.8176
  12   2.0000      -0.453406       -12.3378
  13   2.0000      -0.450207       -12.2507
  14   2.0000      -0.372519       -10.1367
  15   2.0000      -0.330883        -9.0038
  16   0.0000       0.047327         1.2878
  17   0.0000       0.114118         3.1053
  18   0.0000       0.167090         4.5467
  19   0.0000       0.207505         5.6465
  20   0.0000       0.220717         6.0060

MULLIKEN ATOMIC CHARGES
-----------------------
   0 C :    0.506675
   1 O :   -0.410793
   2 O :   -0.566167
   3 H :    0.445889
   4 C :   -0.738297
   5 H :    0.261671
   6 H :    0.250259
   7 H :    0.250764
Sum of atomic charges:   -0.0000000

LOEWDIN ATOMIC CHARGES
----------------------
   0 C :    0.121586
   1 O :   -0.254687
   2 O :   -0.282258
   3 H :    0.341090
   4 C :   -0.389558
   5 H :    0.154204
   6 H :    0.154518
   7 H :    0.155105

  Mayer bond orders larger than 0.100000
B(  0-C ,  1-O ) :   2.0472 B(  0-C ,  2-O ) :   1.1703 B(  0-C ,  4-C ) :   0.9378
B(  2-O ,  3-H ) :   0.7543 B(  4-C ,  5-H ) :   0.9173 B(  4-C ,  6-H ) :   0.9060
B(  4-C ,  7-H ) :   0.9058

Dispersion correction           -0.002313441
FINAL SINGLE POINT ENERGY      -228.600415719443

DIPOLE MOMENT
-------------
                                X             Y             Z
Electronic contribution:      3.36476       0.04489       0.02438
Nuclear contribution   :     -3.63452      -0.72207      -0.18675
                        -----------------------------------------
Total Dipole Moment    :     -0.26976      -0.67717      -0.16237
                        -----------------------------------------
Magnitude (a.u.)       :      0.74679
Magnitude (Debye)      :      1.89819

Rotational constants in cm-1:     0.376939     0.320807     0.179013
Rotational constants in MHz : 11300.357488  9617.553464  5366.664422

                             ****ORCA TERMINATED NORMALLY****
TOTAL RUN TIME: 0 days 0 hours 1 minutes 13 seconds 610 msec
