                         Program Version 5.0.3 -  RELEASE  -
|  1> ! PBEh-3c def2/J TightSCF DefGrid3
|  2>
|  3> %maxcore 60000
|  4>
|  5> %pal
|  6> nprocs 4
|  7> end
|  8>
|  9> *xyzfile 0 1 24B.xyz
| 10>
| 11>                          ****END OF INPUT****

CARTESIAN COORDINATES (ANGSTROEM)
---------------------------------
  O      1.059463    1.416612    0.173584
  H      2.014895    1.435169    0.231098
  H      0.810424    2.338925    0.235563

 Total Charge           Charge          ....    0
 Multiplicity           Mult            ....    1
 Number of Electrons    NEL             ....   10
 Basis Dimension        Dim             ....   19

ORBITAL ENERGIES
----------------

  NO   OCC          E(Eh)            E(eV)
   0   2.0000     -19.474124      -529.9178
   1   2.0000      -1.104591       -30.0574
   2   2.0000      -0.581824       -15.8322
   3   2.0000      -0.436295       -11.8722
   4   2.0000      -0.357002        -9.7145
   5   0.0000       0.132318         3.6006
   6   0.0000       0.210337         5.7236
   7   0.0000       0.871869        23.7248
   8   0.0000       0.986134        26.8341
   9   0.0000       0.991425        26.9781

MULLIKEN ATOMIC CHARGES
-----------------------
   0 O :   -0.816389
   1 H :    0.408195
   2 H :    0.408194
Sum of atomic charges:   -0.0000000

LOEWDIN ATOMIC CHARGES
----------------------
   0 O :   -0.596405
   1 H :    0.298202
   2 H :    0.298203

  Mayer bond orders larger than 0.100000
B(  0-O ,  1-H ) :   0.8161 B(  0-O ,  2-H ) :   0.8161

Dispersion correction           -0.000209589
FINAL SINGLE POINT ENERGY       -76.258009110224

DIPOLE MOMENT
-------------
                                X             Y             Z
Electronic contribution:     -0.07805      -0.10397      -0.01320
Nuclear contribution   :      0.58797       0.78314       0.09946
                        -----------------------------------------
Total Dipole Moment    :      0.50992       0.67918       0.08626
                        -----------------------------------------
Magnitude (a.u.)       :      0.85366
Magnitude (Debye)      :      2.16984

Rotational constants in cm-1:    26.930490    14.750626     9.530493
Rotational constants in MHz : 807355.777901 442212.631079 285716.988519

                             ****ORCA TERMINATED NORMALLY****
TOTAL RUN TIME: 0 days 0 hours 0 minutes 11 seconds 985 msec
