                         Program Version 5.0.3 -  RELEASE  -
|  1> ! PBEh-3c def2/J TightSCF DefGrid3
|  2>
|  3> %maxcore 60000
|  4>
|  5> %pal
|  6> nprocs 4
|  7> end
|  8>
|  9> *xyzfile 0 1 Triazasumanene_TS.xyz
| 10>
| 11>                          ****END OF INPUT****

CARTESIAN COORDINATES (ANGSTROEM)
---------------------------------
  C      0.639842    0.537745   -1.299625
  C     -0.563935   -0.078673   -1.332681
  C     -1.149666   -0.489367   -0.146138
  C     -0.531503   -0.277649    1.038356
  C      0.696565    0.362613    1.056956
  C      1.283616    0.765910   -0.093668
  C      2.494499    1.393106   -0.184892
  C      3.030629    1.568024    1.127267
  N      2.432261    1.160331    2.319083
  C      1.238976    0.537048    2.288803
  C     -1.020094   -0.646377    2.260499
  C     -2.283558   -1.287999    2.087138
  N     -2.930918   -1.509241    0.871599
  C     -2.353697   -1.102505   -0.275640
  C     -1.279852   -0.352464   -2.464259
  C     -0.552938    0.107484   -3.603320
  N      0.689873    0.739930   -3.581203
  C      1.305860    0.962957   -2.403221
  C     -2.608797   -1.077112   -1.876248
  C      0.135983   -0.131348    3.274126
  C      2.668156    1.596880   -1.785816
  H      3.984690    2.052991    1.290378
  H     -2.849158   -1.665314    2.929453
  H     -0.939227   -0.011982   -4.607641
  H     -2.736812   -2.081489   -2.277448
  H     -3.505828   -0.508065   -2.118835
  H     -0.254183    0.595338    3.985636
  H      0.568404   -0.953166    3.844365
  H      2.779140    2.646746   -2.054809
  H      3.545669    1.067650   -2.156215

 Total Charge           Charge          ....    0
 Multiplicity           Mult            ....    1
 Number of Electrons    NEL             ....  138
 Basis Dimension        Dim             ....  333

ORBITAL ENERGIES
----------------

  NO   OCC          E(Eh)            E(eV)
   0   2.0000     -14.659289      -398.8995
   1   2.0000     -14.659179      -398.8966
   2   2.0000     -14.659156      -398.8959
   3   2.0000     -10.512542      -286.0608
   4   2.0000     -10.512292      -286.0540
   5   2.0000     -10.512210      -286.0518
   6   2.0000     -10.510435      -286.0035
   7   2.0000     -10.510304      -285.9999
   8   2.0000     -10.510292      -285.9996
   9   2.0000     -10.498889      -285.6893
  10   2.0000     -10.498568      -285.6806
  11   2.0000     -10.498479      -285.6781
  12   2.0000     -10.489148      -285.4242
  13   2.0000     -10.488928      -285.4182
  14   2.0000     -10.488912      -285.4178
  15   2.0000     -10.462443      -284.6976
  16   2.0000     -10.462288      -284.6933
  17   2.0000     -10.462260      -284.6926
  18   2.0000     -10.449461      -284.3443
  19   2.0000     -10.449395      -284.3425
  20   2.0000     -10.449316      -284.3404
  21   2.0000      -1.077093       -29.3092
  22   2.0000      -1.051532       -28.6136
  23   2.0000      -1.051310       -28.6076
  24   2.0000      -0.989994       -26.9391
  25   2.0000      -0.963394       -26.2153
  26   2.0000      -0.963255       -26.2115
  27   2.0000      -0.865637       -23.5552
  28   2.0000      -0.861784       -23.4503
  29   2.0000      -0.861625       -23.4460
  30   2.0000      -0.851870       -23.1806
  31   2.0000      -0.787068       -21.4172
  32   2.0000      -0.786922       -21.4132
  33   2.0000      -0.749616       -20.3981
  34   2.0000      -0.749484       -20.3945
  35   2.0000      -0.715819       -19.4784
  36   2.0000      -0.666032       -18.1236
  37   2.0000      -0.665980       -18.1222
  38   2.0000      -0.655338       -17.8326
  39   2.0000      -0.628304       -17.0970
  40   2.0000      -0.568330       -15.4650
  41   2.0000      -0.568320       -15.4648
  42   2.0000      -0.566789       -15.4231
  43   2.0000      -0.545475       -14.8431
  44   2.0000      -0.542700       -14.7676
  45   2.0000      -0.542661       -14.7666
  46   2.0000      -0.519129       -14.1262
  47   2.0000      -0.518989       -14.1224
  48   2.0000      -0.487124       -13.2553
  49   2.0000      -0.486825       -13.2472
  50   2.0000      -0.485567       -13.2130
  51   2.0000      -0.470207       -12.7950
  52   2.0000      -0.467354       -12.7174
  53   2.0000      -0.455019       -12.3817
  54   2.0000      -0.454795       -12.3756
  55   2.0000      -0.449366       -12.2279
  56   2.0000      -0.449270       -12.2253
  57   2.0000      -0.419499       -11.4151
  58   2.0000      -0.408866       -11.1258
  59   2.0000      -0.408637       -11.1196
  60   2.0000      -0.386176       -10.5084
  61   2.0000      -0.356837        -9.7100
  62   2.0000      -0.356722        -9.7069
  63   2.0000      -0.327097        -8.9008
  64   2.0000      -0.312482        -8.5031
  65   2.0000      -0.312315        -8.4985
  66   2.0000      -0.310045        -8.4368
  67   2.0000      -0.280543        -7.6340
  68   2.0000      -0.280429        -7.6309
  69   0.0000      -0.042167        -1.1474
  70   0.0000      -0.042045        -1.1441
  71   0.0000      -0.027899        -0.7592
  72   0.0000       0.025477         0.6933
  73   0.0000       0.025517         0.6944

MULLIKEN ATOMIC CHARGES
-----------------------
   0 C :   -0.000148
   1 C :    0.260132
   2 C :   -0.000487
   3 C :    0.259912
   4 C :    0.000922
   5 C :    0.259417
   6 C :   -0.103335
   7 C :   -0.146985
   8 N :   -0.419243
   9 C :    0.170923
  10 C :   -0.103027
  11 C :   -0.146977
  12 N :   -0.419497
  13 C :    0.171347
  14 C :   -0.103996
  15 C :   -0.146732
  16 N :   -0.419863
  17 C :    0.170474
  18 C :   -0.544715
  19 C :   -0.544891
  20 C :   -0.544773
  21 H :    0.236927
  22 H :    0.236979
  23 H :    0.237053
  24 H :    0.273000
  25 H :    0.273882
  26 H :    0.273495
  27 H :    0.273367
  28 H :    0.273025
  29 H :    0.273816
Sum of atomic charges:   -0.0000000

LOEWDIN ATOMIC CHARGES
----------------------
   0 C :   -0.060628
   1 C :   -0.002156
   2 C :   -0.060511
   3 C :   -0.002140
   4 C :   -0.060531
   5 C :   -0.002104
   6 C :   -0.052364
   7 C :   -0.032773
   8 N :   -0.152578
   9 C :    0.048395
  10 C :   -0.052497
  11 C :   -0.032852
  12 N :   -0.152802
  13 C :    0.048337
  14 C :   -0.052259
  15 C :   -0.032950
  16 N :   -0.152902
  17 C :    0.048698
  18 C :   -0.201805
  19 C :   -0.201779
  20 C :   -0.201673
  21 H :    0.134176
  22 H :    0.134221
  23 H :    0.134235
  24 H :    0.159299
  25 H :    0.160459
  26 H :    0.159901
  27 H :    0.159914
  28 H :    0.159289
  29 H :    0.160380

  Mayer bond orders larger than 0.100000
B(  0-C ,  1-C ) :   1.2321 B(  0-C ,  5-C ) :   1.1093 B(  0-C , 17-C ) :   1.2012
B(  1-C ,  2-C ) :   1.1093 B(  1-C , 14-C ) :   1.2146 B(  2-C ,  3-C ) :   1.2320
B(  2-C , 13-C ) :   1.2014 B(  3-C ,  4-C ) :   1.1092 B(  3-C , 10-C ) :   1.2142
B(  4-C ,  5-C ) :   1.2317 B(  4-C ,  9-C ) :   1.2006 B(  5-C ,  6-C ) :   1.2144
B(  6-C ,  7-C ) :   1.3921 B(  6-C , 20-C ) :   0.9693 B(  7-C ,  8-N ) :   1.4597
B(  7-C , 21-H ) :   0.9196 B(  8-N ,  9-C ) :   1.4906 B(  9-C , 19-C ) :   1.0169
B( 10-C , 11-C ) :   1.3929 B( 10-C , 19-C ) :   0.9691 B( 11-C , 12-N ) :   1.4589
B( 11-C , 22-H ) :   0.9196 B( 12-N , 13-C ) :   1.4909 B( 13-C , 18-C ) :   1.0169
B( 14-C , 15-C ) :   1.3927 B( 14-C , 18-C ) :   0.9693 B( 15-C , 16-N ) :   1.4588
B( 15-C , 23-H ) :   0.9195 B( 16-N , 17-C ) :   1.4900 B( 17-C , 20-C ) :   1.0167
B( 18-C , 24-H ) :   0.8923 B( 18-C , 25-H ) :   0.8905 B( 19-C , 26-H ) :   0.8914
B( 19-C , 27-H ) :   0.8915 B( 20-C , 28-H ) :   0.8922 B( 20-C , 29-H ) :   0.8905

Dispersion correction           -0.025450333
FINAL SINGLE POINT ENERGY      -853.591130347029

DIPOLE MOMENT
-------------
                                X             Y             Z
Electronic contribution:     -0.01331       0.03925       0.00040
Nuclear contribution   :      0.01620      -0.04353       0.00175
                        -----------------------------------------
Total Dipole Moment    :      0.00289      -0.00428       0.00215
                        -----------------------------------------
Magnitude (a.u.)       :      0.00560
Magnitude (Debye)      :      0.01423

Rotational constants in cm-1:     0.015018     0.015014     0.007540
Rotational constants in MHz :   450.221814   450.106232   226.029259

                             ****ORCA TERMINATED NORMALLY****
TOTAL RUN TIME: 0 days 0 hours 4 minutes 58 seconds 23 msec
