                         Program Version 5.0.3 -  RELEASE  -
|  1> ! PBEh-3c def2/J TightSCF DefGrid3
|  2>
|  3> %maxcore 60000
|  4>
|  5> %pal
|  6> nprocs 4
|  7> end
|  8>
|  9> *xyzfile 0 1 07ts.xyz
| 10>
| 11>                          ****END OF INPUT****

CARTESIAN COORDINATES (ANGSTROEM)
---------------------------------
  H     -1.209458    1.861725    1.290038
  C     -0.454408    1.355041    0.698094
  C      0.482692    0.472609    1.247013
  C     -0.454408    1.355041   -0.698094
  H      2.362996    1.394597    0.000000
  P      1.787202    0.080115    0.000000
  C     -0.454408   -1.473868    0.697823
  H      0.660017    0.393456    2.312915
  C     -0.454408   -1.473868   -0.697823
  H     -1.209458    1.861725   -1.290038
  C      0.482692    0.472609   -1.247013
  H      0.660017    0.393456   -2.312915
  H      0.268019   -2.079399   -1.231458
  H     -1.367554   -1.266921    1.238859
  H      0.268019   -2.079399    1.231458
  H     -1.367554   -1.266921   -1.238859

 Total Charge           Charge          ....    0
 Multiplicity           Mult            ....    1
 Number of Electrons    NEL             ....   60
 Basis Dimension        Dim             ....  126

ORBITAL ENERGIES
----------------

  NO   OCC          E(Eh)            E(eV)
   0   2.0000     -77.732585     -2115.2112
   1   2.0000     -10.464293      -284.7479
   2   2.0000     -10.464248      -284.7467
   3   2.0000     -10.447908      -284.3020
   4   2.0000     -10.447307      -284.2857
   5   2.0000     -10.446101      -284.2529
   6   2.0000     -10.445522      -284.2371
   7   2.0000      -6.805370      -185.1835
   8   2.0000      -4.896167      -133.2315
   9   2.0000      -4.895822      -133.2221
  10   2.0000      -4.893934      -133.1707
  11   2.0000      -0.937606       -25.5136
  12   2.0000      -0.839974       -22.8568
  13   2.0000      -0.792666       -21.5695
  14   2.0000      -0.745314       -20.2810
  15   2.0000      -0.655884       -17.8475
  16   2.0000      -0.615431       -16.7467
  17   2.0000      -0.586367       -15.9559
  18   2.0000      -0.563337       -15.3292
  19   2.0000      -0.523338       -14.2407
  20   2.0000      -0.471174       -12.8213
  21   2.0000      -0.462413       -12.5829
  22   2.0000      -0.449561       -12.2332
  23   2.0000      -0.433263       -11.7897
  24   2.0000      -0.412728       -11.2309
  25   2.0000      -0.376813       -10.2536
  26   2.0000      -0.374501       -10.1907
  27   2.0000      -0.290546        -7.9062
  28   2.0000      -0.278808        -7.5867
  29   2.0000      -0.267036        -7.2664
  30   0.0000      -0.002180        -0.0593
  31   0.0000       0.023554         0.6409
  32   0.0000       0.078114         2.1256
  33   0.0000       0.097034         2.6404
  34   0.0000       0.146261         3.9800

MULLIKEN ATOMIC CHARGES
-----------------------
   0 H :    0.219953
   1 C :   -0.134916
   2 C :   -0.499905
   3 C :   -0.134916
   4 H :    0.077313
   5 P :    0.246333
   6 C :   -0.473422
   7 H :    0.237176
   8 C :   -0.473422
   9 H :    0.219953
  10 C :   -0.499905
  11 H :    0.237176
  12 H :    0.249472
  13 H :    0.239818
  14 H :    0.249472
  15 H :    0.239818
Sum of atomic charges:    0.0000000

LOEWDIN ATOMIC CHARGES
----------------------
   0 H :    0.133437
   1 C :   -0.161928
   2 C :   -0.263797
   3 C :   -0.161928
   4 H :    0.025275
   5 P :    0.267942
   6 C :   -0.271242
   7 H :    0.139079
   8 C :   -0.271242
   9 H :    0.133437
  10 C :   -0.263797
  11 H :    0.139079
  12 H :    0.141066
  13 H :    0.136776
  14 H :    0.141066
  15 H :    0.136776

  Mayer bond orders larger than 0.100000
B(  0-H ,  1-C ) :   0.9188 B(  1-C ,  2-C ) :   1.3619 B(  1-C ,  3-C ) :   1.4321
B(  2-C ,  5-P ) :   0.9758 B(  2-C ,  6-C ) :   0.3916 B(  2-C ,  7-H ) :   0.9191
B(  3-C ,  9-H ) :   0.9188 B(  3-C , 10-C ) :   1.3619 B(  4-H ,  5-P ) :   0.9201
B(  5-P , 10-C ) :   0.9758 B(  6-C ,  8-C ) :   1.4425 B(  6-C , 13-H ) :   0.9209
B(  6-C , 14-H ) :   0.9103 B(  8-C , 10-C ) :   0.3916 B(  8-C , 12-H ) :   0.9103
B(  8-C , 15-H ) :   0.9209 B( 10-C , 11-H ) :   0.9191

Dispersion correction           -0.010287920
FINAL SINGLE POINT ENERGY      -574.369303802050

DIPOLE MOMENT
-------------
                                X             Y             Z
Electronic contribution:      4.99173       1.65160      -0.00000
Nuclear contribution   :     -5.44914      -1.49654       0.00000
                        -----------------------------------------
Total Dipole Moment    :     -0.45741       0.15506      -0.00000
                        -----------------------------------------
Magnitude (a.u.)       :      0.48298
Magnitude (Debye)      :      1.22763

Rotational constants in cm-1:     0.090296     0.081060     0.072489
Rotational constants in MHz :  2707.016927  2430.120279  2173.155537

                             ****ORCA TERMINATED NORMALLY****
TOTAL RUN TIME: 0 days 0 hours 1 minutes 37 seconds 669 msec
