                         Program Version 5.0.3 -  RELEASE  -
|  1> ! PBEh-3c def2/J TightSCF DefGrid3
|  2>
|  3> %maxcore 60000
|  4>
|  5> %pal
|  6> nprocs 4
|  7> end
|  8>
|  9> *xyzfile -1 1 7.xyz
| 10>
| 11>                          ****END OF INPUT****

CARTESIAN COORDINATES (ANGSTROEM)
---------------------------------
  Cl    -1.385657    2.760735    0.041520
  S     -0.451378   -0.507379    0.084185
  H      0.842822   -0.175780    0.073336
  H     -0.857718    0.838382    0.065331

 Total Charge           Charge          ....   -1
 Multiplicity           Mult            ....    1
 Number of Electrons    NEL             ....   36
 Basis Dimension        Dim             ....   40

ORBITAL ENERGIES
----------------

  NO   OCC          E(Eh)            E(eV)
   0   2.0000    -101.955209     -2774.3423
   1   2.0000     -89.380402     -2432.1644
   2   2.0000      -9.419558      -256.3192
   3   2.0000      -8.024027      -218.3449
   4   2.0000      -7.103642      -193.2999
   5   2.0000      -7.101836      -193.2508
   6   2.0000      -7.101797      -193.2497
   7   2.0000      -5.914918      -160.9531
   8   2.0000      -5.911163      -160.8509
   9   2.0000      -5.907342      -160.7469
  10   2.0000      -0.622998       -16.9526
  11   2.0000      -0.552550       -15.0357
  12   2.0000      -0.299992        -8.1632
  13   2.0000      -0.226931        -6.1751
  14   2.0000      -0.117236        -3.1902
  15   2.0000      -0.063164        -1.7188
  16   2.0000      -0.062505        -1.7009
  17   2.0000      -0.061543        -1.6747
  18   0.0000       0.252611         6.8739
  19   0.0000       0.335399         9.1267
  20   0.0000       0.608571        16.5601
  21   0.0000       0.744639        20.2627
  22   0.0000       0.792577        21.5671

MULLIKEN ATOMIC CHARGES
-----------------------
   0 Cl:   -0.802509
   1 S :   -0.585000
   2 H :    0.134615
   3 H :    0.252894
Sum of atomic charges:   -1.0000000

LOEWDIN ATOMIC CHARGES
----------------------
   0 Cl:   -0.812567
   1 S :   -0.408525
   2 H :    0.072445
   3 H :    0.148647

  Mayer bond orders larger than 0.100000
B(  0-Cl,  3-H ) :   0.2828 B(  1-S ,  2-H ) :   0.9469 B(  1-S ,  3-H ) :   0.6789

Dispersion correction           -0.001029223
FINAL SINGLE POINT ENERGY      -858.701489771506

DIPOLE MOMENT
-------------
                                X             Y             Z
Electronic contribution:     -1.61497       2.52749      -0.02803
Nuclear contribution   :      2.32113      -3.66698       0.04061
                        -----------------------------------------
Total Dipole Moment    :      0.70617      -1.13949       0.01258
                        -----------------------------------------
Magnitude (a.u.)       :      1.34062
Magnitude (Debye)      :      3.40758

Rotational constants in cm-1:     9.667691     0.085144     0.084401
Rotational constants in MHz : 289830.098779  2552.557992  2530.273708

                             ****ORCA TERMINATED NORMALLY****
TOTAL RUN TIME: 0 days 0 hours 0 minutes 9 seconds 129 msec
