                         Program Version 5.0.3 -  RELEASE  -
|  1> ! PBEh-3c def2/J TightSCF DefGrid3
|  2>
|  3> %maxcore 60000
|  4>
|  5> %pal
|  6> nprocs 4
|  7> end
|  8>
|  9> *xyzfile 0 1 48B.xyz
| 10>
| 11>                          ****END OF INPUT****

CARTESIAN COORDINATES (ANGSTROEM)
---------------------------------
  N      0.000000    0.000000   -1.613473
  C     -1.139405    0.000000   -0.910938
  H     -2.052259    0.000000   -1.493986
  C     -1.196449    0.000000    0.480721
  H     -2.147782    0.000000    0.994332
  C      0.000000    0.000000    1.194747
  H      0.000000    0.000000    2.276515
  C      1.196449    0.000000    0.480721
  H      2.147782    0.000000    0.994332
  C      1.139405    0.000000   -0.910938
  H      2.052259    0.000000   -1.493986

 Total Charge           Charge          ....    0
 Multiplicity           Mult            ....    1
 Number of Electrons    NEL             ....   42
 Basis Dimension        Dim             ....  100

ORBITAL ENERGIES
----------------

  NO   OCC          E(Eh)            E(eV)
   0   2.0000     -14.640495      -398.3881
   1   2.0000     -10.483238      -285.2634
   2   2.0000     -10.483208      -285.2626
   3   2.0000     -10.471449      -284.9426
   4   2.0000     -10.459660      -284.6218
   5   2.0000     -10.459649      -284.6215
   6   2.0000      -1.047305       -28.4986
   7   2.0000      -0.901828       -24.5400
   8   2.0000      -0.854688       -23.2572
   9   2.0000      -0.710068       -19.3219
  10   2.0000      -0.709520       -19.3070
  11   2.0000      -0.601168       -16.3586
  12   2.0000      -0.547392       -14.8953
  13   2.0000      -0.537711       -14.6319
  14   2.0000      -0.492149       -13.3921
  15   2.0000      -0.467987       -12.7346
  16   2.0000      -0.456477       -12.4214
  17   2.0000      -0.421100       -11.4587
  18   2.0000      -0.333570        -9.0769
  19   2.0000      -0.314777        -8.5655
  20   2.0000      -0.306148        -8.3307
  21   0.0000      -0.004781        -0.1301
  22   0.0000       0.008730         0.2376
  23   0.0000       0.144767         3.9393
  24   0.0000       0.181908         4.9500
  25   0.0000       0.195736         5.3263

MULLIKEN ATOMIC CHARGES
-----------------------
   0 N :   -0.358384
   1 C :   -0.038501
   2 H :    0.232676
   3 C :   -0.297386
   4 H :    0.232560
   5 C :   -0.135494
   6 H :    0.235178
   7 C :   -0.297387
   8 H :    0.232560
   9 C :   -0.038500
  10 H :    0.232676
Sum of atomic charges:   -0.0000000

LOEWDIN ATOMIC CHARGES
----------------------
   0 N :   -0.139224
   1 C :   -0.056202
   2 H :    0.129999
   3 C :   -0.165213
   4 H :    0.142272
   5 C :   -0.103259
   6 H :    0.140771
   7 C :   -0.165213
   8 H :    0.142272
   9 C :   -0.056202
  10 H :    0.129999

  Mayer bond orders larger than 0.100000
B(  0-N ,  1-C ) :   1.4990 B(  0-N ,  9-C ) :   1.4990 B(  1-C ,  2-H ) :   0.9175
B(  1-C ,  3-C ) :   1.3819 B(  3-C ,  4-H ) :   0.9130 B(  3-C ,  5-C ) :   1.4141
B(  5-C ,  6-H ) :   0.9180 B(  5-C ,  7-C ) :   1.4141 B(  7-C ,  8-H ) :   0.9130
B(  7-C ,  9-C ) :   1.3819 B(  9-C , 10-H ) :   0.9175

Dispersion correction           -0.005320863
FINAL SINGLE POINT ENERGY      -247.729355965078

DIPOLE MOMENT
-------------
                                X             Y             Z
Electronic contribution:     -0.00000      -0.00000      -1.33818
Nuclear contribution   :     -0.00000       0.00000       2.21631
                        -----------------------------------------
Total Dipole Moment    :     -0.00000      -0.00000       0.87813
                        -----------------------------------------
Magnitude (a.u.)       :      0.87813
Magnitude (Debye)      :      2.23204

Rotational constants in cm-1:     0.202216     0.193702     0.098934
Rotational constants in MHz :  6062.297488  5807.048626  2965.964255

                             ****ORCA TERMINATED NORMALLY****
TOTAL RUN TIME: 0 days 0 hours 1 minutes 25 seconds 612 msec
