                         Program Version 5.0.3 -  RELEASE  -
|  1> ! PBEh-3c def2/J TightSCF DefGrid3
|  2>
|  3> %maxcore 60000
|  4>
|  5> %pal
|  6> nprocs 4
|  7> end
|  8>
|  9> *xyzfile 0 1 18.xyz
| 10>
| 11>                          ****END OF INPUT****

CARTESIAN COORDINATES (ANGSTROEM)
---------------------------------
  C     -0.808940    0.739223   -1.207108
  C     -1.495803    0.619890    0.000000
  C     -0.808940    0.739223    1.207108
  C      0.564568    0.977985    1.207074
  C      1.251385    1.097101    0.000000
  C      0.564568    0.977985   -1.207074
  H     -1.341609    0.643976   -2.143290
  H     -2.559880    0.428583    0.000000
  H     -1.341609    0.643976    2.143290
  H      1.097142    1.070833    2.143696
  H      2.316701    1.282976    0.000000
  H      1.097142    1.070833   -2.143696
  H      0.689891   -2.922604   -0.806073
  H      0.689891   -2.922604    0.806073
  H     -0.025242   -1.721596    0.000000
  N      0.110734   -2.725780    0.000000

 Total Charge           Charge          ....    0
 Multiplicity           Mult            ....    1
 Number of Electrons    NEL             ....   52
 Basis Dimension        Dim             ....  123

ORBITAL ENERGIES
----------------

  NO   OCC          E(Eh)            E(eV)
   0   2.0000     -14.581180      -396.7741
   1   2.0000     -10.455878      -284.5189
   2   2.0000     -10.455513      -284.5090
   3   2.0000     -10.455182      -284.5000
   4   2.0000     -10.454823      -284.4902
   5   2.0000     -10.454613      -284.4845
   6   2.0000     -10.454021      -284.4684
   7   2.0000      -0.959734       -26.1157
   8   2.0000      -0.921277       -25.0692
   9   2.0000      -0.842357       -22.9217
  10   2.0000      -0.842262       -22.9191
  11   2.0000      -0.685384       -18.6503
  12   2.0000      -0.685284       -18.6475
  13   2.0000      -0.598415       -16.2837
  14   2.0000      -0.531639       -14.4666
  15   2.0000      -0.515039       -14.0149
  16   2.0000      -0.495339       -13.4789
  17   2.0000      -0.495123       -13.4730
  18   2.0000      -0.488115       -13.2823
  19   2.0000      -0.487951       -13.2778
  20   2.0000      -0.426087       -11.5944
  21   2.0000      -0.404467       -11.0061
  22   2.0000      -0.404359       -11.0032
  23   2.0000      -0.301387        -8.2012
  24   2.0000      -0.300262        -8.1706
  25   2.0000      -0.293068        -7.9748
  26   0.0000       0.011831         0.3219
  27   0.0000       0.012157         0.3308
  28   0.0000       0.135578         3.6893
  29   0.0000       0.154152         4.1947
  30   0.0000       0.189544         5.1578

MULLIKEN ATOMIC CHARGES
-----------------------
   0 C :   -0.226467
   1 C :   -0.221649
   2 C :   -0.226468
   3 C :   -0.227030
   4 C :   -0.224476
   5 C :   -0.227030
   6 H :    0.226302
   7 H :    0.228259
   8 H :    0.226302
   9 H :    0.223775
  10 H :    0.223066
  11 H :    0.223775
  12 H :    0.305732
  13 H :    0.305732
  14 H :    0.341787
  15 N :   -0.951608
Sum of atomic charges:    0.0000000

LOEWDIN ATOMIC CHARGES
----------------------
   0 C :   -0.137538
   1 C :   -0.134175
   2 C :   -0.137538
   3 C :   -0.139814
   4 C :   -0.139376
   5 C :   -0.139814
   6 H :    0.138751
   7 H :    0.140171
   8 H :    0.138751
   9 H :    0.137187
  10 H :    0.136928
  11 H :    0.137187
  12 H :    0.212457
  13 H :    0.212457
  14 H :    0.224668
  15 N :   -0.650303

  Mayer bond orders larger than 0.100000
B(  0-C ,  1-C ) :   1.4245 B(  0-C ,  5-C ) :   1.4237 B(  0-C ,  6-H ) :   0.9185
B(  1-C ,  2-C ) :   1.4245 B(  1-C ,  7-H ) :   0.9179 B(  2-C ,  3-C ) :   1.4237
B(  2-C ,  8-H ) :   0.9185 B(  3-C ,  4-C ) :   1.4246 B(  3-C ,  9-H ) :   0.9191
B(  4-C ,  5-C ) :   1.4246 B(  4-C , 10-H ) :   0.9193 B(  5-C , 11-H ) :   0.9191
B( 12-H , 15-N ) :   0.8856 B( 13-H , 15-N ) :   0.8856 B( 14-H , 15-N ) :   0.8588

Dispersion correction           -0.007839053
FINAL SINGLE POINT ENERGY      -288.158013811506

DIPOLE MOMENT
-------------
                                X             Y             Z
Electronic contribution:     -0.57926       4.65027       0.00000
Nuclear contribution   :      1.17310      -4.17759       0.00000
                        -----------------------------------------
Total Dipole Moment    :      0.59384       0.47268       0.00000
                        -----------------------------------------
Magnitude (a.u.)       :      0.75899
Magnitude (Debye)      :      1.92920

Rotational constants in cm-1:     0.094899     0.063019     0.062543
Rotational constants in MHz :  2844.988577  1889.273675  1874.983821

                             ****ORCA TERMINATED NORMALLY****
TOTAL RUN TIME: 0 days 0 hours 1 minutes 25 seconds 107 msec
