                         Program Version 5.0.3 -  RELEASE  -
|  1> ! PBEh-3c def2/J TightSCF DefGrid3
|  2>
|  3> %maxcore 60000
|  4>
|  5> %pal
|  6> nprocs 4
|  7> end
|  8>
|  9> *xyzfile 0 1 26_benI-mSHB.xyz
| 10>
| 11>                          ****END OF INPUT****

CARTESIAN COORDINATES (ANGSTROEM)
---------------------------------
  S     -3.112683    6.289228    1.226984
  H     -4.328790    5.797771    0.973373
  C     -2.689135    6.703164   -0.489063
  H     -1.684433    7.115457   -0.460266
  H     -2.683867    5.816530   -1.115184
  H     -3.365331    7.451201   -0.890099

 Total Charge           Charge          ....    0
 Multiplicity           Mult            ....    1
 Number of Electrons    NEL             ....   26
 Basis Dimension        Dim             ....   41

ORBITAL ENERGIES
----------------

  NO   OCC          E(Eh)            E(eV)
   0   2.0000     -89.573901     -2437.4298
   1   2.0000     -10.464687      -284.7586
   2   2.0000      -8.215215      -223.5474
   3   2.0000      -6.106345      -166.1621
   4   2.0000      -6.103223      -166.0772
   5   2.0000      -6.097189      -165.9129
   6   2.0000      -0.867146       -23.5962
   7   2.0000      -0.720136       -19.5959
   8   2.0000      -0.508542       -13.8381
   9   2.0000      -0.490054       -13.3350
  10   2.0000      -0.443626       -12.0717
  11   2.0000      -0.378399       -10.2968
  12   2.0000      -0.278880        -7.5887
  13   0.0000       0.075805         2.0628
  14   0.0000       0.117651         3.2014
  15   0.0000       0.176060         4.7908
  16   0.0000       0.192500         5.2382
  17   0.0000       0.200837         5.4651

MULLIKEN ATOMIC CHARGES
-----------------------
   0 S :   -0.180454
   1 H :    0.173578
   2 C :   -0.750553
   3 H :    0.257897
   4 H :    0.249690
   5 H :    0.249841
Sum of atomic charges:   -0.0000000

LOEWDIN ATOMIC CHARGES
----------------------
   0 S :   -0.031675
   1 H :    0.095111
   2 C :   -0.470959
   3 H :    0.143083
   4 H :    0.132291
   5 H :    0.132149

  Mayer bond orders larger than 0.100000
B(  0-S ,  1-H ) :   0.9250 B(  0-S ,  2-C ) :   1.0291 B(  2-C ,  3-H ) :   0.9060
B(  2-C ,  4-H ) :   0.8998 B(  2-C ,  5-H ) :   0.8995

Dispersion correction           -0.001581461
FINAL SINGLE POINT ENERGY      -438.157513710990

DIPOLE MOMENT
-------------
                                X             Y             Z
Electronic contribution:     -0.13751      -0.49702       3.27363
Nuclear contribution   :     -0.05981       0.49595      -3.90945
                        -----------------------------------------
Total Dipole Moment    :     -0.19732      -0.00107      -0.63581
                        -----------------------------------------
Magnitude (a.u.)       :      0.66573
Magnitude (Debye)      :      1.69215

Rotational constants in cm-1:     3.458545     0.432107     0.414457
Rotational constants in MHz : 103684.558901 12954.256732 12425.121918

                             ****ORCA TERMINATED NORMALLY****
TOTAL RUN TIME: 0 days 0 hours 0 minutes 58 seconds 613 msec
