                         Program Version 5.0.3 -  RELEASE  -
|  1> ! PBEh-3c def2/J TightSCF DefGrid3
|  2>
|  3> %maxcore 60000
|  4>
|  5> %pal
|  6> nprocs 4
|  7> end
|  8>
|  9> *xyzfile 0 2 bef.xyz
| 10>
| 11>                          ****END OF INPUT****

CARTESIAN COORDINATES (ANGSTROEM)
---------------------------------
  Be     0.000000    0.000000   -0.682362
  F      0.000000    0.000000    0.682362

 Total Charge           Charge          ....    0
 Multiplicity           Mult            ....    2
 Number of Electrons    NEL             ....   13
 Basis Dimension        Dim             ....   24

ORBITAL ENERGIES
----------------
                 SPIN UP ORBITALS
  NO   OCC          E(Eh)            E(eV)
   0   1.0000     -25.072004      -682.2439
   1   1.0000      -4.257008      -115.8391
   2   1.0000      -1.279800       -34.8251
   3   1.0000      -0.538681       -14.6583
   4   1.0000      -0.485840       -13.2204
   5   1.0000      -0.485840       -13.2204
   6   1.0000      -0.259842        -7.0707
   7   0.0000       0.003092         0.0841
   8   0.0000       0.003092         0.0841
   9   0.0000       0.088832         2.4172
  10   0.0000       0.133075         3.6212
  11   0.0000       0.229215         6.2372

                 SPIN DOWN ORBITALS
  NO   OCC          E(Eh)            E(eV)
   0   1.0000     -25.072181      -682.2487
   1   1.0000      -4.241128      -115.4069
   2   1.0000      -1.279962       -34.8295
   3   1.0000      -0.536022       -14.5859
   4   1.0000      -0.487436       -13.2638
   5   1.0000      -0.487436       -13.2638
   6   0.0000      -0.071617        -1.9488
   7   0.0000       0.039163         1.0657
   8   0.0000       0.039163         1.0657
   9   0.0000       0.107685         2.9303
  10   0.0000       0.176544         4.8040

MULLIKEN ATOMIC CHARGES AND SPIN POPULATIONS
--------------------------------------------
   0 Be:    0.547060    1.019822
   1 F :   -0.547060   -0.019822
Sum of atomic charges         :   -0.0000000

LOEWDIN ATOMIC CHARGES AND SPIN POPULATIONS
-------------------------------------------
   0 Be:    0.340453    1.012473
   1 F :   -0.340453   -0.012473

  Mayer bond orders larger than 0.100000
B(  0-Be,  1-F ) :   0.8642

Dispersion correction           -0.000183197
FINAL SINGLE POINT ENERGY      -114.362604610079

DIPOLE MOMENT
-------------
                                X             Y             Z
Electronic contribution:     -0.00000      -0.00000      -0.85716
Nuclear contribution   :      0.00000       0.00000       0.47104
                        -----------------------------------------
Total Dipole Moment    :     -0.00000      -0.00000      -0.38612
                        -----------------------------------------
Magnitude (a.u.)       :      0.38612
Magnitude (Debye)      :      0.98143

Rotational constants in cm-1:     0.000000     1.480780     1.480780
Rotational constants in MHz :     0.000000 44392.678712 44392.678712

                             ****ORCA TERMINATED NORMALLY****
TOTAL RUN TIME: 0 days 0 hours 0 minutes 39 seconds 53 msec
