                         Program Version 5.0.3 -  RELEASE  -
|  1> ! PBEh-3c def2/J TightSCF DefGrid3
|  2>
|  3> %maxcore 60000
|  4>
|  5> %pal
|  6> nprocs 4
|  7> end
|  8>
|  9> *xyzfile 0 1 ed2.xyz
| 10>
| 11>                          ****END OF INPUT****

CARTESIAN COORDINATES (ANGSTROEM)
---------------------------------
  C     -1.279761    0.000000   -0.672321
  C     -1.194892    0.000000    0.682549
  B      0.000000    0.000000   -1.493184
  N      0.000000    0.000000    1.327512
  C      1.194892    0.000000    0.682549
  C      1.279761    0.000000   -0.672321
  H      0.000000    0.000000   -2.688891
  H      2.280294    0.000000   -1.090415
  H      2.056798    0.000000    1.340734
  H      0.000000    0.000000    2.332887
  H     -2.056798    0.000000    1.340734
  H     -2.280294    0.000000   -1.090415

 Total Charge           Charge          ....    0
 Multiplicity           Mult            ....    1
 Number of Electrons    NEL             ....   42
 Basis Dimension        Dim             ....  102

ORBITAL ENERGIES
----------------

  NO   OCC          E(Eh)            E(eV)
   0   2.0000     -14.705239      -400.1499
   1   2.0000     -10.492659      -285.5198
   2   2.0000     -10.492623      -285.5188
   3   2.0000     -10.410487      -283.2838
   4   2.0000     -10.410456      -283.2829
   5   2.0000      -6.905055      -187.8961
   6   2.0000      -1.090806       -29.6824
   7   2.0000      -0.860366       -23.4118
   8   2.0000      -0.832380       -22.6502
   9   2.0000      -0.699772       -19.0418
  10   2.0000      -0.649255       -17.6671
  11   2.0000      -0.625528       -17.0215
  12   2.0000      -0.517659       -14.0862
  13   2.0000      -0.489543       -13.3211
  14   2.0000      -0.487149       -13.2560
  15   2.0000      -0.477883       -13.0038
  16   2.0000      -0.473028       -12.8718
  17   2.0000      -0.353281        -9.6133
  18   2.0000      -0.350940        -9.5496
  19   2.0000      -0.305967        -8.3258
  20   2.0000      -0.276024        -7.5110
  21   0.0000       0.012042         0.3277
  22   0.0000       0.030806         0.8383
  23   0.0000       0.099735         2.7139
  24   0.0000       0.179268         4.8781
  25   0.0000       0.182067         4.9543

MULLIKEN ATOMIC CHARGES
-----------------------
   0 C :   -0.402421
   1 C :   -0.035344
   2 B :    0.135293
   3 N :   -0.548280
   4 C :   -0.035344
   5 C :   -0.402421
   6 H :    0.032084
   7 H :    0.210994
   8 H :    0.232003
   9 H :    0.370440
  10 H :    0.232003
  11 H :    0.210994
Sum of atomic charges:    0.0000000

LOEWDIN ATOMIC CHARGES
----------------------
   0 C :   -0.242206
   1 C :   -0.045834
   2 B :   -0.115027
   3 N :   -0.123144
   4 C :   -0.045834
   5 C :   -0.242206
   6 H :    0.002674
   7 H :    0.142874
   8 H :    0.129852
   9 H :    0.266127
  10 H :    0.129852
  11 H :    0.142874

  Mayer bond orders larger than 0.100000
B(  0-C ,  1-C ) :   1.6624 B(  0-C ,  2-B ) :   1.1318 B(  0-C , 11-H ) :   0.9154
B(  1-C ,  3-N ) :   1.1622 B(  1-C , 10-H ) :   0.9026 B(  2-B ,  5-C ) :   1.1318
B(  2-B ,  6-H ) :   0.9864 B(  3-N ,  4-C ) :   1.1622 B(  3-N ,  9-H ) :   0.8244
B(  4-C ,  5-C ) :   1.6624 B(  4-C ,  8-H ) :   0.9026 B(  5-C ,  7-H ) :   0.9154

Dispersion correction           -0.005611150
FINAL SINGLE POINT ENERGY      -235.110847362118

DIPOLE MOMENT
-------------
                                X             Y             Z
Electronic contribution:      0.00000      -0.00000       0.63049
Nuclear contribution   :      0.00000       0.00000       1.09595
                        -----------------------------------------
Total Dipole Moment    :      0.00000      -0.00000       1.72644
                        -----------------------------------------
Magnitude (a.u.)       :      1.72644
Magnitude (Debye)      :      4.38827

Rotational constants in cm-1:     0.188294     0.181946     0.092533
Rotational constants in MHz :  5644.926664  5454.601286  2774.066103

                             ****ORCA TERMINATED NORMALLY****
TOTAL RUN TIME: 0 days 0 hours 2 minutes 6 seconds 570 msec
