                         Program Version 5.0.3 -  RELEASE  -
|  1> ! PBEh-3c def2/J TightSCF DefGrid3
|  2>
|  3> %maxcore 60000
|  4>
|  5> %pal
|  6> nprocs 4
|  7> end
|  8>
|  9> *xyzfile 0 1 i4p.xyz
| 10>
| 11>                          ****END OF INPUT****

CARTESIAN COORDINATES (ANGSTROEM)
---------------------------------
  C     11.770116    1.417974   -0.377697
  C     13.256078    1.134505   -0.502518
  C     10.841942    0.281896   -0.199422
  C      9.492907    0.338488    0.478201
  C      8.472975   -0.581196   -0.231875
  C      7.105580   -0.563556    0.415920
  C      6.051786   -0.037557   -0.230586
  C      4.628601    0.055716    0.244481
  C      3.709122   -0.960742   -0.488042
  C      2.258179   -0.859321   -0.071060
  C      1.325917   -0.424854   -0.935751
  C     -0.150528   -0.265208   -0.704607
  C     -0.982490   -1.294313   -1.520749
  C     -2.459838   -1.082532   -1.344770
  C     -3.338122   -1.854934   -0.682527
  C     -4.788041   -1.436981   -0.566172
  C     -5.215722   -1.111075    0.892217
  C     -6.657989   -0.696415    0.968222
  C     -7.160213    0.529388    1.195234
  C     -8.656019    0.758509    1.173651
  C     -9.122305    1.633353   -0.023430
  C    -10.609292    1.855021   -0.010378
  C    -11.535894    1.274789   -0.790935
  C    -13.003220    1.595206   -0.627998
  C     11.437814    2.816365    0.105744
  C      7.047956   -1.157978    1.803393
  C      1.980186   -1.259239    1.359089
  C    -11.238518    0.272283   -1.879460
  H     11.914342    3.555470   -0.552625
  H     13.424678    0.114829   -0.867481
  H     10.359675    2.999026    0.103742
  H     11.824490    2.968149    1.123217
  H     13.717201    1.840601   -1.206822
  H     13.751079    1.251014    0.471689
  H     11.299739   -0.716034   -0.177693
  H      7.620867   -0.547852    2.517845
  H      6.027077   -1.254957    2.185065
  H      7.509871   -2.157105    1.803332
  H      0.911753   -1.328483    1.584853
  H      2.440677   -2.236106    1.571494
  H      2.428875   -0.541018    2.061598
  H     -5.063659   -2.007236    1.511323
  H     -4.975281   -0.552494   -1.189101
  H     -2.845208   -0.158898   -1.786458
  H     -0.716879   -1.183325   -2.583881
  H     -0.411424   -0.364948    0.355208
  H      1.659731   -0.184749   -1.949450
  H      3.800311   -0.803565   -1.571480
  H      6.225743    0.340075   -1.241870
  H    -13.419959    2.001546   -1.563197
  H    -13.172455    2.325012    0.173230
  H    -13.578488    0.684455   -0.398167
  H    -11.790782   -0.661887   -1.693189
  H    -10.175370    0.027305   -1.963564
  H    -11.585067    0.649961   -2.854197
  H      9.618445    0.025080    1.525138
  H      4.557720   -0.102642    1.326177
  O     10.969826    0.930496   -1.489783
  C     -2.992242   -3.155417    0.002467
  H     -3.126300   -3.068921    1.090831
  H     -3.672272   -3.953033   -0.334097
  H     -1.963991   -3.479320   -0.183981
  C     -6.329683    1.762244    1.460126
  H     -6.456157    2.496430    0.650864
  H     -6.667062    2.254628    2.385170
  H     -5.260697    1.548919    1.553733
  H     -7.375693   -1.499480    0.777026
  H     -9.183527   -0.203153    1.125294
  H    -10.965699    2.549210    0.755671
  H     -8.613158    2.606342    0.031026
  H      8.398021   -0.266154   -1.280128
  H      4.239246    1.065714    0.045611
  H     -0.462335    0.746438   -1.009255
  H      8.869369   -1.610356   -0.224213
  H      4.088158   -1.972442   -0.272712
  H      9.104159    1.362676    0.481500
  H     -0.674419   -2.303078   -1.223436
  H     -5.437962   -2.244173   -0.942335
  H     -4.546323   -0.336016    1.283663
  H     -8.969425    1.255246    2.106398
  H     -8.790508    1.154381   -0.952353

 Total Charge           Charge          ....    0
 Multiplicity           Mult            ....    1
 Number of Electrons    NEL             ....  238
 Basis Dimension        Dim             ....  565

ORBITAL ENERGIES
----------------

  NO   OCC          E(Eh)            E(eV)
   0   2.0000     -19.492260      -530.4114
   1   2.0000     -10.501710      -285.7660
   2   2.0000     -10.489876      -285.4440
   3   2.0000     -10.448307      -284.3129
   4   2.0000     -10.447827      -284.2998
   5   2.0000     -10.446098      -284.2528
   6   2.0000     -10.446054      -284.2516
   7   2.0000     -10.446011      -284.2504
   8   2.0000     -10.441364      -284.1240
   9   2.0000     -10.437522      -284.0194
  10   2.0000     -10.436465      -283.9906
  11   2.0000     -10.436284      -283.9857
  12   2.0000     -10.436018      -283.9785
  13   2.0000     -10.435784      -283.9721
  14   2.0000     -10.435483      -283.9639
  15   2.0000     -10.435404      -283.9618
  16   2.0000     -10.435294      -283.9588
  17   2.0000     -10.435080      -283.9530
  18   2.0000     -10.433819      -283.9187
  19   2.0000     -10.433105      -283.8992
  20   2.0000     -10.433019      -283.8969
  21   2.0000     -10.432958      -283.8952
  22   2.0000     -10.431928      -283.8672
  23   2.0000     -10.431693      -283.8608
  24   2.0000     -10.431433      -283.8537
  25   2.0000     -10.431404      -283.8529
  26   2.0000     -10.430618      -283.8315
  27   2.0000     -10.430150      -283.8188
  28   2.0000     -10.429934      -283.8129
  29   2.0000     -10.429893      -283.8118
  30   2.0000     -10.429175      -283.7923
  31   2.0000      -1.160705       -31.5844
  32   2.0000      -0.920972       -25.0609
  33   2.0000      -0.918392       -24.9907
  34   2.0000      -0.911043       -24.7907
  35   2.0000      -0.903981       -24.5986
  36   2.0000      -0.894400       -24.3379
  37   2.0000      -0.869291       -23.6546
  38   2.0000      -0.855260       -23.2728
  39   2.0000      -0.853267       -23.2186
  40   2.0000      -0.839990       -22.8573
  41   2.0000      -0.820108       -22.3163
  42   2.0000      -0.810737       -22.0613
  43   2.0000      -0.779214       -21.2035
  44   2.0000      -0.779091       -21.2001
  45   2.0000      -0.769717       -20.9451
  46   2.0000      -0.765406       -20.8278
  47   2.0000      -0.764420       -20.8009
  48   2.0000      -0.755027       -20.5453
  49   2.0000      -0.748119       -20.3574
  50   2.0000      -0.729155       -19.8413
  51   2.0000      -0.704077       -19.1589
  52   2.0000      -0.686148       -18.6710
  53   2.0000      -0.669987       -18.2313
  54   2.0000      -0.658788       -17.9265
  55   2.0000      -0.651279       -17.7222
  56   2.0000      -0.621153       -16.9024
  57   2.0000      -0.585198       -15.9241
  58   2.0000      -0.582668       -15.8552
  59   2.0000      -0.579425       -15.7670
  60   2.0000      -0.575557       -15.6617
  61   2.0000      -0.573134       -15.5958
  62   2.0000      -0.551766       -15.0143
  63   2.0000      -0.541495       -14.7348
  64   2.0000      -0.538548       -14.6546
  65   2.0000      -0.536624       -14.6023
  66   2.0000      -0.526660       -14.3311
  67   2.0000      -0.520019       -14.1504
  68   2.0000      -0.515572       -14.0294
  69   2.0000      -0.508534       -13.8379
  70   2.0000      -0.501908       -13.6576
  71   2.0000      -0.498642       -13.5687
  72   2.0000      -0.491764       -13.3816
  73   2.0000      -0.487998       -13.2791
  74   2.0000      -0.484847       -13.1934
  75   2.0000      -0.481812       -13.1108
  76   2.0000      -0.479060       -13.0359
  77   2.0000      -0.471234       -12.8229
  78   2.0000      -0.467159       -12.7120
  79   2.0000      -0.465913       -12.6781
  80   2.0000      -0.464836       -12.6488
  81   2.0000      -0.461815       -12.5666
  82   2.0000      -0.457189       -12.4408
  83   2.0000      -0.452581       -12.3154
  84   2.0000      -0.447071       -12.1654
  85   2.0000      -0.445280       -12.1167
  86   2.0000      -0.439183       -11.9508
  87   2.0000      -0.434280       -11.8174
  88   2.0000      -0.434175       -11.8145
  89   2.0000      -0.424545       -11.5525
  90   2.0000      -0.423728       -11.5302
  91   2.0000      -0.422849       -11.5063
  92   2.0000      -0.422006       -11.4834
  93   2.0000      -0.420386       -11.4393
  94   2.0000      -0.418615       -11.3911
  95   2.0000      -0.418543       -11.3891
  96   2.0000      -0.417218       -11.3531
  97   2.0000      -0.412734       -11.2311
  98   2.0000      -0.411051       -11.1853
  99   2.0000      -0.406592       -11.0639
 100   2.0000      -0.404122       -10.9967
 101   2.0000      -0.400267       -10.8918
 102   2.0000      -0.397258       -10.8099
 103   2.0000      -0.386635       -10.5209
 104   2.0000      -0.383139       -10.4257
 105   2.0000      -0.380934       -10.3657
 106   2.0000      -0.378981       -10.3126
 107   2.0000      -0.374381       -10.1874
 108   2.0000      -0.373726       -10.1696
 109   2.0000      -0.369771       -10.0620
 110   2.0000      -0.362078        -9.8526
 111   2.0000      -0.354847        -9.6559
 112   2.0000      -0.329288        -8.9604
 113   2.0000      -0.314483        -8.5575
 114   2.0000      -0.286569        -7.7979
 115   2.0000      -0.280962        -7.6454
 116   2.0000      -0.272096        -7.4041
 117   2.0000      -0.264875        -7.2076
 118   2.0000      -0.256889        -6.9903
 119   0.0000       0.043951         1.1960
 120   0.0000       0.048531         1.3206
 121   0.0000       0.056682         1.5424
 122   0.0000       0.063773         1.7354
 123   0.0000       0.067536         1.8378

MULLIKEN ATOMIC CHARGES
-----------------------
   0 C :    0.237299
   1 C :   -0.655925
   2 C :    0.012192
   3 C :   -0.454864
   4 C :   -0.479507
   5 C :    0.126966
   6 C :   -0.233228
   7 C :   -0.481105
   8 C :   -0.466508
   9 C :    0.125419
  10 C :   -0.232130
  11 C :   -0.470822
  12 C :   -0.469629
  13 C :   -0.236167
  14 C :    0.127917
  15 C :   -0.466296
  16 C :   -0.480802
  17 C :   -0.231990
  18 C :    0.125849
  19 C :   -0.465408
  20 C :   -0.481988
  21 C :   -0.215291
  22 C :    0.096190
  23 C :   -0.676791
  24 C :   -0.662103
  25 C :   -0.707633
  26 C :   -0.708300
  27 C :   -0.693929
  28 H :    0.226815
  29 H :    0.230619
  30 H :    0.233401
  31 H :    0.212320
  32 H :    0.225263
  33 H :    0.210714
  34 H :    0.203029
  35 H :    0.223674
  36 H :    0.228695
  37 H :    0.220119
  38 H :    0.230183
  39 H :    0.219243
  40 H :    0.224509
  41 H :    0.218932
  42 H :    0.228250
  43 H :    0.198487
  44 H :    0.218763
  45 H :    0.224382
  46 H :    0.198332
  47 H :    0.221284
  48 H :    0.204631
  49 H :    0.216834
  50 H :    0.223121
  51 H :    0.215949
  52 H :    0.219595
  53 H :    0.227471
  54 H :    0.221106
  55 H :    0.211085
  56 H :    0.216802
  57 O :   -0.474572
  58 C :   -0.707983
  59 H :    0.224158
  60 H :    0.220580
  61 H :    0.230381
  62 C :   -0.706587
  63 H :    0.224622
  64 H :    0.220261
  65 H :    0.230052
  66 H :    0.198537
  67 H :    0.228322
  68 H :    0.197689
  69 H :    0.219178
  70 H :    0.246314
  71 H :    0.231142
  72 H :    0.218859
  73 H :    0.209451
  74 H :    0.218783
  75 H :    0.234148
  76 H :    0.225920
  77 H :    0.210627
  78 H :    0.226653
  79 H :    0.211437
  80 H :    0.227004
Sum of atomic charges:   -0.0000000

LOEWDIN ATOMIC CHARGES
----------------------
   0 C :    0.033225
   1 C :   -0.351131
   2 C :   -0.010399
   3 C :   -0.240307
   4 C :   -0.219993
   5 C :   -0.067813
   6 C :   -0.161216
   7 C :   -0.234526
   8 C :   -0.218842
   9 C :   -0.067137
  10 C :   -0.164453
  11 C :   -0.232250
  12 C :   -0.232188
  13 C :   -0.164978
  14 C :   -0.066934
  15 C :   -0.218785
  16 C :   -0.234317
  17 C :   -0.164374
  18 C :   -0.066297
  19 C :   -0.218932
  20 C :   -0.234374
  21 C :   -0.167352
  22 C :   -0.071221
  23 C :   -0.345928
  24 C :   -0.352755
  25 C :   -0.352109
  26 C :   -0.352217
  27 C :   -0.352021
  28 H :    0.136207
  29 H :    0.137209
  30 H :    0.136845
  31 H :    0.132916
  32 H :    0.134710
  33 H :    0.131573
  34 H :    0.117549
  35 H :    0.132931
  36 H :    0.131656
  37 H :    0.132838
  38 H :    0.132220
  39 H :    0.132327
  40 H :    0.133715
  41 H :    0.127232
  42 H :    0.130349
  43 H :    0.125670
  44 H :    0.128591
  45 H :    0.127199
  46 H :    0.125667
  47 H :    0.128001
  48 H :    0.128355
  49 H :    0.130674
  50 H :    0.131326
  51 H :    0.130092
  52 H :    0.133283
  53 H :    0.131486
  54 H :    0.133862
  55 H :    0.128045
  56 H :    0.122980
  57 O :   -0.277275
  58 C :   -0.351866
  59 H :    0.133378
  60 H :    0.133303
  61 H :    0.131972
  62 C :   -0.351554
  63 H :    0.133668
  64 H :    0.133225
  65 H :    0.131923
  66 H :    0.125720
  67 H :    0.130433
  68 H :    0.125368
  69 H :    0.127151
  70 H :    0.138731
  71 H :    0.133489
  72 H :    0.128938
  73 H :    0.123868
  74 H :    0.127597
  75 H :    0.133524
  76 H :    0.127491
  77 H :    0.124667
  78 H :    0.127445
  79 H :    0.124958
  80 H :    0.127961

  Mayer bond orders larger than 0.100000
B(  0-C ,  1-C ) :   0.9699 B(  0-C ,  2-C ) :   0.9518 B(  0-C , 24-C ) :   0.9721
B(  0-C , 57-O ) :   0.9066 B(  1-C , 29-H ) :   0.9266 B(  1-C , 32-H ) :   0.9210
B(  1-C , 33-H ) :   0.9189 B(  2-C ,  3-C ) :   0.9709 B(  2-C , 34-H ) :   0.9029
B(  2-C , 57-O ) :   0.9435 B(  3-C ,  4-C ) :   0.9478 B(  3-C , 55-H ) :   0.9100
B(  3-C , 75-H ) :   0.9097 B(  4-C ,  5-C ) :   0.9785 B(  4-C , 70-H ) :   0.9132
B(  4-C , 73-H ) :   0.9142 B(  5-C ,  6-C ) :   1.8635 B(  5-C , 25-C ) :   0.9716
B(  6-C ,  7-C ) :   1.0043 B(  6-C , 48-H ) :   0.9183 B(  7-C ,  8-C ) :   0.9357
B(  7-C , 56-H ) :   0.9146 B(  7-C , 71-H ) :   0.9115 B(  8-C ,  9-C ) :   0.9787
B(  8-C , 47-H ) :   0.9243 B(  8-C , 74-H ) :   0.9117 B(  9-C , 10-C ) :   1.8642
B(  9-C , 26-C ) :   0.9721 B( 10-C , 11-C ) :   0.9972 B( 10-C , 46-H ) :   0.9194
B( 11-C , 12-C ) :   0.9385 B( 11-C , 45-H ) :   0.9145 B( 11-C , 72-H ) :   0.9153
B( 12-C , 13-C ) :   0.9955 B( 12-C , 44-H ) :   0.9163 B( 12-C , 76-H ) :   0.9128
B( 13-C , 14-C ) :   1.8707 B( 13-C , 43-H ) :   0.9187 B( 14-C , 15-C ) :   0.9752
B( 14-C , 58-C ) :   0.9704 B( 15-C , 16-C ) :   0.9388 B( 15-C , 42-H ) :   0.9217
B( 15-C , 77-H ) :   0.9141 B( 16-C , 17-C ) :   0.9996 B( 16-C , 41-H ) :   0.9123
B( 16-C , 78-H ) :   0.9115 B( 17-C , 18-C ) :   1.8711 B( 17-C , 66-H ) :   0.9187
B( 18-C , 19-C ) :   0.9741 B( 18-C , 62-C ) :   0.9716 B( 19-C , 20-C ) :   0.9371
B( 19-C , 67-H ) :   0.9220 B( 19-C , 79-H ) :   0.9149 B( 20-C , 21-C ) :   1.0027
B( 20-C , 69-H ) :   0.9131 B( 20-C , 80-H ) :   0.9130 B( 21-C , 22-C ) :   1.8748
B( 21-C , 68-H ) :   0.9186 B( 22-C , 23-C ) :   0.9765 B( 22-C , 27-C ) :   0.9803
B( 23-C , 49-H ) :   0.9175 B( 23-C , 50-H ) :   0.9317 B( 23-C , 51-H ) :   0.9176
B( 24-C , 28-H ) :   0.9203 B( 24-C , 30-H ) :   0.9195 B( 24-C , 31-H ) :   0.9200
B( 25-C , 35-H ) :   0.9139 B( 25-C , 36-H ) :   0.9234 B( 25-C , 37-H ) :   0.9177
B( 26-C , 38-H ) :   0.9223 B( 26-C , 39-H ) :   0.9180 B( 26-C , 40-H ) :   0.9135
B( 27-C , 52-H ) :   0.9169 B( 27-C , 53-H ) :   0.9230 B( 27-C , 54-H ) :   0.9169
B( 58-C , 59-H ) :   0.9125 B( 58-C , 60-H ) :   0.9179 B( 58-C , 61-H ) :   0.9205
B( 62-C , 63-H ) :   0.9123 B( 62-C , 64-H ) :   0.9178 B( 62-C , 65-H ) :   0.9208

Dispersion correction           -0.049101115
FINAL SINGLE POINT ENERGY     -1245.708064065228

DIPOLE MOMENT
-------------
                                X             Y             Z
Electronic contribution:     17.94615       0.15938      -5.30967
Nuclear contribution   :    -17.77064      -0.21152       6.17120
                        -----------------------------------------
Total Dipole Moment    :      0.17551      -0.05214       0.86153
                        -----------------------------------------
Magnitude (a.u.)       :      0.88077
Magnitude (Debye)      :      2.23874

Rotational constants in cm-1:     0.014010     0.000613     0.000604
Rotational constants in MHz :   420.017109    18.363059    18.118053

                             ****ORCA TERMINATED NORMALLY****
TOTAL RUN TIME: 0 days 0 hours 11 minutes 25 seconds 149 msec
