                         Program Version 5.0.3 -  RELEASE  -
|  1> ! PBEh-3c def2/J TightSCF DefGrid3
|  2>
|  3> %maxcore 60000
|  4>
|  5> %pal
|  6> nprocs 4
|  7> end
|  8>
|  9> *xyzfile 0 1 P7.xyz
| 10>
| 11>                          ****END OF INPUT****

CARTESIAN COORDINATES (ANGSTROEM)
---------------------------------
  C      0.000000    0.667967   -0.927485
  C      0.000000    0.786398    0.585316
  C      0.000000   -0.786398    0.585316
  C      0.000000   -0.667967   -0.927485
  H      0.000000    1.413433   -1.713679
  H      0.888156    1.244768    1.027923
  H     -0.888156    1.244768    1.027923
  H     -0.888156   -1.244768    1.027923
  H      0.888156   -1.244768    1.027923
  H      0.000000   -1.413433   -1.713679

 Total Charge           Charge          ....    0
 Multiplicity           Mult            ....    1
 Number of Electrons    NEL             ....   30
 Basis Dimension        Dim             ....   72

ORBITAL ENERGIES
----------------

  NO   OCC          E(Eh)            E(eV)
   0   2.0000     -10.440701      -284.1059
   1   2.0000     -10.439813      -284.0818
   2   2.0000     -10.439139      -284.0634
   3   2.0000     -10.439011      -284.0599
   4   2.0000      -0.950951       -25.8767
   5   2.0000      -0.735783       -20.0217
   6   2.0000      -0.720735       -19.6122
   7   2.0000      -0.579848       -15.7785
   8   2.0000      -0.560852       -15.2615
   9   2.0000      -0.516623       -14.0580
  10   2.0000      -0.435468       -11.8497
  11   2.0000      -0.411940       -11.2095
  12   2.0000      -0.377251       -10.2655
  13   2.0000      -0.367399        -9.9974
  14   2.0000      -0.291208        -7.9242
  15   0.0000       0.049950         1.3592
  16   0.0000       0.161253         4.3879
  17   0.0000       0.172605         4.6968
  18   0.0000       0.175554         4.7771
  19   0.0000       0.195736         5.3263

MULLIKEN ATOMIC CHARGES
-----------------------
   0 C :   -0.196599
   1 C :   -0.451214
   2 C :   -0.451214
   3 C :   -0.196599
   4 H :    0.200889
   5 H :    0.223462
   6 H :    0.223462
   7 H :    0.223462
   8 H :    0.223462
   9 H :    0.200889
Sum of atomic charges:   -0.0000000

LOEWDIN ATOMIC CHARGES
----------------------
   0 C :   -0.146681
   1 C :   -0.228737
   2 C :   -0.228737
   3 C :   -0.146681
   4 H :    0.122533
   5 H :    0.126442
   6 H :    0.126442
   7 H :    0.126442
   8 H :    0.126442
   9 H :    0.122533

  Mayer bond orders larger than 0.100000
B(  0-C ,  1-C ) :   1.0126 B(  0-C ,  3-C ) :   1.8727 B(  0-C ,  4-H ) :   0.9295
B(  1-C ,  2-C ) :   0.9553 B(  1-C ,  5-H ) :   0.9131 B(  1-C ,  6-H ) :   0.9131
B(  2-C ,  3-C ) :   1.0126 B(  2-C ,  7-H ) :   0.9131 B(  2-C ,  8-H ) :   0.9131
B(  3-C ,  9-H ) :   0.9295

Dispersion correction           -0.003546807
FINAL SINGLE POINT ENERGY      -155.623348412901

DIPOLE MOMENT
-------------
                                X             Y             Z
Electronic contribution:     -0.00000       0.00000      -1.36326
Nuclear contribution   :      0.00000      -0.00000       1.42561
                        -----------------------------------------
Total Dipole Moment    :     -0.00000       0.00000       0.06235
                        -----------------------------------------
Magnitude (a.u.)       :      0.06235
Magnitude (Debye)      :      0.15847

Rotational constants in cm-1:     0.431922     0.409094     0.228190
Rotational constants in MHz : 12948.710235 12264.330007  6840.957780

                             ****ORCA TERMINATED NORMALLY****
TOTAL RUN TIME: 0 days 0 hours 0 minutes 50 seconds 372 msec
