                         Program Version 5.0.3 -  RELEASE  -
|  1> ! PBEh-3c def2/J TightSCF DefGrid3
|  2>
|  3> %maxcore 60000
|  4>
|  5> %pal
|  6> nprocs 4
|  7> end
|  8>
|  9> *xyzfile 0 1 R44.xyz
| 10>
| 11>                          ****END OF INPUT****

CARTESIAN COORDINATES (ANGSTROEM)
---------------------------------
  C      0.000000    0.217938    0.000000
  C      1.227281    1.150304    0.000000
  C      0.918236   -0.930277    0.000000
  C      2.017789   -0.154048    0.000000
  C     -1.312622    0.417999    0.000000
  C     -2.344976   -0.665777    0.000000
  H      1.336007    1.773164    0.889844
  H      1.336007    1.773164   -0.889844
  H      0.765861   -2.000247    0.000000
  H      3.077362   -0.361982    0.000000
  H     -1.673426    1.441699    0.000000
  H     -2.994060   -0.593909   -0.876871
  H     -1.887935   -1.654813    0.000000
  H     -2.994060   -0.593909    0.876871

 Total Charge           Charge          ....    0
 Multiplicity           Mult            ....    1
 Number of Electrons    NEL             ....   44
 Basis Dimension        Dim             ....  106

ORBITAL ENERGIES
----------------

  NO   OCC          E(Eh)            E(eV)
   0   2.0000     -10.451491      -284.3995
   1   2.0000     -10.448001      -284.3046
   2   2.0000     -10.445683      -284.2415
   3   2.0000     -10.442327      -284.1502
   4   2.0000     -10.436449      -283.9902
   5   2.0000     -10.429415      -283.7988
   6   2.0000      -0.966567       -26.3016
   7   2.0000      -0.857036       -23.3211
   8   2.0000      -0.751922       -20.4608
   9   2.0000      -0.732548       -19.9336
  10   2.0000      -0.646119       -17.5818
  11   2.0000      -0.577763       -15.7217
  12   2.0000      -0.548316       -14.9204
  13   2.0000      -0.494802       -13.4643
  14   2.0000      -0.483506       -13.1569
  15   2.0000      -0.461629       -12.5616
  16   2.0000      -0.446977       -12.1629
  17   2.0000      -0.417592       -11.3633
  18   2.0000      -0.389104       -10.5881
  19   2.0000      -0.368097       -10.0164
  20   2.0000      -0.336128        -9.1465
  21   2.0000      -0.258807        -7.0425
  22   0.0000       0.011560         0.3146
  23   0.0000       0.105164         2.8617
  24   0.0000       0.155456         4.2302
  25   0.0000       0.167320         4.5530
  26   0.0000       0.186428         5.0730

MULLIKEN ATOMIC CHARGES
-----------------------
   0 C :    0.151976
   1 C :   -0.471694
   2 C :   -0.198656
   3 C :   -0.232068
   4 C :   -0.319474
   5 C :   -0.683777
   6 H :    0.232143
   7 H :    0.232143
   8 H :    0.197995
   9 H :    0.209916
  10 H :    0.210282
  11 H :    0.224252
  12 H :    0.222710
  13 H :    0.224252
Sum of atomic charges:    0.0000000

LOEWDIN ATOMIC CHARGES
----------------------
   0 C :   -0.051820
   1 C :   -0.217649
   2 C :   -0.136327
   3 C :   -0.120090
   4 C :   -0.172294
   5 C :   -0.353247
   6 H :    0.132736
   7 H :    0.132736
   8 H :    0.127223
   9 H :    0.127080
  10 H :    0.132754
  11 H :    0.133719
  12 H :    0.131458
  13 H :    0.133719

  Mayer bond orders larger than 0.100000
B(  0-C ,  1-C ) :   0.9548 B(  0-C ,  2-C ) :   1.0651 B(  0-C ,  4-C ) :   1.7703
B(  1-C ,  3-C ) :   1.0099 B(  1-C ,  6-H ) :   0.9049 B(  1-C ,  7-H ) :   0.9049
B(  2-C ,  3-C ) :   1.7875 B(  2-C ,  8-H ) :   0.9312 B(  3-C ,  4-C ) :   0.1181
B(  3-C ,  9-H ) :   0.9269 B(  4-C ,  5-C ) :   1.0077 B(  4-C , 10-H ) :   0.9250
B(  5-C , 11-H ) :   0.9172 B(  5-C , 12-H ) :   0.9310 B(  5-C , 13-H ) :   0.9172

Dispersion correction           -0.005973380
FINAL SINGLE POINT ENERGY      -232.854656110325

DIPOLE MOMENT
-------------
                                X             Y             Z
Electronic contribution:      3.15817       0.21918      -0.00000
Nuclear contribution   :     -3.12911      -0.22361       0.00000
                        -----------------------------------------
Total Dipole Moment    :      0.02907      -0.00443      -0.00000
                        -----------------------------------------
Magnitude (a.u.)       :      0.02940
Magnitude (Debye)      :      0.07473

Rotational constants in cm-1:     0.331982     0.080999     0.066734
Rotational constants in MHz :  9952.569337  2428.286060  2000.648426

                             ****ORCA TERMINATED NORMALLY****
TOTAL RUN TIME: 0 days 0 hours 1 minutes 13 seconds 196 msec
