                         Program Version 5.0.3 -  RELEASE  -
|  1> ! PBEh-3c def2/J TightSCF DefGrid3
|  2>
|  3> %maxcore 60000
|  4>
|  5> %pal
|  6> nprocs 4
|  7> end
|  8>
|  9> *xyzfile 0 1 C5.xyz
| 10>
| 11>                          ****END OF INPUT****

CARTESIAN COORDINATES (ANGSTROEM)
---------------------------------
  C      2.858297    0.215473   -0.495507
  C      1.482536    0.747261   -0.056060
  C      0.331095   -0.135414   -0.558531
  C     -1.054414    0.107826    0.062011
  C     -1.741290   -1.238521   -0.178045
  O     -2.817199   -1.523683    0.701103
  C     -0.606713   -2.236405    0.048070
  O      3.250489   -0.902495    0.297490
  O     -1.812667    1.145173   -0.538524
  O      1.458984    0.916564    1.355796
  O      0.611674   -1.524502   -0.257916
  C     -1.709099    2.417017    0.096794
  H      3.617460    0.984206   -0.327320
  H      2.847083   -0.033947   -1.566104
  H      1.338601    1.740699   -0.501093
  H      0.257942   -0.012554   -1.651353
  H     -0.950781    0.276224    1.141848
  H     -2.085444   -1.263919   -1.222448
  H     -3.537686   -0.910151    0.502918
  H     -0.671541   -3.119321   -0.594639
  H     -0.592363   -2.554079    1.097213
  H      2.577604   -1.590929    0.159205
  H      2.037082    0.228733    1.725057
  H     -2.004055    2.356814    1.153024
  H     -0.692662    2.825981    0.039622
  H     -2.392928    3.083946   -0.432611

 Total Charge           Charge          ....    0
 Multiplicity           Mult            ....    1
 Number of Electrons    NEL             ....   96
 Basis Dimension        Dim             ....  208

ORBITAL ENERGIES
----------------

  NO   OCC          E(Eh)            E(eV)
   0   2.0000     -19.514440      -531.0149
   1   2.0000     -19.508968      -530.8660
   2   2.0000     -19.499614      -530.6115
   3   2.0000     -19.487848      -530.2913
   4   2.0000     -19.487447      -530.2804
   5   2.0000     -10.500788      -285.7410
   6   2.0000     -10.499366      -285.7023
   7   2.0000     -10.497148      -285.6419
   8   2.0000     -10.495568      -285.5989
   9   2.0000     -10.494643      -285.5738
  10   2.0000     -10.487784      -285.3871
  11   2.0000     -10.486587      -285.3545
  12   2.0000      -1.166367       -31.7384
  13   2.0000      -1.146233       -31.1906
  14   2.0000      -1.134787       -30.8791
  15   2.0000      -1.129029       -30.7224
  16   2.0000      -1.108113       -30.1533
  17   2.0000      -0.875450       -23.8222
  18   2.0000      -0.861120       -23.4323
  19   2.0000      -0.803458       -21.8632
  20   2.0000      -0.765004       -20.8168
  21   2.0000      -0.710139       -19.3239
  22   2.0000      -0.676013       -18.3953
  23   2.0000      -0.653510       -17.7829
  24   2.0000      -0.613995       -16.7077
  25   2.0000      -0.591321       -16.0907
  26   2.0000      -0.569941       -15.5089
  27   2.0000      -0.554422       -15.0866
  28   2.0000      -0.543616       -14.7925
  29   2.0000      -0.528195       -14.3729
  30   2.0000      -0.524526       -14.2731
  31   2.0000      -0.521635       -14.1944
  32   2.0000      -0.496480       -13.5099
  33   2.0000      -0.491652       -13.3785
  34   2.0000      -0.484274       -13.1778
  35   2.0000      -0.471243       -12.8232
  36   2.0000      -0.447324       -12.1723
  37   2.0000      -0.431455       -11.7405
  38   2.0000      -0.420663       -11.4468
  39   2.0000      -0.405826       -11.0431
  40   2.0000      -0.394422       -10.7328
  41   2.0000      -0.383095       -10.4246
  42   2.0000      -0.375028       -10.2050
  43   2.0000      -0.349450        -9.5090
  44   2.0000      -0.343567        -9.3489
  45   2.0000      -0.336003        -9.1431
  46   2.0000      -0.313708        -8.5364
  47   2.0000      -0.303495        -8.2585
  48   0.0000       0.092128         2.5069
  49   0.0000       0.115740         3.1495
  50   0.0000       0.131852         3.5879
  51   0.0000       0.149969         4.0809
  52   0.0000       0.161456         4.3934

MULLIKEN ATOMIC CHARGES
-----------------------
   0 C :   -0.186939
   1 C :   -0.019227
   2 C :    0.040126
   3 C :   -0.001118
   4 C :   -0.016852
   5 O :   -0.627493
   6 C :   -0.142289
   7 O :   -0.647685
   8 O :   -0.486970
   9 O :   -0.641137
  10 O :   -0.529455
  11 C :   -0.379739
  12 H :    0.228996
  13 H :    0.192175
  14 H :    0.212095
  15 H :    0.206443
  16 H :    0.234392
  17 H :    0.208275
  18 H :    0.424749
  19 H :    0.217788
  20 H :    0.221811
  21 H :    0.438380
  22 H :    0.427556
  23 H :    0.200924
  24 H :    0.203315
  25 H :    0.221881
Sum of atomic charges:    0.0000000

LOEWDIN ATOMIC CHARGES
----------------------
   0 C :   -0.100859
   1 C :   -0.051922
   2 C :   -0.025677
   3 C :   -0.034539
   4 C :   -0.035718
   5 O :   -0.393321
   6 C :   -0.072412
   7 O :   -0.420432
   8 O :   -0.260081
   9 O :   -0.401496
  10 O :   -0.277612
  11 C :   -0.180471
  12 H :    0.127072
  13 H :    0.108487
  14 H :    0.121828
  15 H :    0.115843
  16 H :    0.131769
  17 H :    0.114541
  18 H :    0.319252
  19 H :    0.122527
  20 H :    0.125357
  21 H :    0.310832
  22 H :    0.314973
  23 H :    0.109802
  24 H :    0.107898
  25 H :    0.124360

  Mayer bond orders larger than 0.100000
B(  0-C ,  1-C ) :   0.9407 B(  0-C ,  7-O ) :   1.0270 B(  0-C , 12-H ) :   0.9125
B(  0-C , 13-H ) :   0.9013 B(  1-C ,  2-C ) :   0.9177 B(  1-C ,  9-O ) :   1.0243
B(  1-C , 14-H ) :   0.8957 B(  2-C ,  3-C ) :   0.9185 B(  2-C , 10-O ) :   0.9145
B(  2-C , 15-H ) :   0.8866 B(  3-C ,  4-C ) :   0.9492 B(  3-C ,  8-O ) :   0.9490
B(  3-C , 16-H ) :   0.8677 B(  4-C ,  5-O ) :   1.0376 B(  4-C ,  6-C ) :   0.9584
B(  4-C , 17-H ) :   0.8873 B(  5-O , 18-H ) :   0.7820 B(  6-C , 10-O ) :   0.9471
B(  6-C , 19-H ) :   0.9119 B(  6-C , 20-H ) :   0.8962 B(  7-O , 21-H ) :   0.7346
B(  8-O , 11-C ) :   0.9598 B(  9-O , 22-H ) :   0.7547 B( 11-C , 23-H ) :   0.9139
B( 11-C , 24-H ) :   0.9058 B( 11-C , 25-H ) :   0.9284

Dispersion correction           -0.014447918
FINAL SINGLE POINT ENERGY      -649.849097771114

DIPOLE MOMENT
-------------
                                X             Y             Z
Electronic contribution:     -0.04792      -3.66656       0.71547
Nuclear contribution   :     -0.63555       4.05862      -1.27353
                        -----------------------------------------
Total Dipole Moment    :     -0.68347       0.39205      -0.55806
                        -----------------------------------------
Magnitude (a.u.)       :      0.96554
Magnitude (Debye)      :      2.45422

Rotational constants in cm-1:     0.043497     0.023013     0.017051
Rotational constants in MHz :  1303.998062   689.925243   511.179026

                             ****ORCA TERMINATED NORMALLY****
TOTAL RUN TIME: 0 days 0 hours 2 minutes 38 seconds 306 msec
