                         Program Version 5.0.3 -  RELEASE  -
|  1> ! PBEh-3c def2/J TightSCF DefGrid3
|  2>
|  3> %maxcore 60000
|  4>
|  5> %pal
|  6> nprocs 4
|  7> end
|  8>
|  9> *xyzfile 0 1 30A.xyz
| 10>
| 11>                          ****END OF INPUT****

CARTESIAN COORDINATES (ANGSTROEM)
---------------------------------
  C      1.206757    0.696721    0.000000
  H      2.143479    1.237538    0.000000
  C      1.206757   -0.696721    0.000000
  H      2.143479   -1.237538    0.000000
  C      0.000000   -1.393443    0.000000
  H      0.000000   -2.475076    0.000000
  C     -1.206757   -0.696721    0.000000
  H     -2.143479   -1.237538    0.000000
  C     -1.206757    0.696721    0.000000
  H     -2.143479    1.237538    0.000000
  C      0.000000    1.393443    0.000000
  H      0.000000    2.475076    0.000000

 Total Charge           Charge          ....    0
 Multiplicity           Mult            ....    1
 Number of Electrons    NEL             ....   42
 Basis Dimension        Dim             ....  102

ORBITAL ENERGIES
----------------

  NO   OCC          E(Eh)            E(eV)
   0   2.0000     -10.448646      -284.3221
   1   2.0000     -10.448426      -284.3161
   2   2.0000     -10.448424      -284.3161
   3   2.0000     -10.447811      -284.2994
   4   2.0000     -10.447809      -284.2993
   5   2.0000     -10.447580      -284.2931
   6   2.0000      -0.952315       -25.9138
   7   2.0000      -0.835570       -22.7370
   8   2.0000      -0.835570       -22.7370
   9   2.0000      -0.679014       -18.4769
  10   2.0000      -0.679014       -18.4769
  11   2.0000      -0.592080       -16.1113
  12   2.0000      -0.525794       -14.3076
  13   2.0000      -0.508580       -13.8392
  14   2.0000      -0.481793       -13.1103
  15   2.0000      -0.481791       -13.1102
  16   2.0000      -0.421018       -11.4565
  17   2.0000      -0.398281       -10.8378
  18   2.0000      -0.398281       -10.8378
  19   2.0000      -0.292534        -7.9603
  20   2.0000      -0.292531        -7.9602
  21   0.0000       0.019274         0.5245
  22   0.0000       0.019275         0.5245
  23   0.0000       0.140708         3.8289
  24   0.0000       0.196454         5.3458
  25   0.0000       0.201745         5.4898

MULLIKEN ATOMIC CHARGES
-----------------------
   0 C :   -0.219808
   1 H :    0.219808
   2 C :   -0.219809
   3 H :    0.219808
   4 C :   -0.219821
   5 H :    0.219821
   6 C :   -0.219808
   7 H :    0.219808
   8 C :   -0.219808
   9 H :    0.219808
  10 C :   -0.219821
  11 H :    0.219821
Sum of atomic charges:   -0.0000000

LOEWDIN ATOMIC CHARGES
----------------------
   0 C :   -0.135669
   1 H :    0.135671
   2 C :   -0.135669
   3 H :    0.135671
   4 C :   -0.135675
   5 H :    0.135670
   6 C :   -0.135668
   7 H :    0.135671
   8 C :   -0.135668
   9 H :    0.135671
  10 C :   -0.135675
  11 H :    0.135670

  Mayer bond orders larger than 0.100000
B(  0-C ,  1-H ) :   0.9200 B(  0-C ,  2-C ) :   1.4266 B(  0-C , 10-C ) :   1.4265
B(  2-C ,  3-H ) :   0.9200 B(  2-C ,  4-C ) :   1.4265 B(  4-C ,  5-H ) :   0.9200
B(  4-C ,  6-C ) :   1.4265 B(  6-C ,  7-H ) :   0.9200 B(  6-C ,  8-C ) :   1.4266
B(  8-C ,  9-H ) :   0.9200 B(  8-C , 10-C ) :   1.4265 B( 10-C , 11-H ) :   0.9200

Dispersion correction           -0.005881224
FINAL SINGLE POINT ENERGY      -231.725828512074

DIPOLE MOMENT
-------------
                                X             Y             Z
Electronic contribution:     -0.00000       0.00000       0.00000
Nuclear contribution   :     -0.00000       0.00000       0.00000
                        -----------------------------------------
Total Dipole Moment    :     -0.00000       0.00000       0.00000
                        -----------------------------------------
Magnitude (a.u.)       :      0.00000
Magnitude (Debye)      :      0.00000

Rotational constants in cm-1:     0.190504     0.190504     0.095252
Rotational constants in MHz :  5711.167111  5711.166980  2855.583523

                             ****ORCA TERMINATED NORMALLY****
TOTAL RUN TIME: 0 days 0 hours 1 minutes 18 seconds 335 msec
