                         Program Version 5.0.3 -  RELEASE  -
|  1> ! PBEh-3c def2/J TightSCF DefGrid3
|  2>
|  3> %maxcore 60000
|  4>
|  5> %pal
|  6> nprocs 4
|  7> end
|  8>
|  9> *xyzfile 0 1 65A.xyz
| 10>
| 11>                          ****END OF INPUT****

CARTESIAN COORDINATES (ANGSTROEM)
---------------------------------
  N      0.000000    0.000000    1.608483
  C      1.143123    0.000000    0.909000
  H      2.055937    0.000000    1.491808
  C      1.194498    0.000000   -0.481952
  H      2.149078    0.000000   -0.988184
  C      0.000000    0.000000   -1.194483
  H      0.000000    0.000000   -2.275550
  C     -1.194498    0.000000   -0.481952
  H     -2.149078    0.000000   -0.988184
  C     -1.143123    0.000000    0.909000
  H     -2.055937    0.000000    1.491808

 Total Charge           Charge          ....    0
 Multiplicity           Mult            ....    1
 Number of Electrons    NEL             ....   42
 Basis Dimension        Dim             ....  100

ORBITAL ENERGIES
----------------

  NO   OCC          E(Eh)            E(eV)
   0   2.0000     -14.640156      -398.3789
   1   2.0000     -10.483156      -285.2612
   2   2.0000     -10.483125      -285.2603
   3   2.0000     -10.470937      -284.9287
   4   2.0000     -10.459193      -284.6091
   5   2.0000     -10.459182      -284.6088
   6   2.0000      -1.046329       -28.4721
   7   2.0000      -0.901920       -24.5425
   8   2.0000      -0.855144       -23.2696
   9   2.0000      -0.709944       -19.3186
  10   2.0000      -0.709746       -19.3132
  11   2.0000      -0.601370       -16.3641
  12   2.0000      -0.547294       -14.8926
  13   2.0000      -0.537592       -14.6286
  14   2.0000      -0.492606       -13.4045
  15   2.0000      -0.467964       -12.7340
  16   2.0000      -0.456257       -12.4154
  17   2.0000      -0.422157       -11.4875
  18   2.0000      -0.333422        -9.0729
  19   2.0000      -0.313534        -8.5317
  20   2.0000      -0.306359        -8.3365
  21   0.0000      -0.004564        -0.1242
  22   0.0000       0.008877         0.2416
  23   0.0000       0.144998         3.9456
  24   0.0000       0.182291         4.9604
  25   0.0000       0.195939         5.3318

MULLIKEN ATOMIC CHARGES
-----------------------
   0 N :   -0.360708
   1 C :   -0.037742
   2 H :    0.233509
   3 C :   -0.298124
   4 H :    0.232018
   5 C :   -0.133520
   6 H :    0.234904
   7 C :   -0.298124
   8 H :    0.232018
   9 C :   -0.037742
  10 H :    0.233509
Sum of atomic charges:    0.0000000

LOEWDIN ATOMIC CHARGES
----------------------
   0 N :   -0.139906
   1 C :   -0.056589
   2 H :    0.130380
   3 C :   -0.164411
   4 H :    0.141954
   5 C :   -0.103754
   6 H :    0.140993
   7 C :   -0.164411
   8 H :    0.141954
   9 C :   -0.056589
  10 H :    0.130380

  Mayer bond orders larger than 0.100000
B(  0-N ,  1-C ) :   1.4976 B(  0-N ,  9-C ) :   1.4976 B(  1-C ,  2-H ) :   0.9171
B(  1-C ,  3-C ) :   1.3824 B(  3-C ,  4-H ) :   0.9129 B(  3-C ,  5-C ) :   1.4140
B(  5-C ,  6-H ) :   0.9183 B(  5-C ,  7-C ) :   1.4140 B(  7-C ,  8-H ) :   0.9129
B(  7-C ,  9-C ) :   1.3824 B(  9-C , 10-H ) :   0.9171

Dispersion correction           -0.005322702
FINAL SINGLE POINT ENERGY      -247.729375658138

DIPOLE MOMENT
-------------
                                X             Y             Z
Electronic contribution:      0.00000       0.00000       1.32738
Nuclear contribution   :     -0.00000       0.00000      -2.20004
                        -----------------------------------------
Total Dipole Moment    :      0.00000       0.00000      -0.87265
                        -----------------------------------------
Magnitude (a.u.)       :      0.87265
Magnitude (Debye)      :      2.21810

Rotational constants in cm-1:     0.201893     0.194311     0.099015
Rotational constants in MHz :  6052.609104  5825.309814  2968.392313

                             ****ORCA TERMINATED NORMALLY****
TOTAL RUN TIME: 0 days 0 hours 1 minutes 30 seconds 635 msec
