                         Program Version 5.0.3 -  RELEASE  -
|  1> ! PBEh-3c def2/J TightSCF DefGrid3
|  2>
|  3> %maxcore 60000
|  4>
|  5> %pal
|  6> nprocs 4
|  7> end
|  8>
|  9> *xyzfile 0 1 octane2.xyz
| 10>
| 11>                          ****END OF INPUT****

CARTESIAN COORDINATES (ANGSTROEM)
---------------------------------
  C     -4.460470   -0.268215    0.000000
  C     -3.165922    0.536615    0.000000
  C     -1.923952   -0.346724    0.000000
  C     -0.620456    0.442250    0.000000
  C      0.620456   -0.442250    0.000000
  C      1.923952    0.346724    0.000000
  C      3.165922   -0.536615    0.000000
  C      4.460470    0.268215    0.000000
  H     -5.336991    0.380956    0.000000
  H     -4.517262   -0.908855   -0.881915
  H     -4.517262   -0.908855    0.881915
  H     -3.137930    1.188814    0.877663
  H     -3.137930    1.188814   -0.877663
  H     -1.947560   -1.000295    0.878471
  H     -1.947560   -1.000295   -0.878471
  H     -0.595439    1.095478    0.878561
  H     -0.595439    1.095478   -0.878561
  H      0.595439   -1.095478    0.878561
  H      0.595439   -1.095478   -0.878561
  H      1.947560    1.000295    0.878471
  H      1.947560    1.000295   -0.878471
  H      3.137930   -1.188814    0.877663
  H      3.137930   -1.188814   -0.877663
  H      4.517262    0.908855    0.881915
  H      5.336991   -0.380956    0.000000
  H      4.517262    0.908855   -0.881915

 Total Charge           Charge          ....    0
 Multiplicity           Mult            ....    1
 Number of Electrons    NEL             ....   66
 Basis Dimension        Dim             ....  156

ORBITAL ENERGIES
----------------

  NO   OCC          E(Eh)            E(eV)
   0   2.0000     -10.427128      -283.7366
   1   2.0000     -10.427124      -283.7365
   2   2.0000     -10.425360      -283.6885
   3   2.0000     -10.425231      -283.6850
   4   2.0000     -10.425046      -283.6799
   5   2.0000     -10.424971      -283.6779
   6   2.0000     -10.419378      -283.5257
   7   2.0000     -10.419375      -283.5256
   8   2.0000      -0.903049       -24.5732
   9   2.0000      -0.877203       -23.8699
  10   2.0000      -0.835481       -22.7346
  11   2.0000      -0.780979       -21.2515
  12   2.0000      -0.719377       -19.5753
  13   2.0000      -0.663687       -18.0598
  14   2.0000      -0.644357       -17.5338
  15   2.0000      -0.639950       -17.4139
  16   2.0000      -0.545736       -14.8502
  17   2.0000      -0.522411       -14.2155
  18   2.0000      -0.494056       -13.4440
  19   2.0000      -0.487059       -13.2535
  20   2.0000      -0.472881       -12.8677
  21   2.0000      -0.467810       -12.7298
  22   2.0000      -0.445708       -12.1283
  23   2.0000      -0.435295       -11.8450
  24   2.0000      -0.407042       -11.0762
  25   2.0000      -0.404062       -10.9951
  26   2.0000      -0.399991       -10.8843
  27   2.0000      -0.379636       -10.3304
  28   2.0000      -0.376807       -10.2534
  29   2.0000      -0.367452        -9.9989
  30   2.0000      -0.366942        -9.9850
  31   2.0000      -0.365024        -9.9328
  32   2.0000      -0.345879        -9.4118
  33   0.0000       0.131289         3.5726
  34   0.0000       0.144048         3.9197
  35   0.0000       0.155716         4.2372
  36   0.0000       0.173191         4.7128
  37   0.0000       0.178995         4.8707

MULLIKEN ATOMIC CHARGES
-----------------------
   0 C :   -0.638155
   1 C :   -0.409460
   2 C :   -0.394949
   3 C :   -0.399136
   4 C :   -0.399137
   5 C :   -0.394950
   6 C :   -0.409459
   7 C :   -0.638154
   8 H :    0.218120
   9 H :    0.208467
  10 H :    0.208467
  11 H :    0.204158
  12 H :    0.204158
  13 H :    0.199358
  14 H :    0.199358
  15 H :    0.199808
  16 H :    0.199808
  17 H :    0.199807
  18 H :    0.199807
  19 H :    0.199358
  20 H :    0.199358
  21 H :    0.204158
  22 H :    0.204158
  23 H :    0.208467
  24 H :    0.218119
  25 H :    0.208467
Sum of atomic charges:    0.0000000

LOEWDIN ATOMIC CHARGES
----------------------
   0 C :   -0.361845
   1 C :   -0.245644
   2 C :   -0.239607
   3 C :   -0.238009
   4 C :   -0.238009
   5 C :   -0.239607
   6 C :   -0.245644
   7 C :   -0.361845
   8 H :    0.125788
   9 H :    0.123262
  10 H :    0.123262
  11 H :    0.119242
  12 H :    0.119242
  13 H :    0.118386
  14 H :    0.118386
  15 H :    0.118768
  16 H :    0.118768
  17 H :    0.118768
  18 H :    0.118768
  19 H :    0.118386
  20 H :    0.118386
  21 H :    0.119242
  22 H :    0.119242
  23 H :    0.123262
  24 H :    0.125788
  25 H :    0.123262

  Mayer bond orders larger than 0.100000
B(  0-C ,  1-C ) :   0.9982 B(  0-C ,  8-H ) :   0.9323 B(  0-C ,  9-H ) :   0.9297
B(  0-C , 10-H ) :   0.9297 B(  1-C ,  2-C ) :   0.9908 B(  1-C , 11-H ) :   0.9208
B(  1-C , 12-H ) :   0.9208 B(  2-C ,  3-C ) :   0.9960 B(  2-C , 13-H ) :   0.9187
B(  2-C , 14-H ) :   0.9187 B(  3-C ,  4-C ) :   0.9947 B(  3-C , 15-H ) :   0.9187
B(  3-C , 16-H ) :   0.9187 B(  4-C ,  5-C ) :   0.9960 B(  4-C , 17-H ) :   0.9187
B(  4-C , 18-H ) :   0.9187 B(  5-C ,  6-C ) :   0.9908 B(  5-C , 19-H ) :   0.9187
B(  5-C , 20-H ) :   0.9187 B(  6-C ,  7-C ) :   0.9982 B(  6-C , 21-H ) :   0.9208
B(  6-C , 22-H ) :   0.9208 B(  7-C , 23-H ) :   0.9297 B(  7-C , 24-H ) :   0.9323
B(  7-C , 25-H ) :   0.9297

Dispersion correction           -0.011951637
FINAL SINGLE POINT ENERGY      -315.016833946647

DIPOLE MOMENT
-------------
                                X             Y             Z
Electronic contribution:      0.00000      -0.00000      -0.00000
Nuclear contribution   :      0.00000       0.00000       0.00000
                        -----------------------------------------
Total Dipole Moment    :      0.00000      -0.00000      -0.00000
                        -----------------------------------------
Magnitude (a.u.)       :      0.00000
Magnitude (Debye)      :      0.00000

Rotational constants in cm-1:     0.359502     0.016439     0.016094
Rotational constants in MHz : 10777.602381   492.829013   482.496241

                             ****ORCA TERMINATED NORMALLY****
TOTAL RUN TIME: 0 days 0 hours 1 minutes 46 seconds 477 msec
