                         Program Version 5.0.3 -  RELEASE  -
|  1> ! PBEh-3c def2/J TightSCF DefGrid3
|  2>
|  3> %maxcore 60000
|  4>
|  5> %pal
|  6> nprocs 4
|  7> end
|  8>
|  9> *xyzfile 0 1 SO2.xyz
| 10>
| 11>                          ****END OF INPUT****

CARTESIAN COORDINATES (ANGSTROEM)
---------------------------------
  O     -1.965056    0.038544    0.187937
  S     -0.780344    0.850831    0.097174
  O      0.498400    0.205625   -0.042111

 Total Charge           Charge          ....    0
 Multiplicity           Mult            ....    1
 Number of Electrons    NEL             ....   32
 Basis Dimension        Dim             ....   48

ORBITAL ENERGIES
----------------

  NO   OCC          E(Eh)            E(eV)
   0   2.0000     -89.792573     -2443.3801
   1   2.0000     -19.552680      -532.0555
   2   2.0000     -19.552616      -532.0537
   3   2.0000      -8.411424      -228.8865
   4   2.0000      -6.301863      -171.4824
   5   2.0000      -6.301641      -171.4764
   6   2.0000      -6.295386      -171.3062
   7   2.0000      -1.262087       -34.3431
   8   2.0000      -1.163171       -31.6515
   9   2.0000      -0.712970       -19.4009
  10   2.0000      -0.561543       -15.2804
  11   2.0000      -0.559330       -15.2201
  12   2.0000      -0.557350       -15.1663
  13   2.0000      -0.421904       -11.4806
  14   2.0000      -0.416130       -11.3235
  15   2.0000      -0.383226       -10.4281
  16   0.0000      -0.098818        -2.6890
  17   0.0000       0.108593         2.9550
  18   0.0000       0.135934         3.6990
  19   0.0000       0.332236         9.0406
  20   0.0000       0.584036        15.8924

MULLIKEN ATOMIC CHARGES
-----------------------
   0 O :   -0.505282
   1 S :    1.010417
   2 O :   -0.505135
Sum of atomic charges:   -0.0000000

LOEWDIN ATOMIC CHARGES
----------------------
   0 O :   -0.432972
   1 S :    0.865786
   2 O :   -0.432814

  Mayer bond orders larger than 0.100000
B(  0-O ,  1-S ) :   1.8399 B(  0-O ,  2-O ) :   0.2167 B(  1-S ,  2-O ) :   1.8400

Dispersion correction           -0.000668481
FINAL SINGLE POINT ENERGY      -547.828562887825

DIPOLE MOMENT
-------------
                                X             Y             Z
Electronic contribution:     -0.04803       0.74972       0.02492
Nuclear contribution   :      0.00138      -0.02133      -0.00071
                        -----------------------------------------
Total Dipole Moment    :     -0.04666       0.72840       0.02421
                        -----------------------------------------
Magnitude (a.u.)       :      0.73029
Magnitude (Debye)      :      1.85625

Rotational constants in cm-1:     1.971736     0.342687     0.291947
Rotational constants in MHz : 59111.168087 10273.496869  8752.343196

                             ****ORCA TERMINATED NORMALLY****
TOTAL RUN TIME: 0 days 0 hours 0 minutes 24 seconds 741 msec
