                         Program Version 5.0.3 -  RELEASE  -
|  1> ! PBEh-3c def2/J TightSCF DefGrid3
|  2>
|  3> %maxcore 60000
|  4>
|  5> %pal
|  6> nprocs 4
|  7> end
|  8>
|  9> *xyzfile 0 1 34B.xyz
| 10>
| 11>                          ****END OF INPUT****

CARTESIAN COORDINATES (ANGSTROEM)
---------------------------------
  C      0.299675    0.034333    2.533559
  H      1.034066   -0.770224    2.568126
  H      0.842028    0.979316    2.564050
  H     -0.309022   -0.031276    3.434254
  C     -0.547935   -0.059814    1.271752
  H     -1.291683    0.740400    1.266326
  H     -1.107668   -0.998266    1.270635
  C      0.285006    0.025634    0.000000
  H      0.847752    0.963957    0.000000
  H      1.028216   -0.777270    0.000000
  C     -0.547935   -0.059814   -1.271752
  H     -1.291683    0.740400   -1.266326
  H     -1.107668   -0.998266   -1.270635
  C      0.299675    0.034333   -2.533559
  H      1.034066   -0.770224   -2.568126
  H     -0.309022   -0.031276   -3.434254
  H      0.842028    0.979316   -2.564050

 Total Charge           Charge          ....    0
 Multiplicity           Mult            ....    1
 Number of Electrons    NEL             ....   42
 Basis Dimension        Dim             ....   99

ORBITAL ENERGIES
----------------

  NO   OCC          E(Eh)            E(eV)
   0   2.0000     -10.426727      -283.7257
   1   2.0000     -10.426701      -283.7250
   2   2.0000     -10.424655      -283.6693
   3   2.0000     -10.418828      -283.5107
   4   2.0000     -10.418819      -283.5105
   5   2.0000      -0.893156       -24.3040
   6   2.0000      -0.836912       -22.7735
   7   2.0000      -0.754657       -20.5353
   8   2.0000      -0.670538       -18.2463
   9   2.0000      -0.644159       -17.5285
  10   2.0000      -0.536093       -14.5878
  11   2.0000      -0.494931       -13.4678
  12   2.0000      -0.488181       -13.2841
  13   2.0000      -0.457627       -12.4527
  14   2.0000      -0.447143       -12.1674
  15   2.0000      -0.428094       -11.6490
  16   2.0000      -0.402142       -10.9428
  17   2.0000      -0.382238       -10.4012
  18   2.0000      -0.373041       -10.1510
  19   2.0000      -0.366195        -9.9647
  20   2.0000      -0.361598        -9.8396
  21   0.0000       0.137439         3.7399
  22   0.0000       0.155152         4.2219
  23   0.0000       0.185421         5.0456
  24   0.0000       0.186652         5.0791
  25   0.0000       0.202697         5.5157

MULLIKEN ATOMIC CHARGES
-----------------------
   0 C :   -0.638627
   1 H :    0.208856
   2 H :    0.208781
   3 H :    0.218382
   4 C :   -0.410008
   5 H :    0.204380
   6 H :    0.204412
   7 C :   -0.390891
   8 H :    0.199120
   9 H :    0.199422
  10 C :   -0.410008
  11 H :    0.204380
  12 H :    0.204412
  13 C :   -0.638627
  14 H :    0.208856
  15 H :    0.218382
  16 H :    0.208781
Sum of atomic charges:   -0.0000000

LOEWDIN ATOMIC CHARGES
----------------------
   0 C :   -0.361929
   1 H :    0.123325
   2 H :    0.123357
   3 H :    0.125763
   4 C :   -0.246238
   5 H :    0.119225
   6 H :    0.119206
   7 C :   -0.241569
   8 H :    0.118025
   9 H :    0.118127
  10 C :   -0.246238
  11 H :    0.119225
  12 H :    0.119206
  13 C :   -0.361929
  14 H :    0.123325
  15 H :    0.125763
  16 H :    0.123357

  Mayer bond orders larger than 0.100000
B(  0-C ,  1-H ) :   0.9296 B(  0-C ,  2-H ) :   0.9296 B(  0-C ,  3-H ) :   0.9324
B(  0-C ,  4-C ) :   0.9986 B(  4-C ,  5-H ) :   0.9204 B(  4-C ,  6-H ) :   0.9204
B(  4-C ,  7-C ) :   0.9923 B(  7-C ,  8-H ) :   0.9183 B(  7-C ,  9-H ) :   0.9182
B(  7-C , 10-C ) :   0.9923 B( 10-C , 11-H ) :   0.9204 B( 10-C , 12-H ) :   0.9204
B( 10-C , 13-C ) :   0.9986 B( 13-C , 14-H ) :   0.9296 B( 13-C , 15-H ) :   0.9324
B( 13-C , 16-H ) :   0.9296

Dispersion correction           -0.006815871
FINAL SINGLE POINT ENERGY      -197.333895343431

DIPOLE MOMENT
-------------
                                X             Y             Z
Electronic contribution:     -0.58142      -0.07031       0.00000
Nuclear contribution   :      0.56150       0.06823      -0.00000
                        -----------------------------------------
Total Dipole Moment    :     -0.01992      -0.00208       0.00000
                        -----------------------------------------
Magnitude (a.u.)       :      0.02003
Magnitude (Debye)      :      0.05090

Rotational constants in cm-1:     0.569763     0.065438     0.062045
Rotational constants in MHz : 17081.058981  1961.794772  1860.062694

                             ****ORCA TERMINATED NORMALLY****
TOTAL RUN TIME: 0 days 0 hours 1 minutes 3 seconds 476 msec
