                         Program Version 5.0.3 -  RELEASE  -
|  1> ! PBEh-3c def2/J TightSCF DefGrid3
|  2>
|  3> %maxcore 60000
|  4>
|  5> %pal
|  6> nprocs 4
|  7> end
|  8>
|  9> *xyzfile 0 1 bhf2.xyz
| 10>
| 11>                          ****END OF INPUT****

CARTESIAN COORDINATES (ANGSTROEM)
---------------------------------
  B      0.000000    0.490973    0.000000
  H      0.000000    1.676326    0.000000
  F     -1.126643   -0.184147    0.000000
  F      1.126643   -0.184147    0.000000

 Total Charge           Charge          ....    0
 Multiplicity           Mult            ....    1
 Number of Electrons    NEL             ....   24
 Basis Dimension        Dim             ....   47

ORBITAL ENERGIES
----------------

  NO   OCC          E(Eh)            E(eV)
   0   2.0000     -25.120752      -683.5704
   1   2.0000     -25.120694      -683.5688
   2   2.0000      -7.082547      -192.7259
   3   2.0000      -1.371853       -37.3300
   4   2.0000      -1.341054       -36.4919
   5   2.0000      -0.665528       -18.1099
   6   2.0000      -0.612087       -16.6557
   7   2.0000      -0.592767       -16.1300
   8   2.0000      -0.569016       -15.4837
   9   2.0000      -0.513733       -13.9794
  10   2.0000      -0.500506       -13.6195
  11   2.0000      -0.441333       -12.0093
  12   0.0000       0.025682         0.6988
  13   0.0000       0.157640         4.2896
  14   0.0000       0.178297         4.8517
  15   0.0000       0.264416         7.1951
  16   0.0000       0.310337         8.4447

MULLIKEN ATOMIC CHARGES
-----------------------
   0 B :    0.545940
   1 H :   -0.008165
   2 F :   -0.268888
   3 F :   -0.268888
Sum of atomic charges:   -0.0000000

LOEWDIN ATOMIC CHARGES
----------------------
   0 B :    0.234526
   1 H :   -0.013712
   2 F :   -0.110407
   3 F :   -0.110407

  Mayer bond orders larger than 0.100000
B(  0-B ,  1-H ) :   0.9578 B(  0-B ,  2-F ) :   1.1486 B(  0-B ,  3-F ) :   1.1486

Dispersion correction           -0.000547918
FINAL SINGLE POINT ENERGY      -224.806858990189

DIPOLE MOMENT
-------------
                                X             Y             Z
Electronic contribution:      0.00000      -1.19238      -0.00000
Nuclear contribution   :      0.00000       1.54277       0.00000
                        -----------------------------------------
Total Dipole Moment    :      0.00000       0.35039      -0.00000
                        -----------------------------------------
Magnitude (a.u.)       :      0.35039
Magnitude (Debye)      :      0.89063

Rotational constants in cm-1:     2.506043     0.349532     0.306748
Rotational constants in MHz : 75129.290692 10478.693961  9196.067959

                             ****ORCA TERMINATED NORMALLY****
TOTAL RUN TIME: 0 days 0 hours 0 minutes 16 seconds 715 msec
