                         Program Version 5.0.3 -  RELEASE  -
|  1> ! PBEh-3c def2/J TightSCF DefGrid3
|  2>
|  3> %maxcore 60000
|  4>
|  5> %pal
|  6> nprocs 4
|  7> end
|  8>
|  9> *xyzfile -1 1 OHmH2O5.xyz
| 10>
| 11>                          ****END OF INPUT****

CARTESIAN COORDINATES (ANGSTROEM)
---------------------------------
  H      1.501277   -0.388199   -0.068744
  H      0.069545   -2.003145   -0.093697
  H     -1.297487   -0.375854    0.320736
  O      0.093992    1.974966   -1.170231
  O      1.937020   -0.243458   -0.953573
  O     -0.155523   -2.513446   -0.910740
  O     -1.961692   -0.060020   -0.328932
  H      0.775719    1.282419   -1.265048
  H      1.561487   -0.972249   -1.462770
  H     -0.948701   -2.048714   -1.203639
  H     -1.471823    0.633694   -0.799796
  O      0.333005   -0.718436    1.140086
  H      0.554923   -1.189019    1.946559
  O     -0.112411    1.819088    1.734215
  H      0.084518    2.134098   -0.209162
  H     -1.073601    1.822590    1.748315
  H      0.109752    0.845684    1.576420

 Total Charge           Charge          ....   -1
 Multiplicity           Mult            ....    1
 Number of Electrons    NEL             ....   60
 Basis Dimension        Dim             ....  112

ORBITAL ENERGIES
----------------

  NO   OCC          E(Eh)            E(eV)
   0   2.0000     -19.309974      -525.4511
   1   2.0000     -19.303181      -525.2663
   2   2.0000     -19.301522      -525.2211
   3   2.0000     -19.299391      -525.1631
   4   2.0000     -19.295481      -525.0567
   5   2.0000     -19.258331      -524.0458
   6   2.0000      -0.937694       -25.5159
   7   2.0000      -0.928623       -25.2691
   8   2.0000      -0.922636       -25.1062
   9   2.0000      -0.919668       -25.0254
  10   2.0000      -0.912865       -24.8403
  11   2.0000      -0.837567       -22.7914
  12   2.0000      -0.411706       -11.2031
  13   2.0000      -0.404300       -11.0016
  14   2.0000      -0.400630       -10.9017
  15   2.0000      -0.396838       -10.7985
  16   2.0000      -0.393309       -10.7025
  17   2.0000      -0.314702        -8.5635
  18   2.0000      -0.289456        -7.8765
  19   2.0000      -0.284206        -7.7336
  20   2.0000      -0.274303        -7.4642
  21   2.0000      -0.266207        -7.2439
  22   2.0000      -0.249536        -6.7902
  23   2.0000      -0.197678        -5.3791
  24   2.0000      -0.191706        -5.2166
  25   2.0000      -0.187736        -5.1086
  26   2.0000      -0.184884        -5.0309
  27   2.0000      -0.183176        -4.9845
  28   2.0000      -0.145487        -3.9589
  29   2.0000      -0.143969        -3.9176
  30   0.0000       0.263390         7.1672
  31   0.0000       0.312200         8.4954
  32   0.0000       0.332235         9.0406
  33   0.0000       0.355689         9.6788
  34   0.0000       0.372333        10.1317

MULLIKEN ATOMIC CHARGES
-----------------------
   0 H :    0.433365
   1 H :    0.417722
   2 H :    0.416419
   3 O :   -0.913603
   4 O :   -0.902880
   5 O :   -0.912863
   6 O :   -0.927747
   7 H :    0.423272
   8 H :    0.402044
   9 H :    0.399357
  10 H :    0.406077
  11 O :   -0.935171
  12 H :    0.353104
  13 O :   -0.894826
  14 H :    0.416193
  15 H :    0.387001
  16 H :    0.432538
Sum of atomic charges:   -1.0000000

LOEWDIN ATOMIC CHARGES
----------------------
   0 H :    0.292283
   1 H :    0.284931
   2 H :    0.283794
   3 O :   -0.653886
   4 O :   -0.652024
   5 O :   -0.667235
   6 O :   -0.671040
   7 H :    0.290695
   8 H :    0.288129
   9 H :    0.286940
  10 H :    0.285340
  11 O :   -0.820347
  12 H :    0.247275
  13 O :   -0.658681
  14 H :    0.287547
  15 H :    0.282956
  16 H :    0.293323

  Mayer bond orders larger than 0.100000
B(  0-H ,  4-O ) :   0.6478 B(  0-H , 11-O ) :   0.1935 B(  1-H ,  5-O ) :   0.6775
B(  1-H , 11-O ) :   0.1733 B(  2-H ,  6-O ) :   0.7012 B(  2-H , 11-O ) :   0.1429
B(  3-O ,  7-H ) :   0.7199 B(  3-O , 10-H ) :   0.1055 B(  3-O , 14-H ) :   0.7295
B(  4-O ,  7-H ) :   0.1291 B(  4-O ,  8-H ) :   0.7896 B(  5-O ,  9-H ) :   0.7965
B(  6-O , 10-H ) :   0.7537 B( 11-O , 12-H ) :   0.8335 B( 11-O , 16-H ) :   0.2282
B( 13-O , 14-H ) :   0.1216 B( 13-O , 15-H ) :   0.8232 B( 13-O , 16-H ) :   0.6132

Dispersion correction           -0.006259056
FINAL SINGLE POINT ENERGY      -457.073586790999

DIPOLE MOMENT
-------------
                                X             Y             Z
Electronic contribution:      0.07615       0.41375      -0.57526
Nuclear contribution   :     -0.31993      -0.61584       1.16451
                        -----------------------------------------
Total Dipole Moment    :     -0.24377      -0.20209       0.58925
                        -----------------------------------------
Magnitude (a.u.)       :      0.66894
Magnitude (Debye)      :      1.70031

Rotational constants in cm-1:     0.066324     0.045016     0.041342
Rotational constants in MHz :  1988.347398  1349.531983  1239.408091

                             ****ORCA TERMINATED NORMALLY****
TOTAL RUN TIME: 0 days 0 hours 1 minutes 34 seconds 736 msec
