                         Program Version 5.0.3 -  RELEASE  -
|  1> ! PBEh-3c def2/J TightSCF DefGrid3
|  2>
|  3> %maxcore 60000
|  4>
|  5> %pal
|  6> nprocs 4
|  7> end
|  8>
|  9> *xyzfile -1 1 EA_13.xyz
| 10>
| 11>                          ****END OF INPUT****

CARTESIAN COORDINATES (ANGSTROEM)
---------------------------------
  O      0.000000    0.000000    0.484235
  H      0.000000    0.000000   -0.484235

 Total Charge           Charge          ....   -1
 Multiplicity           Mult            ....    1
 Number of Electrons    NEL             ....   10
 Basis Dimension        Dim             ....   17

ORBITAL ENERGIES
----------------

  NO   OCC          E(Eh)            E(eV)
   0   2.0000     -18.994885      -516.8771
   1   2.0000      -0.579367       -15.7654
   2   2.0000      -0.042938        -1.1684
   3   2.0000       0.106074         2.8864
   4   2.0000       0.106074         2.8864
   5   0.0000       0.486813        13.2469
   6   0.0000       1.317080        35.8396
   7   0.0000       1.413479        38.4627
   8   0.0000       1.413479        38.4627
   9   0.0000       1.467704        39.9382

MULLIKEN ATOMIC CHARGES
-----------------------
   0 O :   -1.192198
   1 H :    0.192198
Sum of atomic charges:   -1.0000000

LOEWDIN ATOMIC CHARGES
----------------------
   0 O :   -1.138818
   1 H :    0.138818

  Mayer bond orders larger than 0.100000
B(  0-O ,  1-H ) :   0.9350

Dispersion correction           -0.000087278
FINAL SINGLE POINT ENERGY       -75.563090950647

DIPOLE MOMENT
-------------
                                X             Y             Z
Electronic contribution:     -0.00000       0.00000       0.38389
Nuclear contribution   :      0.00000       0.00000      -0.85390
                        -----------------------------------------
Total Dipole Moment    :     -0.00000       0.00000      -0.47001
                        -----------------------------------------
Magnitude (a.u.)       :      0.47001
Magnitude (Debye)      :      1.19467

Rotational constants in cm-1:     0.000000    18.953882    18.953882
Rotational constants in MHz :     0.000000 568223.097388 568223.097388

                             ****ORCA TERMINATED NORMALLY****
TOTAL RUN TIME: 0 days 0 hours 0 minutes 53 seconds 604 msec
