                         Program Version 5.0.3 -  RELEASE  -
|  1> ! PBEh-3c def2/J TightSCF DefGrid3
|  2>
|  3> %maxcore 60000
|  4>
|  5> %pal
|  6> nprocs 4
|  7> end
|  8>
|  9> *xyzfile 0 1 11.xyz
| 10>
| 11>                          ****END OF INPUT****

CARTESIAN COORDINATES (ANGSTROEM)
---------------------------------
  P      0.110874    1.775085    0.000000
  H      1.068952    1.760698    1.040784
  H      1.068952    1.760698   -1.040784
  C     -0.110874    3.550593    0.000000
  N     -0.355873    4.673225    0.000000
  P     -0.110874   -1.775085    0.000000
  H     -1.068952   -1.760698    1.040784
  H     -1.068952   -1.760698   -1.040784
  C      0.110874   -3.550593    0.000000
  N      0.355873   -4.673225    0.000000

 Total Charge           Charge          ....    0
 Multiplicity           Mult            ....    1
 Number of Electrons    NEL             ....   60
 Basis Dimension        Dim             ....  104

ORBITAL ENERGIES
----------------

  NO   OCC          E(Eh)            E(eV)
   0   2.0000     -77.801110     -2117.0758
   1   2.0000     -77.801019     -2117.0733
   2   2.0000     -14.664543      -399.0425
   3   2.0000     -14.664541      -399.0424
   4   2.0000     -10.502037      -285.7750
   5   2.0000     -10.502023      -285.7746
   6   2.0000      -6.877760      -187.1534
   7   2.0000      -6.877710      -187.1520
   8   2.0000      -4.968733      -135.2061
   9   2.0000      -4.968703      -135.2053
  10   2.0000      -4.967590      -135.1750
  11   2.0000      -4.967575      -135.1746
  12   2.0000      -4.966017      -135.1322
  13   2.0000      -4.966003      -135.1318
  14   2.0000      -1.026390       -27.9295
  15   2.0000      -1.026387       -27.9294
  16   2.0000      -0.803707       -21.8700
  17   2.0000      -0.799918       -21.7669
  18   2.0000      -0.568021       -15.4566
  19   2.0000      -0.559860       -15.2346
  20   2.0000      -0.503970       -13.7137
  21   2.0000      -0.500394       -13.6164
  22   2.0000      -0.448051       -12.1921
  23   2.0000      -0.447989       -12.1904
  24   2.0000      -0.434618       -11.8266
  25   2.0000      -0.428276       -11.6540
  26   2.0000      -0.407696       -11.0940
  27   2.0000      -0.406666       -11.0659
  28   2.0000      -0.363423        -9.8892
  29   2.0000      -0.344944        -9.3864
  30   0.0000      -0.016651        -0.4531
  31   0.0000      -0.004094        -0.1114
  32   0.0000      -0.000300        -0.0082
  33   0.0000       0.036049         0.9809
  34   0.0000       0.067530         1.8376

MULLIKEN ATOMIC CHARGES
-----------------------
   0 P :    0.021742
   1 H :    0.134836
   2 H :    0.134836
   3 C :   -0.138979
   4 N :   -0.152435
   5 P :    0.021742
   6 H :    0.134836
   7 H :    0.134836
   8 C :   -0.138978
   9 N :   -0.152435
Sum of atomic charges:    0.0000000

LOEWDIN ATOMIC CHARGES
----------------------
   0 P :    0.130303
   1 H :    0.066090
   2 H :    0.066090
   3 C :   -0.203879
   4 N :   -0.058605
   5 P :    0.130303
   6 H :    0.066090
   7 H :    0.066090
   8 C :   -0.203879
   9 N :   -0.058605

  Mayer bond orders larger than 0.100000
B(  0-P ,  1-H ) :   0.9432 B(  0-P ,  2-H ) :   0.9432 B(  0-P ,  3-C ) :   0.9525
B(  3-C ,  4-N ) :   3.0778 B(  5-P ,  6-H ) :   0.9432 B(  5-P ,  7-H ) :   0.9432
B(  5-P ,  8-C ) :   0.9525 B(  8-C ,  9-N ) :   3.0778

Dispersion correction           -0.004205771
FINAL SINGLE POINT ENERGY      -869.525764522572

DIPOLE MOMENT
-------------
                                X             Y             Z
Electronic contribution:     -0.00000       0.00000      -0.00000
Nuclear contribution   :      0.00000       0.00000       0.00000
                        -----------------------------------------
Total Dipole Moment    :     -0.00000       0.00000      -0.00000
                        -----------------------------------------
Magnitude (a.u.)       :      0.00000
Magnitude (Debye)      :      0.00000

Rotational constants in cm-1:     1.359576     0.014946     0.014898
Rotational constants in MHz : 40759.059356   448.079936   446.629020

                             ****ORCA TERMINATED NORMALLY****
TOTAL RUN TIME: 0 days 0 hours 0 minutes 54 seconds 142 msec
