                         Program Version 5.0.3 -  RELEASE  -
|  1> ! PBEh-3c def2/J TightSCF DefGrid3
|  2>
|  3> %maxcore 60000
|  4>
|  5> %scf
|  6>     guess hcore
|  7> end
|  8>
|  9> %pal
| 10> nprocs 4
| 11> end
| 12>
| 13> *xyzfile 0 2 RKT16.xyz
| 14>
| 15>                          ****END OF INPUT****

CARTESIAN COORDINATES (ANGSTROEM)
---------------------------------
  H      1.262099    0.616730    0.000000
  S      0.000000    1.059980    0.000000
  H     -0.500576   -0.278620    0.000000
  H     -0.761523   -1.398089    0.000000

 Total Charge           Charge          ....    0
 Multiplicity           Mult            ....    2
 Number of Electrons    NEL             ....   19
 Basis Dimension        Dim             ....   24

ORBITAL ENERGIES
----------------
                 SPIN UP ORBITALS
  NO   OCC          E(Eh)            E(eV)
   0   1.0000     -89.662197     -2439.8324
   1   1.0000      -8.307674      -226.0633
   2   1.0000      -6.206814      -168.8960
   3   1.0000      -6.193074      -168.5221
   4   1.0000      -6.187612      -168.3735
   5   1.0000      -0.898878       -24.4597
   6   1.0000      -0.542492       -14.7620
   7   1.0000      -0.482828       -13.1384
   8   1.0000      -0.426129       -11.5956
   9   1.0000      -0.222026        -6.0416
  10   0.0000       0.030301         0.8245
  11   0.0000       0.173984         4.7344
  12   0.0000       0.363398         9.8886
  13   0.0000       0.527796        14.3621
  14   0.0000       0.599770        16.3206

                 SPIN DOWN ORBITALS
  NO   OCC          E(Eh)            E(eV)
   0   1.0000     -89.655633     -2439.6538
   1   1.0000      -8.301013      -225.8820
   2   1.0000      -6.189074      -168.4133
   3   1.0000      -6.183609      -168.2646
   4   1.0000      -6.182733      -168.2407
   5   1.0000      -0.846646       -23.0384
   6   1.0000      -0.532277       -14.4840
   7   1.0000      -0.464014       -12.6265
   8   1.0000      -0.217401        -5.9158
   9   0.0000      -0.183646        -4.9973
  10   0.0000       0.041190         1.1208
  11   0.0000       0.187890         5.1127
  12   0.0000       0.396055        10.7772
  13   0.0000       0.546189        14.8626

MULLIKEN ATOMIC CHARGES AND SPIN POPULATIONS
--------------------------------------------
   0 H :    0.233003   -0.036250
   1 S :    0.010844    1.063699
   2 H :    0.014733    0.010424
   3 H :   -0.258580   -0.037873
Sum of atomic charges         :    0.0000000

LOEWDIN ATOMIC CHARGES AND SPIN POPULATIONS
-------------------------------------------
   0 H :    0.135166   -0.021864
   1 S :    0.167192    1.044023
   2 H :    0.059310    0.006026
   3 H :   -0.361668   -0.028184

  Mayer bond orders larger than 0.100000
B(  0-H ,  1-S ) :   0.9189 B(  1-S ,  2-H ) :   0.2141 B(  1-S ,  3-H ) :   0.1026
B(  2-H ,  3-H ) :   0.8070

Dispersion correction           -0.000810056
FINAL SINGLE POINT ENERGY      -399.343917796853

DIPOLE MOMENT
-------------
                                X             Y             Z
Electronic contribution:      0.83645       4.67689      -0.00000
Nuclear contribution   :     -0.00000      -3.63846       0.00000
                        -----------------------------------------
Total Dipole Moment    :      0.83645       1.03843      -0.00000
                        -----------------------------------------
Magnitude (a.u.)       :      1.33341
Magnitude (Debye)      :      3.38926

Rotational constants in cm-1:     9.598229     2.040757     1.682935
Rotational constants in MHz : 287747.654609 61180.353203 50453.109949

                             ****ORCA TERMINATED NORMALLY****
TOTAL RUN TIME: 0 days 0 hours 0 minutes 7 seconds 134 msec
