                         Program Version 5.0.3 -  RELEASE  -
|  1> ! PBEh-3c def2/J TightSCF DefGrid3
|  2>
|  3> %maxcore 60000
|  4>
|  5> %pal
|  6> nprocs 4
|  7> end
|  8>
|  9> *xyzfile 0 1 E28.xyz
| 10>
| 11>                          ****END OF INPUT****

CARTESIAN COORDINATES (ANGSTROEM)
---------------------------------
  C      0.000000   -1.289756   -0.155339
  C      0.000000    0.000000    0.642238
  C      0.000000    1.289756   -0.155339
  O      0.000000    0.000000    1.853143
  H      0.000000   -2.144470    0.518338
  H      0.878592   -1.334094   -0.805345
  H     -0.878592   -1.334094   -0.805345
  H      0.000000    2.144470    0.518338
  H      0.878592    1.334094   -0.805345
  H     -0.878592    1.334094   -0.805345

 Total Charge           Charge          ....    0
 Multiplicity           Mult            ....    1
 Number of Electrons    NEL             ....   32
 Basis Dimension        Dim             ....   72

ORBITAL ENERGIES
----------------

  NO   OCC          E(Eh)            E(eV)
   0   2.0000     -19.484206      -530.1922
   1   2.0000     -10.538960      -286.7797
   2   2.0000     -10.442488      -284.1546
   3   2.0000     -10.442409      -284.1524
   4   2.0000      -1.150960       -31.3192
   5   2.0000      -0.859459       -23.3871
   6   2.0000      -0.796508       -21.6741
   7   2.0000      -0.603062       -16.4102
   8   2.0000      -0.525484       -14.2991
   9   2.0000      -0.520078       -14.1520
  10   2.0000      -0.515276       -14.0214
  11   2.0000      -0.460141       -12.5211
  12   2.0000      -0.454242       -12.3605
  13   2.0000      -0.435771       -11.8579
  14   2.0000      -0.401703       -10.9309
  15   2.0000      -0.304185        -8.2773
  16   0.0000       0.022469         0.6114
  17   0.0000       0.136256         3.7077
  18   0.0000       0.173705         4.7268
  19   0.0000       0.201299         5.4776
  20   0.0000       0.209692         5.7060

MULLIKEN ATOMIC CHARGES
-----------------------
   0 C :   -0.744111
   1 C :    0.368171
   2 C :   -0.744111
   3 O :   -0.334347
   4 H :    0.260712
   5 H :    0.233243
   6 H :    0.233243
   7 H :    0.260712
   8 H :    0.233243
   9 H :    0.233243
Sum of atomic charges:    0.0000000

LOEWDIN ATOMIC CHARGES
----------------------
   0 C :   -0.396713
   1 C :    0.099831
   2 C :   -0.396713
   3 O :   -0.191319
   4 H :    0.150957
   5 H :    0.145750
   6 H :    0.145750
   7 H :    0.150957
   8 H :    0.145750
   9 H :    0.145750

  Mayer bond orders larger than 0.100000
B(  0-C ,  1-C ) :   0.9277 B(  0-C ,  4-H ) :   0.9182 B(  0-C ,  5-H ) :   0.9114
B(  0-C ,  6-H ) :   0.9114 B(  1-C ,  2-C ) :   0.9277 B(  1-C ,  3-O ) :   2.1475
B(  2-C ,  7-H ) :   0.9182 B(  2-C ,  8-H ) :   0.9114 B(  2-C ,  9-H ) :   0.9114

Dispersion correction           -0.003307466
FINAL SINGLE POINT ENERGY      -192.738188519066

DIPOLE MOMENT
-------------
                                X             Y             Z
Electronic contribution:      0.00000       0.00000       3.92783
Nuclear contribution   :      0.00000       0.00000      -5.07627
                        -----------------------------------------
Total Dipole Moment    :      0.00000       0.00000      -1.14843
                        -----------------------------------------
Magnitude (a.u.)       :      1.14843
Magnitude (Debye)      :      2.91908

Rotational constants in cm-1:     0.338923     0.283229     0.163613
Rotational constants in MHz : 10160.653014  8490.983967  4904.995783

                             ****ORCA TERMINATED NORMALLY****
TOTAL RUN TIME: 0 days 0 hours 0 minutes 59 seconds 516 msec
