                         Program Version 5.0.3 -  RELEASE  -
|  1> ! PBEh-3c def2/J TightSCF DefGrid3
|  2>
|  3> %maxcore 60000
|  4>
|  5> %pal
|  6> nprocs 4
|  7> end
|  8>
|  9> *xyzfile 0 1 LEU_xad.xyz
| 10>
| 11>                          ****END OF INPUT****

CARTESIAN COORDINATES (ANGSTROEM)
---------------------------------
  N      0.132986    0.897342   -0.553458
  C     -0.085010   -0.372879    0.124596
  C      1.089173   -1.317000   -0.164022
  O      1.011305   -2.246194   -0.960418
  C     -1.405532   -0.983384   -0.304521
  C     -2.622250   -0.088657   -0.074910
  C     -3.883520   -0.826590   -0.510020
  C     -2.737589    0.354590    1.379331
  H     -0.205655    0.999839   -1.495588
  H     -0.086376   -0.147300    1.190590
  H     -1.534880   -1.917707    0.246935
  H     -1.331556   -1.268537   -1.356341
  H     -2.520965    0.806426   -0.695101
  H     -4.035957   -1.711041    0.110709
  H     -4.764395   -0.192851   -0.411655
  H     -3.813557   -1.154782   -1.546953
  H     -2.764029   -0.515435    2.038744
  H     -3.655966    0.919632    1.537421
  H     -1.903754    0.985719    1.684685
  N      2.202680   -1.002957    0.538174
  H      2.187893   -0.126859    1.045535
  C      3.453692   -1.690949    0.304290
  H      4.040720   -1.700031    1.218456
  H      3.231445   -2.710748    0.005700
  H      4.036954   -1.221029   -0.488380
  C      0.886135    1.885631   -0.011817
  O      1.433321    1.769277    1.085320
  C      0.998783    3.148956   -0.826147
  H      2.051741    3.359005   -0.997001
  H      0.588606    3.970366   -0.243208
  H      0.480639    3.093263   -1.780201

 Total Charge           Charge          ....    0
 Multiplicity           Mult            ....    1
 Number of Electrons    NEL             ....  102
 Basis Dimension        Dim             ....  231

ORBITAL ENERGIES
----------------

  NO   OCC          E(Eh)            E(eV)
   0   2.0000     -19.470937      -529.8311
   1   2.0000     -19.451292      -529.2966
   2   2.0000     -14.678473      -399.4215
   3   2.0000     -14.647492      -398.5785
   4   2.0000     -10.563365      -287.4438
   5   2.0000     -10.536121      -286.7024
   6   2.0000     -10.487701      -285.3849
   7   2.0000     -10.457501      -284.5631
   8   2.0000     -10.453133      -284.4442
   9   2.0000     -10.446922      -284.2752
  10   2.0000     -10.437796      -284.0269
  11   2.0000     -10.424992      -283.6785
  12   2.0000     -10.424693      -283.6703
  13   2.0000      -1.156930       -31.4817
  14   2.0000      -1.133246       -30.8372
  15   2.0000      -1.039769       -28.2935
  16   2.0000      -1.009931       -27.4816
  17   2.0000      -0.913865       -24.8675
  18   2.0000      -0.863480       -23.4965
  19   2.0000      -0.819898       -22.3106
  20   2.0000      -0.787257       -21.4223
  21   2.0000      -0.768754       -20.9189
  22   2.0000      -0.720551       -19.6072
  23   2.0000      -0.676589       -18.4109
  24   2.0000      -0.642209       -17.4754
  25   2.0000      -0.638994       -17.3879
  26   2.0000      -0.595110       -16.1938
  27   2.0000      -0.565663       -15.3925
  28   2.0000      -0.558781       -15.2052
  29   2.0000      -0.531926       -14.4744
  30   2.0000      -0.519127       -14.1262
  31   2.0000      -0.514340       -13.9959
  32   2.0000      -0.501828       -13.6554
  33   2.0000      -0.493867       -13.4388
  34   2.0000      -0.480004       -13.0616
  35   2.0000      -0.474223       -12.9043
  36   2.0000      -0.471036       -12.8175
  37   2.0000      -0.456893       -12.4327
  38   2.0000      -0.442740       -12.0476
  39   2.0000      -0.439688       -11.9645
  40   2.0000      -0.436876       -11.8880
  41   2.0000      -0.424067       -11.5394
  42   2.0000      -0.416190       -11.3251
  43   2.0000      -0.415176       -11.2975
  44   2.0000      -0.379504       -10.3268
  45   2.0000      -0.377379       -10.2690
  46   2.0000      -0.376106       -10.2344
  47   2.0000      -0.336775        -9.1641
  48   2.0000      -0.323166        -8.7938
  49   2.0000      -0.294812        -8.0222
  50   2.0000      -0.288343        -7.8462
  51   0.0000       0.040857         1.1118
  52   0.0000       0.067423         1.8347
  53   0.0000       0.108474         2.9517
  54   0.0000       0.130344         3.5468
  55   0.0000       0.159067         4.3284

MULLIKEN ATOMIC CHARGES
-----------------------
   0 N :   -0.617145
   1 C :   -0.248985
   2 C :    0.581181
   3 O :   -0.435492
   4 C :   -0.418152
   5 C :   -0.231868
   6 C :   -0.625327
   7 C :   -0.645474
   8 H :    0.363714
   9 H :    0.273160
  10 H :    0.236151
  11 H :    0.239661
  12 H :    0.197749
  13 H :    0.210114
  14 H :    0.217851
  15 H :    0.217693
  16 H :    0.208929
  17 H :    0.222014
  18 H :    0.231157
  19 N :   -0.651720
  20 H :    0.400567
  21 C :   -0.491698
  22 H :    0.220073
  23 H :    0.253871
  24 H :    0.216519
  25 C :    0.541097
  26 O :   -0.463207
  27 C :   -0.743355
  28 H :    0.260946
  29 H :    0.263957
  30 H :    0.216018
Sum of atomic charges:    0.0000000

LOEWDIN ATOMIC CHARGES
----------------------
   0 N :   -0.209173
   1 C :   -0.097044
   2 C :    0.102867
   3 O :   -0.280474
   4 C :   -0.229890
   5 C :   -0.165203
   6 C :   -0.350457
   7 C :   -0.356232
   8 H :    0.259840
   9 H :    0.148038
  10 H :    0.141009
  11 H :    0.138206
  12 H :    0.113276
  13 H :    0.125946
  14 H :    0.125930
  15 H :    0.126491
  16 H :    0.125339
  17 H :    0.128142
  18 H :    0.129304
  19 N :   -0.249539
  20 H :    0.266176
  21 C :   -0.255258
  22 H :    0.125166
  23 H :    0.146204
  24 H :    0.118514
  25 C :    0.111222
  26 O :   -0.302781
  27 C :   -0.384022
  28 H :    0.158345
  29 H :    0.160776
  30 H :    0.129279

  Mayer bond orders larger than 0.100000
B(  0-N ,  1-C ) :   0.9027 B(  0-N ,  8-H ) :   0.8194 B(  0-N , 25-C ) :   1.1731
B(  1-C ,  2-C ) :   0.8781 B(  1-C ,  4-C ) :   0.9850 B(  1-C ,  9-H ) :   0.8733
B(  2-C ,  3-O ) :   1.9706 B(  2-C , 19-N ) :   1.1772 B(  3-O , 19-N ) :   0.1022
B(  4-C ,  5-C ) :   0.9635 B(  4-C , 10-H ) :   0.9107 B(  4-C , 11-H ) :   0.9050
B(  5-C ,  6-C ) :   0.9981 B(  5-C ,  7-C ) :   0.9822 B(  5-C , 12-H ) :   0.9102
B(  6-C , 13-H ) :   0.9258 B(  6-C , 14-H ) :   0.9300 B(  6-C , 15-H ) :   0.9296
B(  7-C , 16-H ) :   0.9259 B(  7-C , 17-H ) :   0.9289 B(  7-C , 18-H ) :   0.9215
B( 19-N , 20-H ) :   0.7478 B( 19-N , 21-C ) :   0.9616 B( 21-C , 22-H ) :   0.9253
B( 21-C , 23-H ) :   0.9074 B( 21-C , 24-H ) :   0.9193 B( 25-C , 26-O ) :   1.8855
B( 25-C , 27-C ) :   0.9327 B( 27-C , 28-H ) :   0.9078 B( 27-C , 29-H ) :   0.9062
B( 27-C , 30-H ) :   0.9214

Dispersion correction           -0.018252111
FINAL SINGLE POINT ENERGY      -612.480823906958

DIPOLE MOMENT
-------------
                                X             Y             Z
Electronic contribution:      9.91321      -0.90962      -0.39024
Nuclear contribution   :    -10.24324       1.94321      -0.01508
                        -----------------------------------------
Total Dipole Moment    :     -0.33003       1.03359      -0.40532
                        -----------------------------------------
Magnitude (a.u.)       :      1.15824
Magnitude (Debye)      :      2.94401

Rotational constants in cm-1:     0.029990     0.018346     0.013217
Rotational constants in MHz :   899.069800   549.997583   396.231992

                             ****ORCA TERMINATED NORMALLY****
TOTAL RUN TIME: 0 days 0 hours 3 minutes 39 seconds 955 msec
