                         Program Version 5.0.3 -  RELEASE  -
|  1> ! PBEh-3c def2/J TightSCF DefGrid3
|  2>
|  3> %maxcore 60000
|  4>
|  5> %pal
|  6> nprocs 4
|  7> end
|  8>
|  9> *xyzfile 0 1 FI_NCH.xyz
| 10>
| 11>                          ****END OF INPUT****

CARTESIAN COORDINATES (ANGSTROEM)
---------------------------------
  F      0.000000    0.000000    2.315880
  I      0.000000    0.000000    0.370328
  N      0.000000    0.000000   -2.244670
  C      0.000000    0.000000   -3.384198
  H      0.000000    0.000000   -4.452430

 Total Charge           Charge          ....    0
 Multiplicity           Mult            ....    1
 Number of Electrons    NEL             ....   48
 Basis Dimension        Dim             ....   73

ORBITAL ENERGIES
----------------

  NO   OCC          E(Eh)            E(eV)
   0   2.0000     -25.040498      -681.3866
   1   2.0000     -14.721066      -400.5806
   2   2.0000     -10.553008      -287.1620
   3   2.0000      -7.116035      -193.6371
   4   2.0000      -5.106772      -138.9623
   5   2.0000      -5.078702      -138.1985
   6   2.0000      -5.078702      -138.1985
   7   2.0000      -2.059420       -56.0397
   8   2.0000      -2.050457       -55.7958
   9   2.0000      -2.050457       -55.7958
  10   2.0000      -2.026925       -55.1554
  11   2.0000      -2.026922       -55.1553
  12   2.0000      -1.232905       -33.5490
  13   2.0000      -1.080450       -29.4005
  14   2.0000      -0.758352       -20.6358
  15   2.0000      -0.717063       -19.5123
  16   2.0000      -0.543401       -14.7867
  17   2.0000      -0.469346       -12.7716
  18   2.0000      -0.469346       -12.7716
  19   2.0000      -0.449926       -12.2431
  20   2.0000      -0.449926       -12.2431
  21   2.0000      -0.444267       -12.0891
  22   2.0000      -0.295045        -8.0286
  23   2.0000      -0.295045        -8.0286
  24   0.0000      -0.033870        -0.9217
  25   0.0000       0.009152         0.2490
  26   0.0000       0.009152         0.2490
  27   0.0000       0.100904         2.7457
  28   0.0000       0.292853         7.9689

MULLIKEN ATOMIC CHARGES
-----------------------
   0 F :   -0.494064
   1 I :    0.422456
   2 N :   -0.213118
   3 C :   -0.047951
   4 H :    0.332676
Sum of atomic charges:   -0.0000000

LOEWDIN ATOMIC CHARGES
----------------------
   0 F :   -0.450022
   1 I :    0.351732
   2 N :   -0.047845
   3 C :   -0.032027
   4 H :    0.178162

  Mayer bond orders larger than 0.100000
B(  0-F ,  1-I ) :   0.7789 B(  1-I ,  2-N ) :   0.1533 B(  2-N ,  3-C ) :   3.0448
B(  3-C ,  4-H ) :   0.8473

Dispersion correction           -0.001382271
FINAL SINGLE POINT ENERGY      -490.572864437139

DIPOLE MOMENT
-------------
                                X             Y             Z
Electronic contribution:     -0.00000       0.00000      24.30375
Nuclear contribution   :      0.00000       0.00000     -27.15626
                        -----------------------------------------
Total Dipole Moment    :     -0.00000       0.00000      -2.85251
                        -----------------------------------------
Magnitude (a.u.)       :      2.85251
Magnitude (Debye)      :      7.25050

Rotational constants in cm-1:     0.000000     0.048692     0.048692
Rotational constants in MHz :     0.000000  1459.744750  1459.744750

                             ****ORCA TERMINATED NORMALLY****
TOTAL RUN TIME: 0 days 0 hours 1 minutes 17 seconds 228 msec
