                         Program Version 5.0.3 -  RELEASE  -
|  1> ! PBEh-3c def2/J TightSCF DefGrid3
|  2>
|  3> %maxcore 60000
|  4>
|  5> %pal
|  6> nprocs 4
|  7> end
|  8>
|  9> *xyzfile 0 1 37.xyz
| 10>
| 11>                          ****END OF INPUT****

CARTESIAN COORDINATES (ANGSTROEM)
---------------------------------
  N      0.295934    2.736198    0.576571
  C      1.339490    2.357445   -0.239787
  C      1.070574    1.131794   -0.809300
  C     -0.224755    0.739232   -0.325719
  C     -1.047072   -0.382759   -0.547574
  C     -2.275589   -0.437974    0.085318
  C     -2.712210    0.594221    0.946220
  C     -1.923339    1.708024    1.181608
  C     -0.682789    1.768979    0.534525
  H      0.231711    3.608925    1.067886
  H      2.202865    2.992825   -0.357313
  H     -0.739003   -1.205450   -1.177868
  H     -3.669785    0.486763    1.437686
  H     -2.254748    2.493582    1.848473
  O     -3.080178   -1.547773   -0.095166
  C     -4.144963   -1.303200   -1.008923
  H     -4.792522   -0.496150   -0.658096
  H     -3.756390   -1.042004   -1.996532
  H     -4.718379   -2.224195   -1.074407
  C      1.997318    0.352538   -1.689527
  C      2.851081   -0.666381   -0.913772
  N      2.084865   -1.740892   -0.316700
  C      1.616282   -1.848399    0.968273
  C      2.075266   -0.800188    1.960965
  H      1.431319   -0.176093   -2.461055
  H      2.675056    1.036511   -2.207650
  H      3.587659   -1.105791   -1.590685
  H      3.403955   -0.151595   -0.130226
  H      1.722653   -2.456490   -0.927554
  O      0.883058   -2.771611    1.289645
  H      3.161569   -0.805044    2.058773
  H      1.763077    0.196623    1.652115
  H      1.627989   -1.041668    2.919804

 Total Charge           Charge          ....    0
 Multiplicity           Mult            ....    1
 Number of Electrons    NEL             ....  124
 Basis Dimension        Dim             ....  287

ORBITAL ENERGIES
----------------

  NO   OCC          E(Eh)            E(eV)
   0   2.0000     -19.497947      -530.5661
   1   2.0000     -19.436018      -528.8809
   2   2.0000     -14.688540      -399.6955
   3   2.0000     -14.646067      -398.5398
   4   2.0000     -10.532453      -286.6026
   5   2.0000     -10.488437      -285.4049
   6   2.0000     -10.482178      -285.2346
   7   2.0000     -10.481240      -285.2090
   8   2.0000     -10.480075      -285.1773
   9   2.0000     -10.475144      -285.0431
  10   2.0000     -10.451057      -284.3877
  11   2.0000     -10.450647      -284.3766
  12   2.0000     -10.446284      -284.2579
  13   2.0000     -10.445491      -284.2363
  14   2.0000     -10.441468      -284.1268
  15   2.0000     -10.438880      -284.0564
  16   2.0000     -10.423818      -283.6465
  17   2.0000      -1.147242       -31.2180
  18   2.0000      -1.122737       -30.5512
  19   2.0000      -1.090269       -29.6677
  20   2.0000      -1.010445       -27.4956
  21   2.0000      -0.935478       -25.4557
  22   2.0000      -0.899387       -24.4736
  23   2.0000      -0.843481       -22.9523
  24   2.0000      -0.826606       -22.4931
  25   2.0000      -0.812817       -22.1179
  26   2.0000      -0.800930       -21.7944
  27   2.0000      -0.761600       -20.7242
  28   2.0000      -0.730585       -19.8802
  29   2.0000      -0.697652       -18.9841
  30   2.0000      -0.665439       -18.1075
  31   2.0000      -0.639036       -17.3891
  32   2.0000      -0.631501       -17.1840
  33   2.0000      -0.612168       -16.6579
  34   2.0000      -0.566428       -15.4133
  35   2.0000      -0.556782       -15.1508
  36   2.0000      -0.552979       -15.0473
  37   2.0000      -0.533685       -14.5223
  38   2.0000      -0.518869       -14.1191
  39   2.0000      -0.515386       -14.0244
  40   2.0000      -0.508720       -13.8430
  41   2.0000      -0.497040       -13.5251
  42   2.0000      -0.490048       -13.3349
  43   2.0000      -0.485847       -13.2206
  44   2.0000      -0.478497       -13.0206
  45   2.0000      -0.471260       -12.8236
  46   2.0000      -0.459827       -12.5125
  47   2.0000      -0.450371       -12.2552
  48   2.0000      -0.444447       -12.0940
  49   2.0000      -0.439855       -11.9691
  50   2.0000      -0.432732       -11.7752
  51   2.0000      -0.410789       -11.1781
  52   2.0000      -0.402212       -10.9447
  53   2.0000      -0.396583       -10.7916
  54   2.0000      -0.393694       -10.7130
  55   2.0000      -0.371341       -10.1047
  56   2.0000      -0.322516        -8.7761
  57   2.0000      -0.319892        -8.7047
  58   2.0000      -0.289971        -7.8905
  59   2.0000      -0.285977        -7.7818
  60   2.0000      -0.253566        -6.8999
  61   2.0000      -0.240705        -6.5499
  62   0.0000       0.005601         0.1524
  63   0.0000       0.051409         1.3989
  64   0.0000       0.078114         2.1256
  65   0.0000       0.085042         2.3141
  66   0.0000       0.121804         3.3144

MULLIKEN ATOMIC CHARGES
-----------------------
   0 N :   -0.694412
   1 C :   -0.063992
   2 C :    0.017517
   3 C :    0.064970
   4 C :   -0.407786
   5 C :    0.366806
   6 C :   -0.310631
   7 C :   -0.264049
   8 C :    0.352459
   9 H :    0.358116
  10 H :    0.238137
  11 H :    0.212074
  12 H :    0.228753
  13 H :    0.213174
  14 O :   -0.479929
  15 C :   -0.375567
  16 H :    0.195462
  17 H :    0.199434
  18 H :    0.220707
  19 C :   -0.522323
  20 C :   -0.275579
  21 N :   -0.612204
  22 C :    0.513349
  23 C :   -0.784134
  24 H :    0.227455
  25 H :    0.225222
  26 H :    0.230977
  27 H :    0.230902
  28 H :    0.354685
  29 O :   -0.416408
  30 H :    0.225218
  31 H :    0.262809
  32 H :    0.268788
Sum of atomic charges:   -0.0000000

LOEWDIN ATOMIC CHARGES
----------------------
   0 N :   -0.156286
   1 C :   -0.090468
   2 C :   -0.110165
   3 C :   -0.059461
   4 C :   -0.140296
   5 C :    0.047385
   6 C :   -0.154496
   7 C :   -0.155692
   8 C :    0.009486
   9 H :    0.262071
  10 H :    0.134390
  11 H :    0.144258
  12 H :    0.142750
  13 H :    0.136410
  14 O :   -0.215435
  15 C :   -0.172339
  16 H :    0.106406
  17 H :    0.108849
  18 H :    0.124219
  19 C :   -0.235879
  20 C :   -0.143455
  21 N :   -0.248973
  22 C :    0.112202
  23 C :   -0.398430
  24 H :    0.133135
  25 H :    0.135032
  26 H :    0.122859
  27 H :    0.131114
  28 H :    0.254981
  29 O :   -0.270280
  30 H :    0.138195
  31 H :    0.152571
  32 H :    0.155344

  Mayer bond orders larger than 0.100000
B(  0-N ,  1-C ) :   1.1363 B(  0-N ,  8-C ) :   1.0116 B(  0-N ,  9-H ) :   0.8343
B(  1-C ,  2-C ) :   1.5559 B(  1-C , 10-H ) :   0.9120 B(  2-C ,  3-C ) :   1.2405
B(  2-C , 19-C ) :   0.9524 B(  3-C ,  4-C ) :   1.2439 B(  3-C ,  8-C ) :   1.2491
B(  4-C ,  5-C ) :   1.4931 B(  4-C , 11-H ) :   0.9268 B(  5-C ,  6-C ) :   1.3160
B(  5-C , 14-O ) :   0.9544 B(  6-C ,  7-C ) :   1.4880 B(  6-C , 12-H ) :   0.9121
B(  7-C ,  8-C ) :   1.2867 B(  7-C , 13-H ) :   0.9212 B( 14-O , 15-C ) :   0.9548
B( 15-C , 16-H ) :   0.9121 B( 15-C , 17-H ) :   0.9127 B( 15-C , 18-H ) :   0.9283
B( 19-C , 20-C ) :   0.9532 B( 19-C , 24-H ) :   0.9202 B( 19-C , 25-H ) :   0.9206
B( 20-C , 21-N ) :   0.9689 B( 20-C , 26-H ) :   0.9133 B( 20-C , 27-H ) :   0.9078
B( 21-N , 22-C ) :   1.1311 B( 21-N , 28-H ) :   0.8240 B( 22-C , 23-C ) :   0.9309
B( 22-C , 29-O ) :   2.0339 B( 23-C , 30-H ) :   0.9123 B( 23-C , 31-H ) :   0.8932
B( 23-C , 32-H ) :   0.9175

Dispersion correction           -0.023091447
FINAL SINGLE POINT ENERGY      -763.320315103658

DIPOLE MOMENT
-------------
                                X             Y             Z
Electronic contribution:     -2.62186       1.04049       2.17769
Nuclear contribution   :      3.33970       1.11192      -2.95949
                        -----------------------------------------
Total Dipole Moment    :      0.71785       2.15241      -0.78180
                        -----------------------------------------
Magnitude (a.u.)       :      2.39987
Magnitude (Debye)      :      6.09999

Rotational constants in cm-1:     0.020251     0.013191     0.010246
Rotational constants in MHz :   607.107587   395.465123   307.162883

                             ****ORCA TERMINATED NORMALLY****
TOTAL RUN TIME: 0 days 0 hours 4 minutes 43 seconds 601 msec
