                         Program Version 5.0.3 -  RELEASE  -
|  1> ! PBEh-3c def2/J TightSCF DefGrid3
|  2>
|  3> %maxcore 60000
|  4>
|  5> %pal
|  6> nprocs 4
|  7> end
|  8>
|  9> *xyzfile -1 1 1m.xyz
| 10>
| 11>                          ****END OF INPUT****

CARTESIAN COORDINATES (ANGSTROEM)
---------------------------------
  H     -3.507884   -2.353846   -3.690301
  O     -3.321559   -1.882219   -2.862947
  C     -4.045641   -0.642299   -2.887340
  H     -5.106324   -0.817491   -3.104109
  H     -3.638811    0.036080   -3.649594
  C     -3.906738    0.036349   -1.544314
  H     -4.411494    1.009854   -1.600004
  O     -4.538483   -0.755773   -0.499753
  C     -3.815647   -0.635061    0.713943
  H     -4.465684   -0.288194    1.518194
  N     -3.332363   -1.985683    1.119163
  C     -3.106025   -2.975378    0.195956
  H     -3.317042   -2.697423   -0.832349
  C     -2.666480   -4.210479    0.546223
  H     -2.502371   -4.973842   -0.203077
  C     -2.418285   -4.523258    1.929839
  O     -2.019988   -5.603287    2.384836
  N     -2.670008   -3.451865    2.801694
  H     -2.502918   -3.617276    3.791300
  C     -3.114775   -2.187110    2.479473
  O     -3.301342   -1.307177    3.319955
  C     -2.473132    0.252979   -1.051188
  H     -1.828430   -0.586987   -1.325150
  C     -2.660771    0.347453    0.469941
  H     -1.765225    0.074565    1.037969
  O     -3.108359    1.658415    0.822232
  H     -2.746614    2.252975    0.134069
  O     -1.956900    1.471421   -1.594824
  P     -0.365096    1.537625   -2.063994
  O     -0.217150    2.912799   -2.640223
  O     -0.009295    0.296294   -2.819020
  O      0.434978    1.422742   -0.643711
  C      0.354097    2.502501    0.310043
  H     -0.338470    2.215860    1.107547
  H     -0.002736    3.417184   -0.175676
  C      1.734855    2.761985    0.874489
  H      1.667717    3.585617    1.598984
  O      2.242484    1.582559    1.539689
  C      3.652384    1.450790    1.314778
  H      4.178058    1.472906    2.269192
  N      3.930996    0.124067    0.746543
  C      3.594817   -0.168825   -0.555323
  H      3.120100    0.636203   -1.101465
  C      3.815672   -1.375993   -1.125251
  H      3.545178   -1.563397   -2.155617
  C      4.401201   -2.437577   -0.344201
  O      4.656622   -3.583445   -0.730347
  N      4.652907   -2.078672    0.988765
  H      5.041722   -2.800298    1.590414
  C      4.444669   -0.859465    1.598505
  O      4.682753   -0.666141    2.788249
  C      2.774099    3.114623   -0.192822
  H      2.554358    2.582418   -1.122512
  C      4.094581    2.623076    0.427442
  H      4.837200    2.316875   -0.318339
  O      4.626450    3.638186    1.280518
  H      4.315654    4.483146    0.892646
  O      2.759322    4.524041   -0.426287
  H      3.069168    4.686875   -1.332853

 Total Charge           Charge          ....   -1
 Multiplicity           Mult            ....    1
 Number of Electrons    NEL             ....  286
 Basis Dimension        Dim             ....  602

ORBITAL ENERGIES
----------------

  NO   OCC          E(Eh)            E(eV)
   0   2.0000     -77.721879     -2114.9199
   1   2.0000     -19.448767      -529.2279
   2   2.0000     -19.438959      -528.9610
   3   2.0000     -19.428854      -528.6860
   4   2.0000     -19.427604      -528.6520
   5   2.0000     -19.425621      -528.5980
   6   2.0000     -19.404054      -528.0111
   7   2.0000     -19.401428      -527.9397
   8   2.0000     -19.400056      -527.9024
   9   2.0000     -19.396841      -527.8149
  10   2.0000     -19.390967      -527.6550
  11   2.0000     -19.390208      -527.6344
  12   2.0000     -19.386244      -527.5265
  13   2.0000     -19.280542      -524.6502
  14   2.0000     -19.279338      -524.6175
  15   2.0000     -14.632900      -398.1814
  16   2.0000     -14.629852      -398.0985
  17   2.0000     -14.616673      -397.7399
  18   2.0000     -14.614287      -397.6750
  19   2.0000     -10.525802      -286.4216
  20   2.0000     -10.521483      -286.3041
  21   2.0000     -10.488225      -285.3991
  22   2.0000     -10.485192      -285.3166
  23   2.0000     -10.464434      -284.7517
  24   2.0000     -10.461866      -284.6818
  25   2.0000     -10.441478      -284.1271
  26   2.0000     -10.434755      -283.9441
  27   2.0000     -10.434101      -283.9263
  28   2.0000     -10.431398      -283.8528
  29   2.0000     -10.420428      -283.5543
  30   2.0000     -10.418705      -283.5074
  31   2.0000     -10.418228      -283.4944
  32   2.0000     -10.411039      -283.2988
  33   2.0000     -10.407341      -283.1982
  34   2.0000     -10.395771      -282.8833
  35   2.0000     -10.374281      -282.2985
  36   2.0000     -10.371622      -282.2262
  37   2.0000      -6.766491      -184.1256
  38   2.0000      -4.861717      -132.2941
  39   2.0000      -4.860221      -132.2533
  40   2.0000      -4.857910      -132.1905
  41   2.0000      -1.111620       -30.2487
  42   2.0000      -1.109910       -30.2022
  43   2.0000      -1.094865       -29.7928
  44   2.0000      -1.090954       -29.6864
  45   2.0000      -1.071959       -29.1695
  46   2.0000      -1.063725       -28.9454
  47   2.0000      -1.060159       -28.8484
  48   2.0000      -1.056947       -28.7610
  49   2.0000      -1.054532       -28.6953
  50   2.0000      -1.049306       -28.5531
  51   2.0000      -1.033281       -28.1170
  52   2.0000      -1.007746       -27.4222
  53   2.0000      -1.000128       -27.2149
  54   2.0000      -0.995702       -27.0944
  55   2.0000      -0.950611       -25.8674
  56   2.0000      -0.946930       -25.7673
  57   2.0000      -0.912327       -24.8257
  58   2.0000      -0.870453       -23.6862
  59   2.0000      -0.814840       -22.1729
  60   2.0000      -0.811497       -22.0820
  61   2.0000      -0.793266       -21.5859
  62   2.0000      -0.785798       -21.3826
  63   2.0000      -0.770862       -20.9762
  64   2.0000      -0.763501       -20.7759
  65   2.0000      -0.693175       -18.8623
  66   2.0000      -0.692102       -18.8330
  67   2.0000      -0.688495       -18.7349
  68   2.0000      -0.686741       -18.6872
  69   2.0000      -0.647961       -17.6319
  70   2.0000      -0.642044       -17.4709
  71   2.0000      -0.615739       -16.7551
  72   2.0000      -0.602155       -16.3855
  73   2.0000      -0.587326       -15.9820
  74   2.0000      -0.583757       -15.8848
  75   2.0000      -0.557473       -15.1696
  76   2.0000      -0.554780       -15.0963
  77   2.0000      -0.552482       -15.0338
  78   2.0000      -0.544762       -14.8237
  79   2.0000      -0.532902       -14.5010
  80   2.0000      -0.530566       -14.4374
  81   2.0000      -0.510550       -13.8928
  82   2.0000      -0.506714       -13.7884
  83   2.0000      -0.503409       -13.6984
  84   2.0000      -0.499547       -13.5934
  85   2.0000      -0.491791       -13.3823
  86   2.0000      -0.479193       -13.0395
  87   2.0000      -0.476669       -12.9708
  88   2.0000      -0.466202       -12.6860
  89   2.0000      -0.463896       -12.6232
  90   2.0000      -0.460484       -12.5304
  91   2.0000      -0.454774       -12.3750
  92   2.0000      -0.452259       -12.3066
  93   2.0000      -0.442688       -12.0462
  94   2.0000      -0.436938       -11.8897
  95   2.0000      -0.434314       -11.8183
  96   2.0000      -0.429777       -11.6948
  97   2.0000      -0.428867       -11.6701
  98   2.0000      -0.416592       -11.3360
  99   2.0000      -0.410545       -11.1715
 100   2.0000      -0.407003       -11.0751
 101   2.0000      -0.405148       -11.0246
 102   2.0000      -0.399387       -10.8679
 103   2.0000      -0.396534       -10.7902
 104   2.0000      -0.392901       -10.6914
 105   2.0000      -0.392228       -10.6731
 106   2.0000      -0.384537       -10.4638
 107   2.0000      -0.380026       -10.3410
 108   2.0000      -0.374634       -10.1943
 109   2.0000      -0.369789       -10.0625
 110   2.0000      -0.367445        -9.9987
 111   2.0000      -0.356227        -9.6934
 112   2.0000      -0.346856        -9.4384
 113   2.0000      -0.341358        -9.2888
 114   2.0000      -0.339245        -9.2313
 115   2.0000      -0.334081        -9.0908
 116   2.0000      -0.331220        -9.0130
 117   2.0000      -0.330193        -8.9850
 118   2.0000      -0.322036        -8.7630
 119   2.0000      -0.319098        -8.6831
 120   2.0000      -0.297297        -8.0899
 121   2.0000      -0.294400        -8.0110
 122   2.0000      -0.278929        -7.5901
 123   2.0000      -0.277004        -7.5377
 124   2.0000      -0.276238        -7.5168
 125   2.0000      -0.266057        -7.2398
 126   2.0000      -0.263632        -7.1738
 127   2.0000      -0.259656        -7.0656
 128   2.0000      -0.256942        -6.9917
 129   2.0000      -0.256398        -6.9769
 130   2.0000      -0.254726        -6.9314
 131   2.0000      -0.253196        -6.8898
 132   2.0000      -0.251726        -6.8498
 133   2.0000      -0.247176        -6.7260
 134   2.0000      -0.240329        -6.5397
 135   2.0000      -0.237690        -6.4679
 136   2.0000      -0.233990        -6.3672
 137   2.0000      -0.209652        -5.7049
 138   2.0000      -0.205303        -5.5866
 139   2.0000      -0.199953        -5.4410
 140   2.0000      -0.193423        -5.2633
 141   2.0000      -0.174440        -4.7467
 142   2.0000      -0.160539        -4.3685
 143   0.0000       0.064692         1.7604
 144   0.0000       0.069633         1.8948
 145   0.0000       0.119192         3.2434
 146   0.0000       0.121889         3.3168
 147   0.0000       0.161132         4.3846

MULLIKEN ATOMIC CHARGES
-----------------------
   0 H :    0.423610
   1 O :   -0.628623
   2 C :   -0.174384
   3 H :    0.190693
   4 H :    0.226042
   5 C :    0.038164
   6 H :    0.229046
   7 O :   -0.502152
   8 C :    0.193767
   9 H :    0.275542
  10 N :   -0.573568
  11 C :    0.076447
  12 H :    0.335617
  13 C :   -0.483008
  14 H :    0.246307
  15 C :    0.561972
  16 O :   -0.433735
  17 N :   -0.732705
  18 H :    0.387897
  19 C :    0.718549
  20 O :   -0.447144
  21 C :   -0.056297
  22 H :    0.283987
  23 C :   -0.015887
  24 H :    0.250864
  25 O :   -0.658824
  26 H :    0.437713
  27 O :   -0.632591
  28 P :    1.357630
  29 O :   -0.737808
  30 O :   -0.727447
  31 O :   -0.615427
  32 C :   -0.198874
  33 H :    0.226373
  34 H :    0.231286
  35 C :    0.054557
  36 H :    0.216166
  37 O :   -0.471671
  38 C :    0.177020
  39 H :    0.287067
  40 N :   -0.577532
  41 C :    0.114801
  42 H :    0.306383
  43 C :   -0.472081
  44 H :    0.274205
  45 C :    0.560839
  46 O :   -0.425139
  47 N :   -0.738006
  48 H :    0.388546
  49 C :    0.733159
  50 O :   -0.446389
  51 C :   -0.070426
  52 H :    0.265634
  53 C :   -0.038358
  54 H :    0.216449
  55 O :   -0.644029
  56 H :    0.423987
  57 O :   -0.640289
  58 H :    0.432074
Sum of atomic charges:   -1.0000000

LOEWDIN ATOMIC CHARGES
----------------------
   0 H :    0.314034
   1 O :   -0.409110
   2 C :   -0.091994
   3 H :    0.106393
   4 H :    0.127995
   5 C :   -0.015605
   6 H :    0.127404
   7 O :   -0.240803
   8 C :    0.081530
   9 H :    0.145998
  10 N :   -0.092288
  11 C :   -0.001135
  12 H :    0.170905
  13 C :   -0.257490
  14 H :    0.156939
  15 C :    0.126467
  16 O :   -0.285786
  17 N :   -0.200615
  18 H :    0.282166
  19 C :    0.159720
  20 O :   -0.286213
  21 C :   -0.039248
  22 H :    0.151838
  23 C :   -0.036756
  24 H :    0.127467
  25 O :   -0.405665
  26 H :    0.316043
  27 O :   -0.349940
  28 P :    0.799712
  29 O :   -0.611918
  30 O :   -0.601715
  31 O :   -0.357192
  32 C :   -0.096403
  33 H :    0.122655
  34 H :    0.134834
  35 C :   -0.015958
  36 H :    0.121510
  37 O :   -0.237553
  38 C :    0.074974
  39 H :    0.155318
  40 N :   -0.092602
  41 C :    0.011060
  42 H :    0.161324
  43 C :   -0.237617
  44 H :    0.169086
  45 C :    0.128201
  46 O :   -0.275807
  47 N :   -0.200967
  48 H :    0.282608
  49 C :    0.168261
  50 O :   -0.284633
  51 C :   -0.045203
  52 H :    0.135555
  53 C :   -0.045575
  54 H :    0.111573
  55 O :   -0.402619
  56 H :    0.311315
  57 O :   -0.388755
  58 H :    0.324283

  Mayer bond orders larger than 0.100000
B(  0-H ,  1-O ) :   0.7866 B(  1-O ,  2-C ) :   0.9919 B(  2-C ,  3-H ) :   0.9036
B(  2-C ,  4-H ) :   0.8871 B(  2-C ,  5-C ) :   0.9775 B(  5-C ,  6-H ) :   0.8917
B(  5-C ,  7-O ) :   0.9094 B(  5-C , 21-C ) :   0.9149 B(  7-O ,  8-C ) :   1.0041
B(  8-C ,  9-H ) :   0.8770 B(  8-C , 10-N ) :   0.8455 B(  8-C , 23-C ) :   0.9225
B( 10-N , 11-C ) :   1.0829 B( 10-N , 19-C ) :   1.0332 B( 11-C , 12-H ) :   0.8168
B( 11-C , 13-C ) :   1.5892 B( 13-C , 14-H ) :   0.9192 B( 13-C , 15-C ) :   1.0834
B( 15-C , 16-O ) :   1.9961 B( 15-C , 17-N ) :   0.9831 B( 17-N , 18-H ) :   0.8046
B( 17-N , 19-C ) :   1.0648 B( 19-C , 20-O ) :   1.9635 B( 21-C , 22-H ) :   0.8401
B( 21-C , 23-C ) :   0.9415 B( 21-C , 27-O ) :   0.9370 B( 23-C , 24-H ) :   0.8961
B( 23-C , 25-O ) :   0.9912 B( 25-O , 26-H ) :   0.7368 B( 27-O , 28-P ) :   0.8099
B( 28-P , 29-O ) :   1.7368 B( 28-P , 30-O ) :   1.7445 B( 28-P , 31-O ) :   0.8695
B( 31-O , 32-C ) :   0.9321 B( 32-C , 33-H ) :   0.8923 B( 32-C , 34-H ) :   0.8761
B( 32-C , 35-C ) :   0.9674 B( 35-C , 36-H ) :   0.8915 B( 35-C , 37-O ) :   0.9405
B( 35-C , 51-C ) :   0.9167 B( 37-O , 38-C ) :   1.0151 B( 38-C , 39-H ) :   0.8653
B( 38-C , 40-N ) :   0.8760 B( 38-C , 53-C ) :   0.9195 B( 40-N , 41-C ) :   1.0572
B( 40-N , 49-C ) :   1.0196 B( 41-C , 42-H ) :   0.8559 B( 41-C , 43-C ) :   1.6322
B( 43-C , 44-H ) :   0.9058 B( 43-C , 45-C ) :   1.0711 B( 45-C , 46-O ) :   2.0016
B( 45-C , 47-N ) :   0.9837 B( 47-N , 48-H ) :   0.8046 B( 47-N , 49-C ) :   1.0646
B( 49-C , 50-O ) :   1.9650 B( 51-C , 52-H ) :   0.8582 B( 51-C , 53-C ) :   0.9349
B( 51-C , 57-O ) :   0.9858 B( 53-C , 54-H ) :   0.9043 B( 53-C , 55-O ) :   1.0211
B( 55-O , 56-H ) :   0.7449 B( 57-O , 58-H ) :   0.7809

Dispersion correction           -0.046444006
FINAL SINGLE POINT ENERGY     -2308.304268365095

DIPOLE MOMENT
-------------
                                X             Y             Z
Electronic contribution:      4.36882      -8.72937       5.52264
Nuclear contribution   :     -4.80811       9.71923      -6.02857
                        -----------------------------------------
Total Dipole Moment    :     -0.43929       0.98986      -0.50593
                        -----------------------------------------
Magnitude (a.u.)       :      1.19531
Magnitude (Debye)      :      3.03824

Rotational constants in cm-1:     0.003890     0.002270     0.001818
Rotational constants in MHz :   116.632585    68.052756    54.498813

                             ****ORCA TERMINATED NORMALLY****
TOTAL RUN TIME: 0 days 0 hours 15 minutes 29 seconds 122 msec
