                         Program Version 5.0.3 -  RELEASE  -
|  1> ! PBEh-3c def2/J TightSCF DefGrid3
|  2>
|  3> %maxcore 60000
|  4>
|  5> %pal
|  6> nprocs 4
|  7> end
|  8>
|  9> *xyzfile 0 1 h2se2.xyz
| 10>
| 11>                          ****END OF INPUT****

CARTESIAN COORDINATES (ANGSTROEM)
---------------------------------
  Se    -1.162798   -0.016505   -0.516753
  Se     1.162798    0.016505   -0.516753
  H     -1.344112    1.016830    0.516753
  H      1.344112   -1.016830    0.516753

 Total Charge           Charge          ....    0
 Multiplicity           Mult            ....    1
 Number of Electrons    NEL             ....   70
 Basis Dimension        Dim             ....   68

ORBITAL ENERGIES
----------------

  NO   OCC          E(Eh)            E(eV)
   0   2.0000    -455.532146    -12395.6599
   1   2.0000    -455.532134    -12395.6596
   2   2.0000     -58.761543     -1598.9829
   3   2.0000     -58.761534     -1598.9826
   4   2.0000     -52.704510     -1434.1626
   5   2.0000     -52.704483     -1434.1619
   6   2.0000     -52.703327     -1434.1304
   7   2.0000     -52.703326     -1434.1304
   8   2.0000     -52.702184     -1434.0993
   9   2.0000     -52.702184     -1434.0993
  10   2.0000      -8.147595      -221.7073
  11   2.0000      -8.147574      -221.7068
  12   2.0000      -6.038463      -164.3149
  13   2.0000      -6.038316      -164.3109
  14   2.0000      -6.034554      -164.2086
  15   2.0000      -6.034523      -164.2077
  16   2.0000      -6.025950      -163.9744
  17   2.0000      -6.025950      -163.9744
  18   2.0000      -2.295190       -62.4553
  19   2.0000      -2.293037       -62.3967
  20   2.0000      -2.293001       -62.3957
  21   2.0000      -2.292421       -62.3799
  22   2.0000      -2.285043       -62.1792
  23   2.0000      -2.285027       -62.1787
  24   2.0000      -2.281547       -62.0840
  25   2.0000      -2.281457       -62.0816
  26   2.0000      -2.280435       -62.0538
  27   2.0000      -2.279890       -62.0389
  28   2.0000      -0.840721       -22.8772
  29   2.0000      -0.724899       -19.7255
  30   2.0000      -0.473813       -12.8931
  31   2.0000      -0.440030       -11.9738
  32   2.0000      -0.381323       -10.3763
  33   2.0000      -0.295551        -8.0424
  34   2.0000      -0.294558        -8.0153
  35   0.0000      -0.036950        -1.0055
  36   0.0000       0.050233         1.3669
  37   0.0000       0.052271         1.4224
  38   0.0000       0.288052         7.8383
  39   0.0000       0.352197         9.5838

MULLIKEN ATOMIC CHARGES
-----------------------
   0 Se:   -0.164783
   1 Se:   -0.164783
   2 H :    0.164783
   3 H :    0.164783
Sum of atomic charges:   -0.0000000

LOEWDIN ATOMIC CHARGES
----------------------
   0 Se:   -0.100727
   1 Se:   -0.100727
   2 H :    0.100727
   3 H :    0.100727

  Mayer bond orders larger than 0.100000
B(  0-Se,  1-Se) :   1.0958 B(  0-Se,  2-H ) :   0.9258 B(  1-Se,  3-H ) :   0.9258

Dispersion correction           -0.001243013
FINAL SINGLE POINT ENERGY     -4802.111795915286

DIPOLE MOMENT
-------------
                                X             Y             Z
Electronic contribution:     -0.00000       0.00000      -1.74816
Nuclear contribution   :      0.00000       0.00000       2.18281
                        -----------------------------------------
Total Dipole Moment    :     -0.00000       0.00000       0.43465
                        -----------------------------------------
Magnitude (a.u.)       :      0.43465
Magnitude (Debye)      :      1.10479

Rotational constants in cm-1:     3.963409     0.076873     0.076873
Rotational constants in MHz : 118820.010320  2304.594930  2304.585677

                             ****ORCA TERMINATED NORMALLY****
TOTAL RUN TIME: 0 days 0 hours 1 minutes 32 seconds 336 msec
