                         Program Version 5.0.3 -  RELEASE  -
|  1> ! PBEh-3c def2/J TightSCF DefGrid3
|  2>
|  3> %maxcore 60000
|  4>
|  5> %pal
|  6> nprocs 4
|  7> end
|  8>
|  9> *xyzfile 0 1 19_benCl-acetoneA.xyz
| 10>
| 11>                          ****END OF INPUT****

CARTESIAN COORDINATES (ANGSTROEM)
---------------------------------
  C     -0.453744    0.000183    1.059200
  C      0.583995   -0.000028    1.988245
  C      1.911124   -0.000143    1.563952
  C      2.200016   -0.000061    0.200857
  C      1.171853    0.000152   -0.738467
  H     -1.486276    0.000269    1.377241
  H      0.351319   -0.000103    3.044291
  H      2.712830   -0.000290    2.288838
  H      3.227238   -0.000163   -0.136887
  H      1.383275    0.000215   -1.797906
  C     -0.149841    0.000281   -0.299800
  Cl    -1.432288    0.000560   -1.466415

 Total Charge           Charge          ....    0
 Multiplicity           Mult            ....    1
 Number of Electrons    NEL             ....   58
 Basis Dimension        Dim             ....  118

ORBITAL ENERGIES
----------------

  NO   OCC          E(Eh)            E(eV)
   0   2.0000    -102.303708     -2783.8254
   1   2.0000     -10.515032      -286.1286
   2   2.0000     -10.463763      -284.7335
   3   2.0000     -10.463624      -284.7297
   4   2.0000     -10.463019      -284.7132
   5   2.0000     -10.462910      -284.7103
   6   2.0000     -10.459307      -284.6122
   7   2.0000      -9.771312      -265.8909
   8   2.0000      -7.458949      -202.9683
   9   2.0000      -7.450725      -202.7445
  10   2.0000      -7.450541      -202.7395
  11   2.0000      -0.994408       -27.0592
  12   2.0000      -0.933650       -25.4059
  13   2.0000      -0.852976       -23.2106
  14   2.0000      -0.823893       -22.4193
  15   2.0000      -0.700980       -19.0746
  16   2.0000      -0.679407       -18.4876
  17   2.0000      -0.596962       -16.2442
  18   2.0000      -0.536304       -14.5936
  19   2.0000      -0.535015       -14.5585
  20   2.0000      -0.497654       -13.5419
  21   2.0000      -0.493467       -13.4279
  22   2.0000      -0.456616       -12.4252
  23   2.0000      -0.420828       -11.4513
  24   2.0000      -0.419897       -11.4260
  25   2.0000      -0.387677       -10.5492
  26   2.0000      -0.364404        -9.9159
  27   2.0000      -0.307605        -8.3703
  28   2.0000      -0.288358        -7.8466
  29   0.0000       0.004648         0.1265
  30   0.0000       0.005895         0.1604
  31   0.0000       0.082917         2.2563
  32   0.0000       0.161309         4.3894
  33   0.0000       0.180969         4.9244

MULLIKEN ATOMIC CHARGES
-----------------------
   0 C :   -0.190493
   1 C :   -0.225857
   2 C :   -0.216573
   3 C :   -0.226042
   4 C :   -0.189537
   5 H :    0.245132
   6 H :    0.229650
   7 H :    0.226543
   8 H :    0.229563
   9 H :    0.245375
  10 C :   -0.015341
  11 Cl:   -0.112420
Sum of atomic charges:    0.0000000

LOEWDIN ATOMIC CHARGES
----------------------
   0 C :   -0.147081
   1 C :   -0.125877
   2 C :   -0.138027
   3 C :   -0.125899
   4 C :   -0.147096
   5 H :    0.148099
   6 H :    0.141166
   7 H :    0.139703
   8 H :    0.141137
   9 H :    0.148078
  10 C :   -0.122534
  11 Cl:    0.088332

  Mayer bond orders larger than 0.100000
B(  0-C ,  1-C ) :   1.4218 B(  0-C ,  5-H ) :   0.9083 B(  0-C , 10-C ) :   1.3637
B(  1-C ,  2-C ) :   1.4222 B(  1-C ,  6-H ) :   0.9161 B(  2-C ,  3-C ) :   1.4217
B(  2-C ,  7-H ) :   0.9181 B(  3-C ,  4-C ) :   1.4225 B(  3-C ,  8-H ) :   0.9162
B(  4-C ,  9-H ) :   0.9081 B(  4-C , 10-C ) :   1.3629 B( 10-C , 11-Cl) :   1.0247

Dispersion correction           -0.006806775
FINAL SINGLE POINT ENERGY      -690.831084237714

DIPOLE MOMENT
-------------
                                X             Y             Z
Electronic contribution:     -6.67142       0.00143      -6.04873
Nuclear contribution   :      7.17256      -0.00154       6.50348
                        -----------------------------------------
Total Dipole Moment    :      0.50114      -0.00011       0.45475
                        -----------------------------------------
Magnitude (a.u.)       :      0.67671
Magnitude (Debye)      :      1.72006

Rotational constants in cm-1:     0.190166     0.052194     0.040953
Rotational constants in MHz :  5701.029523  1564.723887  1227.751146

                             ****ORCA TERMINATED NORMALLY****
TOTAL RUN TIME: 0 days 0 hours 1 minutes 23 seconds 309 msec
