                         Program Version 5.0.3 -  RELEASE  -
|  1> ! PBEh-3c def2/J TightSCF DefGrid3
|  2>
|  3> %maxcore 60000
|  4>
|  5> %pal
|  6> nprocs 4
|  7> end
|  8>
|  9> *xyzfile 0 1 P7H7_1.xyz
| 10>
| 11>                          ****END OF INPUT****

CARTESIAN COORDINATES (ANGSTROEM)
---------------------------------
  P     -0.689365    1.719162    0.608194
  P     -2.004843    0.696010   -0.889971
  P     -2.137120   -1.412287   -0.251246
  P     -0.243257   -1.731093    0.913287
  P      1.149239   -1.392717   -0.806462
  P      2.394783    0.271267   -0.007211
  P      1.116317    1.944263   -0.697204
  H     -1.191534    3.010928    0.278627
  H     -1.025578    0.454494   -1.889306
  H     -2.936311   -1.103635    0.882775
  H     -0.244352   -3.143678    0.719448
  H      2.053120   -2.397364   -0.369203
  H      1.988938    0.204276    1.354113
  H      1.769962    2.880375    0.154158

 Total Charge           Charge          ....    0
 Multiplicity           Mult            ....    1
 Number of Electrons    NEL             ....  112
 Basis Dimension        Dim             ....  140

ORBITAL ENERGIES
----------------

  NO   OCC          E(Eh)            E(eV)
   0   2.0000     -77.765814     -2116.1154
   1   2.0000     -77.764014     -2116.0664
   2   2.0000     -77.762726     -2116.0313
   3   2.0000     -77.762145     -2116.0155
   4   2.0000     -77.760111     -2115.9602
   5   2.0000     -77.760035     -2115.9581
   6   2.0000     -77.757685     -2115.8942
   7   2.0000      -6.840817      -186.1481
   8   2.0000      -6.839345      -186.1080
   9   2.0000      -6.837781      -186.0655
  10   2.0000      -6.837330      -186.0532
  11   2.0000      -6.836181      -186.0219
  12   2.0000      -6.835923      -186.0149
  13   2.0000      -6.833612      -185.9520
  14   2.0000      -4.930933      -134.1775
  15   2.0000      -4.930763      -134.1729
  16   2.0000      -4.929432      -134.1367
  17   2.0000      -4.929369      -134.1349
  18   2.0000      -4.929286      -134.1327
  19   2.0000      -4.927888      -134.0947
  20   2.0000      -4.927661      -134.0885
  21   2.0000      -4.927491      -134.0839
  22   2.0000      -4.927357      -134.0802
  23   2.0000      -4.927254      -134.0774
  24   2.0000      -4.926556      -134.0584
  25   2.0000      -4.926267      -134.0505
  26   2.0000      -4.926067      -134.0451
  27   2.0000      -4.925958      -134.0421
  28   2.0000      -4.925868      -134.0397
  29   2.0000      -4.925778      -134.0372
  30   2.0000      -4.924577      -134.0046
  31   2.0000      -4.924438      -134.0008
  32   2.0000      -4.923622      -133.9786
  33   2.0000      -4.923575      -133.9773
  34   2.0000      -4.921971      -133.9336
  35   2.0000      -0.822441       -22.3797
  36   2.0000      -0.775070       -21.0907
  37   2.0000      -0.772489       -21.0205
  38   2.0000      -0.682871       -18.5819
  39   2.0000      -0.679419       -18.4879
  40   2.0000      -0.603094       -16.4110
  41   2.0000      -0.595633       -16.2080
  42   2.0000      -0.486178       -13.2296
  43   2.0000      -0.464389       -12.6367
  44   2.0000      -0.448514       -12.2047
  45   2.0000      -0.442422       -12.0389
  46   2.0000      -0.413859       -11.2617
  47   2.0000      -0.404333       -11.0025
  48   2.0000      -0.383033       -10.4229
  49   2.0000      -0.370948       -10.0940
  50   2.0000      -0.366487        -9.9726
  51   2.0000      -0.321235        -8.7413
  52   2.0000      -0.314589        -8.5604
  53   2.0000      -0.304182        -8.2772
  54   2.0000      -0.282853        -7.6968
  55   2.0000      -0.269809        -7.3419
  56   0.0000      -0.019077        -0.5191
  57   0.0000      -0.016225        -0.4415
  58   0.0000      -0.002288        -0.0623
  59   0.0000       0.009582         0.2607
  60   0.0000       0.020013         0.5446

MULLIKEN ATOMIC CHARGES
-----------------------
   0 P :   -0.137677
   1 P :   -0.126763
   2 P :   -0.080884
   3 P :   -0.136529
   4 P :   -0.135150
   5 P :   -0.106019
   6 P :   -0.108616
   7 H :    0.117661
   8 H :    0.135080
   9 H :    0.112049
  10 H :    0.110652
  11 H :    0.120403
  12 H :    0.124107
  13 H :    0.111685
Sum of atomic charges:   -0.0000000

LOEWDIN ATOMIC CHARGES
----------------------
   0 P :   -0.060510
   1 P :   -0.035621
   2 P :   -0.038732
   3 P :   -0.051155
   4 P :   -0.049364
   5 P :   -0.034140
   6 P :   -0.039042
   7 H :    0.044024
   8 H :    0.048383
   9 H :    0.040773
  10 H :    0.041882
  11 H :    0.046680
  12 H :    0.044003
  13 H :    0.042819

  Mayer bond orders larger than 0.100000
B(  0-P ,  1-P ) :   0.9687 B(  0-P ,  6-P ) :   0.9915 B(  0-P ,  7-H ) :   0.9111
B(  1-P ,  2-P ) :   1.0090 B(  1-P ,  8-H ) :   0.9044 B(  2-P ,  3-P ) :   0.9742
B(  2-P ,  9-H ) :   0.9214 B(  3-P ,  4-P ) :   0.9975 B(  3-P , 10-H ) :   0.9172
B(  4-P ,  5-P ) :   0.9797 B(  4-P , 11-H ) :   0.9189 B(  5-P ,  6-P ) :   0.9855
B(  5-P , 12-H ) :   0.9071 B(  6-P , 13-H ) :   0.9160

Dispersion correction           -0.013914171
FINAL SINGLE POINT ENERGY     -2390.899921182595

DIPOLE MOMENT
-------------
                                X             Y             Z
Electronic contribution:     -0.57253       0.14395      -1.59317
Nuclear contribution   :      0.77611      -0.17724       2.11824
                        -----------------------------------------
Total Dipole Moment    :      0.20357      -0.03330       0.52508
                        -----------------------------------------
Magnitude (a.u.)       :      0.56414
Magnitude (Debye)      :      1.43394

Rotational constants in cm-1:     0.031184     0.024254     0.016211
Rotational constants in MHz :   934.878043   727.109909   486.007042

                             ****ORCA TERMINATED NORMALLY****
TOTAL RUN TIME: 0 days 0 hours 1 minutes 49 seconds 310 msec
