                         Program Version 5.0.3 -  RELEASE  -
|  1> ! PBEh-3c def2/J TightSCF DefGrid3
|  2>
|  3> %maxcore 60000
|  4>
|  5> %pal
|  6> nprocs 4
|  7> end
|  8>
|  9> *xyzfile 0 1 64.xyz
| 10>
| 11>                          ****END OF INPUT****

CARTESIAN COORDINATES (ANGSTROEM)
---------------------------------
  C      1.688067    0.287024   -1.128451
  H      1.699926    1.243249   -1.646646
  H      2.373671   -0.399543   -1.616150
  H      2.028098    0.433372   -0.104582
  C      0.320180   -0.348850   -1.084001
  O      0.157605   -1.525604   -0.786723
  N     -0.715150    0.486524   -1.376487
  H     -0.510659    1.450568   -1.564378
  C     -2.091660    0.049980   -1.303510
  H     -2.086385   -1.035396   -1.297651
  H     -2.582191    0.399832   -0.394959
  H     -2.649391    0.404762   -2.166824
  C      0.012596    0.302009    2.377653
  H      0.007715    1.044182    3.163535
  H     -0.635936    0.469777    1.528970
  C      0.781107   -0.784953    2.447463
  H      1.426411   -0.956779    3.297590
  H      0.775995   -1.520153    1.655153

 Total Charge           Charge          ....    0
 Multiplicity           Mult            ....    1
 Number of Electrons    NEL             ....   56
 Basis Dimension        Dim             ....  127

ORBITAL ENERGIES
----------------

  NO   OCC          E(Eh)            E(eV)
   0   2.0000     -19.451452      -529.3009
   1   2.0000     -14.663563      -399.0158
   2   2.0000     -10.545757      -286.9646
   3   2.0000     -10.466451      -284.8066
   4   2.0000     -10.437848      -284.0283
   5   2.0000     -10.432704      -283.8883
   6   2.0000     -10.429701      -283.8066
   7   2.0000      -1.137982       -30.9661
   8   2.0000      -1.020707       -27.7748
   9   2.0000      -0.841934       -22.9102
  10   2.0000      -0.839915       -22.8552
  11   2.0000      -0.769739       -20.9457
  12   2.0000      -0.656816       -17.8729
  13   2.0000      -0.642648       -17.4873
  14   2.0000      -0.570321       -15.5192
  15   2.0000      -0.533209       -14.5093
  16   2.0000      -0.531470       -14.4620
  17   2.0000      -0.514098       -13.9893
  18   2.0000      -0.483077       -13.1452
  19   2.0000      -0.467701       -12.7268
  20   2.0000      -0.463641       -12.6163
  21   2.0000      -0.452792       -12.3211
  22   2.0000      -0.443448       -12.0668
  23   2.0000      -0.406377       -11.0581
  24   2.0000      -0.399910       -10.8821
  25   2.0000      -0.308766        -8.4019
  26   2.0000      -0.306503        -8.3404
  27   2.0000      -0.301074        -8.1926
  28   0.0000       0.045280         1.2321
  29   0.0000       0.066372         1.8061
  30   0.0000       0.115083         3.1316
  31   0.0000       0.155751         4.2382
  32   0.0000       0.179717         4.8903

MULLIKEN ATOMIC CHARGES
-----------------------
   0 C :   -0.753634
   1 H :    0.206747
   2 H :    0.259914
   3 H :    0.268205
   4 C :    0.528111
   5 O :   -0.437840
   6 N :   -0.626571
   7 H :    0.354029
   8 C :   -0.496064
   9 H :    0.268846
  10 H :    0.218106
  11 H :    0.220427
  12 C :   -0.451082
  13 H :    0.210434
  14 H :    0.215326
  15 C :   -0.451505
  16 H :    0.209336
  17 H :    0.257214
Sum of atomic charges:   -0.0000000

LOEWDIN ATOMIC CHARGES
----------------------
   0 C :   -0.392046
   1 H :    0.125250
   2 H :    0.155895
   3 H :    0.162046
   4 C :    0.106081
   5 O :   -0.287411
   6 N :   -0.251760
   7 H :    0.251322
   8 C :   -0.260762
   9 H :    0.155538
  10 H :    0.118939
  11 H :    0.123516
  12 C :   -0.273373
  13 H :    0.125898
  14 H :    0.127952
  15 C :   -0.260838
  16 H :    0.126347
  17 H :    0.147408

  Mayer bond orders larger than 0.100000
B(  0-C ,  1-H ) :   0.9221 B(  0-C ,  2-H ) :   0.9123 B(  0-C ,  3-H ) :   0.8967
B(  0-C ,  4-C ) :   0.9316 B(  4-C ,  5-O ) :   1.9641 B(  4-C ,  6-N ) :   1.1345
B(  6-N ,  7-H ) :   0.8294 B(  6-N ,  8-C ) :   0.9493 B(  8-C ,  9-H ) :   0.8970
B(  8-C , 10-H ) :   0.9182 B(  8-C , 11-H ) :   0.9238 B( 12-C , 13-H ) :   0.9310
B( 12-C , 14-H ) :   0.9227 B( 12-C , 15-C ) :   1.9767 B( 15-C , 16-H ) :   0.9309
B( 15-C , 17-H ) :   0.8997

Dispersion correction           -0.007801877
FINAL SINGLE POINT ENERGY      -326.398829836094

DIPOLE MOMENT
-------------
                                X             Y             Z
Electronic contribution:      0.08454      -2.28504      -2.74460
Nuclear contribution   :     -0.23505       3.66717       2.34430
                        -----------------------------------------
Total Dipole Moment    :     -0.15051       1.38213      -0.40030
                        -----------------------------------------
Magnitude (a.u.)       :      1.44678
Magnitude (Debye)      :      3.67742

Rotational constants in cm-1:     0.095983     0.050038     0.041720
Rotational constants in MHz :  2877.488129  1500.111864  1250.741434

                             ****ORCA TERMINATED NORMALLY****
TOTAL RUN TIME: 0 days 0 hours 1 minutes 43 seconds 826 msec
