                         Program Version 5.0.3 -  RELEASE  -
|  1> ! PBEh-3c def2/J TightSCF DefGrid3
|  2>
|  3> %maxcore 60000
|  4>
|  5> %pal
|  6> nprocs 4
|  7> end
|  8>
|  9> *xyzfile 0 1 H2S.xyz
| 10>
| 11>                          ****END OF INPUT****

CARTESIAN COORDINATES (ANGSTROEM)
---------------------------------
  S     -0.361701   -0.511807    0.000000
  H      0.973978   -0.304626    0.000000
  H     -0.612278    0.816433    0.000000

 Total Charge           Charge          ....    0
 Multiplicity           Mult            ....    1
 Number of Electrons    NEL             ....   18
 Basis Dimension        Dim             ....   22

ORBITAL ENERGIES
----------------

  NO   OCC          E(Eh)            E(eV)
   0   2.0000     -89.584058     -2437.7062
   1   2.0000      -8.226643      -223.8583
   2   2.0000      -6.117327      -166.4609
   3   2.0000      -6.114714      -166.3898
   4   2.0000      -6.108719      -166.2267
   5   2.0000      -0.820117       -22.3165
   6   2.0000      -0.495713       -13.4890
   7   2.0000      -0.413226       -11.2444
   8   2.0000      -0.303156        -8.2493
   9   0.0000       0.062727         1.7069
  10   0.0000       0.101055         2.7499
  11   0.0000       0.432654        11.7731
  12   0.0000       0.557488        15.1700
  13   0.0000       0.631772        17.1914

MULLIKEN ATOMIC CHARGES
-----------------------
   0 S :   -0.372952
   1 H :    0.186477
   2 H :    0.186474
Sum of atomic charges:   -0.0000000

LOEWDIN ATOMIC CHARGES
----------------------
   0 S :   -0.210662
   1 H :    0.105331
   2 H :    0.105331

  Mayer bond orders larger than 0.100000
B(  0-S ,  1-H ) :   0.9357 B(  0-S ,  2-H ) :   0.9357

Dispersion correction           -0.000417629
FINAL SINGLE POINT ENERGY      -398.931457260201

DIPOLE MOMENT
-------------
                                X             Y             Z
Electronic contribution:     -0.62089      -0.87857      -0.00000
Nuclear contribution   :      0.95872       1.35659       0.00000
                        -----------------------------------------
Total Dipole Moment    :      0.33783       0.47802      -0.00000
                        -----------------------------------------
Magnitude (a.u.)       :      0.58535
Magnitude (Debye)      :      1.48784

Rotational constants in cm-1:    10.056966     8.865057     4.711736
Rotational constants in MHz : 301500.245903 265767.737413 141254.293455

                             ****ORCA TERMINATED NORMALLY****
TOTAL RUN TIME: 0 days 0 hours 0 minutes 53 seconds 71 msec
