                         Program Version 5.0.3 -  RELEASE  -
|  1> ! PBEh-3c def2/J TightSCF DefGrid3
|  2>
|  3> %maxcore 60000
|  4>
|  5> %pal
|  6> nprocs 4
|  7> end
|  8>
|  9> *xyzfile -1 1 3.xyz
| 10>
| 11>                          ****END OF INPUT****

CARTESIAN COORDINATES (ANGSTROEM)
---------------------------------
  F     -2.399106    1.111197    0.014655
  H     -3.541794    1.070493   -0.030825
  F     -4.683277    1.027745   -0.078589

 Total Charge           Charge          ....   -1
 Multiplicity           Mult            ....    1
 Number of Electrons    NEL             ....   20
 Basis Dimension        Dim             ....   32

ORBITAL ENERGIES
----------------

  NO   OCC          E(Eh)            E(eV)
   0   2.0000     -24.686544      -671.7550
   1   2.0000     -24.686113      -671.7433
   2   2.0000      -0.920378       -25.0448
   3   2.0000      -0.872199       -23.7337
   4   2.0000      -0.259678        -7.0662
   5   2.0000      -0.116965        -3.1828
   6   2.0000      -0.116964        -3.1828
   7   2.0000      -0.095597        -2.6013
   8   2.0000      -0.095596        -2.6013
   9   2.0000      -0.086343        -2.3495
  10   0.0000       0.574699        15.6383
  11   0.0000       0.979977        26.6665
  12   0.0000       1.348164        36.6854
  13   0.0000       1.348165        36.6854
  14   0.0000       1.554720        42.3061

MULLIKEN ATOMIC CHARGES
-----------------------
   0 F :   -0.749366
   1 H :    0.498374
   2 F :   -0.749008
Sum of atomic charges:   -1.0000000

LOEWDIN ATOMIC CHARGES
----------------------
   0 F :   -0.680898
   1 H :    0.361170
   2 F :   -0.680272

  Mayer bond orders larger than 0.100000
B(  0-F ,  1-H ) :   0.3837 B(  1-H ,  2-F ) :   0.3842

Dispersion correction           -0.000219508
FINAL SINGLE POINT ENERGY      -199.936192148351

DIPOLE MOMENT
-------------
                                X             Y             Z
Electronic contribution:     -0.00103      -0.00043      -0.00048
Nuclear contribution   :     -0.00058       0.00098       0.00110
                        -----------------------------------------
Total Dipole Moment    :     -0.00161       0.00056       0.00062
                        -----------------------------------------
Magnitude (a.u.)       :      0.00181
Magnitude (Debye)      :      0.00461

Rotational constants in cm-1: 7023062.348857     0.339125     0.339125
Rotational constants in MHz : 210546112425.102142 10166.724991 10166.724500

                             ****ORCA TERMINATED NORMALLY****
TOTAL RUN TIME: 0 days 0 hours 0 minutes 18 seconds 697 msec
