                         Program Version 5.0.3 -  RELEASE  -
|  1> ! PBEh-3c def2/J TightSCF DefGrid3
|  2>
|  3> %maxcore 60000
|  4>
|  5> %pal
|  6> nprocs 4
|  7> end
|  8>
|  9> *xyzfile 0 1 C11.xyz
| 10>
| 11>                          ****END OF INPUT****

CARTESIAN COORDINATES (ANGSTROEM)
---------------------------------
  C      2.350208    0.614958    0.259906
  C      1.476062   -0.602825   -0.027398
  C      0.119892   -0.249600   -0.653946
  C     -0.927387    0.320760    0.334425
  C     -1.840222   -0.890405    0.624454
  O     -1.301219   -1.728004    1.646320
  C     -1.776295   -1.652277   -0.690851
  O      3.596671    0.237837    0.825706
  O     -1.745246    1.327259   -0.247287
  O      2.233851   -1.411058   -0.930313
  O     -0.440045   -1.472401   -1.178196
  C     -1.138429    2.608864   -0.327927
  H      2.500607    1.175812   -0.676164
  H      1.869951    1.277207    0.986901
  H      1.302976   -1.158476    0.905813
  H      0.268224    0.441769   -1.494223
  H     -0.465388    0.699717    1.258817
  H     -2.854795   -0.555998    0.869241
  H     -1.401439   -1.292529    2.502940
  H     -1.954364   -2.722128   -0.560220
  H     -2.497663   -1.236682   -1.406704
  H      3.956150   -0.467888    0.267586
  H      1.652722   -2.127122   -1.228419
  H     -0.850706    2.973436    0.669513
  H     -0.250406    2.607027   -0.975103
  H     -1.883710    3.282752   -0.754870

 Total Charge           Charge          ....    0
 Multiplicity           Mult            ....    1
 Number of Electrons    NEL             ....   96
 Basis Dimension        Dim             ....  208

ORBITAL ENERGIES
----------------

  NO   OCC          E(Eh)            E(eV)
   0   2.0000     -19.513404      -530.9867
   1   2.0000     -19.506638      -530.8026
   2   2.0000     -19.504914      -530.7557
   3   2.0000     -19.486643      -530.2585
   4   2.0000     -19.478020      -530.0239
   5   2.0000     -10.510105      -285.9945
   6   2.0000     -10.506925      -285.9080
   7   2.0000     -10.498481      -285.6782
   8   2.0000     -10.493617      -285.5458
   9   2.0000     -10.490647      -285.4650
  10   2.0000     -10.488333      -285.4021
  11   2.0000     -10.482091      -285.2322
  12   2.0000      -1.169906       -31.8348
  13   2.0000      -1.147240       -31.2180
  14   2.0000      -1.137067       -30.9412
  15   2.0000      -1.124852       -30.6088
  16   2.0000      -1.102775       -30.0080
  17   2.0000      -0.879069       -23.9207
  18   2.0000      -0.859805       -23.3965
  19   2.0000      -0.802686       -21.8422
  20   2.0000      -0.764482       -20.8026
  21   2.0000      -0.698197       -18.9989
  22   2.0000      -0.678755       -18.4699
  23   2.0000      -0.661967       -18.0130
  24   2.0000      -0.615051       -16.7364
  25   2.0000      -0.594962       -16.1897
  26   2.0000      -0.589723       -16.0472
  27   2.0000      -0.560398       -15.2492
  28   2.0000      -0.540141       -14.6980
  29   2.0000      -0.534808       -14.5529
  30   2.0000      -0.517003       -14.0684
  31   2.0000      -0.509012       -13.8509
  32   2.0000      -0.493201       -13.4207
  33   2.0000      -0.485549       -13.2125
  34   2.0000      -0.471477       -12.8295
  35   2.0000      -0.462337       -12.5808
  36   2.0000      -0.453186       -12.3318
  37   2.0000      -0.440191       -11.9782
  38   2.0000      -0.419134       -11.4052
  39   2.0000      -0.414635       -11.2828
  40   2.0000      -0.395365       -10.7584
  41   2.0000      -0.380523       -10.3545
  42   2.0000      -0.378302       -10.2941
  43   2.0000      -0.349248        -9.5035
  44   2.0000      -0.346417        -9.4265
  45   2.0000      -0.319725        -8.7002
  46   2.0000      -0.317402        -8.6369
  47   2.0000      -0.306536        -8.3413
  48   0.0000       0.100199         2.7265
  49   0.0000       0.113357         3.0846
  50   0.0000       0.120022         3.2660
  51   0.0000       0.139300         3.7905
  52   0.0000       0.156521         4.2592

MULLIKEN ATOMIC CHARGES
-----------------------
   0 C :   -0.127578
   1 C :   -0.013297
   2 C :    0.027952
   3 C :   -0.024764
   4 C :   -0.016147
   5 O :   -0.629396
   6 C :   -0.148273
   7 O :   -0.631164
   8 O :   -0.479374
   9 O :   -0.664214
  10 O :   -0.507318
  11 C :   -0.377514
  12 H :    0.181008
  13 H :    0.191051
  14 H :    0.211873
  15 H :    0.220458
  16 H :    0.206970
  17 H :    0.230458
  18 H :    0.419431
  19 H :    0.235688
  20 H :    0.210578
  21 H :    0.427668
  22 H :    0.438094
  23 H :    0.191305
  24 H :    0.194630
  25 H :    0.231874
Sum of atomic charges:   -0.0000000

LOEWDIN ATOMIC CHARGES
----------------------
   0 C :   -0.095331
   1 C :   -0.052533
   2 C :   -0.023488
   3 C :   -0.030663
   4 C :   -0.034671
   5 O :   -0.393768
   6 C :   -0.074916
   7 O :   -0.407977
   8 O :   -0.255239
   9 O :   -0.411352
  10 O :   -0.266341
  11 C :   -0.184446
  12 H :    0.102409
  13 H :    0.113443
  14 H :    0.116599
  15 H :    0.124295
  16 H :    0.111307
  17 H :    0.121708
  18 H :    0.313680
  19 H :    0.134336
  20 H :    0.118074
  21 H :    0.316279
  22 H :    0.320059
  23 H :    0.104618
  24 H :    0.104248
  25 H :    0.129670

  Mayer bond orders larger than 0.100000
B(  0-C ,  1-C ) :   0.9565 B(  0-C ,  7-O ) :   1.0343 B(  0-C , 12-H ) :   0.8965
B(  0-C , 13-H ) :   0.9117 B(  1-C ,  2-C ) :   0.9233 B(  1-C ,  9-O ) :   0.9824
B(  1-C , 14-H ) :   0.8833 B(  2-C ,  3-C ) :   0.9109 B(  2-C , 10-O ) :   0.9379
B(  2-C , 15-H ) :   0.8965 B(  3-C ,  4-C ) :   0.9271 B(  3-C ,  8-O ) :   0.9250
B(  3-C , 16-H ) :   0.8999 B(  4-C ,  5-O ) :   0.9992 B(  4-C ,  6-C ) :   0.9494
B(  4-C , 17-H ) :   0.8961 B(  5-O , 18-H ) :   0.7870 B(  6-C , 10-O ) :   0.9603
B(  6-C , 19-H ) :   0.9096 B(  6-C , 20-H ) :   0.9002 B(  7-O , 21-H ) :   0.7702
B(  8-O , 11-C ) :   0.9668 B(  9-O , 22-H ) :   0.7572 B( 11-C , 23-H ) :   0.9131
B( 11-C , 24-H ) :   0.9060 B( 11-C , 25-H ) :   0.9270

Dispersion correction           -0.014449326
FINAL SINGLE POINT ENERGY      -649.846299815093

DIPOLE MOMENT
-------------
                                X             Y             Z
Electronic contribution:      0.56645      -5.37095      -0.29812
Nuclear contribution   :     -1.72431       5.93611       0.60769
                        -----------------------------------------
Total Dipole Moment    :     -1.15787       0.56516       0.30957
                        -----------------------------------------
Magnitude (a.u.)       :      1.32510
Magnitude (Debye)      :      3.36814

Rotational constants in cm-1:     0.037943     0.022603     0.018098
Rotational constants in MHz :  1137.507973   677.623613   542.556246

                             ****ORCA TERMINATED NORMALLY****
TOTAL RUN TIME: 0 days 0 hours 3 minutes 6 seconds 724 msec
