                         Program Version 5.0.3 -  RELEASE  -
|  1> ! PBEh-3c def2/J TightSCF DefGrid3
|  2>
|  3> %maxcore 60000
|  4>
|  5> %pal
|  6> nprocs 4
|  7> end
|  8>
|  9> *xyzfile 0 2 05.xyz
| 10>
| 11>                          ****END OF INPUT****

CARTESIAN COORDINATES (ANGSTROEM)
---------------------------------
  B      0.361914    0.114722   -1.489322
  P     -1.413959   -2.104770    0.018508
  H      1.070659   -0.084923   -0.222152
  H      2.255482    1.933534   -1.491416
  B     -1.483698    0.977901    0.079944
  P      0.837778    1.995420   -1.514665
  H      1.395282    1.657077    1.186097
  Cl    -3.318537   -2.076867    0.860245
  N     -0.489988   -1.558169    1.379123
  H     -0.950044   -0.829970    1.934226
  P     -1.595261   -0.252673   -1.295606
  Si     1.154926   -1.182738    0.940481
  H      1.725478   -2.402879    0.302712
  H      0.919419   -0.627892   -2.244047
  P      0.499571    2.643377    0.627082
  N     -0.969024    1.798849    0.928790

 Total Charge           Charge          ....    0
 Multiplicity           Mult            ....    2
 Number of Electrons    NEL             ....  121
 Basis Dimension        Dim             ....  180

ORBITAL ENERGIES
----------------
                 SPIN UP ORBITALS
  NO   OCC          E(Eh)            E(eV)
   0   1.0000    -102.318870     -2784.2380
   1   1.0000     -77.842012     -2118.1888
   2   1.0000     -77.785526     -2116.6518
   3   1.0000     -77.756782     -2115.8696
   4   1.0000     -77.739903     -2115.4103
   5   1.0000     -66.824761     -1818.3942
   6   1.0000     -14.683766      -399.5656
   7   1.0000     -14.632189      -398.1621
   8   1.0000      -9.786209      -266.2963
   9   1.0000      -7.473449      -203.3629
  10   1.0000      -7.465875      -203.1568
  11   1.0000      -7.465518      -203.1471
  12   1.0000      -7.013450      -190.8457
  13   1.0000      -7.006309      -190.6514
  14   1.0000      -6.907577      -187.9647
  15   1.0000      -6.855048      -186.5353
  16   1.0000      -6.832862      -185.9316
  17   1.0000      -6.816543      -185.4876
  18   1.0000      -5.598258      -152.3364
  19   1.0000      -4.998630      -136.0196
  20   1.0000      -4.997287      -135.9831
  21   1.0000      -4.995198      -135.9262
  22   1.0000      -4.945913      -134.5851
  23   1.0000      -4.945481      -134.5734
  24   1.0000      -4.942993      -134.5057
  25   1.0000      -4.923347      -133.9711
  26   1.0000      -4.922468      -133.9472
  27   1.0000      -4.921747      -133.9275
  28   1.0000      -4.907160      -133.5306
  29   1.0000      -4.906431      -133.5108
  30   1.0000      -4.905627      -133.4889
  31   1.0000      -3.893234      -105.9403
  32   1.0000      -3.887890      -105.7949
  33   1.0000      -3.885951      -105.7421
  34   1.0000      -1.018692       -27.7200
  35   1.0000      -0.955436       -25.9987
  36   1.0000      -0.935444       -25.4547
  37   1.0000      -0.774379       -21.0719
  38   1.0000      -0.745081       -20.2747
  39   1.0000      -0.688606       -18.7379
  40   1.0000      -0.658157       -17.9094
  41   1.0000      -0.647584       -17.6216
  42   1.0000      -0.572049       -15.5663
  43   1.0000      -0.548335       -14.9210
  44   1.0000      -0.520574       -14.1655
  45   1.0000      -0.494192       -13.4476
  46   1.0000      -0.480924       -13.0866
  47   1.0000      -0.471080       -12.8187
  48   1.0000      -0.454129       -12.3575
  49   1.0000      -0.424761       -11.5583
  50   1.0000      -0.417500       -11.3607
  51   1.0000      -0.399191       -10.8625
  52   1.0000      -0.393250       -10.7009
  53   1.0000      -0.383794       -10.4436
  54   1.0000      -0.365952        -9.9581
  55   1.0000      -0.351762        -9.5719
  56   1.0000      -0.340636        -9.2692
  57   1.0000      -0.327300        -8.9063
  58   1.0000      -0.303135        -8.2487
  59   1.0000      -0.283097        -7.7034
  60   1.0000      -0.279432        -7.6037
  61   0.0000      -0.047546        -1.2938
  62   0.0000      -0.043202        -1.1756
  63   0.0000      -0.032141        -0.8746
  64   0.0000      -0.001669        -0.0454
  65   0.0000       0.009084         0.2472

                 SPIN DOWN ORBITALS
  NO   OCC          E(Eh)            E(eV)
   0   1.0000    -102.318716     -2784.2338
   1   1.0000     -77.841816     -2118.1835
   2   1.0000     -77.785359     -2116.6472
   3   1.0000     -77.756763     -2115.8691
   4   1.0000     -77.739581     -2115.4015
   5   1.0000     -66.820725     -1818.2844
   6   1.0000     -14.683280      -399.5524
   7   1.0000     -14.632228      -398.1632
   8   1.0000      -9.786058      -266.2922
   9   1.0000      -7.472977      -203.3500
  10   1.0000      -7.465715      -203.1524
  11   1.0000      -7.465428      -203.1446
  12   1.0000      -7.013414      -190.8447
  13   1.0000      -7.005906      -190.6404
  14   1.0000      -6.907272      -187.9564
  15   1.0000      -6.854869      -186.5305
  16   1.0000      -6.832843      -185.9311
  17   1.0000      -6.816167      -185.4773
  18   1.0000      -5.592628      -152.1831
  19   1.0000      -4.998525      -136.0168
  20   1.0000      -4.996969      -135.9744
  21   1.0000      -4.994898      -135.9181
  22   1.0000      -4.945816      -134.5825
  23   1.0000      -4.944878      -134.5570
  24   1.0000      -4.942844      -134.5016
  25   1.0000      -4.923353      -133.9712
  26   1.0000      -4.922489      -133.9477
  27   1.0000      -4.921618      -133.9240
  28   1.0000      -4.906960      -133.5252
  29   1.0000      -4.906268      -133.5063
  30   1.0000      -4.904503      -133.4583
  31   1.0000      -3.885138      -105.7200
  32   1.0000      -3.883290      -105.6697
  33   1.0000      -3.880653      -105.5979
  34   1.0000      -1.016253       -27.6537
  35   1.0000      -0.955297       -25.9949
  36   1.0000      -0.934092       -25.4179
  37   1.0000      -0.773124       -21.0378
  38   1.0000      -0.743352       -20.2276
  39   1.0000      -0.683564       -18.6007
  40   1.0000      -0.646716       -17.5980
  41   1.0000      -0.644753       -17.5446
  42   1.0000      -0.568513       -15.4700
  43   1.0000      -0.540250       -14.7009
  44   1.0000      -0.518267       -14.1028
  45   1.0000      -0.490477       -13.3466
  46   1.0000      -0.477291       -12.9878
  47   1.0000      -0.467151       -12.7118
  48   1.0000      -0.451828       -12.2949
  49   1.0000      -0.423633       -11.5276
  50   1.0000      -0.414958       -11.2916
  51   1.0000      -0.397627       -10.8200
  52   1.0000      -0.391116       -10.6428
  53   1.0000      -0.382612       -10.4114
  54   1.0000      -0.365337        -9.9413
  55   1.0000      -0.348718        -9.4891
  56   1.0000      -0.338207        -9.2031
  57   1.0000      -0.306895        -8.3510
  58   1.0000      -0.283441        -7.7128
  59   1.0000      -0.280639        -7.6366
  60   0.0000      -0.145661        -3.9636
  61   0.0000      -0.043012        -1.1704
  62   0.0000      -0.031982        -0.8703
  63   0.0000      -0.022799        -0.6204
  64   0.0000       0.000151         0.0041

MULLIKEN ATOMIC CHARGES AND SPIN POPULATIONS
--------------------------------------------
   0 B :   -0.320617    0.044934
   1 P :    0.480496    0.013935
   2 H :   -0.035661    0.003494
   3 H :    0.097598    0.001996
   4 B :    0.179796    0.004406
   5 P :   -0.138847    0.050561
   6 H :    0.036558   -0.007329
   7 Cl:   -0.228954    0.016088
   8 N :   -0.856143   -0.003462
   9 H :    0.407684    0.000046
  10 P :   -0.056715    0.001066
  11 Si:    0.470041    0.817083
  12 H :    0.026226    0.033477
  13 H :    0.151629    0.001226
  14 P :    0.256933    0.024337
  15 N :   -0.470025   -0.001859
Sum of atomic charges         :   -0.0000000

LOEWDIN ATOMIC CHARGES AND SPIN POPULATIONS
-------------------------------------------
   0 B :   -0.438403    0.037259
   1 P :    0.366475    0.019748
   2 H :    0.049951    0.009914
   3 H :    0.046638    0.001766
   4 B :   -0.118448    0.004306
   5 P :    0.049572    0.051923
   6 H :    0.000133   -0.001651
   7 Cl:   -0.115375    0.014809
   8 N :   -0.543792    0.009802
   9 H :    0.273056    0.001836
  10 P :    0.130534    0.005080
  11 Si:    0.333210    0.792159
  12 H :    0.008335    0.029963
  13 H :    0.044852    0.002463
  14 P :    0.281683    0.021866
  15 N :   -0.368422   -0.001242

  Mayer bond orders larger than 0.100000
B(  0-B ,  2-H ) :   0.3372 B(  0-B ,  5-P ) :   0.9743 B(  0-B , 10-P ) :   0.9110
B(  0-B , 11-Si) :   0.1241 B(  0-B , 13-H ) :   0.9478 B(  1-P ,  7-Cl) :   0.9825
B(  1-P ,  8-N ) :   0.9466 B(  1-P , 10-P ) :   0.9263 B(  2-H , 11-Si) :   0.5930
B(  3-H ,  5-P ) :   0.9201 B(  4-B , 10-P ) :   1.0527 B(  4-B , 15-N ) :   2.1519
B(  5-P , 11-Si) :   0.1021 B(  5-P , 14-P ) :   0.9632 B(  6-H , 14-P ) :   0.8849
B(  8-N ,  9-H ) :   0.7657 B(  8-N , 11-Si) :   1.0326 B( 11-Si, 12-H ) :   0.9391
B( 14-P , 15-N ) :   0.9298

Dispersion correction           -0.016357239
FINAL SINGLE POINT ENERGY     -2275.096871189470

DIPOLE MOMENT
-------------
                                X             Y             Z
Electronic contribution:    -10.96261      -0.41453      -0.80848
Nuclear contribution   :     12.17492      -0.41546       1.32489
                        -----------------------------------------
Total Dipole Moment    :      1.21231      -0.82999       0.51641
                        -----------------------------------------
Magnitude (a.u.)       :      1.55732
Magnitude (Debye)      :      3.95840

Rotational constants in cm-1:     0.032981     0.013090     0.012430
Rotational constants in MHz :   988.751796   392.433762   372.644431

                             ****ORCA TERMINATED NORMALLY****
TOTAL RUN TIME: 0 days 0 hours 2 minutes 33 seconds 996 msec
