                         Program Version 5.0.3 -  RELEASE  -
|  1> ! PBEh-3c def2/J TightSCF DefGrid3
|  2>
|  3> %maxcore 60000
|  4>
|  5> %pal
|  6> nprocs 4
|  7> end
|  8>
|  9> *xyzfile 0 1 nh3-bh3.xyz
| 10>
| 11>                          ****END OF INPUT****

CARTESIAN COORDINATES (ANGSTROEM)
---------------------------------
  N      0.000000    0.000000    0.720711
  B      0.000000    0.000000   -0.916976
  H      0.000000    0.946635    1.083474
  H     -0.819810   -0.473318    1.083474
  H      0.819810   -0.473318    1.083474
  H     -1.011891    0.584215   -1.236841
  H      1.011891    0.584215   -1.236841
  H      0.000000   -1.168431   -1.236841

 Total Charge           Charge          ....    0
 Multiplicity           Mult            ....    1
 Number of Electrons    NEL             ....   18
 Basis Dimension        Dim             ....   42

ORBITAL ENERGIES
----------------

  NO   OCC          E(Eh)            E(eV)
   0   2.0000     -14.712511      -400.3478
   1   2.0000      -6.883117      -187.2991
   2   2.0000      -1.049625       -28.5618
   3   2.0000      -0.616643       -16.7797
   4   2.0000      -0.616643       -16.7797
   5   2.0000      -0.580911       -15.8074
   6   2.0000      -0.405973       -11.0471
   7   2.0000      -0.316803        -8.6207
   8   2.0000      -0.316802        -8.6206
   9   0.0000       0.079264         2.1569
  10   0.0000       0.149604         4.0709
  11   0.0000       0.149608         4.0710
  12   0.0000       0.202785         5.5181
  13   0.0000       0.244129         6.6431

MULLIKEN ATOMIC CHARGES
-----------------------
   0 N :   -0.828531
   1 B :   -0.386220
   2 H :    0.396355
   3 H :    0.396353
   4 H :    0.396353
   5 H :    0.008559
   6 H :    0.008559
   7 H :    0.008572
Sum of atomic charges:    0.0000000

LOEWDIN ATOMIC CHARGES
----------------------
   0 N :   -0.321608
   1 B :   -0.439883
   2 H :    0.270942
   3 H :    0.270942
   4 H :    0.270942
   5 H :   -0.017114
   6 H :   -0.017114
   7 H :   -0.017108

  Mayer bond orders larger than 0.100000
B(  0-N ,  1-B ) :   0.6173 B(  0-N ,  2-H ) :   0.8199 B(  0-N ,  3-H ) :   0.8199
B(  0-N ,  4-H ) :   0.8199 B(  1-B ,  5-H ) :   0.9915 B(  1-B ,  6-H ) :   0.9915
B(  1-B ,  7-H ) :   0.9915

Dispersion correction           -0.001944916
FINAL SINGLE POINT ENERGY       -83.024704844799

DIPOLE MOMENT
-------------
                                X             Y             Z
Electronic contribution:      0.00000      -0.00002       1.95898
Nuclear contribution   :      0.00000      -0.00000       0.30999
                        -----------------------------------------
Total Dipole Moment    :      0.00000      -0.00002       2.26898
                        -----------------------------------------
Magnitude (a.u.)       :      2.26898
Magnitude (Debye)      :      5.76728

Rotational constants in cm-1:     2.465174     0.602970     0.602970
Rotational constants in MHz : 73904.063537 18076.598859 18076.598638

                             ****ORCA TERMINATED NORMALLY****
TOTAL RUN TIME: 0 days 0 hours 0 minutes 36 seconds 142 msec
