                         Program Version 5.0.3 -  RELEASE  -
|  1> ! PBEh-3c def2/J TightSCF DefGrid3
|  2>
|  3> %maxcore 60000
|  4>
|  5> %pal
|  6> nprocs 4
|  7> end
|  8>
|  9> *xyzfile 0 1 i13p.xyz
| 10>
| 11>                          ****END OF INPUT****

CARTESIAN COORDINATES (ANGSTROEM)
---------------------------------
  C     -4.126217   -0.752995    0.229959
  C     -4.342163    0.300684   -0.666487
  C     -3.261632    1.109443   -1.035907
  C     -1.981131    0.877038   -0.528904
  C     -1.767931   -0.182234    0.370475
  C     -2.854385   -0.993908    0.749606
  N     -0.488407   -0.492372    0.857905
  N      0.488407    0.492372    0.857905
  C      1.767931    0.182234    0.370475
  C      2.854385    0.993908    0.749606
  C      4.126217    0.752995    0.229959
  C      4.342163   -0.300684   -0.666487
  C      3.261632   -1.109443   -1.035907
  C      1.981131   -0.877038   -0.528904
  H     -0.469153   -1.119176    1.658441
  H      0.469153    1.119176    1.658441
  H     -4.954830   -1.390354    0.533638
  H     -5.335690    0.489180   -1.066610
  H     -3.412342    1.932747   -1.732147
  H     -1.141542    1.501622   -0.819768
  H     -2.694090   -1.813886    1.449799
  H      2.694090    1.813886    1.449799
  H      4.954830    1.390354    0.533638
  H      5.335690   -0.489180   -1.066610
  H      3.412342   -1.932747   -1.732147
  H      1.141542   -1.501622   -0.819768

 Total Charge           Charge          ....    0
 Multiplicity           Mult            ....    1
 Number of Electrons    NEL             ....   98
 Basis Dimension        Dim             ....  234

ORBITAL ENERGIES
----------------

  NO   OCC          E(Eh)            E(eV)
   0   2.0000     -14.685076      -399.6012
   1   2.0000     -14.684910      -399.5967
   2   2.0000     -10.492834      -285.5245
   3   2.0000     -10.492827      -285.5243
   4   2.0000     -10.449882      -284.3557
   5   2.0000     -10.449882      -284.3557
   6   2.0000     -10.447882      -284.3013
   7   2.0000     -10.447882      -284.3013
   8   2.0000     -10.446388      -284.2607
   9   2.0000     -10.446388      -284.2607
  10   2.0000     -10.440217      -284.0927
  11   2.0000     -10.440214      -284.0927
  12   2.0000     -10.438633      -284.0496
  13   2.0000     -10.438633      -284.0496
  14   2.0000      -1.116906       -30.3926
  15   2.0000      -0.976953       -26.5843
  16   2.0000      -0.941514       -25.6199
  17   2.0000      -0.906528       -24.6679
  18   2.0000      -0.833310       -22.6755
  19   2.0000      -0.832137       -22.6436
  20   2.0000      -0.824043       -22.4233
  21   2.0000      -0.790396       -21.5078
  22   2.0000      -0.694994       -18.9117
  23   2.0000      -0.688964       -18.7477
  24   2.0000      -0.679707       -18.4958
  25   2.0000      -0.658613       -17.9218
  26   2.0000      -0.605383       -16.4733
  27   2.0000      -0.602351       -16.3908
  28   2.0000      -0.597443       -16.2573
  29   2.0000      -0.550121       -14.9696
  30   2.0000      -0.543397       -14.7866
  31   2.0000      -0.505652       -13.7595
  32   2.0000      -0.497478       -13.5371
  33   2.0000      -0.495341       -13.4789
  34   2.0000      -0.490597       -13.3498
  35   2.0000      -0.476891       -12.9769
  36   2.0000      -0.476596       -12.9688
  37   2.0000      -0.439297       -11.9539
  38   2.0000      -0.433897       -11.8069
  39   2.0000      -0.414738       -11.2856
  40   2.0000      -0.410261       -11.1638
  41   2.0000      -0.396635       -10.7930
  42   2.0000      -0.392923       -10.6920
  43   2.0000      -0.361772        -9.8443
  44   2.0000      -0.359658        -9.7868
  45   2.0000      -0.290609        -7.9079
  46   2.0000      -0.290044        -7.8925
  47   2.0000      -0.255915        -6.9638
  48   2.0000      -0.240614        -6.5474
  49   0.0000       0.018145         0.4938
  50   0.0000       0.021227         0.5776
  51   0.0000       0.032817         0.8930
  52   0.0000       0.034381         0.9356
  53   0.0000       0.127619         3.4727

MULLIKEN ATOMIC CHARGES
-----------------------
   0 C :   -0.211193
   1 C :   -0.243164
   2 C :   -0.213516
   3 C :   -0.282096
   4 C :    0.367003
   5 C :   -0.309920
   6 N :   -0.556030
   7 N :   -0.556030
   8 C :    0.367004
   9 C :   -0.309920
  10 C :   -0.211194
  11 C :   -0.243163
  12 C :   -0.213516
  13 C :   -0.282097
  14 H :    0.340149
  15 H :    0.340149
  16 H :    0.217265
  17 H :    0.214918
  18 H :    0.218674
  19 H :    0.248058
  20 H :    0.209853
  21 H :    0.209853
  22 H :    0.217265
  23 H :    0.214918
  24 H :    0.218674
  25 H :    0.248058
Sum of atomic charges:   -0.0000000

LOEWDIN ATOMIC CHARGES
----------------------
   0 C :   -0.122581
   1 C :   -0.168514
   2 C :   -0.120634
   3 C :   -0.171061
   4 C :    0.024097
   5 C :   -0.179040
   6 N :   -0.186655
   7 N :   -0.186655
   8 C :    0.024097
   9 C :   -0.179040
  10 C :   -0.122581
  11 C :   -0.168514
  12 C :   -0.120634
  13 C :   -0.171061
  14 H :    0.238345
  15 H :    0.238345
  16 H :    0.135906
  17 H :    0.134477
  18 H :    0.136324
  19 H :    0.148124
  20 H :    0.131213
  21 H :    0.131213
  22 H :    0.135906
  23 H :    0.134477
  24 H :    0.136324
  25 H :    0.148124

  Mayer bond orders larger than 0.100000
B(  0-C ,  1-C ) :   1.4194 B(  0-C ,  5-C ) :   1.4592 B(  0-C , 16-H ) :   0.9198
B(  1-C ,  2-C ) :   1.4212 B(  1-C , 17-H ) :   0.9205 B(  2-C ,  3-C ) :   1.4317
B(  2-C , 18-H ) :   0.9208 B(  3-C ,  4-C ) :   1.3564 B(  3-C , 19-H ) :   0.8995
B(  4-C ,  5-C ) :   1.3287 B(  4-C ,  6-N ) :   0.9404 B(  5-C , 20-H ) :   0.9183
B(  6-N ,  7-N ) :   1.0507 B(  6-N , 14-H ) :   0.8308 B(  7-N ,  8-C ) :   0.9404
B(  7-N , 15-H ) :   0.8308 B(  8-C ,  9-C ) :   1.3287 B(  8-C , 13-C ) :   1.3564
B(  9-C , 10-C ) :   1.4592 B(  9-C , 21-H ) :   0.9183 B( 10-C , 11-C ) :   1.4194
B( 10-C , 22-H ) :   0.9198 B( 11-C , 12-C ) :   1.4212 B( 11-C , 23-H ) :   0.9205
B( 12-C , 13-C ) :   1.4317 B( 12-C , 24-H ) :   0.9208 B( 13-C , 25-H ) :   0.8995

Dispersion correction           -0.016643519
FINAL SINGLE POINT ENERGY      -572.702954526580

DIPOLE MOMENT
-------------
                                X             Y             Z
Electronic contribution:     -0.00000       0.00000       0.90608
Nuclear contribution   :      0.00000       0.00000      -0.12477
                        -----------------------------------------
Total Dipole Moment    :     -0.00000       0.00000       0.78131
                        -----------------------------------------
Magnitude (a.u.)       :      0.78131
Magnitude (Debye)      :      1.98593

Rotational constants in cm-1:     0.075720     0.009693     0.009589
Rotational constants in MHz :  2270.026599   290.588848   287.462997

                             ****ORCA TERMINATED NORMALLY****
TOTAL RUN TIME: 0 days 0 hours 3 minutes 25 seconds 384 msec
