                         Program Version 5.0.3 -  RELEASE  -
|  1> ! PBEh-3c def2/J TightSCF DefGrid3
|  2>
|  3> %maxcore 60000
|  4>
|  5> %pal
|  6> nprocs 4
|  7> end
|  8>
|  9> *xyzfile 0 1 E16.xyz
| 10>
| 11>                          ****END OF INPUT****

CARTESIAN COORDINATES (ANGSTROEM)
---------------------------------
  C     -1.021545   -0.071421    0.000000
  N      0.270039   -0.733639    0.000000
  C      1.307372   -0.017019    0.000000
  H     -0.956327    1.026412    0.000000
  H     -1.586018   -0.396149    0.877469
  H     -1.586018   -0.396149   -0.877469
  H      1.286709    1.082424    0.000000
  H      2.285787   -0.494460    0.000000

 Total Charge           Charge          ....    0
 Multiplicity           Mult            ....    1
 Number of Electrons    NEL             ....   24
 Basis Dimension        Dim             ....   55

ORBITAL ENERGIES
----------------

  NO   OCC          E(Eh)            E(eV)
   0   2.0000     -14.638320      -398.3289
   1   2.0000     -10.477798      -285.1154
   2   2.0000     -10.457752      -284.5699
   3   2.0000      -1.019429       -27.7401
   4   2.0000      -0.793976       -21.6052
   5   2.0000      -0.652702       -17.7609
   6   2.0000      -0.540004       -14.6943
   7   2.0000      -0.519274       -14.1302
   8   2.0000      -0.490839       -13.3564
   9   2.0000      -0.432910       -11.7801
  10   2.0000      -0.350691        -9.5428
  11   2.0000      -0.305009        -8.2997
  12   0.0000       0.029075         0.7912
  13   0.0000       0.155856         4.2411
  14   0.0000       0.195573         5.3218
  15   0.0000       0.205315         5.5869
  16   0.0000       0.219594         5.9754

MULLIKEN ATOMIC CHARGES
-----------------------
   0 C :   -0.505164
   1 N :   -0.247570
   2 C :   -0.274002
   3 H :    0.182607
   4 H :    0.230237
   5 H :    0.230237
   6 H :    0.171330
   7 H :    0.212325
Sum of atomic charges:   -0.0000000

LOEWDIN ATOMIC CHARGES
----------------------
   0 C :   -0.269015
   1 N :   -0.153235
   2 C :   -0.153982
   3 H :    0.101865
   4 H :    0.131418
   5 H :    0.131418
   6 H :    0.090996
   7 H :    0.120535

  Mayer bond orders larger than 0.100000
B(  0-C ,  1-N ) :   1.0089 B(  0-C ,  3-H ) :   0.9135 B(  0-C ,  4-H ) :   0.9112
B(  0-C ,  5-H ) :   0.9112 B(  1-N ,  2-C ) :   2.0252 B(  2-C ,  6-H ) :   0.8915
B(  2-C ,  7-H ) :   0.9054

Dispersion correction           -0.002244600
FINAL SINGLE POINT ENERGY      -133.638063483837

DIPOLE MOMENT
-------------
                                X             Y             Z
Electronic contribution:      1.21594      -1.30482      -0.00000
Nuclear contribution   :     -1.24572       1.91322       0.00000
                        -----------------------------------------
Total Dipole Moment    :     -0.02978       0.60841      -0.00000
                        -----------------------------------------
Magnitude (a.u.)       :      0.60913
Magnitude (Debye)      :      1.54830

Rotational constants in cm-1:     1.793915     0.354619     0.313164
Rotational constants in MHz : 53780.203754 10631.210782  9388.431661

                             ****ORCA TERMINATED NORMALLY****
TOTAL RUN TIME: 0 days 0 hours 0 minutes 29 seconds 776 msec
