                         Program Version 5.0.3 -  RELEASE  -
|  1> ! PBEh-3c def2/J TightSCF DefGrid3
|  2>
|  3> %maxcore 60000
|  4>
|  5> %pal
|  6> nprocs 4
|  7> end
|  8>
|  9> *xyzfile 0 1 ne4.xyz
| 10>
| 11>                          ****END OF INPUT****

CARTESIAN COORDINATES (ANGSTROEM)
---------------------------------
  Ne     1.107115   -1.107115    1.107115
  Ne    -1.107115    1.107115    1.107115
  Ne    -1.107115   -1.107115   -1.107115
  Ne     1.107115    1.107115   -1.107115

 Total Charge           Charge          ....    0
 Multiplicity           Mult            ....    1
 Number of Electrons    NEL             ....   40
 Basis Dimension        Dim             ....   60

ORBITAL ENERGIES
----------------

  NO   OCC          E(Eh)            E(eV)
   0   2.0000     -31.402381      -854.5022
   1   2.0000     -31.402381      -854.5022
   2   2.0000     -31.402381      -854.5022
   3   2.0000     -31.402379      -854.5022
   4   2.0000      -1.569904       -42.7193
   5   2.0000      -1.569463       -42.7073
   6   2.0000      -1.569463       -42.7073
   7   2.0000      -1.569463       -42.7073
   8   2.0000      -0.634806       -17.2739
   9   2.0000      -0.631687       -17.1891
  10   2.0000      -0.631687       -17.1891
  11   2.0000      -0.631687       -17.1891
  12   2.0000      -0.630810       -17.1652
  13   2.0000      -0.630810       -17.1652
  14   2.0000      -0.628166       -17.0933
  15   2.0000      -0.628166       -17.0933
  16   2.0000      -0.628166       -17.0933
  17   2.0000      -0.626814       -17.0565
  18   2.0000      -0.626814       -17.0565
  19   2.0000      -0.626814       -17.0565
  20   0.0000       1.401237        38.1296
  21   0.0000       1.432942        38.9923
  22   0.0000       1.432942        38.9923
  23   0.0000       1.432942        38.9923
  24   0.0000       1.441905        39.2362

MULLIKEN ATOMIC CHARGES
-----------------------
   0 Ne:    0.000000
   1 Ne:   -0.000000
   2 Ne:   -0.000000
   3 Ne:    0.000000
Sum of atomic charges:    0.0000000

LOEWDIN ATOMIC CHARGES
----------------------
   0 Ne:    0.000000
   1 Ne:   -0.000000
   2 Ne:   -0.000000
   3 Ne:    0.000000

Dispersion correction           -0.000340720
FINAL SINGLE POINT ENERGY      -514.782274228463

DIPOLE MOMENT
-------------
                                X             Y             Z
Electronic contribution:     -0.00000       0.00000      -0.00000
Nuclear contribution   :      0.00000       0.00000       0.00000
                        -----------------------------------------
Total Dipole Moment    :     -0.00000       0.00000      -0.00000
                        -----------------------------------------
Magnitude (a.u.)       :      0.00000
Magnitude (Debye)      :      0.00000

Rotational constants in cm-1:     0.085196     0.085196     0.085196
Rotational constants in MHz :  2554.124803  2554.124803  2554.124803

                             ****ORCA TERMINATED NORMALLY****
TOTAL RUN TIME: 0 days 0 hours 0 minutes 23 seconds 323 msec
