                         Program Version 5.0.3 -  RELEASE  -
|  1> ! PBEh-3c def2/J TightSCF DefGrid3
|  2>
|  3> %maxcore 60000
|  4>
|  5> %pal
|  6> nprocs 4
|  7> end
|  8>
|  9> *xyzfile 0 1 ethylthiourea_0.xyz
| 10>
| 11>                          ****END OF INPUT****

CARTESIAN COORDINATES (ANGSTROEM)
---------------------------------
  C      0.625278    2.898096   -0.039360
  C     -0.342554    1.737454   -0.031501
  N      0.361388    0.479984    0.014040
  C     -0.225427   -0.728129    0.095151
  N     -1.565627   -0.738290   -0.072571
  S      0.642930   -2.119558    0.353960
  H     -2.115873    0.097652   -0.038753
  H     -2.022160   -1.616542    0.070769
  H      1.343884    0.477448    0.215118
  H     -0.964290    1.772505   -0.927487
  H     -1.009872    1.826844    0.831092
  H      1.293517    2.842258   -0.894537
  H      0.079414    3.835162   -0.092176
  H      1.229059    2.908229    0.865230

 Total Charge           Charge          ....    0
 Multiplicity           Mult            ....    1
 Number of Electrons    NEL             ....   56
 Basis Dimension        Dim             ....  109

ORBITAL ENERGIES
----------------

  NO   OCC          E(Eh)            E(eV)
   0   2.0000     -89.500120     -2435.4221
   1   2.0000     -14.668566      -399.1520
   2   2.0000     -14.663276      -399.0080
   3   2.0000     -10.554620      -287.2058
   4   2.0000     -10.497326      -285.6468
   5   2.0000     -10.453200      -284.4460
   6   2.0000      -8.141147      -221.5319
   7   2.0000      -6.033131      -164.1698
   8   2.0000      -6.027197      -164.0084
   9   2.0000      -6.024614      -163.9381
  10   2.0000      -1.096199       -29.8291
  11   2.0000      -1.002977       -27.2924
  12   2.0000      -0.879264       -23.9260
  13   2.0000      -0.795384       -21.6435
  14   2.0000      -0.720745       -19.6125
  15   2.0000      -0.689224       -18.7547
  16   2.0000      -0.624014       -16.9803
  17   2.0000      -0.571153       -15.5419
  18   2.0000      -0.558107       -15.1869
  19   2.0000      -0.537933       -14.6379
  20   2.0000      -0.470947       -12.8151
  21   2.0000      -0.469220       -12.7681
  22   2.0000      -0.448602       -12.2071
  23   2.0000      -0.422521       -11.4974
  24   2.0000      -0.399502       -10.8710
  25   2.0000      -0.323180        -8.7942
  26   2.0000      -0.241441        -6.5699
  27   2.0000      -0.237683        -6.4677
  28   0.0000       0.046720         1.2713
  29   0.0000       0.111837         3.0432
  30   0.0000       0.127500         3.4694
  31   0.0000       0.136659         3.7187
  32   0.0000       0.177567         4.8318

MULLIKEN ATOMIC CHARGES
-----------------------
   0 C :   -0.678085
   1 C :   -0.285879
   2 N :   -0.577737
   3 C :    0.348983
   4 N :   -0.779034
   5 S :   -0.311994
   6 H :    0.371378
   7 H :    0.386785
   8 H :    0.379912
   9 H :    0.224165
  10 H :    0.215030
  11 H :    0.237760
  12 H :    0.238052
  13 H :    0.230663
Sum of atomic charges:   -0.0000000

LOEWDIN ATOMIC CHARGES
----------------------
   0 C :   -0.365656
   1 C :   -0.161460
   2 N :   -0.236742
   3 C :   -0.047143
   4 N :   -0.366644
   5 S :   -0.251111
   6 H :    0.248999
   7 H :    0.266224
   8 H :    0.267563
   9 H :    0.120536
  10 H :    0.113613
  11 H :    0.137144
  12 H :    0.140675
  13 H :    0.134000

  Mayer bond orders larger than 0.100000
B(  0-C ,  1-C ) :   1.0024 B(  0-C , 11-H ) :   0.9171 B(  0-C , 12-H ) :   0.9237
B(  0-C , 13-H ) :   0.9194 B(  1-C ,  2-N ) :   0.9511 B(  1-C ,  9-H ) :   0.8963
B(  1-C , 10-H ) :   0.8966 B(  2-N ,  3-C ) :   1.1777 B(  2-N ,  8-H ) :   0.8119
B(  3-C ,  4-N ) :   1.1590 B(  3-C ,  5-S ) :   1.5360 B(  4-N ,  6-H ) :   0.8092
B(  4-N ,  7-H ) :   0.8188

Dispersion correction           -0.006650307
FINAL SINGLE POINT ENERGY      -625.898098559041

DIPOLE MOMENT
-------------
                                X             Y             Z
Electronic contribution:      1.13450     -10.29204       0.71962
Nuclear contribution   :     -2.21929      12.34389      -0.76294
                        -----------------------------------------
Total Dipole Moment    :     -1.08479       2.05185      -0.04332
                        -----------------------------------------
Magnitude (a.u.)       :      2.32137
Magnitude (Debye)      :      5.90045

Rotational constants in cm-1:     0.221568     0.049137     0.040867
Rotational constants in MHz :  6642.449952  1473.079822  1225.167580

                             ****ORCA TERMINATED NORMALLY****
TOTAL RUN TIME: 0 days 0 hours 1 minutes 38 seconds 733 msec
