                         Program Version 5.0.3 -  RELEASE  -
|  1> ! PBEh-3c def2/J TightSCF DefGrid3
|  2>
|  3> %maxcore 60000
|  4>
|  5> %pal
|  6> nprocs 4
|  7> end
|  8>
|  9> *xyzfile 0 1 reac6.xyz
| 10>
| 11>                          ****END OF INPUT****

CARTESIAN COORDINATES (ANGSTROEM)
---------------------------------
  C      0.000000    0.471708    0.000000
  H     -0.276412    1.522311    0.000000
  C     -1.134329   -0.504429    0.000000
  H     -0.776700   -1.534190    0.000000
  H     -1.772470   -0.363824    0.876336
  H     -1.772470   -0.363824   -0.876336
  C      1.287947    0.151466    0.000000
  H      2.060505    0.908567    0.000000
  H      1.615839   -0.881516    0.000000

 Total Charge           Charge          ....    0
 Multiplicity           Mult            ....    1
 Number of Electrons    NEL             ....   24
 Basis Dimension        Dim             ....   57

ORBITAL ENERGIES
----------------

  NO   OCC          E(Eh)            E(eV)
   0   2.0000     -10.445309      -284.2313
   1   2.0000     -10.431166      -283.8464
   2   2.0000     -10.428834      -283.7830
   3   2.0000      -0.877061       -23.8661
   4   2.0000      -0.767010       -20.8714
   5   2.0000      -0.622554       -16.9405
   6   2.0000      -0.527817       -14.3626
   7   2.0000      -0.478695       -13.0260
   8   2.0000      -0.467463       -12.7203
   9   2.0000      -0.424714       -11.5571
  10   2.0000      -0.395965       -10.7748
  11   2.0000      -0.298637        -8.1263
  12   0.0000       0.051652         1.4055
  13   0.0000       0.164221         4.4687
  14   0.0000       0.192175         5.2294
  15   0.0000       0.199034         5.4160
  16   0.0000       0.219013         5.9596

MULLIKEN ATOMIC CHARGES
-----------------------
   0 C :   -0.144257
   1 H :    0.211265
   2 C :   -0.685894
   3 H :    0.222862
   4 H :    0.225588
   5 H :    0.225588
   6 C :   -0.474583
   7 H :    0.213202
   8 H :    0.206229
Sum of atomic charges:   -0.0000000

LOEWDIN ATOMIC CHARGES
----------------------
   0 C :   -0.145621
   1 H :    0.126813
   2 C :   -0.361286
   3 H :    0.132233
   4 H :    0.135408
   5 H :    0.135408
   6 C :   -0.280574
   7 H :    0.131087
   8 H :    0.126532

  Mayer bond orders larger than 0.100000
B(  0-C ,  1-H ) :   0.9208 B(  0-C ,  2-C ) :   0.9982 B(  0-C ,  6-C ) :   1.9459
B(  2-C ,  3-H ) :   0.9307 B(  2-C ,  4-H ) :   0.9164 B(  2-C ,  5-H ) :   0.9164
B(  6-C ,  7-H ) :   0.9303 B(  6-C ,  8-H ) :   0.9309

Dispersion correction           -0.002686418
FINAL SINGLE POINT ENERGY      -117.639537336948

DIPOLE MOMENT
-------------
                                X             Y             Z
Electronic contribution:      0.84086       0.75162       0.00000
Nuclear contribution   :     -0.98726      -0.76314       0.00000
                        -----------------------------------------
Total Dipole Moment    :     -0.14640      -0.01152       0.00000
                        -----------------------------------------
Magnitude (a.u.)       :      0.14685
Magnitude (Debye)      :      0.37326

Rotational constants in cm-1:     1.574924     0.310657     0.272461
Rotational constants in MHz : 47215.039666  9313.258136  8168.162698

                             ****ORCA TERMINATED NORMALLY****
TOTAL RUN TIME: 0 days 0 hours 0 minutes 55 seconds 633 msec
