                         Program Version 5.0.3 -  RELEASE  -
|  1> ! PBEh-3c def2/J TightSCF DefGrid3
|  2>
|  3> %maxcore 60000
|  4>
|  5> %pal
|  6> nprocs 4
|  7> end
|  8>
|  9> *xyzfile 0 1 50.xyz
| 10>
| 11>                          ****END OF INPUT****

CARTESIAN COORDINATES (ANGSTROEM)
---------------------------------
  C     -0.702935    1.031572    1.207794
  H     -1.243589    1.025438    2.144190
  C      0.691243    1.035781    1.207858
  H      1.231858    1.033134    2.144278
  C      1.388260    1.037834    0.000000
  H      2.469543    1.036682    0.000000
  C      0.691243    1.035781   -1.207858
  H      1.231858    1.033134   -2.144278
  C     -0.702935    1.031572   -1.207794
  H     -1.243589    1.025438   -2.144190
  C     -1.399979    1.029273    0.000000
  H     -2.481235    1.021295    0.000000
  C      0.011311   -2.488710    0.000000
  H      0.000886   -1.424537    0.000000
  C      0.023667   -3.701186    0.000000
  H      0.034415   -4.762471    0.000000

 Total Charge           Charge          ....    0
 Multiplicity           Mult            ....    1
 Number of Electrons    NEL             ....   56
 Basis Dimension        Dim             ....  136

ORBITAL ENERGIES
----------------

  NO   OCC          E(Eh)            E(eV)
   0   2.0000     -10.457294      -284.5574
   1   2.0000     -10.457038      -284.5505
   2   2.0000     -10.457025      -284.5501
   3   2.0000     -10.456426      -284.5338
   4   2.0000     -10.456411      -284.5334
   5   2.0000     -10.456190      -284.5274
   6   2.0000     -10.444538      -284.2103
   7   2.0000     -10.442189      -284.1464
   8   2.0000      -0.961405       -26.1612
   9   2.0000      -0.843869       -22.9628
  10   2.0000      -0.843716       -22.9587
  11   2.0000      -0.826362       -22.4864
  12   2.0000      -0.686660       -18.6850
  13   2.0000      -0.686595       -18.6832
  14   2.0000      -0.625002       -17.0072
  15   2.0000      -0.599632       -16.3168
  16   2.0000      -0.546138       -14.8612
  17   2.0000      -0.532735       -14.4965
  18   2.0000      -0.516410       -14.0522
  19   2.0000      -0.489430       -13.3181
  20   2.0000      -0.489256       -13.3133
  21   2.0000      -0.428089       -11.6489
  22   2.0000      -0.405696       -11.0396
  23   2.0000      -0.405658       -11.0385
  24   2.0000      -0.325312        -8.8522
  25   2.0000      -0.325308        -8.8521
  26   2.0000      -0.301345        -8.2000
  27   2.0000      -0.301230        -8.1969
  28   0.0000       0.010376         0.2823
  29   0.0000       0.010439         0.2841
  30   0.0000       0.081050         2.2055
  31   0.0000       0.081051         2.2055
  32   0.0000       0.134663         3.6644

MULLIKEN ATOMIC CHARGES
-----------------------
   0 C :   -0.226769
   1 H :    0.227563
   2 C :   -0.226741
   3 H :    0.227579
   4 C :   -0.226922
   5 H :    0.227549
   6 C :   -0.226741
   7 H :    0.227579
   8 C :   -0.226769
   9 H :    0.227563
  10 C :   -0.227149
  11 H :    0.227544
  12 C :   -0.211812
  13 H :    0.256583
  14 C :   -0.280815
  15 H :    0.231759
Sum of atomic charges:   -0.0000000

LOEWDIN ATOMIC CHARGES
----------------------
   0 C :   -0.138150
   1 H :    0.139344
   2 C :   -0.138099
   3 H :    0.139360
   4 C :   -0.138025
   5 H :    0.139333
   6 C :   -0.138099
   7 H :    0.139360
   8 C :   -0.138150
   9 H :    0.139344
  10 C :   -0.138188
  11 H :    0.139325
  12 C :   -0.153253
  13 H :    0.170876
  14 C :   -0.184246
  15 H :    0.159267

  Mayer bond orders larger than 0.100000
B(  0-C ,  1-H ) :   0.9183 B(  0-C ,  2-C ) :   1.4229 B(  0-C , 10-C ) :   1.4228
B(  2-C ,  3-H ) :   0.9183 B(  2-C ,  4-C ) :   1.4228 B(  4-C ,  5-H ) :   0.9183
B(  4-C ,  6-C ) :   1.4228 B(  6-C ,  7-H ) :   0.9183 B(  6-C ,  8-C ) :   1.4229
B(  8-C ,  9-H ) :   0.9183 B(  8-C , 10-C ) :   1.4228 B( 10-C , 11-H ) :   0.9183
B( 12-C , 13-H ) :   0.9094 B( 12-C , 14-C ) :   2.8276 B( 14-C , 15-H ) :   0.9303

Dispersion correction           -0.008241920
FINAL SINGLE POINT ENERGY      -308.872965974016

DIPOLE MOMENT
-------------
                                X             Y             Z
Electronic contribution:     -0.00053       0.20039       0.00000
Nuclear contribution   :      0.00024      -0.02060      -0.00000
                        -----------------------------------------
Total Dipole Moment    :     -0.00029       0.17978       0.00000
                        -----------------------------------------
Magnitude (a.u.)       :      0.17978
Magnitude (Debye)      :      0.45697

Rotational constants in cm-1:     0.095138     0.038681     0.038675
Rotational constants in MHz :  2852.164002  1159.618208  1159.453190

                             ****ORCA TERMINATED NORMALLY****
TOTAL RUN TIME: 0 days 0 hours 1 minutes 38 seconds 558 msec
