                         Program Version 5.0.3 -  RELEASE  -
|  1> ! PBEh-3c def2/J TightSCF DefGrid3
|  2>
|  3> %maxcore 60000
|  4>
|  5> %pal
|  6> nprocs 4
|  7> end
|  8>
|  9> *xyzfile 0 1 li_me.xyz
| 10>
| 11>                          ****END OF INPUT****

CARTESIAN COORDINATES (ANGSTROEM)
---------------------------------
  C     -0.000000    0.000000   -0.135535
  Li     0.000000    0.000000    1.838942
  H     -0.503512    0.872109   -0.567873
  H     -0.503512   -0.872109   -0.567873
  H      1.007025    0.000000   -0.567873

 Total Charge           Charge          ....    0
 Multiplicity           Mult            ....    1
 Number of Electrons    NEL             ....   12
 Basis Dimension        Dim             ....   30

ORBITAL ENERGIES
----------------

  NO   OCC          E(Eh)            E(eV)
   0   2.0000     -10.321374      -280.8589
   1   2.0000      -2.083505       -56.6951
   2   2.0000      -0.658816       -17.9273
   3   2.0000      -0.353306        -9.6139
   4   2.0000      -0.353306        -9.6139
   5   2.0000      -0.205852        -5.6015
   6   0.0000      -0.021149        -0.5755
   7   0.0000       0.072289         1.9671
   8   0.0000       0.072363         1.9691
   9   0.0000       0.072364         1.9691
  10   0.0000       0.180191         4.9032

MULLIKEN ATOMIC CHARGES
-----------------------
   0 C :   -1.111298
   1 Li:    0.592378
   2 H :    0.172973
   3 H :    0.172973
   4 H :    0.172974
Sum of atomic charges:   -0.0000000

LOEWDIN ATOMIC CHARGES
----------------------
   0 C :   -0.791209
   1 Li:    0.450938
   2 H :    0.113424
   3 H :    0.113424
   4 H :    0.113423

  Mayer bond orders larger than 0.100000
B(  0-C ,  1-Li) :   0.6620 B(  0-C ,  2-H ) :   0.9335 B(  0-C ,  3-H ) :   0.9335
B(  0-C ,  4-H ) :   0.9335

Dispersion correction           -0.000870873
FINAL SINGLE POINT ENERGY       -47.271805733258

DIPOLE MOMENT
-------------
                                X             Y             Z
Electronic contribution:     -0.00001      -0.00000       6.22789
Nuclear contribution   :      0.00000       0.00000      -4.05009
                        -----------------------------------------
Total Dipole Moment    :     -0.00001      -0.00000       2.17780
                        -----------------------------------------
Magnitude (a.u.)       :      2.17780
Magnitude (Debye)      :      5.53552

Rotational constants in cm-1:     5.497114     0.760566     0.760566
Rotational constants in MHz : 164799.327777 22801.192384 22801.192324

                             ****ORCA TERMINATED NORMALLY****
TOTAL RUN TIME: 0 days 0 hours 0 minutes 58 seconds 888 msec
