                         Program Version 5.0.3 -  RELEASE  -
|  1> ! PBEh-3c def2/J TightSCF DefGrid3
|  2>
|  3> %maxcore 60000
|  4>
|  5> %pal
|  6> nprocs 4
|  7> end
|  8>
|  9> *xyzfile 0 1 dimethyloxirane.xyz
| 10>
| 11>                          ****END OF INPUT****

CARTESIAN COORDINATES (ANGSTROEM)
---------------------------------
  C     -0.736020    0.158052    0.025162
  C      0.736575    0.155467   -0.024742
  O      0.002583    1.403025    0.001876
  H     -1.259306   -0.048061   -0.918327
  H      1.259074   -0.055138    0.918202
  C      1.515891   -0.144232   -1.277337
  H      2.433390    0.460856   -1.318068
  H      1.810243   -1.204499   -1.304761
  H      0.917646    0.077135   -2.171420
  C     -1.516417   -0.142126    1.276951
  H     -2.431691    0.466214    1.319344
  H     -1.814657   -1.201372    1.301547
  H     -0.917311    0.074680    2.171575

 Total Charge           Charge          ....    0
 Multiplicity           Mult            ....    1
 Number of Electrons    NEL             ....   40
 Basis Dimension        Dim             ....   91

ORBITAL ENERGIES
----------------

  NO   OCC          E(Eh)            E(eV)
   0   2.0000     -19.495233      -530.4923
   1   2.0000     -10.494690      -285.5750
   2   2.0000     -10.494372      -285.5664
   3   2.0000     -10.436467      -283.9907
   4   2.0000     -10.436462      -283.9906
   5   2.0000      -1.163960       -31.6730
   6   2.0000      -0.831519       -22.6268
   7   2.0000      -0.829351       -22.5678
   8   2.0000      -0.694819       -18.9070
   9   2.0000      -0.657014       -17.8783
  10   2.0000      -0.546913       -14.8823
  11   2.0000      -0.532657       -14.4943
  12   2.0000      -0.478817       -13.0293
  13   2.0000      -0.474245       -12.9049
  14   2.0000      -0.451415       -12.2836
  15   2.0000      -0.445513       -12.1230
  16   2.0000      -0.415250       -11.2995
  17   2.0000      -0.403709       -10.9855
  18   2.0000      -0.335938        -9.1413
  19   2.0000      -0.319734        -8.7004
  20   0.0000       0.146399         3.9837
  21   0.0000       0.158126         4.3028
  22   0.0000       0.161669         4.3992
  23   0.0000       0.167381         4.5547
  24   0.0000       0.180639         4.9154

MULLIKEN ATOMIC CHARGES
-----------------------
   0 C :    0.015586
   1 C :    0.015616
   2 O :   -0.461013
   3 H :    0.209807
   4 H :    0.209794
   5 C :   -0.667896
   6 H :    0.231678
   7 H :    0.213444
   8 H :    0.227873
   9 C :   -0.667890
  10 H :    0.231680
  11 H :    0.213448
  12 H :    0.227872
Sum of atomic charges:    0.0000000

LOEWDIN ATOMIC CHARGES
----------------------
   0 C :   -0.023063
   1 C :   -0.023067
   2 O :   -0.278647
   3 H :    0.118481
   4 H :    0.118474
   5 C :   -0.364043
   6 H :    0.137438
   7 H :    0.133283
   8 H :    0.137228
   9 C :   -0.364039
  10 H :    0.137439
  11 H :    0.133286
  12 H :    0.137230

  Mayer bond orders larger than 0.100000
B(  0-C ,  1-C ) :   0.9528 B(  0-C ,  2-O ) :   0.9433 B(  0-C ,  3-H ) :   0.9054
B(  0-C ,  9-C ) :   0.9762 B(  1-C ,  2-O ) :   0.9434 B(  1-C ,  4-H ) :   0.9054
B(  1-C ,  5-C ) :   0.9762 B(  5-C ,  6-H ) :   0.9204 B(  5-C ,  7-H ) :   0.9179
B(  5-C ,  8-H ) :   0.9252 B(  9-C , 10-H ) :   0.9204 B(  9-C , 11-H ) :   0.9179
B(  9-C , 12-H ) :   0.9252

Dispersion correction           -0.004657932
FINAL SINGLE POINT ENERGY      -231.924262286825

DIPOLE MOMENT
-------------
                                X             Y             Z
Electronic contribution:      0.00493       2.71542       0.00363
Nuclear contribution   :     -0.00649      -3.54574      -0.00473
                        -----------------------------------------
Total Dipole Moment    :     -0.00155      -0.83031      -0.00111
                        -----------------------------------------
Magnitude (a.u.)       :      0.83032
Magnitude (Debye)      :      2.11049

Rotational constants in cm-1:     0.402733     0.113123     0.101290
Rotational constants in MHz : 12073.617379  3391.329127  3036.593068

                             ****ORCA TERMINATED NORMALLY****
TOTAL RUN TIME: 0 days 0 hours 1 minutes 10 seconds 149 msec
