                         Program Version 5.0.3 -  RELEASE  -
|  1> ! PBEh-3c def2/J TightSCF DefGrid3
|  2>
|  3> %maxcore 60000
|  4>
|  5> %pal
|  6> nprocs 4
|  7> end
|  8>
|  9> *xyzfile 0 1 17b.xyz
| 10>
| 11>                          ****END OF INPUT****

CARTESIAN COORDINATES (ANGSTROEM)
---------------------------------
  P      0.000000    0.418134    0.000000
  F     -0.864586    1.813387    0.000000
  H     -0.735368   -0.220068    1.031927
  H     -0.735368   -0.220068   -1.031927

 Total Charge           Charge          ....    0
 Multiplicity           Mult            ....    1
 Number of Electrons    NEL             ....   26
 Basis Dimension        Dim             ....   37

ORBITAL ENERGIES
----------------

  NO   OCC          E(Eh)            E(eV)
   0   2.0000     -77.798295     -2116.9992
   1   2.0000     -25.081778      -682.5099
   2   2.0000      -6.867541      -186.8753
   3   2.0000      -4.959248      -134.9480
   4   2.0000      -4.957359      -134.8966
   5   2.0000      -4.955534      -134.8469
   6   2.0000      -1.299439       -35.3595
   7   2.0000      -0.722709       -19.6659
   8   2.0000      -0.537875       -14.6363
   9   2.0000      -0.523409       -14.2427
  10   2.0000      -0.497193       -13.5293
  11   2.0000      -0.417274       -11.3546
  12   2.0000      -0.320420        -8.7191
  13   0.0000       0.013922         0.3788
  14   0.0000       0.068332         1.8594
  15   0.0000       0.156879         4.2689
  16   0.0000       0.339741         9.2448
  17   0.0000       0.489017        13.3068

MULLIKEN ATOMIC CHARGES
-----------------------
   0 P :    0.368639
   1 F :   -0.465040
   2 H :    0.048200
   3 H :    0.048200
Sum of atomic charges:    0.0000000

LOEWDIN ATOMIC CHARGES
----------------------
   0 P :    0.336325
   1 F :   -0.360831
   2 H :    0.012253
   3 H :    0.012253

  Mayer bond orders larger than 0.100000
B(  0-P ,  1-F ) :   0.8471 B(  0-P ,  2-H ) :   0.9510 B(  0-P ,  3-H ) :   0.9510

Dispersion correction           -0.000751750
FINAL SINGLE POINT ENERGY      -441.799129057263

DIPOLE MOMENT
-------------
                                X             Y             Z
Electronic contribution:      0.56799       1.86270       0.00000
Nuclear contribution   :     -0.55934      -2.51757       0.00000
                        -----------------------------------------
Total Dipole Moment    :      0.00865      -0.65486       0.00000
                        -----------------------------------------
Magnitude (a.u.)       :      0.65492
Magnitude (Debye)      :      1.66467

Rotational constants in cm-1:     4.356244     0.485910     0.480045
Rotational constants in MHz : 130596.919369 14567.204476 14391.401462

                             ****ORCA TERMINATED NORMALLY****
TOTAL RUN TIME: 0 days 0 hours 0 minutes 29 seconds 454 msec
