                         Program Version 5.0.3 -  RELEASE  -
|  1> ! PBEh-3c def2/J TightSCF DefGrid3
|  2>
|  3> %maxcore 60000
|  4>
|  5> %pal
|  6> nprocs 4
|  7> end
|  8>
|  9> *xyzfile 0 1 B51.xyz
| 10>
| 11>                          ****END OF INPUT****

CARTESIAN COORDINATES (ANGSTROEM)
---------------------------------
  C      1.375126   -0.140622    0.468078
  H      0.897042   -1.058057    0.805231
  O      2.636154   -0.548481   -0.054593
  C      0.512121    0.558803   -0.574366
  H      1.078043    1.398299   -0.989540
  H      0.320358   -0.136523   -1.391302
  C     -0.809018    1.088211   -0.011359
  H     -1.348726    1.617637   -0.801974
  H     -0.614153    1.824206    0.774664
  H      3.081991    0.240993   -0.373154
  H      1.507389    0.508702    1.341866
  C     -1.717266    0.005741    0.565520
  H     -1.249007   -0.473741    1.423456
  H     -2.650616    0.456981    0.915459
  O     -1.979270   -1.049330   -0.356006
  H     -2.443164   -0.668796   -1.107149

 Total Charge           Charge          ....    0
 Multiplicity           Mult            ....    1
 Number of Electrons    NEL             ....   50
 Basis Dimension        Dim             ....  110

ORBITAL ENERGIES
----------------

  NO   OCC          E(Eh)            E(eV)
   0   2.0000     -19.488143      -530.2993
   1   2.0000     -19.480558      -530.0929
   2   2.0000     -10.483879      -285.2809
   3   2.0000     -10.476055      -285.0679
   4   2.0000     -10.441658      -284.1320
   5   2.0000     -10.433281      -283.9040
   6   2.0000      -1.124368       -30.5956
   7   2.0000      -1.117141       -30.3990
   8   2.0000      -0.884891       -24.0791
   9   2.0000      -0.792382       -21.5618
  10   2.0000      -0.721598       -19.6357
  11   2.0000      -0.657820       -17.9002
  12   2.0000      -0.569465       -15.4959
  13   2.0000      -0.561864       -15.2891
  14   2.0000      -0.531110       -14.4522
  15   2.0000      -0.515131       -14.0174
  16   2.0000      -0.477189       -12.9850
  17   2.0000      -0.468894       -12.7593
  18   2.0000      -0.448556       -12.2058
  19   2.0000      -0.409073       -11.1314
  20   2.0000      -0.402491       -10.9523
  21   2.0000      -0.387210       -10.5365
  22   2.0000      -0.362237        -9.8570
  23   2.0000      -0.327570        -8.9136
  24   2.0000      -0.319487        -8.6937
  25   0.0000       0.114542         3.1169
  26   0.0000       0.131355         3.5743
  27   0.0000       0.163329         4.4444
  28   0.0000       0.173101         4.7103
  29   0.0000       0.195605         5.3227

MULLIKEN ATOMIC CHARGES
-----------------------
   0 C :   -0.139359
   1 H :    0.222399
   2 O :   -0.622102
   3 C :   -0.450626
   4 H :    0.197727
   5 H :    0.236715
   6 C :   -0.479212
   7 H :    0.212428
   8 H :    0.211710
   9 H :    0.405603
  10 H :    0.169110
  11 C :   -0.163824
  12 H :    0.212815
  13 H :    0.196369
  14 O :   -0.619423
  15 H :    0.409670
Sum of atomic charges:   -0.0000000

LOEWDIN ATOMIC CHARGES
----------------------
   0 C :   -0.095888
   1 H :    0.124622
   2 O :   -0.408951
   3 C :   -0.267894
   4 H :    0.117029
   5 H :    0.135556
   6 C :   -0.269055
   7 H :    0.121785
   8 H :    0.127016
   9 H :    0.303948
  10 H :    0.092714
  11 C :   -0.097408
  12 H :    0.118677
  13 H :    0.102263
  14 O :   -0.410743
  15 H :    0.306332

  Mayer bond orders larger than 0.100000
B(  0-C ,  1-H ) :   0.9074 B(  0-C ,  2-O ) :   1.0181 B(  0-C ,  3-C ) :   0.9785
B(  0-C , 10-H ) :   0.9103 B(  2-O ,  9-H ) :   0.7963 B(  3-C ,  4-H ) :   0.9248
B(  3-C ,  5-H ) :   0.9042 B(  3-C ,  6-C ) :   0.9635 B(  6-C ,  7-H ) :   0.9219
B(  6-C ,  8-H ) :   0.9099 B(  6-C , 11-C ) :   0.9660 B( 11-C , 12-H ) :   0.9136
B( 11-C , 13-H ) :   0.9128 B( 11-C , 14-O ) :   1.0162 B( 14-O , 15-H ) :   0.7952

Dispersion correction           -0.006710620
FINAL SINGLE POINT ENERGY      -308.206468968232

DIPOLE MOMENT
-------------
                                X             Y             Z
Electronic contribution:      1.03137      -2.58603      -0.79245
Nuclear contribution   :     -1.46968       3.83912       0.61589
                        -----------------------------------------
Total Dipole Moment    :     -0.43831       1.25308      -0.17657
                        -----------------------------------------
Magnitude (a.u.)       :      1.33922
Magnitude (Debye)      :      3.40403

Rotational constants in cm-1:     0.227075     0.056717     0.051925
Rotational constants in MHz :  6807.541043  1700.328501  1556.673240

                             ****ORCA TERMINATED NORMALLY****
TOTAL RUN TIME: 0 days 0 hours 1 minutes 34 seconds 709 msec
