                         Program Version 5.0.3 -  RELEASE  -
|  1> ! PBEh-3c def2/J TightSCF DefGrid3
|  2>
|  3> %maxcore 60000
|  4>
|  5> %pal
|  6> nprocs 4
|  7> end
|  8>
|  9> *xyzfile 0 3 nh.xyz
| 10>
| 11>                          ****END OF INPUT****

CARTESIAN COORDINATES (ANGSTROEM)
---------------------------------
  N      0.069625    0.000000    0.000000
  H     -0.967567    0.000000    0.000000

 Total Charge           Charge          ....    0
 Multiplicity           Mult            ....    3
 Number of Electrons    NEL             ....    8
 Basis Dimension        Dim             ....   17

ORBITAL ENERGIES
----------------
                 SPIN UP ORBITALS
  NO   OCC          E(Eh)            E(eV)
   0   1.0000     -14.701593      -400.0507
   1   1.0000      -0.939328       -25.5604
   2   1.0000      -0.457128       -12.4391
   3   1.0000      -0.395493       -10.7619
   4   1.0000      -0.395493       -10.7619
   5   0.0000       0.145351         3.9552
   6   0.0000       0.728674        19.8282
   7   0.0000       0.728674        19.8282
   8   0.0000       0.800342        21.7784
   9   0.0000       0.862398        23.4670

                 SPIN DOWN ORBITALS
  NO   OCC          E(Eh)            E(eV)
   0   1.0000     -14.658081      -398.8667
   1   1.0000      -0.793197       -21.5840
   2   1.0000      -0.400774       -10.9056
   3   0.0000      -0.030527        -0.8307
   4   0.0000      -0.030527        -0.8307
   5   0.0000       0.168050         4.5729
   6   0.0000       0.830599        22.6018
   7   0.0000       0.857340        23.3294

MULLIKEN ATOMIC CHARGES AND SPIN POPULATIONS
--------------------------------------------
   0 N :   -0.303854    2.080149
   1 H :    0.303854   -0.080149
Sum of atomic charges         :   -0.0000000

LOEWDIN ATOMIC CHARGES AND SPIN POPULATIONS
-------------------------------------------
   0 N :   -0.189978    2.052445
   1 H :    0.189978   -0.052445

  Mayer bond orders larger than 0.100000
B(  0-N ,  1-H ) :   0.8611

Dispersion correction           -0.000112753
FINAL SINGLE POINT ENERGY       -55.100027124456

DIPOLE MOMENT
-------------
                                X             Y             Z
Electronic contribution:      0.24816      -0.00000      -0.00000
Nuclear contribution   :     -0.90736       0.00000       0.00000
                        -----------------------------------------
Total Dipole Moment    :     -0.65920      -0.00000      -0.00000
                        -----------------------------------------
Magnitude (a.u.)       :      0.65920
Magnitude (Debye)      :      1.67554

Rotational constants in cm-1:     0.000000    16.664732    16.664732
Rotational constants in MHz :     0.000000 499596.108410 499596.108410

                             ****ORCA TERMINATED NORMALLY****
TOTAL RUN TIME: 0 days 0 hours 0 minutes 47 seconds 520 msec
