                         Program Version 5.0.3 -  RELEASE  -
|  1> ! PBEh-3c def2/J TightSCF DefGrid3
|  2>
|  3> %maxcore 60000
|  4>
|  5> %pal
|  6> nprocs 4
|  7> end
|  8>
|  9> *xyzfile 0 1 18a.xyz
| 10>
| 11>                          ****END OF INPUT****

CARTESIAN COORDINATES (ANGSTROEM)
---------------------------------
  C     -1.207128    0.696936    0.000000
  C     -1.207128   -0.696936    0.000000
  C      0.000000   -1.393872    0.000000
  C      1.207128   -0.696936    0.000000
  C      1.207128    0.696936    0.000000
  C      0.000000    1.393872    0.000000
  H     -2.143562    1.237586    0.000000
  H     -2.143562   -1.237586    0.000000
  H      0.000000   -2.475172    0.000000
  H      2.143562   -1.237586    0.000000
  H      2.143562    1.237586    0.000000
  H      0.000000    2.475172    0.000000

 Total Charge           Charge          ....    0
 Multiplicity           Mult            ....    1
 Number of Electrons    NEL             ....   42
 Basis Dimension        Dim             ....  102

ORBITAL ENERGIES
----------------

  NO   OCC          E(Eh)            E(eV)
   0   2.0000     -10.448718      -284.3241
   1   2.0000     -10.448499      -284.3181
   2   2.0000     -10.448497      -284.3181
   3   2.0000     -10.447886      -284.3014
   4   2.0000     -10.447884      -284.3014
   5   2.0000     -10.447656      -284.2952
   6   2.0000      -0.952092       -25.9077
   7   2.0000      -0.835486       -22.7347
   8   2.0000      -0.835485       -22.7347
   9   2.0000      -0.679019       -18.4771
  10   2.0000      -0.679019       -18.4770
  11   2.0000      -0.592047       -16.1104
  12   2.0000      -0.526011       -14.3135
  13   2.0000      -0.508443       -13.8354
  14   2.0000      -0.481812       -13.1108
  15   2.0000      -0.481810       -13.1107
  16   2.0000      -0.420856       -11.4521
  17   2.0000      -0.398340       -10.8394
  18   2.0000      -0.398339       -10.8394
  19   2.0000      -0.292465        -7.9584
  20   2.0000      -0.292462        -7.9583
  21   0.0000       0.019180         0.5219
  22   0.0000       0.019181         0.5220
  23   0.0000       0.140874         3.8334
  24   0.0000       0.196234         5.3398
  25   0.0000       0.201876         5.4933

MULLIKEN ATOMIC CHARGES
-----------------------
   0 C :   -0.219860
   1 C :   -0.219860
   2 C :   -0.219873
   3 C :   -0.219860
   4 C :   -0.219860
   5 C :   -0.219873
   6 H :    0.219860
   7 H :    0.219860
   8 H :    0.219873
   9 H :    0.219860
  10 H :    0.219860
  11 H :    0.219873
Sum of atomic charges:    0.0000000

LOEWDIN ATOMIC CHARGES
----------------------
   0 C :   -0.135672
   1 C :   -0.135672
   2 C :   -0.135679
   3 C :   -0.135672
   4 C :   -0.135672
   5 C :   -0.135679
   6 H :    0.135675
   7 H :    0.135675
   8 H :    0.135674
   9 H :    0.135675
  10 H :    0.135675
  11 H :    0.135674

  Mayer bond orders larger than 0.100000
B(  0-C ,  1-C ) :   1.4265 B(  0-C ,  5-C ) :   1.4265 B(  0-C ,  6-H ) :   0.9200
B(  1-C ,  2-C ) :   1.4265 B(  1-C ,  7-H ) :   0.9200 B(  2-C ,  3-C ) :   1.4265
B(  2-C ,  8-H ) :   0.9200 B(  3-C ,  4-C ) :   1.4265 B(  3-C ,  9-H ) :   0.9200
B(  4-C ,  5-C ) :   1.4265 B(  4-C , 10-H ) :   0.9200 B(  5-C , 11-H ) :   0.9200

Dispersion correction           -0.005880831
FINAL SINGLE POINT ENERGY      -231.725796805549

DIPOLE MOMENT
-------------
                                X             Y             Z
Electronic contribution:      0.00000       0.00000       0.00000
Nuclear contribution   :      0.00000       0.00000       0.00000
                        -----------------------------------------
Total Dipole Moment    :      0.00000       0.00000       0.00000
                        -----------------------------------------
Magnitude (a.u.)       :      0.00000
Magnitude (Debye)      :      0.00000

Rotational constants in cm-1:     0.190408     0.190408     0.095204
Rotational constants in MHz :  5708.296259  5708.295850  2854.148027

                             ****ORCA TERMINATED NORMALLY****
TOTAL RUN TIME: 0 days 0 hours 1 minutes 0 seconds 139 msec
