                         Program Version 5.0.3 -  RELEASE  -
|  1> ! PBEh-3c def2/J TightSCF DefGrid3
|  2>
|  3> %maxcore 60000
|  4>
|  5> %pal
|  6> nprocs 4
|  7> end
|  8>
|  9> *xyzfile 0 1 AD4.xyz
| 10>
| 11>                          ****END OF INPUT****

CARTESIAN COORDINATES (ANGSTROEM)
---------------------------------
  C      0.623249    0.440758   -1.950164
  C     -0.623249   -0.440758   -1.950164
  C      1.919588   -0.364720   -1.950163
  C     -1.919588    0.364720   -1.950163
  H      0.597629    1.098582   -1.072224
  H      0.597628    1.098583   -2.828102
  H     -0.597629   -1.098582   -1.072224
  H     -0.597628   -1.098583   -2.828102
  H      2.797387    0.288091   -1.950163
  H      1.978788   -1.007283   -1.066148
  H      1.978789   -1.007284   -2.834176
  H     -2.797387   -0.288091   -1.950163
  H     -1.978788    1.007283   -1.066148
  H     -1.978789    1.007284   -2.834176
  C      0.623249   -0.440758    1.950164
  C     -0.623249    0.440758    1.950164
  C      1.919588    0.364720    1.950163
  C     -1.919588   -0.364720    1.950163
  H      0.597629   -1.098582    1.072224
  H      0.597628   -1.098583    2.828102
  H     -0.597629    1.098582    1.072224
  H     -0.597628    1.098583    2.828102
  H      2.797387   -0.288091    1.950163
  H      1.978788    1.007283    1.066148
  H      1.978789    1.007284    2.834176
  H     -2.797387    0.288091    1.950163
  H     -1.978788   -1.007283    1.066148
  H     -1.978789   -1.007284    2.834176

 Total Charge           Charge          ....    0
 Multiplicity           Mult            ....    1
 Number of Electrons    NEL             ....   68
 Basis Dimension        Dim             ....  160

ORBITAL ENERGIES
----------------

  NO   OCC          E(Eh)            E(eV)
   0   2.0000     -10.429518      -283.8016
   1   2.0000     -10.429503      -283.8012
   2   2.0000     -10.429291      -283.7954
   3   2.0000     -10.429285      -283.7953
   4   2.0000     -10.421237      -283.5763
   5   2.0000     -10.421235      -283.5762
   6   2.0000     -10.421212      -283.5756
   7   2.0000     -10.421205      -283.5754
   8   2.0000      -0.885511       -24.0960
   9   2.0000      -0.881805       -23.9951
  10   2.0000      -0.808030       -21.9876
  11   2.0000      -0.804798       -21.8997
  12   2.0000      -0.705229       -19.1903
  13   2.0000      -0.703343       -19.1389
  14   2.0000      -0.647262       -17.6129
  15   2.0000      -0.642827       -17.4922
  16   2.0000      -0.538841       -14.6626
  17   2.0000      -0.517480       -14.0814
  18   2.0000      -0.483516       -13.1571
  19   2.0000      -0.479830       -13.0568
  20   2.0000      -0.474381       -12.9086
  21   2.0000      -0.474248       -12.9050
  22   2.0000      -0.472643       -12.8613
  23   2.0000      -0.457170       -12.4402
  24   2.0000      -0.419024       -11.4022
  25   2.0000      -0.418080       -11.3765
  26   2.0000      -0.401025       -10.9124
  27   2.0000      -0.397557       -10.8181
  28   2.0000      -0.383475       -10.4349
  29   2.0000      -0.378443       -10.2980
  30   2.0000      -0.376952       -10.2574
  31   2.0000      -0.370291       -10.0761
  32   2.0000      -0.367162        -9.9910
  33   2.0000      -0.360336        -9.8052
  34   0.0000       0.091874         2.5000
  35   0.0000       0.131743         3.5849
  36   0.0000       0.155037         4.2188
  37   0.0000       0.168278         4.5791
  38   0.0000       0.173929         4.7329

MULLIKEN ATOMIC CHARGES
-----------------------
   0 C :   -0.411850
   1 C :   -0.411850
   2 C :   -0.641227
   3 C :   -0.641227
   4 H :    0.206627
   5 H :    0.206152
   6 H :    0.206627
   7 H :    0.206152
   8 H :    0.217577
   9 H :    0.212881
  10 H :    0.209839
  11 H :    0.217576
  12 H :    0.212881
  13 H :    0.209839
  14 C :   -0.411850
  15 C :   -0.411849
  16 C :   -0.641227
  17 C :   -0.641227
  18 H :    0.206627
  19 H :    0.206152
  20 H :    0.206627
  21 H :    0.206152
  22 H :    0.217577
  23 H :    0.212881
  24 H :    0.209839
  25 H :    0.217577
  26 H :    0.212881
  27 H :    0.209839
Sum of atomic charges:    0.0000000

LOEWDIN ATOMIC CHARGES
----------------------
   0 C :   -0.246892
   1 C :   -0.246892
   2 C :   -0.362036
   3 C :   -0.362036
   4 H :    0.116530
   5 H :    0.119317
   6 H :    0.116530
   7 H :    0.119317
   8 H :    0.126334
   9 H :    0.123342
  10 H :    0.123406
  11 H :    0.126334
  12 H :    0.123342
  13 H :    0.123406
  14 C :   -0.246892
  15 C :   -0.246892
  16 C :   -0.362036
  17 C :   -0.362036
  18 H :    0.116530
  19 H :    0.119317
  20 H :    0.116530
  21 H :    0.119317
  22 H :    0.126334
  23 H :    0.123342
  24 H :    0.123406
  25 H :    0.126334
  26 H :    0.123342
  27 H :    0.123406

  Mayer bond orders larger than 0.100000
B(  0-C ,  1-C ) :   0.9849 B(  0-C ,  2-C ) :   0.9958 B(  0-C ,  4-H ) :   0.9114
B(  0-C ,  5-H ) :   0.9196 B(  1-C ,  3-C ) :   0.9958 B(  1-C ,  6-H ) :   0.9114
B(  1-C ,  7-H ) :   0.9196 B(  2-C ,  8-H ) :   0.9323 B(  2-C ,  9-H ) :   0.9239
B(  2-C , 10-H ) :   0.9283 B(  3-C , 11-H ) :   0.9323 B(  3-C , 12-H ) :   0.9239
B(  3-C , 13-H ) :   0.9283 B( 14-C , 15-C ) :   0.9849 B( 14-C , 16-C ) :   0.9958
B( 14-C , 18-H ) :   0.9114 B( 14-C , 19-H ) :   0.9196 B( 15-C , 17-C ) :   0.9958
B( 15-C , 20-H ) :   0.9114 B( 15-C , 21-H ) :   0.9196 B( 16-C , 22-H ) :   0.9323
B( 16-C , 23-H ) :   0.9239 B( 16-C , 24-H ) :   0.9283 B( 17-C , 25-H ) :   0.9323
B( 17-C , 26-H ) :   0.9239 B( 17-C , 27-H ) :   0.9283

Dispersion correction           -0.013414538
FINAL SINGLE POINT ENERGY      -316.217036850229

DIPOLE MOMENT
-------------
                                X             Y             Z
Electronic contribution:      0.00000       0.00000       0.00000
Nuclear contribution   :      0.00000       0.00000       0.00000
                        -----------------------------------------
Total Dipole Moment    :      0.00000       0.00000       0.00000
                        -----------------------------------------
Magnitude (a.u.)       :      0.00000
Magnitude (Debye)      :      0.00000

Rotational constants in cm-1:     0.057014     0.034502     0.023533
Rotational constants in MHz :  1709.233671  1034.347404   705.514773

                             ****ORCA TERMINATED NORMALLY****
TOTAL RUN TIME: 0 days 0 hours 1 minutes 47 seconds 594 msec
