                         Program Version 5.0.3 -  RELEASE  -
|  1> ! PBEh-3c def2/J TightSCF DefGrid3
|  2>
|  3> %maxcore 60000
|  4>
|  5> %pal
|  6> nprocs 4
|  7> end
|  8>
|  9> *xyzfile 0 1 444.xyz
| 10>
| 11>                          ****END OF INPUT****

CARTESIAN COORDINATES (ANGSTROEM)
---------------------------------
  O      2.590324   -2.726351    1.139622
  C      2.900324   -1.797351    0.429622
  O      2.826324   -1.864351   -0.903378
  H      3.105324   -0.995351   -1.282378
  C      3.401324   -0.468351    0.983622
  H      4.412324   -0.290351    0.611622
  H      3.423324   -0.544351    2.065622
  N      2.562324    0.656649    0.613622
  H      1.891324    1.056649    1.268622
  C      2.576324    1.168649   -0.626378
  O      3.246324    0.692649   -1.552378
  C      1.700324    2.397649   -0.817378
  H      1.902324    2.787649   -1.809378
  H      1.959324    3.146649   -0.067378
  N      0.287324    2.094649   -0.712378
  H     -0.333676    2.145649   -1.508378
  C     -0.325676    1.936649    0.471622
  O      0.270324    1.910649    1.554622
  C     -1.845676    1.820649    0.396622
  N     -2.298676    1.804649   -0.993378
  H     -3.203676    2.247649   -1.074378
  H     -2.414676    0.841649   -1.298378
  H     -2.210676    2.736649    0.865622
  C     -2.319676    0.624649    1.245622
  H     -1.823676    0.681649    2.213622
  H     -3.394676    0.727649    1.405622
  C     -2.032676   -0.682351    0.563622
  C     -3.008676   -1.283351   -0.240378
  H     -3.992676   -0.834351   -0.302378
  C     -2.739676   -2.462351   -0.933378
  H     -3.508676   -2.915351   -1.544378
  C     -1.485676   -3.057351   -0.828378
  H     -1.273676   -3.975351   -1.359378
  C     -0.505676   -2.478351   -0.022378
  H      0.462324   -2.948351    0.082622
  C     -0.778676   -1.296351    0.662622
  H     -0.020676   -0.859351    1.301622

 Total Charge           Charge          ....    0
 Multiplicity           Mult            ....    1
 Number of Electrons    NEL             ....  148
 Basis Dimension        Dim             ....  334

ORBITAL ENERGIES
----------------

  NO   OCC          E(Eh)            E(eV)
   0   2.0000     -19.518465      -531.1244
   1   2.0000     -19.492220      -530.4103
   2   2.0000     -19.485520      -530.2279
   3   2.0000     -19.474486      -529.9277
   4   2.0000     -14.684284      -399.5797
   5   2.0000     -14.681605      -399.5068
   6   2.0000     -14.644173      -398.4882
   7   2.0000     -10.573788      -287.7274
   8   2.0000     -10.573379      -287.7163
   9   2.0000     -10.566473      -287.5284
  10   2.0000     -10.505447      -285.8678
  11   2.0000     -10.501554      -285.7618
  12   2.0000     -10.497879      -285.6618
  13   2.0000     -10.462022      -284.6861
  14   2.0000     -10.455220      -284.5010
  15   2.0000     -10.452258      -284.4204
  16   2.0000     -10.450992      -284.3859
  17   2.0000     -10.446155      -284.2543
  18   2.0000     -10.445334      -284.2320
  19   2.0000     -10.441668      -284.1322
  20   2.0000      -1.203994       -32.7623
  21   2.0000      -1.174106       -31.9490
  22   2.0000      -1.164886       -31.6982
  23   2.0000      -1.114112       -30.3165
  24   2.0000      -1.054331       -28.6898
  25   2.0000      -1.045415       -28.4472
  26   2.0000      -1.013479       -27.5782
  27   2.0000      -0.957531       -26.0557
  28   2.0000      -0.880011       -23.9463
  29   2.0000      -0.868596       -23.6357
  30   2.0000      -0.836330       -22.7577
  31   2.0000      -0.824965       -22.4484
  32   2.0000      -0.806786       -21.9538
  33   2.0000      -0.739419       -20.1206
  34   2.0000      -0.693182       -18.8624
  35   2.0000      -0.684319       -18.6213
  36   2.0000      -0.671257       -18.2658
  37   2.0000      -0.665246       -18.1023
  38   2.0000      -0.657284       -17.8856
  39   2.0000      -0.625845       -17.0301
  40   2.0000      -0.618555       -16.8317
  41   2.0000      -0.594859       -16.1869
  42   2.0000      -0.578175       -15.7329
  43   2.0000      -0.576328       -15.6827
  44   2.0000      -0.573784       -15.6135
  45   2.0000      -0.559099       -15.2139
  46   2.0000      -0.530443       -14.4341
  47   2.0000      -0.525615       -14.3027
  48   2.0000      -0.523264       -14.2387
  49   2.0000      -0.507099       -13.7989
  50   2.0000      -0.503950       -13.7132
  51   2.0000      -0.497007       -13.5242
  52   2.0000      -0.492247       -13.3947
  53   2.0000      -0.490471       -13.3464
  54   2.0000      -0.479508       -13.0481
  55   2.0000      -0.474206       -12.9038
  56   2.0000      -0.465265       -12.6605
  57   2.0000      -0.460873       -12.5410
  58   2.0000      -0.455840       -12.4040
  59   2.0000      -0.437374       -11.9015
  60   2.0000      -0.436082       -11.8664
  61   2.0000      -0.433186       -11.7876
  62   2.0000      -0.414826       -11.2880
  63   2.0000      -0.392812       -10.6890
  64   2.0000      -0.390530       -10.6269
  65   2.0000      -0.362159        -9.8549
  66   2.0000      -0.358588        -9.7577
  67   2.0000      -0.353901        -9.6301
  68   2.0000      -0.349821        -9.5191
  69   2.0000      -0.320632        -8.7248
  70   2.0000      -0.316990        -8.6257
  71   2.0000      -0.308380        -8.3914
  72   2.0000      -0.292788        -7.9672
  73   2.0000      -0.287224        -7.8158
  74   0.0000       0.009666         0.2630
  75   0.0000       0.014627         0.3980
  76   0.0000       0.021424         0.5830
  77   0.0000       0.036405         0.9906
  78   0.0000       0.047145         1.2829

MULLIKEN ATOMIC CHARGES
-----------------------
   0 O :   -0.402036
   1 C :    0.554318
   2 O :   -0.591760
   3 H :    0.475411
   4 C :   -0.446826
   5 H :    0.268881
   6 H :    0.275906
   7 N :   -0.636353
   8 H :    0.430745
   9 C :    0.558253
  10 O :   -0.483778
  11 C :   -0.406865
  12 H :    0.277483
  13 H :    0.264106
  14 N :   -0.621336
  15 H :    0.405854
  16 C :    0.579885
  17 O :   -0.488491
  18 C :   -0.204700
  19 N :   -0.786840
  20 H :    0.339403
  21 H :    0.363337
  22 H :    0.264883
  23 C :   -0.522571
  24 H :    0.273307
  25 H :    0.233796
  26 C :    0.120733
  27 C :   -0.311789
  28 H :    0.213158
  29 C :   -0.208548
  30 H :    0.218811
  31 C :   -0.232621
  32 H :    0.226341
  33 C :   -0.216348
  34 H :    0.282391
  35 C :   -0.287240
  36 H :    0.221101
Sum of atomic charges:   -0.0000000

LOEWDIN ATOMIC CHARGES
----------------------
   0 O :   -0.223201
   1 C :    0.117143
   2 O :   -0.299408
   3 H :    0.328626
   4 C :   -0.186846
   5 H :    0.151416
   6 H :    0.155646
   7 N :   -0.224617
   8 H :    0.279361
   9 C :    0.113970
  10 O :   -0.300854
  11 C :   -0.159685
  12 H :    0.154773
  13 H :    0.148886
  14 N :   -0.213464
  15 H :    0.277632
  16 C :    0.116471
  17 O :   -0.313761
  18 C :   -0.100562
  19 N :   -0.464414
  20 H :    0.236052
  21 H :    0.242286
  22 H :    0.147999
  23 C :   -0.227727
  24 H :    0.155731
  25 H :    0.133062
  26 C :   -0.063517
  27 C :   -0.161948
  28 H :    0.129799
  29 C :   -0.134340
  30 H :    0.135948
  31 C :   -0.134100
  32 H :    0.139045
  33 C :   -0.117832
  34 H :    0.158894
  35 C :   -0.134883
  36 H :    0.138417

  Mayer bond orders larger than 0.100000
B(  0-O ,  1-C ) :   2.0074 B(  1-C ,  2-O ) :   1.2108 B(  1-C ,  4-C ) :   0.9030
B(  2-O ,  3-H ) :   0.6319 B(  3-H , 10-O ) :   0.1406 B(  4-C ,  5-H ) :   0.8872
B(  4-C ,  6-H ) :   0.9002 B(  4-C ,  7-N ) :   0.9399 B(  7-N ,  8-H ) :   0.6973
B(  7-N ,  9-C ) :   1.2428 B(  8-H , 17-O ) :   0.1114 B(  9-C , 10-O ) :   1.8130
B(  9-C , 11-C ) :   0.8929 B( 11-C , 12-H ) :   0.9082 B( 11-C , 13-H ) :   0.8930
B( 11-C , 14-N ) :   0.9497 B( 14-N , 15-H ) :   0.7542 B( 14-N , 16-C ) :   1.2084
B( 16-C , 17-O ) :   1.8118 B( 16-C , 18-C ) :   0.9066 B( 18-C , 19-N ) :   1.0329
B( 18-C , 22-H ) :   0.8938 B( 18-C , 23-C ) :   0.9420 B( 19-N , 20-H ) :   0.8539
B( 19-N , 21-H ) :   0.8190 B( 23-C , 24-H ) :   0.8932 B( 23-C , 25-H ) :   0.9205
B( 23-C , 26-C ) :   0.9535 B( 26-C , 27-C ) :   1.3884 B( 26-C , 35-C ) :   1.3949
B( 27-C , 28-H ) :   0.9207 B( 27-C , 29-C ) :   1.4214 B( 29-C , 30-H ) :   0.9203
B( 29-C , 31-C ) :   1.4262 B( 31-C , 32-H ) :   0.9185 B( 31-C , 33-C ) :   1.4106
B( 33-C , 34-H ) :   0.8711 B( 33-C , 35-C ) :   1.4279 B( 35-C , 36-H ) :   0.9107

Dispersion correction           -0.027514545
FINAL SINGLE POINT ENERGY      -968.747253231589

DIPOLE MOMENT
-------------
                                X             Y             Z
Electronic contribution:      8.44424      -2.57997       0.19560
Nuclear contribution   :     -9.85153       4.65128      -0.60911
                        -----------------------------------------
Total Dipole Moment    :     -1.40729       2.07131      -0.41351
                        -----------------------------------------
Magnitude (a.u.)       :      2.53807
Magnitude (Debye)      :      6.45126

Rotational constants in cm-1:     0.014159     0.010199     0.007167
Rotational constants in MHz :   424.464924   305.751900   214.853349

                             ****ORCA TERMINATED NORMALLY****
TOTAL RUN TIME: 0 days 0 hours 5 minutes 58 seconds 248 msec
