                         Program Version 5.0.3 -  RELEASE  -
|  1> ! PBEh-3c def2/J TightSCF DefGrid3
|  2>
|  3> %maxcore 60000
|  4>
|  5> %pal
|  6> nprocs 4
|  7> end
|  8>
|  9> *xyzfile 0 1 P5.xyz
| 10>
| 11>                          ****END OF INPUT****

CARTESIAN COORDINATES (ANGSTROEM)
---------------------------------
  C      0.000000    1.280717   -0.193132
  C     -1.243422    0.770575    0.559971
  C     -1.243422   -0.770575    0.559971
  C      0.000000   -1.280717   -0.193132
  C      0.000000    0.665480   -1.560951
  C      0.000000   -0.665480   -1.560951
  C      1.243422    0.770575    0.559971
  C      1.243422   -0.770575    0.559971
  H      0.000000    2.371808   -0.233014
  H     -1.228794    1.161880    1.581782
  H     -2.145701    1.159297    0.083066
  H     -2.145701   -1.159297    0.083066
  H     -1.228794   -1.161880    1.581782
  H      0.000000   -2.371808   -0.233014
  H      0.000000    1.268374   -2.462540
  H      0.000000   -1.268374   -2.462540
  H      1.228794    1.161880    1.581782
  H      2.145701    1.159297    0.083066
  H      1.228794   -1.161880    1.581782
  H      2.145701   -1.159297    0.083066

 Total Charge           Charge          ....    0
 Multiplicity           Mult            ....    1
 Number of Electrons    NEL             ....   60
 Basis Dimension        Dim             ....  144

ORBITAL ENERGIES
----------------

  NO   OCC          E(Eh)            E(eV)
   0   2.0000     -10.438139      -284.0362
   1   2.0000     -10.437995      -284.0323
   2   2.0000     -10.428106      -283.7632
   3   2.0000     -10.427961      -283.7593
   4   2.0000     -10.427881      -283.7571
   5   2.0000     -10.427769      -283.7540
   6   2.0000     -10.427723      -283.7528
   7   2.0000     -10.427112      -283.7362
   8   2.0000      -0.960802       -26.1447
   9   2.0000      -0.835319       -22.7302
  10   2.0000      -0.825094       -22.4519
  11   2.0000      -0.820808       -22.3353
  12   2.0000      -0.676546       -18.4097
  13   2.0000      -0.664039       -18.0694
  14   2.0000      -0.651855       -17.7379
  15   2.0000      -0.576833       -15.6964
  16   2.0000      -0.537716       -14.6320
  17   2.0000      -0.529666       -14.4129
  18   2.0000      -0.503754       -13.7078
  19   2.0000      -0.461399       -12.5553
  20   2.0000      -0.434584       -11.8256
  21   2.0000      -0.431040       -11.7292
  22   2.0000      -0.430871       -11.7246
  23   2.0000      -0.420556       -11.4439
  24   2.0000      -0.413755       -11.2588
  25   2.0000      -0.399951       -10.8832
  26   2.0000      -0.344078        -9.3628
  27   2.0000      -0.336688        -9.1618
  28   2.0000      -0.331284        -9.0147
  29   2.0000      -0.281574        -7.6620
  30   0.0000       0.053906         1.4669
  31   0.0000       0.129095         3.5129
  32   0.0000       0.158021         4.3000
  33   0.0000       0.161458         4.3935
  34   0.0000       0.196756         5.3540

MULLIKEN ATOMIC CHARGES
-----------------------
   0 C :   -0.315210
   1 C :   -0.406349
   2 C :   -0.406349
   3 C :   -0.315210
   4 C :   -0.175980
   5 C :   -0.175979
   6 C :   -0.406349
   7 C :   -0.406349
   8 H :    0.214390
   9 H :    0.213088
  10 H :    0.226150
  11 H :    0.226150
  12 H :    0.213089
  13 H :    0.214390
  14 H :    0.211020
  15 H :    0.211020
  16 H :    0.213088
  17 H :    0.226150
  18 H :    0.213088
  19 H :    0.226150
Sum of atomic charges:   -0.0000000

LOEWDIN ATOMIC CHARGES
----------------------
   0 C :   -0.153189
   1 C :   -0.226357
   2 C :   -0.226357
   3 C :   -0.153189
   4 C :   -0.146015
   5 C :   -0.146015
   6 C :   -0.226357
   7 C :   -0.226357
   8 H :    0.125640
   9 H :    0.121806
  10 H :    0.126705
  11 H :    0.126705
  12 H :    0.121806
  13 H :    0.125640
  14 H :    0.129256
  15 H :    0.129256
  16 H :    0.121806
  17 H :    0.126705
  18 H :    0.121806
  19 H :    0.126705

  Mayer bond orders larger than 0.100000
B(  0-C ,  1-C ) :   0.9740 B(  0-C ,  4-C ) :   0.9941 B(  0-C ,  6-C ) :   0.9740
B(  0-C ,  8-H ) :   0.9245 B(  1-C ,  2-C ) :   0.9544 B(  1-C ,  9-H ) :   0.9247
B(  1-C , 10-H ) :   0.9282 B(  2-C ,  3-C ) :   0.9740 B(  2-C , 11-H ) :   0.9282
B(  2-C , 12-H ) :   0.9247 B(  3-C ,  5-C ) :   0.9941 B(  3-C ,  7-C ) :   0.9740
B(  3-C , 13-H ) :   0.9245 B(  4-C ,  5-C ) :   1.8781 B(  4-C , 14-H ) :   0.9294
B(  5-C , 15-H ) :   0.9294 B(  6-C ,  7-C ) :   0.9544 B(  6-C , 16-H ) :   0.9247
B(  6-C , 17-H ) :   0.9282 B(  7-C , 18-H ) :   0.9247 B(  7-C , 19-H ) :   0.9282

Dispersion correction           -0.011948976
FINAL SINGLE POINT ENERGY      -311.378526084465

DIPOLE MOMENT
-------------
                                X             Y             Z
Electronic contribution:     -0.00000       0.00000      -2.55632
Nuclear contribution   :      0.00000      -0.00000       2.64209
                        -----------------------------------------
Total Dipole Moment    :     -0.00000       0.00000       0.08576
                        -----------------------------------------
Magnitude (a.u.)       :      0.08576
Magnitude (Debye)      :      0.21799

Rotational constants in cm-1:     0.086861     0.084645     0.083064
Rotational constants in MHz :  2604.039467  2537.590726  2490.210162

                             ****ORCA TERMINATED NORMALLY****
TOTAL RUN TIME: 0 days 0 hours 1 minutes 35 seconds 43 msec
