                         Program Version 5.0.3 -  RELEASE  -
|  1> ! PBEh-3c def2/J TightSCF DefGrid3
|  2>
|  3> %maxcore 60000
|  4>
|  5> %pal
|  6> nprocs 4
|  7> end
|  8>
|  9> *xyzfile 0 4 p.xyz
| 10>
| 11>                          ****END OF INPUT****

CARTESIAN COORDINATES (ANGSTROEM)
---------------------------------
  P      0.000000    0.000000    0.000000

 Total Charge           Charge          ....    0
 Multiplicity           Mult            ....    4
 Number of Electrons    NEL             ....   15
 Basis Dimension        Dim             ....   18

ORBITAL ENERGIES
----------------
                 SPIN UP ORBITALS
  NO   OCC          E(Eh)            E(eV)
   0   1.0000     -77.771038     -2116.2575
   1   1.0000      -6.845536      -186.2765
   2   1.0000      -4.938897      -134.3942
   3   1.0000      -4.938897      -134.3942
   4   1.0000      -4.938897      -134.3942
   5   1.0000      -0.670343       -18.2410
   6   1.0000      -0.305154        -8.3037
   7   1.0000      -0.305154        -8.3037
   8   1.0000      -0.305154        -8.3037
   9   0.0000       0.250598         6.8191
  10   0.0000       0.555716        15.1218
  11   0.0000       0.555716        15.1218
  12   0.0000       0.555716        15.1218
  13   0.0000       0.555716        15.1218

                 SPIN DOWN ORBITALS
  NO   OCC          E(Eh)            E(eV)
   0   1.0000     -77.756717     -2115.8678
   1   1.0000      -6.830563      -185.8691
   2   1.0000      -4.914515      -133.7307
   3   1.0000      -4.914515      -133.7307
   4   1.0000      -4.914515      -133.7307
   5   1.0000      -0.507827       -13.8187
   6   0.0000      -0.067098        -1.8258
   7   0.0000      -0.067098        -1.8258
   8   0.0000      -0.067098        -1.8258
   9   0.0000       0.302753         8.2383
  10   0.0000       0.641193        17.4477

MULLIKEN ATOMIC CHARGES AND SPIN POPULATIONS
--------------------------------------------
   0 P :    0.000000    3.000000
Sum of atomic charges         :    0.0000000

LOEWDIN ATOMIC CHARGES AND SPIN POPULATIONS
-------------------------------------------
   0 P :    0.000000    3.000000

Dispersion correction            0.000000000
FINAL SINGLE POINT ENERGY      -340.853711081520

DIPOLE MOMENT
-------------
                                X             Y             Z
Electronic contribution:     -0.00000      -0.00000       0.00000
Nuclear contribution   :      0.00000       0.00000       0.00000
                        -----------------------------------------
Total Dipole Moment    :     -0.00000      -0.00000       0.00000
                        -----------------------------------------
Magnitude (a.u.)       :      0.00000
Magnitude (Debye)      :      0.00000

Rotational constants in cm-1:     0.000000     0.000000     0.000000
Rotational constants in MHz :     0.000000     0.000000     0.000000

                             ****ORCA TERMINATED NORMALLY****
TOTAL RUN TIME: 0 days 0 hours 0 minutes 52 seconds 892 msec
