                         Program Version 5.0.3 -  RELEASE  -
|  1> ! PBEh-3c def2/J TightSCF DefGrid3
|  2>
|  3> %maxcore 60000
|  4>
|  5> %pal
|  6> nprocs 4
|  7> end
|  8>
|  9> *xyzfile 0 1 c-n2h2.xyz
| 10>
| 11>                          ****END OF INPUT****

CARTESIAN COORDINATES (ANGSTROEM)
---------------------------------
  H     -1.008140    0.895893    0.000000
  N     -0.624028   -0.064467    0.000000
  N      0.624028   -0.064467    0.000000
  H      1.008140    0.895893    0.000000

 Total Charge           Charge          ....    0
 Multiplicity           Mult            ....    1
 Number of Electrons    NEL             ....   16
 Basis Dimension        Dim             ....   34

ORBITAL ENERGIES
----------------

  NO   OCC          E(Eh)            E(eV)
   0   2.0000     -14.697236      -399.9321
   1   2.0000     -14.696798      -399.9202
   2   2.0000      -1.135822       -30.9073
   3   2.0000      -0.765258       -20.8237
   4   2.0000      -0.630355       -17.1528
   5   2.0000      -0.441526       -12.0145
   6   2.0000      -0.440950       -11.9989
   7   2.0000      -0.302386        -8.2283
   8   0.0000      -0.016918        -0.4604
   9   0.0000       0.100648         2.7388
  10   0.0000       0.200307         5.4506
  11   0.0000       0.404709        11.0127
  12   0.0000       0.711737        19.3673

MULLIKEN ATOMIC CHARGES
-----------------------
   0 H :    0.295133
   1 N :   -0.295133
   2 N :   -0.295133
   3 H :    0.295133
Sum of atomic charges:   -0.0000000

LOEWDIN ATOMIC CHARGES
----------------------
   0 H :    0.187172
   1 N :   -0.187172
   2 N :   -0.187172
   3 H :    0.187172

  Mayer bond orders larger than 0.100000
B(  0-H ,  1-N ) :   0.8495 B(  1-N ,  2-N ) :   2.0246 B(  2-N ,  3-H ) :   0.8495

Dispersion correction           -0.000670748
FINAL SINGLE POINT ENERGY      -110.380964724795

DIPOLE MOMENT
-------------
                                X             Y             Z
Electronic contribution:     -0.00000      -0.46988      -0.00000
Nuclear contribution   :      0.00000       1.68029       0.00000
                        -----------------------------------------
Total Dipole Moment    :     -0.00000       1.21041      -0.00000
                        -----------------------------------------
Magnitude (a.u.)       :      1.21041
Magnitude (Debye)      :      3.07661

Rotational constants in cm-1:     9.718932     1.300954     1.147370
Rotational constants in MHz : 291366.252794 39001.614237 34397.274455

                             ****ORCA TERMINATED NORMALLY****
TOTAL RUN TIME: 0 days 0 hours 0 minutes 45 seconds 294 msec
