                         Program Version 5.0.3 -  RELEASE  -
|  1> ! PBEh-3c def2/J TightSCF DefGrid3
|  2>
|  3> %maxcore 60000
|  4>
|  5> %pal
|  6> nprocs 4
|  7> end
|  8>
|  9> *xyzfile 0 1 21.xyz
| 10>
| 11>                          ****END OF INPUT****

CARTESIAN COORDINATES (ANGSTROEM)
---------------------------------
  S      0.000000    0.000000   -0.619833
  H     -0.971552    0.000000    0.309917
  H      0.971552    0.000000    0.309917

 Total Charge           Charge          ....    0
 Multiplicity           Mult            ....    1
 Number of Electrons    NEL             ....   18
 Basis Dimension        Dim             ....   22

ORBITAL ENERGIES
----------------

  NO   OCC          E(Eh)            E(eV)
   0   2.0000     -89.582929     -2437.6754
   1   2.0000      -8.225909      -223.8384
   2   2.0000      -6.116582      -166.4407
   3   2.0000      -6.113937      -166.3687
   4   2.0000      -6.108000      -166.2071
   5   2.0000      -0.821529       -22.3549
   6   2.0000      -0.498476       -13.5642
   7   2.0000      -0.412438       -11.2230
   8   2.0000      -0.303179        -8.2499
   9   0.0000       0.065328         1.7777
  10   0.0000       0.102856         2.7989
  11   0.0000       0.431445        11.7402
  12   0.0000       0.554768        15.0960
  13   0.0000       0.630605        17.1596

MULLIKEN ATOMIC CHARGES
-----------------------
   0 S :   -0.375168
   1 H :    0.187584
   2 H :    0.187584
Sum of atomic charges:   -0.0000000

LOEWDIN ATOMIC CHARGES
----------------------
   0 S :   -0.210595
   1 H :    0.105298
   2 H :    0.105298

  Mayer bond orders larger than 0.100000
B(  0-S ,  1-H ) :   0.9348 B(  0-S ,  2-H ) :   0.9348

Dispersion correction           -0.000417630
FINAL SINGLE POINT ENERGY      -398.931641044283

DIPOLE MOMENT
-------------
                                X             Y             Z
Electronic contribution:     -0.00000      -0.00000      -1.05598
Nuclear contribution   :      0.00000       0.00000       1.64292
                        -----------------------------------------
Total Dipole Moment    :     -0.00000      -0.00000       0.58694
                        -----------------------------------------
Magnitude (a.u.)       :      0.58694
Magnitude (Debye)      :      1.49187

Rotational constants in cm-1:    10.281560     8.858787     4.758647
Rotational constants in MHz : 308233.402417 265579.761106 142660.640401

                             ****ORCA TERMINATED NORMALLY****
TOTAL RUN TIME: 0 days 0 hours 0 minutes 24 seconds 397 msec
