                         Program Version 5.0.3 -  RELEASE  -
|  1> ! PBEh-3c def2/J TightSCF DefGrid3
|  2>
|  3> %maxcore 60000
|  4>
|  5> %pal
|  6> nprocs 4
|  7> end
|  8>
|  9> *xyzfile 0 1 i22p.xyz
| 10>
| 11>                          ****END OF INPUT****

CARTESIAN COORDINATES (ANGSTROEM)
---------------------------------
  N      2.017187    1.274044    0.020155
  C      1.547487    0.069956    0.397743
  C      0.254681   -0.086271    0.910761
  C     -0.679749    0.979702    0.984190
  C     -2.135048    0.620023    1.472545
  O     -0.480895    2.168896    0.674614
  C     -3.113232    0.399029    0.251529
  C     -4.536964   -0.210264    0.605244
  C     -5.571855    0.021644   -0.537601
  C     -6.968065   -0.624702   -0.304897
  C      2.425910   -1.125481    0.305460
  C      3.733703   -1.099817    0.821654
  C      4.535315   -2.241173    0.771194
  C      4.043762   -3.419428    0.197226
  C      2.743740   -3.452723   -0.318381
  C      1.936121   -2.314533   -0.260096
  H      4.107793   -0.187597    1.279988
  H      5.540995   -2.213776    1.185740
  H      4.670071   -4.308213    0.155991
  H      2.357174   -4.365823   -0.766178
  H      0.925116   -2.334233   -0.660380
  C      3.166717    1.569838   -0.847930
  C      2.655651    2.170329   -2.166825
  C      4.134588    2.520105   -0.131015
  H      3.675625    0.625849   -1.060248
  H      4.988058    2.749730   -0.781299
  H      3.628372    3.462038    0.118858
  H      4.508411    2.072449    0.797499
  H      3.501246    2.397689   -2.828236
  H      1.983616    1.470338   -2.677145
  H      2.107311    3.102338   -1.974621
  H      1.335753    2.031671    0.147137
  H     -0.030929   -1.070326    1.258358
  F     -2.151502   -0.531565    2.225378
  F     -2.613167    1.630853    2.247136
  F     -3.314926    1.601817   -0.362809
  F     -2.499867   -0.439377   -0.632105
  F     -5.010266    0.411219    1.724959
  F     -4.395663   -1.535410    0.870885
  H     -5.727532    1.101733   -0.635958
  F     -5.071363   -0.479158   -1.723737
  F     -7.775996   -0.280535   -1.339161
  F     -6.916390   -1.968059   -0.248495
  F     -7.530990   -0.162828    0.832874

 Total Charge           Charge          ....    0
 Multiplicity           Mult            ....    1
 Number of Electrons    NEL             ....  222
 Basis Dimension        Dim             ....  465

ORBITAL ENERGIES
----------------

  NO   OCC          E(Eh)            E(eV)
   0   2.0000     -25.149357      -684.3488
   1   2.0000     -25.146770      -684.2784
   2   2.0000     -25.144966      -684.2293
   3   2.0000     -25.143127      -684.1793
   4   2.0000     -25.142954      -684.1746
   5   2.0000     -25.140810      -684.1162
   6   2.0000     -25.140477      -684.1072
   7   2.0000     -25.127894      -683.7648
   8   2.0000     -25.126926      -683.7384
   9   2.0000     -25.122121      -683.6077
  10   2.0000     -19.487065      -530.2700
  11   2.0000     -14.683404      -399.5557
  12   2.0000     -10.725164      -291.8465
  13   2.0000     -10.665432      -290.2212
  14   2.0000     -10.660450      -290.0856
  15   2.0000     -10.641777      -289.5775
  16   2.0000     -10.584595      -288.0215
  17   2.0000     -10.544572      -286.9324
  18   2.0000     -10.537472      -286.7392
  19   2.0000     -10.505139      -285.8594
  20   2.0000     -10.488004      -285.3931
  21   2.0000     -10.477878      -285.1176
  22   2.0000     -10.475412      -285.0504
  23   2.0000     -10.474415      -285.0233
  24   2.0000     -10.473659      -285.0028
  25   2.0000     -10.472540      -284.9723
  26   2.0000     -10.449046      -284.3330
  27   2.0000     -10.446986      -284.2770
  28   2.0000     -10.440232      -284.0932
  29   2.0000      -1.452111       -39.5139
  30   2.0000      -1.422013       -38.6949
  31   2.0000      -1.404915       -38.2297
  32   2.0000      -1.390237       -37.8303
  33   2.0000      -1.366376       -37.1810
  34   2.0000      -1.360904       -37.0321
  35   2.0000      -1.357562       -36.9411
  36   2.0000      -1.355921       -36.8965
  37   2.0000      -1.347432       -36.6655
  38   2.0000      -1.332365       -36.2555
  39   2.0000      -1.143418       -31.1140
  40   2.0000      -1.070971       -29.1426
  41   2.0000      -0.978093       -26.6153
  42   2.0000      -0.921385       -25.0722
  43   2.0000      -0.916347       -24.9351
  44   2.0000      -0.883776       -24.0488
  45   2.0000      -0.868249       -23.6262
  46   2.0000      -0.859624       -23.3916
  47   2.0000      -0.848186       -23.0803
  48   2.0000      -0.818289       -22.2668
  49   2.0000      -0.787863       -21.4389
  50   2.0000      -0.774769       -21.0825
  51   2.0000      -0.747140       -20.3307
  52   2.0000      -0.733601       -19.9623
  53   2.0000      -0.709333       -19.3019
  54   2.0000      -0.703944       -19.1553
  55   2.0000      -0.690152       -18.7800
  56   2.0000      -0.687779       -18.7154
  57   2.0000      -0.682606       -18.5746
  58   2.0000      -0.674647       -18.3581
  59   2.0000      -0.667841       -18.1729
  60   2.0000      -0.665730       -18.1154
  61   2.0000      -0.653986       -17.7959
  62   2.0000      -0.647196       -17.6111
  63   2.0000      -0.642014       -17.4701
  64   2.0000      -0.628872       -17.1125
  65   2.0000      -0.621025       -16.8990
  66   2.0000      -0.613530       -16.6950
  67   2.0000      -0.596955       -16.2440
  68   2.0000      -0.588259       -16.0073
  69   2.0000      -0.565455       -15.3868
  70   2.0000      -0.556232       -15.1358
  71   2.0000      -0.555878       -15.1262
  72   2.0000      -0.554549       -15.0900
  73   2.0000      -0.550515       -14.9803
  74   2.0000      -0.548233       -14.9182
  75   2.0000      -0.539902       -14.6915
  76   2.0000      -0.536681       -14.6038
  77   2.0000      -0.532832       -14.4991
  78   2.0000      -0.531591       -14.4653
  79   2.0000      -0.528921       -14.3927
  80   2.0000      -0.522243       -14.2109
  81   2.0000      -0.515907       -14.0386
  82   2.0000      -0.513317       -13.9681
  83   2.0000      -0.511998       -13.9322
  84   2.0000      -0.508002       -13.8234
  85   2.0000      -0.507508       -13.8100
  86   2.0000      -0.502473       -13.6730
  87   2.0000      -0.500304       -13.6140
  88   2.0000      -0.497007       -13.5242
  89   2.0000      -0.496013       -13.4972
  90   2.0000      -0.494601       -13.4588
  91   2.0000      -0.490662       -13.3516
  92   2.0000      -0.484007       -13.1705
  93   2.0000      -0.478879       -13.0310
  94   2.0000      -0.470794       -12.8110
  95   2.0000      -0.461276       -12.5520
  96   2.0000      -0.453318       -12.3354
  97   2.0000      -0.446917       -12.1612
  98   2.0000      -0.444626       -12.0989
  99   2.0000      -0.439667       -11.9639
 100   2.0000      -0.437745       -11.9117
 101   2.0000      -0.428051       -11.6479
 102   2.0000      -0.423882       -11.5344
 103   2.0000      -0.418866       -11.3979
 104   2.0000      -0.411636       -11.2012
 105   2.0000      -0.396635       -10.7930
 106   2.0000      -0.386412       -10.5148
 107   2.0000      -0.321109        -8.7378
 108   2.0000      -0.315541        -8.5863
 109   2.0000      -0.308738        -8.4012
 110   2.0000      -0.265620        -7.2279
 111   0.0000      -0.050129        -1.3641
 112   0.0000      -0.006254        -0.1702
 113   0.0000       0.002884         0.0785
 114   0.0000       0.054757         1.4900
 115   0.0000       0.081031         2.2050

MULLIKEN ATOMIC CHARGES
-----------------------
   0 N :   -0.635358
   1 C :    0.425401
   2 C :   -0.533329
   3 C :    0.264271
   4 C :    0.658345
   5 O :   -0.433552
   6 C :    0.606869
   7 C :    0.623805
   8 C :   -0.048272
   9 C :    1.005364
  10 C :    0.016365
  11 C :   -0.251945
  12 C :   -0.214327
  13 C :   -0.220916
  14 C :   -0.209931
  15 C :   -0.257928
  16 H :    0.240789
  17 H :    0.230460
  18 H :    0.232065
  19 H :    0.233247
  20 H :    0.247336
  21 C :   -0.129619
  22 C :   -0.619934
  23 C :   -0.620490
  24 H :    0.251677
  25 H :    0.221015
  26 H :    0.222345
  27 H :    0.226086
  28 H :    0.221588
  29 H :    0.238733
  30 H :    0.220891
  31 H :    0.411579
  32 H :    0.257509
  33 F :   -0.327698
  34 F :   -0.314793
  35 F :   -0.322649
  36 F :   -0.315961
  37 F :   -0.319801
  38 F :   -0.311676
  39 H :    0.266874
  40 F :   -0.333959
  41 F :   -0.306644
  42 F :   -0.293469
  43 F :   -0.300359
Sum of atomic charges:    0.0000000

LOEWDIN ATOMIC CHARGES
----------------------
   0 N :   -0.171982
   1 C :    0.109380
   2 C :   -0.310650
   3 C :    0.076443
   4 C :    0.266819
   5 O :   -0.263396
   6 C :    0.258730
   7 C :    0.260032
   8 C :    0.050702
   9 C :    0.359850
  10 C :   -0.058198
  11 C :   -0.118565
  12 C :   -0.130373
  13 C :   -0.121844
  14 C :   -0.127610
  15 C :   -0.113189
  16 H :    0.143771
  17 H :    0.142189
  18 H :    0.142111
  19 H :    0.143371
  20 H :    0.150894
  21 C :   -0.078657
  22 C :   -0.357052
  23 C :   -0.356746
  24 H :    0.137923
  25 H :    0.133233
  26 H :    0.133373
  27 H :    0.128802
  28 H :    0.133601
  29 H :    0.137968
  30 H :    0.132783
  31 H :    0.278859
  32 H :    0.157538
  33 F :   -0.162058
  34 F :   -0.141331
  35 F :   -0.143895
  36 F :   -0.142350
  37 F :   -0.146155
  38 F :   -0.139313
  39 H :    0.159571
  40 F :   -0.186592
  41 F :   -0.129173
  42 F :   -0.115676
  43 F :   -0.123142

  Mayer bond orders larger than 0.100000
B(  0-N ,  1-C ) :   1.2911 B(  0-N , 21-C ) :   0.9138 B(  0-N , 31-H ) :   0.7198
B(  1-C ,  2-C ) :   1.3635 B(  1-C , 10-C ) :   1.0109 B(  2-C ,  3-C ) :   1.1507
B(  2-C , 32-H ) :   0.9047 B(  3-C ,  4-C ) :   0.9143 B(  3-C ,  5-O ) :   1.8699
B(  4-C ,  6-C ) :   0.8662 B(  4-C , 33-F ) :   0.9408 B(  4-C , 34-F ) :   0.9683
B(  5-O , 31-H ) :   0.1042 B(  6-C ,  7-C ) :   0.8753 B(  6-C , 35-F ) :   0.9290
B(  6-C , 36-F ) :   0.9578 B(  7-C ,  8-C ) :   0.8786 B(  7-C , 37-F ) :   0.9464
B(  7-C , 38-F ) :   0.9630 B(  8-C ,  9-C ) :   0.9253 B(  8-C , 39-H ) :   0.8615
B(  8-C , 40-F ) :   0.9218 B(  9-C , 41-F ) :   0.9971 B(  9-C , 42-F ) :   1.0224
B(  9-C , 43-F ) :   1.0096 B( 10-C , 11-C ) :   1.3691 B( 10-C , 15-C ) :   1.3873
B( 11-C , 12-C ) :   1.4313 B( 11-C , 16-H ) :   0.9046 B( 12-C , 13-C ) :   1.4120
B( 12-C , 17-H ) :   0.9168 B( 13-C , 14-C ) :   1.4191 B( 13-C , 18-H ) :   0.9159
B( 14-C , 15-C ) :   1.4207 B( 14-C , 19-H ) :   0.9157 B( 15-C , 20-H ) :   0.9095
B( 21-C , 22-C ) :   0.9850 B( 21-C , 23-C ) :   0.9835 B( 21-C , 24-H ) :   0.8892
B( 22-C , 28-H ) :   0.9195 B( 22-C , 29-H ) :   0.9222 B( 22-C , 30-H ) :   0.9198
B( 23-C , 25-H ) :   0.9199 B( 23-C , 26-H ) :   0.9207 B( 23-C , 27-H ) :   0.9219

Dispersion correction           -0.029358077
FINAL SINGLE POINT ENERGY     -1781.633096707598

DIPOLE MOMENT
-------------
                                X             Y             Z
Electronic contribution:    -84.66743      -6.80047       9.66559
Nuclear contribution   :     87.20909       6.47674     -10.44786
                        -----------------------------------------
Total Dipole Moment    :      2.54167      -0.32373      -0.78227
                        -----------------------------------------
Magnitude (a.u.)       :      2.67896
Magnitude (Debye)      :      6.80937

Rotational constants in cm-1:     0.010659     0.002343     0.002186
Rotational constants in MHz :   319.558927    70.238539    65.528978

                             ****ORCA TERMINATED NORMALLY****
TOTAL RUN TIME: 0 days 0 hours 8 minutes 31 seconds 23 msec
