                         Program Version 5.0.3 -  RELEASE  -
|  1> ! PBEh-3c def2/J TightSCF DefGrid3
|  2>
|  3> %maxcore 60000
|  4>
|  5> %pal
|  6> nprocs 4
|  7> end
|  8>
|  9> *xyzfile 0 2 al.xyz
| 10>
| 11>                          ****END OF INPUT****

CARTESIAN COORDINATES (ANGSTROEM)
---------------------------------
  Al     0.000000    0.000000    0.000000

 Total Charge           Charge          ....    0
 Multiplicity           Mult            ....    2
 Number of Electrons    NEL             ....   13
 Basis Dimension        Dim             ....   18

ORBITAL ENERGIES
----------------
                 SPIN UP ORBITALS
  NO   OCC          E(Eh)            E(eV)
   0   1.0000     -56.629579     -1540.9692
   1   1.0000      -4.367069      -118.8340
   2   1.0000      -2.854664       -77.6793
   3   1.0000      -2.852988       -77.6337
   4   1.0000      -2.852988       -77.6337
   5   1.0000      -0.356909        -9.7120
   6   1.0000      -0.164016        -4.4631
   7   0.0000      -0.055566        -1.5120
   8   0.0000      -0.055566        -1.5120
   9   0.0000       0.121998         3.3197
  10   0.0000       0.335205         9.1214
  11   0.0000       0.351438         9.5631

                 SPIN DOWN ORBITALS
  NO   OCC          E(Eh)            E(eV)
   0   1.0000     -56.627343     -1540.9083
   1   1.0000      -4.364462      -118.7631
   2   1.0000      -2.851788       -77.6011
   3   1.0000      -2.851788       -77.6011
   4   1.0000      -2.844298       -77.3973
   5   1.0000      -0.322128        -8.7656
   6   0.0000      -0.046337        -1.2609
   7   0.0000      -0.046337        -1.2609
   8   0.0000      -0.020141        -0.5481
   9   0.0000       0.134988         3.6732
  10   0.0000       0.356138         9.6910

MULLIKEN ATOMIC CHARGES AND SPIN POPULATIONS
--------------------------------------------
   0 Al:    0.000000    1.000000
Sum of atomic charges         :    0.0000000

LOEWDIN ATOMIC CHARGES AND SPIN POPULATIONS
-------------------------------------------
   0 Al:    0.000000    1.000000

Dispersion correction            0.000000000
FINAL SINGLE POINT ENERGY      -242.029081169529

DIPOLE MOMENT
-------------
                                X             Y             Z
Electronic contribution:      0.00000      -0.00005      -0.00002
Nuclear contribution   :      0.00000       0.00000       0.00000
                        -----------------------------------------
Total Dipole Moment    :      0.00000      -0.00005      -0.00002
                        -----------------------------------------
Magnitude (a.u.)       :      0.00006
Magnitude (Debye)      :      0.00014

Rotational constants in cm-1:     0.000000     0.000000     0.000000
Rotational constants in MHz :     0.000000     0.000000     0.000000

                             ****ORCA TERMINATED NORMALLY****
TOTAL RUN TIME: 0 days 0 hours 0 minutes 20 seconds 320 msec
