                         Program Version 5.0.3 -  RELEASE  -
|  1> ! PBEh-3c def2/J TightSCF DefGrid3
|  2>
|  3> %maxcore 60000
|  4>
|  5> %pal
|  6> nprocs 4
|  7> end
|  8>
|  9> *xyzfile 0 1 30_CF3I-benAB.xyz
| 10>
| 11>                          ****END OF INPUT****

CARTESIAN COORDINATES (ANGSTROEM)
---------------------------------
  H     -0.034769    0.294585    0.057188
  C     -0.017014    0.261960    1.141050
  C      1.201241    0.285824    1.820042
  C      1.223051    0.249206    3.213256
  C      0.027950    0.188859    3.927964
  C     -1.189663    0.164642    3.250362
  C     -1.212925    0.201265    1.856906
  H      2.130707    0.332626    1.263781
  H      2.169947    0.266274    3.740740
  H      0.045571    0.158815    5.011483
  H     -2.118962    0.116213    3.806470
  H     -2.160019    0.183694    1.329379
  I      0.003414   -3.215656    1.728463
  C      0.106167   -5.333397    1.850723
  F      0.135278   -5.877101    0.636074
  F      1.202219   -5.716997    2.501577
  F     -0.950096   -5.821924    2.496892

 Total Charge           Charge          ....    0
 Multiplicity           Mult            ....    1
 Number of Electrons    NEL             ....  100
 Basis Dimension        Dim             ....  188

ORBITAL ENERGIES
----------------

  NO   OCC          E(Eh)            E(eV)
   0   2.0000     -25.147285      -684.2924
   1   2.0000     -25.147190      -684.2898
   2   2.0000     -25.147179      -684.2895
   3   2.0000     -10.736836      -292.1642
   4   2.0000     -10.461832      -284.6809
   5   2.0000     -10.461039      -284.6593
   6   2.0000     -10.460606      -284.6476
   7   2.0000     -10.459721      -284.6235
   8   2.0000     -10.459346      -284.6133
   9   2.0000     -10.458895      -284.6010
  10   2.0000      -7.108730      -193.4384
  11   2.0000      -5.093510      -138.6015
  12   2.0000      -5.074958      -138.0966
  13   2.0000      -5.074946      -138.0963
  14   2.0000      -2.047540       -55.7164
  15   2.0000      -2.041598       -55.5547
  16   2.0000      -2.041590       -55.5545
  17   2.0000      -2.025483       -55.1162
  18   2.0000      -2.025483       -55.1162
  19   2.0000      -1.463147       -39.8143
  20   2.0000      -1.367966       -37.2243
  21   2.0000      -1.367937       -37.2235
  22   2.0000      -0.964427       -26.2434
  23   2.0000      -0.847050       -23.0494
  24   2.0000      -0.846683       -23.0394
  25   2.0000      -0.839525       -22.8446
  26   2.0000      -0.762955       -20.7611
  27   2.0000      -0.689450       -18.7609
  28   2.0000      -0.689378       -18.7589
  29   2.0000      -0.683592       -18.6015
  30   2.0000      -0.683582       -18.6012
  31   2.0000      -0.633101       -17.2276
  32   2.0000      -0.602057       -16.3828
  33   2.0000      -0.557569       -15.1722
  34   2.0000      -0.557556       -15.1719
  35   2.0000      -0.534875       -14.5547
  36   2.0000      -0.519727       -14.1425
  37   2.0000      -0.518760       -14.1162
  38   2.0000      -0.518752       -14.1160
  39   2.0000      -0.495629       -13.4867
  40   2.0000      -0.492042       -13.3892
  41   2.0000      -0.491924       -13.3859
  42   2.0000      -0.441920       -12.0253
  43   2.0000      -0.408514       -11.1162
  44   2.0000      -0.408405       -11.1133
  45   2.0000      -0.405795       -11.0422
  46   2.0000      -0.327405        -8.9092
  47   2.0000      -0.324896        -8.8409
  48   2.0000      -0.302253        -8.2247
  49   2.0000      -0.299893        -8.1605
  50   0.0000      -0.020560        -0.5595
  51   0.0000       0.006673         0.1816
  52   0.0000       0.007321         0.1992
  53   0.0000       0.131126         3.5681
  54   0.0000       0.172955         4.7063

MULLIKEN ATOMIC CHARGES
-----------------------
   0 H :    0.233168
   1 C :   -0.248890
   2 C :   -0.225958
   3 C :   -0.217423
   4 C :   -0.217129
   5 C :   -0.218117
   6 C :   -0.232878
   7 H :    0.229690
   8 H :    0.227424
   9 H :    0.227026
  10 H :    0.227819
  11 H :    0.230848
  12 I :    0.058785
  13 C :    0.746771
  14 F :   -0.273760
  15 F :   -0.273707
  16 F :   -0.273670
Sum of atomic charges:    0.0000000

LOEWDIN ATOMIC CHARGES
----------------------
   0 H :    0.140581
   1 C :   -0.148413
   2 C :   -0.138673
   3 C :   -0.133566
   4 C :   -0.131701
   5 C :   -0.134609
   6 C :   -0.141666
   7 H :    0.140109
   8 H :    0.139507
   9 H :    0.139353
  10 H :    0.139638
  11 H :    0.140307
  12 I :    0.123903
  13 C :    0.225629
  14 F :   -0.120135
  15 F :   -0.120156
  16 F :   -0.120108

  Mayer bond orders larger than 0.100000
B(  0-H ,  1-C ) :   0.9160 B(  1-C ,  2-C ) :   1.4165 B(  1-C ,  6-C ) :   1.4159
B(  2-C ,  3-C ) :   1.4238 B(  2-C ,  7-H ) :   0.9174 B(  3-C ,  4-C ) :   1.4229
B(  3-C ,  8-H ) :   0.9181 B(  4-C ,  5-C ) :   1.4242 B(  4-C ,  9-H ) :   0.9181
B(  5-C ,  6-C ) :   1.4215 B(  5-C , 10-H ) :   0.9180 B(  6-C , 11-H ) :   0.9169
B( 12-I , 13-C ) :   0.9927 B( 13-C , 14-F ) :   1.0188 B( 13-C , 15-F ) :   1.0188
B( 13-C , 16-F ) :   1.0188

Dispersion correction           -0.009448688
FINAL SINGLE POINT ENERGY      -866.449909916171

DIPOLE MOMENT
-------------
                                X             Y             Z
Electronic contribution:     -1.85048     -50.25757     -22.60778
Nuclear contribution   :      1.83851      50.92444      22.69092
                        -----------------------------------------
Total Dipole Moment    :     -0.01197       0.66686       0.08314
                        -----------------------------------------
Magnitude (a.u.)       :      0.67213
Magnitude (Debye)      :      1.70843

Rotational constants in cm-1:     0.061290     0.011358     0.011285
Rotational constants in MHz :  1837.428677   340.492755   338.316055

                             ****ORCA TERMINATED NORMALLY****
TOTAL RUN TIME: 0 days 0 hours 2 minutes 15 seconds 748 msec
