                         Program Version 5.0.3 -  RELEASE  -
|  1> ! PBEh-3c def2/J TightSCF DefGrid3
|  2>
|  3> %maxcore 60000
|  4>
|  5> %pal
|  6> nprocs 4
|  7> end
|  8>
|  9> *xyzfile 0 1 9a.xyz
| 10>
| 11>                          ****END OF INPUT****

CARTESIAN COORDINATES (ANGSTROEM)
---------------------------------
  P      0.149262    1.534574   -0.258234
  H      1.007715    1.328534   -1.371948
  F     -0.149262    3.112691   -0.514178
  C      1.462789    1.691622    1.010513
  H      1.016315    1.975209    1.962070
  H      1.944027    0.721139    1.125970
  H      2.205499    2.432422    0.721938

 Total Charge           Charge          ....    0
 Multiplicity           Mult            ....    1
 Number of Electrons    NEL             ....   34
 Basis Dimension        Dim             ....   56

ORBITAL ENERGIES
----------------

  NO   OCC          E(Eh)            E(eV)
   0   2.0000     -77.791288     -2116.8086
   1   2.0000     -25.079655      -682.4521
   2   2.0000     -10.446048      -284.2514
   3   2.0000      -6.858230      -186.6219
   4   2.0000      -4.950384      -134.7068
   5   2.0000      -4.948231      -134.6482
   6   2.0000      -4.946186      -134.5926
   7   2.0000      -1.301131       -35.4056
   8   2.0000      -0.826672       -22.4949
   9   2.0000      -0.672683       -18.3046
  10   2.0000      -0.540438       -14.7061
  11   2.0000      -0.513911       -13.9842
  12   2.0000      -0.508391       -13.8340
  13   2.0000      -0.476199       -12.9580
  14   2.0000      -0.465017       -12.6537
  15   2.0000      -0.397299       -10.8111
  16   2.0000      -0.296090        -8.0570
  17   0.0000       0.037851         1.0300
  18   0.0000       0.079660         2.1677
  19   0.0000       0.167673         4.5626
  20   0.0000       0.174441         4.7468
  21   0.0000       0.189357         5.1527

MULLIKEN ATOMIC CHARGES
-----------------------
   0 P :    0.569081
   1 H :    0.028071
   2 F :   -0.460169
   3 C :   -0.894352
   4 H :    0.256147
   5 H :    0.240262
   6 H :    0.260959
Sum of atomic charges:    0.0000000

LOEWDIN ATOMIC CHARGES
----------------------
   0 P :    0.460951
   1 H :   -0.000171
   2 F :   -0.350673
   3 C :   -0.547828
   4 H :    0.146502
   5 H :    0.145714
   6 H :    0.145504

  Mayer bond orders larger than 0.100000
B(  0-P ,  1-H ) :   0.9347 B(  0-P ,  2-F ) :   0.8433 B(  0-P ,  3-C ) :   0.9959
B(  3-C ,  4-H ) :   0.9030 B(  3-C ,  5-H ) :   0.8990 B(  3-C ,  6-H ) :   0.8981

Dispersion correction           -0.002077163
FINAL SINGLE POINT ENERGY      -481.042565553162

DIPOLE MOMENT
-------------
                                X             Y             Z
Electronic contribution:     -4.45285       1.70919      -2.84581
Nuclear contribution   :      5.04793      -2.10527       3.08730
                        -----------------------------------------
Total Dipole Moment    :      0.59507      -0.39608       0.24150
                        -----------------------------------------
Magnitude (a.u.)       :      0.75453
Magnitude (Debye)      :      1.91786

Rotational constants in cm-1:     0.639486     0.258639     0.199151
Rotational constants in MHz : 19171.307533  7753.803500  5970.382203

                             ****ORCA TERMINATED NORMALLY****
TOTAL RUN TIME: 0 days 0 hours 0 minutes 58 seconds 431 msec
