                         Program Version 5.0.3 -  RELEASE  -
|  1> ! PBEh-3c def2/J TightSCF DefGrid3
|  2>
|  3> %maxcore 60000
|  4>
|  5> %pal
|  6> nprocs 4
|  7> end
|  8>
|  9> *xyzfile 0 1 H2S.xyz
| 10>
| 11>                          ****END OF INPUT****

CARTESIAN COORDINATES (ANGSTROEM)
---------------------------------
  S     -0.205561    0.000000   -0.145072
  H     -0.010071    0.000000    1.182004
  H      1.111302    0.000000   -0.403596

 Total Charge           Charge          ....    0
 Multiplicity           Mult            ....    1
 Number of Electrons    NEL             ....   18
 Basis Dimension        Dim             ....   22

ORBITAL ENERGIES
----------------

  NO   OCC          E(Eh)            E(eV)
   0   2.0000     -89.582443     -2437.6622
   1   2.0000      -8.225598      -223.8299
   2   2.0000      -6.116265      -166.4320
   3   2.0000      -6.113609      -166.3597
   4   2.0000      -6.107692      -166.1988
   5   2.0000      -0.822181       -22.3727
   6   2.0000      -0.499554       -13.5936
   7   2.0000      -0.412220       -11.2171
   8   2.0000      -0.303194        -8.2503
   9   0.0000       0.066376         1.8062
  10   0.0000       0.103722         2.8224
  11   0.0000       0.430933        11.7263
  12   0.0000       0.553632        15.0651
  13   0.0000       0.630083        17.1454

MULLIKEN ATOMIC CHARGES
-----------------------
   0 S :   -0.376069
   1 H :    0.188070
   2 H :    0.187999
Sum of atomic charges:    0.0000000

LOEWDIN ATOMIC CHARGES
----------------------
   0 S :   -0.210517
   1 H :    0.105247
   2 H :    0.105269

  Mayer bond orders larger than 0.100000
B(  0-S ,  1-H ) :   0.9343 B(  0-S ,  2-H ) :   0.9344

Dispersion correction           -0.000417640
FINAL SINGLE POINT ENERGY      -398.931685808871

DIPOLE MOMENT
-------------
                                X             Y             Z
Electronic contribution:     -0.85648      -0.00000      -0.60490
Nuclear contribution   :      1.33621       0.00000       0.94410
                        -----------------------------------------
Total Dipole Moment    :      0.47973      -0.00000       0.33919
                        -----------------------------------------
Magnitude (a.u.)       :      0.58753
Magnitude (Debye)      :      1.49339

Rotational constants in cm-1:    10.367699     8.868282     4.779776
Rotational constants in MHz : 310815.785244 265864.398410 143294.072005

                             ****ORCA TERMINATED NORMALLY****
TOTAL RUN TIME: 0 days 0 hours 0 minutes 27 seconds 574 msec
