                         Program Version 5.0.3 -  RELEASE  -
|  1> ! PBEh-3c def2/J TightSCF DefGrid3
|  2>
|  3> %maxcore 60000
|  4>
|  5> %pal
|  6> nprocs 4
|  7> end
|  8>
|  9> *xyzfile 0 1 pme3-cbh22.xyz
| 10>
| 11>                          ****END OF INPUT****

CARTESIAN COORDINATES (ANGSTROEM)
---------------------------------
  C      0.232504   -1.307717    0.000000
  P     -0.047541    0.400165    0.000000
  B      1.634293   -1.852407    0.000000
  B     -1.004266   -2.167643    0.000000
  H      1.801982   -3.035602    0.000000
  H      2.605525   -1.143606    0.000000
  H     -2.112189   -1.687720    0.000000
  H     -0.911533   -3.358059    0.000000
  C     -1.004266    0.964428    1.433058
  H     -1.212175    2.032240    1.371085
  H     -1.937978    0.404730    1.460173
  H     -0.437393    0.746152    2.336702
  C     -1.004266    0.964428   -1.433058
  H     -1.212175    2.032240   -1.371085
  H     -0.437393    0.746152   -2.336702
  H     -1.937978    0.404730   -1.460173
  C      1.455219    1.404667    0.000000
  H      1.187047    2.460425    0.000000
  H      2.046050    1.170629    0.883196
  H      2.046050    1.170629   -0.883196

 Total Charge           Charge          ....    0
 Multiplicity           Mult            ....    1
 Number of Electrons    NEL             ....   62
 Basis Dimension        Dim             ....  134

ORBITAL ENERGIES
----------------

  NO   OCC          E(Eh)            E(eV)
   0   2.0000     -77.812609     -2117.3887
   1   2.0000     -10.464092      -284.7424
   2   2.0000     -10.461742      -284.6785
   3   2.0000     -10.461733      -284.6782
   4   2.0000     -10.383274      -282.5433
   5   2.0000      -6.917958      -188.2472
   6   2.0000      -6.913840      -188.1352
   7   2.0000      -6.879657      -187.2050
   8   2.0000      -4.971596      -135.2840
   9   2.0000      -4.971225      -135.2739
  10   2.0000      -4.970034      -135.2415
  11   2.0000      -0.908587       -24.7239
  12   2.0000      -0.813160       -22.1272
  13   2.0000      -0.810714       -22.0606
  14   2.0000      -0.754959       -20.5435
  15   2.0000      -0.617764       -16.8102
  16   2.0000      -0.548751       -14.9323
  17   2.0000      -0.535845       -14.5811
  18   2.0000      -0.522420       -14.2158
  19   2.0000      -0.513706       -13.9786
  20   2.0000      -0.493798       -13.4369
  21   2.0000      -0.488163       -13.2836
  22   2.0000      -0.475213       -12.9312
  23   2.0000      -0.474331       -12.9072
  24   2.0000      -0.428402       -11.6574
  25   2.0000      -0.424457       -11.5501
  26   2.0000      -0.408181       -11.1072
  27   2.0000      -0.361100        -9.8260
  28   2.0000      -0.326323        -8.8797
  29   2.0000      -0.320350        -8.7172
  30   2.0000      -0.268618        -7.3095
  31   0.0000       0.006267         0.1705
  32   0.0000       0.057316         1.5596
  33   0.0000       0.096621         2.6292
  34   0.0000       0.101912         2.7732
  35   0.0000       0.115331         3.1383

MULLIKEN ATOMIC CHARGES
-----------------------
   0 C :   -0.474676
   1 P :    0.742448
   2 B :   -0.102499
   3 B :   -0.095164
   4 H :    0.036795
   5 H :   -0.004894
   6 H :   -0.014489
   7 H :    0.043255
   8 C :   -0.829615
   9 H :    0.238426
  10 H :    0.278629
  11 H :    0.266766
  12 C :   -0.829615
  13 H :    0.238426
  14 H :    0.266766
  15 H :    0.278629
  16 C :   -0.840129
  17 H :    0.247236
  18 H :    0.276852
  19 H :    0.276852
Sum of atomic charges:   -0.0000000

LOEWDIN ATOMIC CHARGES
----------------------
   0 C :   -0.487352
   1 P :    0.893840
   2 B :   -0.143770
   3 B :   -0.136214
   4 H :    0.014443
   5 H :   -0.014799
   6 H :   -0.020749
   7 H :    0.017793
   8 C :   -0.508978
   9 H :    0.142155
  10 H :    0.164090
  11 H :    0.157800
  12 C :   -0.508978
  13 H :    0.142155
  14 H :    0.157800
  15 H :    0.164090
  16 C :   -0.504248
  17 H :    0.144986
  18 H :    0.162968
  19 H :    0.162968

  Mayer bond orders larger than 0.100000
B(  0-C ,  1-P ) :   1.1779 B(  0-C ,  2-B ) :   1.2772 B(  0-C ,  3-B ) :   1.2438
B(  1-P ,  8-C ) :   0.9699 B(  1-P , 12-C ) :   0.9699 B(  1-P , 16-C ) :   0.9933
B(  2-B ,  4-H ) :   0.9872 B(  2-B ,  5-H ) :   0.9767 B(  3-B ,  6-H ) :   0.9772
B(  3-B ,  7-H ) :   0.9872 B(  8-C ,  9-H ) :   0.9004 B(  8-C , 10-H ) :   0.8903
B(  8-C , 11-H ) :   0.8999 B( 12-C , 13-H ) :   0.9004 B( 12-C , 14-H ) :   0.8999
B( 12-C , 15-H ) :   0.8903 B( 16-C , 17-H ) :   0.8980 B( 16-C , 18-H ) :   0.8933
B( 16-C , 19-H ) :   0.8933

Dispersion correction           -0.011174515
FINAL SINGLE POINT ENERGY      -550.426268925158

DIPOLE MOMENT
-------------
                                X             Y             Z
Electronic contribution:      0.61407      -2.40376      -0.00000
Nuclear contribution   :     -0.99768       4.91511       0.00000
                        -----------------------------------------
Total Dipole Moment    :     -0.38361       2.51135      -0.00000
                        -----------------------------------------
Magnitude (a.u.)       :      2.54048
Magnitude (Debye)      :      6.45738

Rotational constants in cm-1:     0.086849     0.061302     0.051224
Rotational constants in MHz :  2603.667937  1837.773935  1535.661033

                             ****ORCA TERMINATED NORMALLY****
TOTAL RUN TIME: 0 days 0 hours 1 minutes 3 seconds 873 msec
