                         Program Version 5.0.3 -  RELEASE  -
|  1> ! PBEh-3c def2/J TightSCF DefGrid3
|  2>
|  3> %maxcore 60000
|  4>
|  5> %pal
|  6> nprocs 4
|  7> end
|  8>
|  9> *xyzfile -1 1 7p.xyz
| 10>
| 11>                          ****END OF INPUT****

CARTESIAN COORDINATES (ANGSTROEM)
---------------------------------
  H      1.964808   -4.656457   -2.132630
  O      1.845383   -4.135673   -1.322628
  C      0.454573   -4.179004   -0.965700
  H      0.108528   -5.215483   -0.868923
  H     -0.159894   -3.670717   -1.721646
  C      0.263098   -3.451936    0.344994
  H     -0.812268   -3.409863    0.561005
  O      0.930256   -4.156315    1.429785
  C      1.445626   -3.225687    2.374663
  H      1.049849   -3.428308    3.370314
  N      2.915573   -3.416704    2.476755
  C      3.667363   -3.711439    1.364933
  H      3.102984   -3.813562    0.442648
  C      5.009364   -3.899324    1.417552
  H      5.571292   -4.134618    0.523334
  C      5.702355   -3.809857    2.678169
  O      6.914569   -3.962687    2.870249
  N      4.854868   -3.532267    3.762610
  H      5.289070   -3.469753    4.680144
  C      3.491097   -3.330220    3.744330
  O      2.839155   -3.096650    4.761534
  C      0.840575   -2.033209    0.398870
  H      1.789056   -1.965464   -0.138974
  C      1.050809   -1.818183    1.900366
  H      1.822127   -1.076613    2.132534
  O     -0.190306   -1.467322    2.521948
  H     -0.720497   -1.037687    1.821702
  O     -0.089562   -1.092574   -0.135670
  P      0.355611   -0.106257   -1.399445
  O     -0.380449   -0.532948   -2.628763
  O      1.848093    0.045578   -1.374947
  O     -0.385268    1.258520   -0.902081
  C      0.080065    1.946338    0.277273
  H      0.967629    2.536939    0.031337
  H      0.334856    1.228810    1.066119
  C     -1.042241    2.845388    0.758871
  H     -0.733621    3.331828    1.689863
  O     -1.286316    3.889432   -0.231917
  C     -2.634433    3.834649   -0.691524
  H     -3.249153    4.616617   -0.239215
  N     -2.628762    4.105270   -2.134035
  C     -1.830639    3.342319   -2.955995
  H     -1.246614    2.586748   -2.438821
  C     -1.765822    3.530481   -4.295363
  H     -1.126317    2.915571   -4.914562
  C     -2.553469    4.568934   -4.911906
  O     -2.590361    4.851147   -6.115574
  N     -3.333529    5.298287   -4.002139
  H     -3.904430    6.046168   -4.387931
  C     -3.425958    5.134958   -2.634719
  O     -4.146352    5.841466   -1.932284
  C     -2.380831    2.123926    0.968401
  H     -2.253039    1.050225    1.118973
  C     -3.156907    2.429345   -0.323769
  H     -2.869653    1.716144   -1.099600
  O     -4.561803    2.367104   -0.166954
  H     -4.727419    2.653507    0.755169
  O     -3.119165    2.702227    2.060597
  H     -3.203556    2.038854    2.762676

 Total Charge           Charge          ....   -1
 Multiplicity           Mult            ....    1
 Number of Electrons    NEL             ....  286
 Basis Dimension        Dim             ....  602

ORBITAL ENERGIES
----------------

  NO   OCC          E(Eh)            E(eV)
   0   2.0000     -77.732773     -2115.2163
   1   2.0000     -19.452426      -529.3274
   2   2.0000     -19.443748      -529.0913
   3   2.0000     -19.435635      -528.8705
   4   2.0000     -19.430328      -528.7261
   5   2.0000     -19.420373      -528.4552
   6   2.0000     -19.419732      -528.4378
   7   2.0000     -19.411473      -528.2130
   8   2.0000     -19.407342      -528.1006
   9   2.0000     -19.406995      -528.0912
  10   2.0000     -19.397133      -527.8228
  11   2.0000     -19.396798      -527.8137
  12   2.0000     -19.385695      -527.5116
  13   2.0000     -19.291605      -524.9512
  14   2.0000     -19.284085      -524.7466
  15   2.0000     -14.639411      -398.3586
  16   2.0000     -14.628555      -398.0632
  17   2.0000     -14.624734      -397.9592
  18   2.0000     -14.613512      -397.6539
  19   2.0000     -10.532525      -286.6046
  20   2.0000     -10.522559      -286.3334
  21   2.0000     -10.495683      -285.6021
  22   2.0000     -10.483573      -285.2725
  23   2.0000     -10.469765      -284.8968
  24   2.0000     -10.460725      -284.6508
  25   2.0000     -10.443614      -284.1852
  26   2.0000     -10.440129      -284.0904
  27   2.0000     -10.429169      -283.7921
  28   2.0000     -10.428360      -283.7701
  29   2.0000     -10.425418      -283.6901
  30   2.0000     -10.424510      -283.6653
  31   2.0000     -10.424343      -283.6608
  32   2.0000     -10.420055      -283.5441
  33   2.0000     -10.417223      -283.4670
  34   2.0000     -10.411245      -283.3044
  35   2.0000     -10.381254      -282.4883
  36   2.0000     -10.366688      -282.0919
  37   2.0000      -6.777086      -184.4139
  38   2.0000      -4.872271      -132.5812
  39   2.0000      -4.870998      -132.5466
  40   2.0000      -4.868371      -132.4751
  41   2.0000      -1.118820       -30.4446
  42   2.0000      -1.110128       -30.2081
  43   2.0000      -1.097949       -29.8767
  44   2.0000      -1.096383       -29.8341
  45   2.0000      -1.075621       -29.2691
  46   2.0000      -1.071151       -29.1475
  47   2.0000      -1.067313       -29.0431
  48   2.0000      -1.059699       -28.8359
  49   2.0000      -1.057962       -28.7886
  50   2.0000      -1.049748       -28.5651
  51   2.0000      -1.048006       -28.5177
  52   2.0000      -1.020522       -27.7698
  53   2.0000      -1.005567       -27.3629
  54   2.0000      -0.996095       -27.1051
  55   2.0000      -0.957223       -26.0474
  56   2.0000      -0.946591       -25.7581
  57   2.0000      -0.921126       -25.0651
  58   2.0000      -0.877414       -23.8756
  59   2.0000      -0.820567       -22.3288
  60   2.0000      -0.808238       -21.9933
  61   2.0000      -0.799292       -21.7498
  62   2.0000      -0.791802       -21.5460
  63   2.0000      -0.775007       -21.0890
  64   2.0000      -0.768633       -20.9156
  65   2.0000      -0.701197       -19.0805
  66   2.0000      -0.696009       -18.9394
  67   2.0000      -0.694403       -18.8957
  68   2.0000      -0.684835       -18.6353
  69   2.0000      -0.652192       -17.7470
  70   2.0000      -0.643398       -17.5077
  71   2.0000      -0.614347       -16.7172
  72   2.0000      -0.612998       -16.6805
  73   2.0000      -0.597247       -16.2519
  74   2.0000      -0.590588       -16.0707
  75   2.0000      -0.562108       -15.2957
  76   2.0000      -0.559575       -15.2268
  77   2.0000      -0.556523       -15.1438
  78   2.0000      -0.551114       -14.9966
  79   2.0000      -0.543257       -14.7828
  80   2.0000      -0.532419       -14.4879
  81   2.0000      -0.526312       -14.3217
  82   2.0000      -0.510645       -13.8954
  83   2.0000      -0.508150       -13.8275
  84   2.0000      -0.496360       -13.5067
  85   2.0000      -0.492596       -13.4042
  86   2.0000      -0.486505       -13.2385
  87   2.0000      -0.476845       -12.9756
  88   2.0000      -0.474117       -12.9014
  89   2.0000      -0.469637       -12.7795
  90   2.0000      -0.464491       -12.6394
  91   2.0000      -0.460140       -12.5210
  92   2.0000      -0.448294       -12.1987
  93   2.0000      -0.444117       -12.0850
  94   2.0000      -0.440938       -11.9985
  95   2.0000      -0.437012       -11.8917
  96   2.0000      -0.429579       -11.6894
  97   2.0000      -0.428172       -11.6511
  98   2.0000      -0.418882       -11.3984
  99   2.0000      -0.415783       -11.3140
 100   2.0000      -0.412475       -11.2240
 101   2.0000      -0.407511       -11.0889
 102   2.0000      -0.405883       -11.0446
 103   2.0000      -0.402777       -10.9601
 104   2.0000      -0.398192       -10.8353
 105   2.0000      -0.393039       -10.6951
 106   2.0000      -0.391595       -10.6558
 107   2.0000      -0.387920       -10.5558
 108   2.0000      -0.380002       -10.3404
 109   2.0000      -0.377117       -10.2619
 110   2.0000      -0.371831       -10.1180
 111   2.0000      -0.364166        -9.9095
 112   2.0000      -0.360061        -9.7978
 113   2.0000      -0.355251        -9.6669
 114   2.0000      -0.343562        -9.3488
 115   2.0000      -0.339957        -9.2507
 116   2.0000      -0.337492        -9.1836
 117   2.0000      -0.333342        -9.0707
 118   2.0000      -0.328047        -8.9266
 119   2.0000      -0.317072        -8.6280
 120   2.0000      -0.310751        -8.4560
 121   2.0000      -0.298718        -8.1285
 122   2.0000      -0.290983        -7.9180
 123   2.0000      -0.285532        -7.7697
 124   2.0000      -0.281263        -7.6536
 125   2.0000      -0.274693        -7.4748
 126   2.0000      -0.272133        -7.4051
 127   2.0000      -0.266907        -7.2629
 128   2.0000      -0.265855        -7.2343
 129   2.0000      -0.263694        -7.1755
 130   2.0000      -0.263161        -7.1610
 131   2.0000      -0.253783        -6.9058
 132   2.0000      -0.253461        -6.8970
 133   2.0000      -0.248421        -6.7599
 134   2.0000      -0.246501        -6.7076
 135   2.0000      -0.243619        -6.6292
 136   2.0000      -0.236066        -6.4237
 137   2.0000      -0.216619        -5.8945
 138   2.0000      -0.210291        -5.7223
 139   2.0000      -0.205988        -5.6052
 140   2.0000      -0.197706        -5.3798
 141   2.0000      -0.179600        -4.8872
 142   2.0000      -0.164943        -4.4883
 143   0.0000       0.059287         1.6133
 144   0.0000       0.071729         1.9519
 145   0.0000       0.111598         3.0367
 146   0.0000       0.123438         3.3589
 147   0.0000       0.150493         4.0951

MULLIKEN ATOMIC CHARGES
-----------------------
   0 H :    0.426974
   1 O :   -0.635943
   2 C :   -0.182881
   3 H :    0.193154
   4 H :    0.242324
   5 C :    0.038064
   6 H :    0.226933
   7 O :   -0.494907
   8 C :    0.173850
   9 H :    0.282614
  10 N :   -0.573456
  11 C :    0.081560
  12 H :    0.340837
  13 C :   -0.484387
  14 H :    0.250756
  15 C :    0.561196
  16 O :   -0.431365
  17 N :   -0.733215
  18 H :    0.387361
  19 C :    0.718899
  20 O :   -0.449033
  21 C :   -0.050501
  22 H :    0.289497
  23 C :   -0.011941
  24 H :    0.237094
  25 O :   -0.659673
  26 H :    0.431727
  27 O :   -0.653904
  28 P :    1.368566
  29 O :   -0.707616
  30 O :   -0.740099
  31 O :   -0.617617
  32 C :   -0.162797
  33 H :    0.241481
  34 H :    0.196176
  35 C :    0.012592
  36 H :    0.227047
  37 O :   -0.484095
  38 C :    0.187120
  39 H :    0.264848
  40 N :   -0.570027
  41 C :    0.075225
  42 H :    0.363847
  43 C :   -0.490790
  44 H :    0.270630
  45 C :    0.560931
  46 O :   -0.433550
  47 N :   -0.735348
  48 H :    0.384272
  49 C :    0.725493
  50 O :   -0.453590
  51 C :   -0.079898
  52 H :    0.244988
  53 C :   -0.015235
  54 H :    0.291622
  55 O :   -0.632490
  56 H :    0.416164
  57 O :   -0.658176
  58 H :    0.428693
Sum of atomic charges:   -1.0000000

LOEWDIN ATOMIC CHARGES
----------------------
   0 H :    0.316017
   1 O :   -0.413380
   2 C :   -0.094530
   3 H :    0.107900
   4 H :    0.135118
   5 C :   -0.018705
   6 H :    0.125758
   7 O :   -0.242976
   8 C :    0.078550
   9 H :    0.150385
  10 N :   -0.092599
  11 C :    0.002630
  12 H :    0.171997
  13 C :   -0.254475
  14 H :    0.158899
  15 C :    0.126317
  16 O :   -0.283246
  17 N :   -0.201673
  18 H :    0.281732
  19 C :    0.161480
  20 O :   -0.289336
  21 C :   -0.041480
  22 H :    0.154479
  23 C :   -0.033858
  24 H :    0.122741
  25 O :   -0.408637
  26 H :    0.309574
  27 O :   -0.359503
  28 P :    0.807207
  29 O :   -0.595383
  30 O :   -0.605982
  31 O :   -0.352641
  32 C :   -0.087598
  33 H :    0.133055
  34 H :    0.113410
  35 C :   -0.018333
  36 H :    0.127265
  37 O :   -0.246959
  38 C :    0.065985
  39 H :    0.142298
  40 N :   -0.085953
  41 C :    0.007577
  42 H :    0.180092
  43 C :   -0.245489
  44 H :    0.167357
  45 C :    0.125849
  46 O :   -0.284444
  47 N :   -0.202820
  48 H :    0.279988
  49 C :    0.165501
  50 O :   -0.293365
  51 C :   -0.035355
  52 H :    0.126673
  53 C :   -0.045834
  54 H :    0.153005
  55 O :   -0.387670
  56 H :    0.308434
  57 O :   -0.405365
  58 H :    0.320315

  Mayer bond orders larger than 0.100000
B(  0-H ,  1-O ) :   0.7843 B(  1-O ,  2-C ) :   0.9878 B(  2-C ,  3-H ) :   0.9027
B(  2-C ,  4-H ) :   0.8790 B(  2-C ,  5-C ) :   0.9772 B(  5-C ,  6-H ) :   0.8929
B(  5-C ,  7-O ) :   0.9126 B(  5-C , 21-C ) :   0.9030 B(  7-O ,  8-C ) :   1.0037
B(  8-C ,  9-H ) :   0.8702 B(  8-C , 10-N ) :   0.8541 B(  8-C , 23-C ) :   0.9230
B( 10-N , 11-C ) :   1.0716 B( 10-N , 19-C ) :   1.0322 B( 11-C , 12-H ) :   0.8145
B( 11-C , 13-C ) :   1.5999 B( 13-C , 14-H ) :   0.9174 B( 13-C , 15-C ) :   1.0804
B( 15-C , 16-O ) :   1.9983 B( 15-C , 17-N ) :   0.9819 B( 17-N , 18-H ) :   0.8048
B( 17-N , 19-C ) :   1.0647 B( 19-C , 20-O ) :   1.9660 B( 21-C , 22-H ) :   0.8326
B( 21-C , 23-C ) :   0.9543 B( 21-C , 27-O ) :   0.9319 B( 23-C , 24-H ) :   0.9031
B( 23-C , 25-O ) :   0.9949 B( 25-O , 26-H ) :   0.7415 B( 27-O , 28-P ) :   0.7920
B( 28-P , 29-O ) :   1.8040 B( 28-P , 30-O ) :   1.6897 B( 28-P , 31-O ) :   0.8477
B( 31-O , 32-C ) :   0.9220 B( 32-C , 33-H ) :   0.8967 B( 32-C , 34-H ) :   0.8911
B( 32-C , 35-C ) :   0.9415 B( 35-C , 36-H ) :   0.9003 B( 35-C , 37-O ) :   0.9384
B( 35-C , 51-C ) :   0.9250 B( 37-O , 38-C ) :   0.9856 B( 38-C , 39-H ) :   0.8675
B( 38-C , 40-N ) :   0.9076 B( 38-C , 53-C ) :   0.8910 B( 40-N , 41-C ) :   1.0477
B( 40-N , 49-C ) :   1.0285 B( 41-C , 42-H ) :   0.8045 B( 41-C , 43-C ) :   1.6134
B( 43-C , 44-H ) :   0.9096 B( 43-C , 45-C ) :   1.0760 B( 45-C , 46-O ) :   1.9943
B( 45-C , 47-N ) :   0.9823 B( 47-N , 48-H ) :   0.8070 B( 47-N , 49-C ) :   1.0626
B( 49-C , 50-O ) :   1.9641 B( 51-C , 52-H ) :   0.8966 B( 51-C , 53-C ) :   0.9414
B( 51-C , 57-O ) :   0.9594 B( 53-C , 54-H ) :   0.8702 B( 53-C , 55-O ) :   1.0449
B( 55-O , 56-H ) :   0.7565 B( 57-O , 58-H ) :   0.7859

Dispersion correction           -0.046564273
FINAL SINGLE POINT ENERGY     -2308.309213344904

DIPOLE MOMENT
-------------
                                X             Y             Z
Electronic contribution:      3.20045       5.83336      -3.77355
Nuclear contribution   :     -4.39847      -7.22500       6.39320
                        -----------------------------------------
Total Dipole Moment    :     -1.19802      -1.39164       2.61965
                        -----------------------------------------
Magnitude (a.u.)       :      3.19914
Magnitude (Debye)      :      8.13156

Rotational constants in cm-1:     0.007105     0.001361     0.001278
Rotational constants in MHz :   212.988378    40.804067    38.301689

                             ****ORCA TERMINATED NORMALLY****
TOTAL RUN TIME: 0 days 0 hours 11 minutes 55 seconds 378 msec
