                         Program Version 5.0.3 -  RELEASE  -
|  1> ! PBEh-3c def2/J TightSCF DefGrid3
|  2>
|  3> %maxcore 60000
|  4>
|  5> %pal
|  6> nprocs 4
|  7> end
|  8>
|  9> *xyzfile 0 1 r3.xyz
| 10>
| 11>                          ****END OF INPUT****

CARTESIAN COORDINATES (ANGSTROEM)
---------------------------------
  C      0.141892   -1.562402    0.775997
  C      0.141892   -1.562402   -0.775997
  C      0.170477   -0.081492    1.183154
  C     -0.464236    0.647944    0.000000
  C      0.170477   -0.081492   -1.183154
  C     -0.246067    2.150012    0.000000
  H      0.983914   -2.115031    1.188280
  H     -0.764019   -2.036348    1.151894
  H      0.983914   -2.115031   -1.188280
  H     -0.764019   -2.036348   -1.151894
  H      1.202829    0.264419    1.284819
  H     -0.335589    0.111075    2.128811
  H     -1.538688    0.434318    0.000000
  H     -0.335589    0.111075   -2.128811
  H      1.202829    0.264419   -1.284819
  H      0.822000    2.373747    0.000000
  H     -0.686009    2.616768    0.881190
  H     -0.686009    2.616768   -0.881190

 Total Charge           Charge          ....    0
 Multiplicity           Mult            ....    1
 Number of Electrons    NEL             ....   48
 Basis Dimension        Dim             ....  114

ORBITAL ENERGIES
----------------

  NO   OCC          E(Eh)            E(eV)
   0   2.0000     -10.432132      -283.8727
   1   2.0000     -10.424345      -283.6609
   2   2.0000     -10.424173      -283.6562
   3   2.0000     -10.422688      -283.6158
   4   2.0000     -10.422634      -283.6143
   5   2.0000     -10.417992      -283.4880
   6   2.0000      -0.931852       -25.3570
   7   2.0000      -0.826179       -22.4815
   8   2.0000      -0.786488       -21.4014
   9   2.0000      -0.728094       -19.8125
  10   2.0000      -0.629991       -17.1429
  11   2.0000      -0.623644       -16.9702
  12   2.0000      -0.542039       -14.7496
  13   2.0000      -0.516042       -14.0422
  14   2.0000      -0.485070       -13.1994
  15   2.0000      -0.472562       -12.8591
  16   2.0000      -0.450386       -12.2556
  17   2.0000      -0.422112       -11.4863
  18   2.0000      -0.383860       -10.4454
  19   2.0000      -0.379523       -10.3273
  20   2.0000      -0.375420       -10.2157
  21   2.0000      -0.360367        -9.8061
  22   2.0000      -0.359785        -9.7902
  23   2.0000      -0.354500        -9.6464
  24   0.0000       0.128915         3.5080
  25   0.0000       0.151267         4.1162
  26   0.0000       0.161915         4.4059
  27   0.0000       0.192804         5.2465
  28   0.0000       0.199093         5.4176

MULLIKEN ATOMIC CHARGES
-----------------------
   0 C :   -0.433857
   1 C :   -0.433857
   2 C :   -0.411475
   3 C :   -0.233286
   4 C :   -0.411475
   5 C :   -0.629046
   6 H :    0.219054
   7 H :    0.215644
   8 H :    0.219054
   9 H :    0.215644
  10 H :    0.202180
  11 H :    0.218797
  12 H :    0.207192
  13 H :    0.218798
  14 H :    0.202180
  15 H :    0.202856
  16 H :    0.215797
  17 H :    0.215797
Sum of atomic charges:   -0.0000000

LOEWDIN ATOMIC CHARGES
----------------------
   0 C :   -0.244591
   1 C :   -0.244591
   2 C :   -0.236307
   3 C :   -0.160902
   4 C :   -0.236307
   5 C :   -0.352767
   6 H :    0.124319
   7 H :    0.123416
   8 H :    0.124319
   9 H :    0.123416
  10 H :    0.119255
  11 H :    0.123628
  12 H :    0.118805
  13 H :    0.123628
  14 H :    0.119255
  15 H :    0.122891
  16 H :    0.126266
  17 H :    0.126266

  Mayer bond orders larger than 0.100000
B(  0-C ,  1-C ) :   0.9613 B(  0-C ,  2-C ) :   0.9819 B(  0-C ,  6-H ) :   0.9334
B(  0-C ,  7-H ) :   0.9304 B(  1-C ,  4-C ) :   0.9819 B(  1-C ,  8-H ) :   0.9334
B(  1-C ,  9-H ) :   0.9304 B(  2-C ,  3-C ) :   0.9736 B(  2-C , 10-H ) :   0.9224
B(  2-C , 11-H ) :   0.9298 B(  3-C ,  4-C ) :   0.9736 B(  3-C ,  5-C ) :   1.0014
B(  3-C , 12-H ) :   0.9081 B(  4-C , 13-H ) :   0.9298 B(  4-C , 14-H ) :   0.9224
B(  5-C , 15-H ) :   0.9279 B(  5-C , 16-H ) :   0.9312 B(  5-C , 17-H ) :   0.9312

Dispersion correction           -0.008616595
FINAL SINGLE POINT ENERGY      -235.356744843511

DIPOLE MOMENT
-------------
                                X             Y             Z
Electronic contribution:     -0.23451      -1.18599      -0.00000
Nuclear contribution   :      0.20622       1.18050       0.00000
                        -----------------------------------------
Total Dipole Moment    :     -0.02829      -0.00549      -0.00000
                        -----------------------------------------
Magnitude (a.u.)       :      0.02882
Magnitude (Debye)      :      0.07325

Rotational constants in cm-1:     0.210619     0.098576     0.074505
Rotational constants in MHz :  6314.193227  2955.219824  2233.609843

                             ****ORCA TERMINATED NORMALLY****
TOTAL RUN TIME: 0 days 0 hours 1 minutes 15 seconds 47 msec
