                         Program Version 5.0.3 -  RELEASE  -
|  1> ! PBEh-3c def2/J TightSCF DefGrid3
|  2>
|  3> %maxcore 60000
|  4>
|  5> %pal
|  6> nprocs 4
|  7> end
|  8>
|  9> *xyzfile 0 1 02b.xyz
| 10>
| 11>                          ****END OF INPUT****

CARTESIAN COORDINATES (ANGSTROEM)
---------------------------------
  O      0.000000    0.000000   -0.392738
  H     -0.760069    0.000000    0.196369
  H      0.760069    0.000000    0.196369

 Total Charge           Charge          ....    0
 Multiplicity           Mult            ....    1
 Number of Electrons    NEL             ....   10
 Basis Dimension        Dim             ....   19

ORBITAL ENERGIES
----------------

  NO   OCC          E(Eh)            E(eV)
   0   2.0000     -19.474482      -529.9276
   1   2.0000      -1.101927       -29.9850
   2   2.0000      -0.581256       -15.8168
   3   2.0000      -0.434326       -11.8186
   4   2.0000      -0.356378        -9.6975
   5   0.0000       0.131009         3.5649
   6   0.0000       0.208910         5.6847
   7   0.0000       0.873451        23.7678
   8   0.0000       0.979061        26.6416
   9   0.0000       0.991645        26.9840

MULLIKEN ATOMIC CHARGES
-----------------------
   0 O :   -0.816514
   1 H :    0.408257
   2 H :    0.408257
Sum of atomic charges:   -0.0000000

LOEWDIN ATOMIC CHARGES
----------------------
   0 O :   -0.597444
   1 H :    0.298722
   2 H :    0.298722

  Mayer bond orders larger than 0.100000
B(  0-O ,  1-H ) :   0.8157 B(  0-O ,  2-H ) :   0.8157

Dispersion correction           -0.000209573
FINAL SINGLE POINT ENERGY       -76.258013886853

DIPOLE MOMENT
-------------
                                X             Y             Z
Electronic contribution:     -0.00000       0.00000      -0.13081
Nuclear contribution   :      0.00000       0.00000       0.98070
                        -----------------------------------------
Total Dipole Moment    :     -0.00000       0.00000       0.84989
                        -----------------------------------------
Magnitude (a.u.)       :      0.84989
Magnitude (Debye)      :      2.16024

Rotational constants in cm-1:    27.130575    14.474407     9.438749
Rotational constants in MHz : 813354.165986 433931.815682 282966.581222

                             ****ORCA TERMINATED NORMALLY****
TOTAL RUN TIME: 0 days 0 hours 1 minutes 30 seconds 887 msec
