                         Program Version 5.0.3 -  RELEASE  -
|  1> ! PBEh-3c def2/J TightSCF DefGrid3
|  2>
|  3> %maxcore 60000
|  4>
|  5> %pal
|  6> nprocs 4
|  7> end
|  8>
|  9> *xyzfile 0 1 sif4.xyz
| 10>
| 11>                          ****END OF INPUT****

CARTESIAN COORDINATES (ANGSTROEM)
---------------------------------
  F     -0.403347   -0.071108   -1.505722
  Si     0.000000    0.000000    0.000000
  F      1.521627   -0.313384    0.146234
  F     -0.291486    1.431078    0.549542
  F     -0.826794   -1.046586    0.809946

 Total Charge           Charge          ....    0
 Multiplicity           Mult            ....    1
 Number of Electrons    NEL             ....   50
 Basis Dimension        Dim             ....   78

ORBITAL ENERGIES
----------------

  NO   OCC          E(Eh)            E(eV)
   0   2.0000     -66.921923     -1821.0381
   1   2.0000     -25.133286      -683.9115
   2   2.0000     -25.133265      -683.9109
   3   2.0000     -25.133263      -683.9109
   4   2.0000     -25.133256      -683.9107
   5   2.0000      -5.674626      -154.4144
   6   2.0000      -3.968326      -107.9836
   7   2.0000      -3.968325      -107.9836
   8   2.0000      -3.968325      -107.9836
   9   2.0000      -1.387425       -37.7538
  10   2.0000      -1.348910       -36.7057
  11   2.0000      -1.348902       -36.7055
  12   2.0000      -1.348901       -36.7055
  13   2.0000      -0.692850       -18.8534
  14   2.0000      -0.619918       -16.8688
  15   2.0000      -0.619916       -16.8688
  16   2.0000      -0.619914       -16.8687
  17   2.0000      -0.562565       -15.3082
  18   2.0000      -0.562560       -15.3080
  19   2.0000      -0.550782       -14.9875
  20   2.0000      -0.550780       -14.9875
  21   2.0000      -0.550778       -14.9874
  22   2.0000      -0.516009       -14.0413
  23   2.0000      -0.516006       -14.0412
  24   2.0000      -0.516001       -14.0411
  25   0.0000       0.056976         1.5504
  26   0.0000       0.155266         4.2250
  27   0.0000       0.155271         4.2251
  28   0.0000       0.155274         4.2252
  29   0.0000       0.297596         8.0980

MULLIKEN ATOMIC CHARGES
-----------------------
   0 F :   -0.444937
   1 Si:    1.779755
   2 F :   -0.444936
   3 F :   -0.444939
   4 F :   -0.444942
Sum of atomic charges:   -0.0000000

LOEWDIN ATOMIC CHARGES
----------------------
   0 F :   -0.186602
   1 Si:    0.746411
   2 F :   -0.186602
   3 F :   -0.186602
   4 F :   -0.186605

  Mayer bond orders larger than 0.100000
B(  0-F ,  1-Si) :   0.9479 B(  1-Si,  2-F ) :   0.9479 B(  1-Si,  3-F ) :   0.9479
B(  1-Si,  4-F ) :   0.9479

Dispersion correction           -0.001179946
FINAL SINGLE POINT ENERGY      -688.014659531220

DIPOLE MOMENT
-------------
                                X             Y             Z
Electronic contribution:     -0.00002       0.00001       0.00002
Nuclear contribution   :     -0.00000       0.00000      -0.00000
                        -----------------------------------------
Total Dipole Moment    :     -0.00002       0.00001       0.00002
                        -----------------------------------------
Magnitude (a.u.)       :      0.00003
Magnitude (Debye)      :      0.00009

Rotational constants in cm-1:     0.136657     0.136657     0.136657
Rotational constants in MHz :  4096.869952  4096.869864  4096.869676

                             ****ORCA TERMINATED NORMALLY****
TOTAL RUN TIME: 0 days 0 hours 0 minutes 32 seconds 813 msec
