                         Program Version 5.0.3 -  RELEASE  -
|  1> ! PBEh-3c def2/J TightSCF DefGrid3
|  2>
|  3> %maxcore 60000
|  4>
|  5> %pal
|  6> nprocs 4
|  7> end
|  8>
|  9> *xyzfile 0 1 B62.xyz
| 10>
| 11>                          ****END OF INPUT****

CARTESIAN COORDINATES (ANGSTROEM)
---------------------------------
  C     -1.386620   -0.069820    0.488134
  H     -1.543127    0.660287    1.282218
  O     -2.689541   -0.408677    0.021739
  C     -0.512729    0.531521   -0.606158
  H     -0.328990   -0.219569   -1.381057
  H     -1.079255    1.332365   -1.083365
  C      0.822127    1.084556   -0.098897
  H      0.633223    1.875529    0.633135
  H      1.357140    1.540532   -0.933359
  H     -2.585023   -1.047990   -0.688206
  H     -0.905181   -0.943444    0.940155
  C      1.737082    0.046753    0.546114
  H      2.678332    0.517613    0.824711
  H      1.290469   -0.351560    1.461646
  O      2.090532   -1.010941   -0.342913
  H      1.315328   -1.564869   -0.461645

 Total Charge           Charge          ....    0
 Multiplicity           Mult            ....    1
 Number of Electrons    NEL             ....   50
 Basis Dimension        Dim             ....  110

ORBITAL ENERGIES
----------------

  NO   OCC          E(Eh)            E(eV)
   0   2.0000     -19.489404      -530.3336
   1   2.0000     -19.488754      -530.3160
   2   2.0000     -10.486921      -285.3636
   3   2.0000     -10.484122      -285.2875
   4   2.0000     -10.441420      -284.1255
   5   2.0000     -10.439688      -284.0784
   6   2.0000      -1.126540       -30.6547
   7   2.0000      -1.124546       -30.6005
   8   2.0000      -0.888414       -24.1750
   9   2.0000      -0.798784       -21.7360
  10   2.0000      -0.725319       -19.7369
  11   2.0000      -0.658478       -17.9181
  12   2.0000      -0.588310       -16.0087
  13   2.0000      -0.559506       -15.2249
  14   2.0000      -0.537836       -14.6353
  15   2.0000      -0.513016       -13.9599
  16   2.0000      -0.487492       -13.2653
  17   2.0000      -0.471322       -12.8253
  18   2.0000      -0.448692       -12.2095
  19   2.0000      -0.416871       -11.3436
  20   2.0000      -0.402768       -10.9599
  21   2.0000      -0.386570       -10.5191
  22   2.0000      -0.375820       -10.2266
  23   2.0000      -0.332007        -9.0344
  24   2.0000      -0.322891        -8.7863
  25   0.0000       0.094830         2.5805
  26   0.0000       0.125722         3.4211
  27   0.0000       0.166830         4.5397
  28   0.0000       0.172045         4.6816
  29   0.0000       0.178709         4.8629

MULLIKEN ATOMIC CHARGES
-----------------------
   0 C :   -0.134803
   1 H :    0.211918
   2 O :   -0.619494
   3 C :   -0.491600
   4 H :    0.193825
   5 H :    0.245433
   6 C :   -0.448753
   7 H :    0.207510
   8 H :    0.235609
   9 H :    0.408004
  10 H :    0.168259
  11 C :   -0.169771
  12 H :    0.224063
  13 H :    0.182479
  14 O :   -0.624257
  15 H :    0.411580
Sum of atomic charges:    0.0000000

LOEWDIN ATOMIC CHARGES
----------------------
   0 C :   -0.097650
   1 H :    0.120831
   2 O :   -0.408452
   3 C :   -0.274995
   4 H :    0.113536
   5 H :    0.137737
   6 C :   -0.263623
   7 H :    0.126461
   8 H :    0.134379
   9 H :    0.305559
  10 H :    0.091480
  11 C :   -0.097197
  12 H :    0.123387
  13 H :    0.097214
  14 O :   -0.412864
  15 H :    0.304195

  Mayer bond orders larger than 0.100000
B(  0-C ,  1-H ) :   0.9115 B(  0-C ,  2-O ) :   1.0209 B(  0-C ,  3-C ) :   0.9739
B(  0-C , 10-H ) :   0.9101 B(  2-O ,  9-H ) :   0.7952 B(  3-C ,  4-H ) :   0.9152
B(  3-C ,  5-H ) :   0.9111 B(  3-C ,  6-C ) :   0.9725 B(  6-C ,  7-H ) :   0.9096
B(  6-C ,  8-H ) :   0.9138 B(  6-C , 11-C ) :   0.9583 B( 11-C , 12-H ) :   0.9177
B( 11-C , 13-H ) :   0.9121 B( 11-C , 14-O ) :   1.0166 B( 14-O , 15-H ) :   0.7920

Dispersion correction           -0.006773698
FINAL SINGLE POINT ENERGY      -308.205430360965

DIPOLE MOMENT
-------------
                                X             Y             Z
Electronic contribution:     -0.89621      -1.93755      -0.67088
Nuclear contribution   :      0.85803       1.85106       0.61389
                        -----------------------------------------
Total Dipole Moment    :     -0.03818      -0.08649      -0.05699
                        -----------------------------------------
Magnitude (a.u.)       :      0.11039
Magnitude (Debye)      :      0.28059

Rotational constants in cm-1:     0.231186     0.055491     0.051063
Rotational constants in MHz :  6930.784393  1663.579686  1530.839618

                             ****ORCA TERMINATED NORMALLY****
TOTAL RUN TIME: 0 days 0 hours 1 minutes 38 seconds 762 msec
