                         Program Version 5.0.3 -  RELEASE  -
|  1> ! PBEh-3c def2/J TightSCF DefGrid3
|  2>
|  3> %maxcore 60000
|  4>
|  5> %pal
|  6> nprocs 4
|  7> end
|  8>
|  9> *xyzfile 1 2 h2o2+_1.25.xyz
| 10>
| 11>                          ****END OF INPUT****

CARTESIAN COORDINATES (ANGSTROEM)
---------------------------------
  O      1.262831    0.000000    0.070928
  O     -1.262831    0.000000   -0.070928
  H      1.402035    0.775137   -0.507062
  H      1.402035   -0.775137   -0.507062
  H     -1.402035    0.775137    0.507063
  H     -1.402035   -0.775137    0.507063

 Total Charge           Charge          ....    1
 Multiplicity           Mult            ....    2
 Number of Electrons    NEL             ....   19
 Basis Dimension        Dim             ....   38

ORBITAL ENERGIES
----------------
                 SPIN UP ORBITALS
  NO   OCC          E(Eh)            E(eV)
   0   1.0000     -19.852737      -540.2204
   1   1.0000     -19.852698      -540.2194
   2   1.0000      -1.455656       -39.6104
   3   1.0000      -1.445258       -39.3275
   4   1.0000      -0.907504       -24.6944
   5   1.0000      -0.899442       -24.4751
   6   1.0000      -0.784044       -21.3349
   7   1.0000      -0.771581       -20.9958
   8   1.0000      -0.748113       -20.3572
   9   1.0000      -0.712518       -19.3886
  10   0.0000      -0.141119        -3.8401
  11   0.0000      -0.102012        -2.7759
  12   0.0000      -0.049787        -1.3548
  13   0.0000      -0.044802        -1.2191
  14   0.0000       0.524106        14.2616

                 SPIN DOWN ORBITALS
  NO   OCC          E(Eh)            E(eV)
   0   1.0000     -19.835154      -539.7420
   1   1.0000     -19.835139      -539.7416
   2   1.0000      -1.409736       -38.3609
   3   1.0000      -1.396716       -38.0066
   4   1.0000      -0.894137       -24.3307
   5   1.0000      -0.885642       -24.0995
   6   1.0000      -0.752520       -20.4771
   7   1.0000      -0.748871       -20.3778
   8   1.0000      -0.610882       -16.6229
   9   0.0000      -0.447825       -12.1859
  10   0.0000      -0.133558        -3.6343
  11   0.0000      -0.094236        -2.5643
  12   0.0000      -0.045145        -1.2284
  13   0.0000      -0.040588        -1.1045

MULLIKEN ATOMIC CHARGES AND SPIN POPULATIONS
--------------------------------------------
   0 O :   -0.519659    0.535847
   1 O :   -0.519679    0.535833
   2 H :    0.509833   -0.017920
   3 H :    0.509833   -0.017920
   4 H :    0.509836   -0.017920
   5 H :    0.509836   -0.017920
Sum of atomic charges         :    1.0000000

LOEWDIN ATOMIC CHARGES AND SPIN POPULATIONS
-------------------------------------------
   0 O :   -0.243237    0.528125
   1 O :   -0.243257    0.528111
   2 H :    0.371622   -0.014059
   3 H :    0.371622   -0.014059
   4 H :    0.371625   -0.014059
   5 H :    0.371625   -0.014059

  Mayer bond orders larger than 0.100000
B(  0-O ,  1-O ) :   0.5004 B(  0-O ,  2-H ) :   0.7253 B(  0-O ,  3-H ) :   0.7253
B(  1-O ,  4-H ) :   0.7253 B(  1-O ,  5-H ) :   0.7253

Dispersion correction           -0.000877699
FINAL SINGLE POINT ENERGY      -152.130644780480

DIPOLE MOMENT
-------------
                                X             Y             Z
Electronic contribution:      0.00003       0.00000       0.00001
Nuclear contribution   :      0.00000       0.00000       0.00000
                        -----------------------------------------
Total Dipole Moment    :      0.00003       0.00000       0.00001
                        -----------------------------------------
Magnitude (a.u.)       :      0.00003
Magnitude (Debye)      :      0.00009

Rotational constants in cm-1:     4.656512     0.280251     0.274658
Rotational constants in MHz : 139598.711609  8401.717475  8234.041207

                             ****ORCA TERMINATED NORMALLY****
TOTAL RUN TIME: 0 days 0 hours 1 minutes 14 seconds 248 msec
