                         Program Version 5.0.3 -  RELEASE  -
|  1> ! PBEh-3c def2/J TightSCF DefGrid3
|  2>
|  3> %maxcore 60000
|  4>
|  5> %pal
|  6> nprocs 4
|  7> end
|  8>
|  9> *xyzfile 0 2 EA_19n.xyz
| 10>
| 11>                          ****END OF INPUT****

CARTESIAN COORDINATES (ANGSTROEM)
---------------------------------
  S      0.000000    0.000000    0.674697
  H      0.000000    0.000000   -0.674697

 Total Charge           Charge          ....    0
 Multiplicity           Mult            ....    2
 Number of Electrons    NEL             ....   17
 Basis Dimension        Dim             ....   20

ORBITAL ENERGIES
----------------
                 SPIN UP ORBITALS
  NO   OCC          E(Eh)            E(eV)
   0   1.0000     -89.609067     -2438.3867
   1   1.0000      -8.248961      -224.4656
   2   1.0000      -6.148768      -167.3165
   3   1.0000      -6.136012      -166.9694
   4   1.0000      -6.128070      -166.7533
   5   1.0000      -0.815181       -22.1822
   6   1.0000      -0.459991       -12.5170
   7   1.0000      -0.369022       -10.0416
   8   1.0000      -0.316112        -8.6018
   9   0.0000       0.074236         2.0201
  10   0.0000       0.372351        10.1322
  11   0.0000       0.577161        15.7053
  12   0.0000       0.658328        17.9140
  13   0.0000       0.690278        18.7834

                 SPIN DOWN ORBITALS
  NO   OCC          E(Eh)            E(eV)
   0   1.0000     -89.602788     -2438.2158
   1   1.0000      -8.242591      -224.2923
   2   1.0000      -6.132237      -166.8667
   3   1.0000      -6.125436      -166.6816
   4   1.0000      -6.124413      -166.6537
   5   1.0000      -0.761742       -20.7280
   6   1.0000      -0.443771       -12.0756
   7   1.0000      -0.299054        -8.1377
   8   0.0000      -0.130081        -3.5397
   9   0.0000       0.087204         2.3729
  10   0.0000       0.392789        10.6883
  11   0.0000       0.592970        16.1355
  12   0.0000       0.708925        19.2908

MULLIKEN ATOMIC CHARGES AND SPIN POPULATIONS
--------------------------------------------
   0 S :   -0.175760    1.032740
   1 H :    0.175760   -0.032740
Sum of atomic charges         :   -0.0000000

LOEWDIN ATOMIC CHARGES AND SPIN POPULATIONS
-------------------------------------------
   0 S :   -0.102317    1.020305
   1 H :    0.102317   -0.020305

  Mayer bond orders larger than 0.100000
B(  0-S ,  1-H ) :   0.9363

Dispersion correction           -0.000186058
FINAL SINGLE POINT ENERGY      -398.286787080779

DIPOLE MOMENT
-------------
                                X             Y             Z
Electronic contribution:      0.00000      -0.00000       0.78834
Nuclear contribution   :      0.00000       0.00000      -1.22857
                        -----------------------------------------
Total Dipole Moment    :      0.00000      -0.00000      -0.44023
                        -----------------------------------------
Magnitude (a.u.)       :      0.44023
Magnitude (Debye)      :      1.11897

Rotational constants in cm-1:     0.000000     9.473351     9.473351
Rotational constants in MHz :     0.000000 284003.910177 284003.910177

                             ****ORCA TERMINATED NORMALLY****
TOTAL RUN TIME: 0 days 0 hours 0 minutes 25 seconds 297 msec
