                         Program Version 5.0.3 -  RELEASE  -
|  1> ! PBEh-3c def2/J TightSCF DefGrid3
|  2>
|  3> %maxcore 60000
|  4>
|  5> %pal
|  6> nprocs 4
|  7> end
|  8>
|  9> *xyzfile 0 1 44.xyz
| 10>
| 11>                          ****END OF INPUT****

CARTESIAN COORDINATES (ANGSTROEM)
---------------------------------
  N      1.198118    2.808579    0.051124
  C     -0.104073    2.507253   -0.286834
  C     -0.211962    1.170432   -0.597743
  C      1.104073    0.615400   -0.442531
  C      1.636781   -0.676003   -0.619603
  C      2.989115   -0.869956   -0.399087
  C      3.832236    0.192251   -0.002359
  C      3.331101    1.470986    0.182149
  C      1.962681    1.668562   -0.039674
  H      1.538706    3.722496    0.286961
  H     -0.862069    3.274019   -0.288399
  H      1.027077   -1.511030   -0.939706
  H      4.886640   -0.006548    0.134249
  H      3.981971    2.284719    0.474980
  O      3.534143   -2.122750   -0.616972
  C      3.817367   -2.814700    0.596285
  H      2.903049   -2.974531    1.173006
  H      4.532821   -2.263726    1.210529
  H      4.244738   -3.773977    0.316537
  C     -1.457300    0.428398   -0.968160
  C     -1.968190   -0.438357    0.194515
  N     -3.150655   -1.213006   -0.133012
  C     -4.454725   -0.807745   -0.032022
  C     -4.706772    0.480307    0.727773
  H     -1.271198   -0.217241   -1.830714
  H     -2.240506    1.129715   -1.263427
  H     -2.181017    0.195235    1.053539
  H     -1.181838   -1.127415    0.505254
  H     -3.033520   -2.042572   -0.693891
  O     -5.366645   -1.471946   -0.502600
  H     -5.772827    0.679339    0.696666
  H     -4.168723    1.319163    0.287197
  H     -4.388596    0.384655    1.765958

 Total Charge           Charge          ....    0
 Multiplicity           Mult            ....    1
 Number of Electrons    NEL             ....  124
 Basis Dimension        Dim             ....  287

ORBITAL ENERGIES
----------------

  NO   OCC          E(Eh)            E(eV)
   0   2.0000     -19.507892      -530.8367
   1   2.0000     -19.446951      -529.1785
   2   2.0000     -14.692045      -399.7909
   3   2.0000     -14.653507      -398.7422
   4   2.0000     -10.542661      -286.8804
   5   2.0000     -10.497580      -285.6537
   6   2.0000     -10.486410      -285.3497
   7   2.0000     -10.485672      -285.3296
   8   2.0000     -10.483262      -285.2641
   9   2.0000     -10.482642      -285.2472
  10   2.0000     -10.458247      -284.5834
  11   2.0000     -10.452022      -284.4140
  12   2.0000     -10.451833      -284.4088
  13   2.0000     -10.449197      -284.3371
  14   2.0000     -10.448733      -284.3245
  15   2.0000     -10.447642      -284.2948
  16   2.0000     -10.438622      -284.0493
  17   2.0000      -1.156344       -31.4657
  18   2.0000      -1.133084       -30.8328
  19   2.0000      -1.094439       -29.7812
  20   2.0000      -1.018181       -27.7061
  21   2.0000      -0.942765       -25.6539
  22   2.0000      -0.905577       -24.6420
  23   2.0000      -0.846652       -23.0386
  24   2.0000      -0.833570       -22.6826
  25   2.0000      -0.824654       -22.4400
  26   2.0000      -0.808222       -21.9928
  27   2.0000      -0.769509       -20.9394
  28   2.0000      -0.733048       -19.9473
  29   2.0000      -0.704419       -19.1682
  30   2.0000      -0.672304       -18.2943
  31   2.0000      -0.647079       -17.6079
  32   2.0000      -0.636934       -17.3318
  33   2.0000      -0.617088       -16.7918
  34   2.0000      -0.573143       -15.5960
  35   2.0000      -0.562032       -15.2937
  36   2.0000      -0.560527       -15.2527
  37   2.0000      -0.546431       -14.8692
  38   2.0000      -0.526324       -14.3220
  39   2.0000      -0.519628       -14.1398
  40   2.0000      -0.515554       -14.0289
  41   2.0000      -0.505815       -13.7639
  42   2.0000      -0.499785       -13.5998
  43   2.0000      -0.490854       -13.3568
  44   2.0000      -0.483971       -13.1695
  45   2.0000      -0.474205       -12.9038
  46   2.0000      -0.462178       -12.5765
  47   2.0000      -0.457318       -12.4443
  48   2.0000      -0.455472       -12.3940
  49   2.0000      -0.453579       -12.3425
  50   2.0000      -0.441860       -12.0236
  51   2.0000      -0.416840       -11.3428
  52   2.0000      -0.410503       -11.1703
  53   2.0000      -0.405616       -11.0374
  54   2.0000      -0.396709       -10.7950
  55   2.0000      -0.379492       -10.3265
  56   2.0000      -0.330331        -8.9888
  57   2.0000      -0.328943        -8.9510
  58   2.0000      -0.300743        -8.1836
  59   2.0000      -0.294462        -8.0127
  60   2.0000      -0.259733        -7.0677
  61   2.0000      -0.247004        -6.7213
  62   0.0000      -0.000773        -0.0210
  63   0.0000       0.044724         1.2170
  64   0.0000       0.065766         1.7896
  65   0.0000       0.085433         2.3248
  66   0.0000       0.113304         3.0832

MULLIKEN ATOMIC CHARGES
-----------------------
   0 N :   -0.701168
   1 C :   -0.058470
   2 C :    0.025650
   3 C :    0.072857
   4 C :   -0.436202
   5 C :    0.363785
   6 C :   -0.312211
   7 C :   -0.261997
   8 C :    0.367879
   9 H :    0.360407
  10 H :    0.239835
  11 H :    0.213153
  12 H :    0.229210
  13 H :    0.216139
  14 O :   -0.485156
  15 C :   -0.377005
  16 H :    0.201475
  17 H :    0.198235
  18 H :    0.221780
  19 C :   -0.534167
  20 C :   -0.276520
  21 N :   -0.610092
  22 C :    0.496310
  23 C :   -0.780566
  24 H :    0.232241
  25 H :    0.229426
  26 H :    0.235545
  27 H :    0.246813
  28 H :    0.358474
  29 O :   -0.418172
  30 H :    0.272599
  31 H :    0.228157
  32 H :    0.241753
Sum of atomic charges:   -0.0000000

LOEWDIN ATOMIC CHARGES
----------------------
   0 N :   -0.156710
   1 C :   -0.081901
   2 C :   -0.105935
   3 C :   -0.055193
   4 C :   -0.153700
   5 C :    0.043916
   6 C :   -0.158383
   7 C :   -0.151969
   8 C :    0.013558
   9 H :    0.262711
  10 H :    0.135768
  11 H :    0.142572
  12 H :    0.142712
  13 H :    0.137660
  14 O :   -0.219667
  15 C :   -0.172337
  16 H :    0.110048
  17 H :    0.107838
  18 H :    0.124846
  19 C :   -0.236607
  20 C :   -0.147322
  21 N :   -0.245963
  22 C :    0.106495
  23 C :   -0.398308
  24 H :    0.135267
  25 H :    0.132752
  26 H :    0.131968
  27 H :    0.130718
  28 H :    0.258029
  29 O :   -0.274122
  30 H :    0.156441
  31 H :    0.138432
  32 H :    0.146383

  Mayer bond orders larger than 0.100000
B(  0-N ,  1-C ) :   1.1355 B(  0-N ,  8-C ) :   1.0131 B(  0-N ,  9-H ) :   0.8323
B(  1-C ,  2-C ) :   1.5584 B(  1-C , 10-H ) :   0.9110 B(  2-C ,  3-C ) :   1.2350
B(  2-C , 19-C ) :   0.9443 B(  3-C ,  4-C ) :   1.2368 B(  3-C ,  8-C ) :   1.2429
B(  4-C ,  5-C ) :   1.4873 B(  4-C , 11-H ) :   0.9307 B(  5-C ,  6-C ) :   1.3171
B(  5-C , 14-O ) :   0.9540 B(  6-C ,  7-C ) :   1.4857 B(  6-C , 12-H ) :   0.9117
B(  7-C ,  8-C ) :   1.2886 B(  7-C , 13-H ) :   0.9202 B( 14-O , 15-C ) :   0.9517
B( 15-C , 16-H ) :   0.9127 B( 15-C , 17-H ) :   0.9117 B( 15-C , 18-H ) :   0.9280
B( 19-C , 20-C ) :   0.9451 B( 19-C , 24-H ) :   0.9172 B( 19-C , 25-H ) :   0.9254
B( 20-C , 21-N ) :   0.9543 B( 20-C , 26-H ) :   0.9066 B( 20-C , 27-H ) :   0.9095
B( 21-N , 22-C ) :   1.1518 B( 21-N , 28-H ) :   0.8230 B( 22-C , 23-C ) :   0.9265
B( 22-C , 29-O ) :   2.0330 B( 23-C , 30-H ) :   0.9156 B( 23-C , 31-H ) :   0.9096
B( 23-C , 32-H ) :   0.9090

Dispersion correction           -0.021100511
FINAL SINGLE POINT ENERGY      -763.320715434562

DIPOLE MOMENT
-------------
                                X             Y             Z
Electronic contribution:      4.00745       2.40314      -3.97566
Nuclear contribution   :     -2.58978      -0.85360       5.05263
                        -----------------------------------------
Total Dipole Moment    :      1.41767       1.54954       1.07698
                        -----------------------------------------
Magnitude (a.u.)       :      2.36024
Magnitude (Debye)      :      5.99926

Rotational constants in cm-1:     0.026136     0.007257     0.005905
Rotational constants in MHz :   783.529101   217.569536   177.018304

                             ****ORCA TERMINATED NORMALLY****
TOTAL RUN TIME: 0 days 0 hours 4 minutes 7 seconds 214 msec
