                         Program Version 5.0.3 -  RELEASE  -
|  1> ! PBEh-3c def2/J TightSCF DefGrid3
|  2>
|  3> %maxcore 60000
|  4>
|  5> %pal
|  6> nprocs 4
|  7> end
|  8>
|  9> *xyzfile 0 1 VAL_xaf.xyz
| 10>
| 11>                          ****END OF INPUT****

CARTESIAN COORDINATES (ANGSTROEM)
---------------------------------
  N     -0.806483   -0.966219   -0.235131
  C      0.353682   -0.388979    0.429465
  C      0.641602    0.998390   -0.163704
  O      1.546810    1.229605   -0.960825
  C      1.535572   -1.358295    0.402526
  C      1.958664   -1.794474   -0.998671
  C      2.717130   -0.763437    1.162661
  H     -0.659261   -1.521264   -1.060126
  H      0.051911   -0.243567    1.468358
  H      1.191126   -2.243810    0.944829
  H      1.161093   -2.310061   -1.536467
  H      2.786147   -2.499635   -0.924365
  H      2.277729   -0.937230   -1.584667
  H      2.420181   -0.433190    2.158639
  H      3.504380   -1.507419    1.277266
  H      3.124947    0.088057    0.622018
  N     -0.224449    1.938662    0.279229
  H     -1.027448    1.610725    0.802656
  C     -0.207577    3.277129   -0.270362
  H     -0.656158    3.963120    0.442232
  H      0.823340    3.565030   -0.452626
  H     -0.749534    3.338434   -1.214788
  C     -2.074951   -0.677177    0.145626
  O     -2.328446    0.098974    1.067526
  C     -3.165811   -1.382037   -0.619705
  H     -3.728374   -2.000614    0.075793
  H     -2.790878   -2.004067   -1.428554
  H     -3.845636   -0.635077   -1.021771

 Total Charge           Charge          ....    0
 Multiplicity           Mult            ....    1
 Number of Electrons    NEL             ....   94
 Basis Dimension        Dim             ....  212

ORBITAL ENERGIES
----------------

  NO   OCC          E(Eh)            E(eV)
   0   2.0000     -19.470981      -529.8323
   1   2.0000     -19.453592      -529.3592
   2   2.0000     -14.677350      -399.3910
   3   2.0000     -14.648141      -398.5962
   4   2.0000     -10.563148      -287.4379
   5   2.0000     -10.538489      -286.7669
   6   2.0000     -10.488580      -285.4088
   7   2.0000     -10.458150      -284.5807
   8   2.0000     -10.452659      -284.4313
   9   2.0000     -10.452168      -284.4179
  10   2.0000     -10.423322      -283.6330
  11   2.0000     -10.420317      -283.5512
  12   2.0000      -1.156944       -31.4821
  13   2.0000      -1.134982       -30.8844
  14   2.0000      -1.039682       -28.2912
  15   2.0000      -1.010643       -27.5010
  16   2.0000      -0.905609       -24.6429
  17   2.0000      -0.847618       -23.0649
  18   2.0000      -0.808110       -21.9898
  19   2.0000      -0.768028       -20.8991
  20   2.0000      -0.759124       -20.6568
  21   2.0000      -0.674189       -18.3456
  22   2.0000      -0.657133       -17.8815
  23   2.0000      -0.639592       -17.4042
  24   2.0000      -0.602091       -16.3837
  25   2.0000      -0.560705       -15.2575
  26   2.0000      -0.553001       -15.0479
  27   2.0000      -0.531893       -14.4735
  28   2.0000      -0.515830       -14.0365
  29   2.0000      -0.505046       -13.7430
  30   2.0000      -0.501706       -13.6521
  31   2.0000      -0.487741       -13.2721
  32   2.0000      -0.475436       -12.9373
  33   2.0000      -0.471916       -12.8415
  34   2.0000      -0.461582       -12.5603
  35   2.0000      -0.447912       -12.1883
  36   2.0000      -0.440935       -11.9985
  37   2.0000      -0.435462       -11.8495
  38   2.0000      -0.423857       -11.5337
  39   2.0000      -0.412182       -11.2161
  40   2.0000      -0.393229       -10.7003
  41   2.0000      -0.387818       -10.5531
  42   2.0000      -0.386832       -10.5262
  43   2.0000      -0.334956        -9.1146
  44   2.0000      -0.323291        -8.7972
  45   2.0000      -0.295815        -8.0495
  46   2.0000      -0.287098        -7.8123
  47   0.0000       0.040294         1.0965
  48   0.0000       0.064693         1.7604
  49   0.0000       0.107546         2.9265
  50   0.0000       0.136530         3.7152
  51   0.0000       0.164677         4.4811

MULLIKEN ATOMIC CHARGES
-----------------------
   0 N :   -0.626529
   1 C :   -0.199255
   2 C :    0.564017
   3 O :   -0.441057
   4 C :   -0.245606
   5 C :   -0.656380
   6 C :   -0.649438
   7 H :    0.368204
   8 H :    0.271518
   9 H :    0.223815
  10 H :    0.182231
  11 H :    0.222777
  12 H :    0.272169
  13 H :    0.213114
  14 H :    0.218603
  15 H :    0.253029
  16 N :   -0.646156
  17 H :    0.403366
  18 C :   -0.490568
  19 H :    0.220361
  20 H :    0.250867
  21 H :    0.218200
  22 C :    0.538715
  23 O :   -0.462948
  24 C :   -0.744277
  25 H :    0.263749
  26 H :    0.216682
  27 H :    0.260794
Sum of atomic charges:    0.0000000

LOEWDIN ATOMIC CHARGES
----------------------
   0 N :   -0.211172
   1 C :   -0.090444
   2 C :    0.105386
   3 O :   -0.285052
   4 C :   -0.154256
   5 C :   -0.363200
   6 C :   -0.355572
   7 H :    0.258897
   8 H :    0.150428
   9 H :    0.126523
  10 H :    0.107769
  11 H :    0.130245
  12 H :    0.152159
  13 H :    0.125087
  14 H :    0.128343
  15 H :    0.144892
  16 N :   -0.246736
  17 H :    0.266922
  18 C :   -0.254816
  19 H :    0.125953
  20 H :    0.143853
  21 H :    0.119485
  22 C :    0.113412
  23 O :   -0.302457
  24 C :   -0.383802
  25 H :    0.160664
  26 H :    0.129345
  27 H :    0.158145

  Mayer bond orders larger than 0.100000
B(  0-N ,  1-C ) :   0.9124 B(  0-N ,  7-H ) :   0.8071 B(  0-N , 22-C ) :   1.1762
B(  1-C ,  2-C ) :   0.8678 B(  1-C ,  4-C ) :   0.9782 B(  1-C ,  8-H ) :   0.8813
B(  2-C ,  3-O ) :   1.9421 B(  2-C , 16-N ) :   1.1790 B(  4-C ,  5-C ) :   0.9835
B(  4-C ,  6-C ) :   0.9889 B(  4-C ,  9-H ) :   0.9088 B(  5-C , 10-H ) :   0.9301
B(  5-C , 11-H ) :   0.9250 B(  5-C , 12-H ) :   0.8922 B(  6-C , 13-H ) :   0.9288
B(  6-C , 14-H ) :   0.9281 B(  6-C , 15-H ) :   0.9036 B( 16-N , 17-H ) :   0.7427
B( 16-N , 18-C ) :   0.9615 B( 18-C , 19-H ) :   0.9257 B( 18-C , 20-H ) :   0.9091
B( 18-C , 21-H ) :   0.9185 B( 22-C , 23-O ) :   1.8852 B( 22-C , 24-C ) :   0.9330
B( 24-C , 25-H ) :   0.9062 B( 24-C , 26-H ) :   0.9210 B( 24-C , 27-H ) :   0.9080

Dispersion correction           -0.016392215
FINAL SINGLE POINT ENERGY      -573.250213560714

DIPOLE MOMENT
-------------
                                X             Y             Z
Electronic contribution:     -4.44477       3.23503       1.23796
Nuclear contribution   :      3.79332      -4.03565      -1.51051
                        -----------------------------------------
Total Dipole Moment    :     -0.65145      -0.80062      -0.27255
                        -----------------------------------------
Magnitude (a.u.)       :      1.06754
Magnitude (Debye)      :      2.71348

Rotational constants in cm-1:     0.033851     0.025678     0.017498
Rotational constants in MHz :  1014.818421   769.804007   524.571340

                             ****ORCA TERMINATED NORMALLY****
TOTAL RUN TIME: 0 days 0 hours 2 minutes 45 seconds 945 msec
