                         Program Version 5.0.3 -  RELEASE  -
|  1> ! PBEh-3c def2/J TightSCF DefGrid3
|  2>
|  3> %maxcore 60000
|  4>
|  5> %pal
|  6> nprocs 4
|  7> end
|  8>
|  9> *xyzfile 1 1 h4p2o72.xyz
| 10>
| 11>                          ****END OF INPUT****

CARTESIAN COORDINATES (ANGSTROEM)
---------------------------------
  O     -2.565090   -0.156692   -0.904220
  P     -1.512294   -0.006904    0.225597
  O     -1.232560   -1.031798    1.209123
  O     -0.026789   -0.009798   -0.754700
  P      1.502433   -0.054198    0.181407
  O      1.321720    0.906590    1.249153
  O      1.634468   -1.575439    0.419291
  O      2.460881    0.192352   -1.019484
  O     -1.666081    1.493708    0.572854
  H     -2.939589   -1.034645   -1.070260
  H      1.143829   -1.959120    1.164076
  H      3.052192    0.958948   -0.976873
  H     -1.156076    1.835100    1.324892
  H     -0.017045    0.441895   -1.620857

 Total Charge           Charge          ....    1
 Multiplicity           Mult            ....    1
 Number of Electrons    NEL             ....   90
 Basis Dimension        Dim             ....  151

ORBITAL ENERGIES
----------------

  NO   OCC          E(Eh)            E(eV)
   0   2.0000     -78.128277     -2125.9785
   1   2.0000     -78.128158     -2125.9753
   2   2.0000     -19.809680      -539.0488
   3   2.0000     -19.745060      -537.2904
   4   2.0000     -19.744431      -537.2733
   5   2.0000     -19.737114      -537.0742
   6   2.0000     -19.735081      -537.0188
   7   2.0000     -19.667546      -535.1811
   8   2.0000     -19.667435      -535.1781
   9   2.0000      -7.174474      -195.2274
  10   2.0000      -7.174333      -195.2235
  11   2.0000      -5.269298      -143.3849
  12   2.0000      -5.269132      -143.3804
  13   2.0000      -5.267360      -143.3321
  14   2.0000      -5.267143      -143.3263
  15   2.0000      -5.266612      -143.3118
  16   2.0000      -5.266542      -143.3099
  17   2.0000      -1.454828       -39.5879
  18   2.0000      -1.414408       -38.4880
  19   2.0000      -1.384104       -37.6634
  20   2.0000      -1.358823       -36.9754
  21   2.0000      -1.358531       -36.9675
  22   2.0000      -1.290334       -35.1118
  23   2.0000      -1.289464       -35.0881
  24   2.0000      -0.963430       -26.2163
  25   2.0000      -0.944342       -25.6969
  26   2.0000      -0.899068       -24.4649
  27   2.0000      -0.845631       -23.0108
  28   2.0000      -0.819015       -22.2865
  29   2.0000      -0.813255       -22.1298
  30   2.0000      -0.745335       -20.2816
  31   2.0000      -0.734364       -19.9830
  32   2.0000      -0.724725       -19.7208
  33   2.0000      -0.699397       -19.0316
  34   2.0000      -0.688876       -18.7453
  35   2.0000      -0.671305       -18.2671
  36   2.0000      -0.645711       -17.5707
  37   2.0000      -0.640684       -17.4339
  38   2.0000      -0.632062       -17.1993
  39   2.0000      -0.626645       -17.0519
  40   2.0000      -0.619106       -16.8467
  41   2.0000      -0.581952       -15.8357
  42   2.0000      -0.569778       -15.5044
  43   2.0000      -0.567156       -15.4331
  44   2.0000      -0.559516       -15.2252
  45   0.0000      -0.144220        -3.9244
  46   0.0000      -0.089217        -2.4277
  47   0.0000      -0.083463        -2.2711
  48   0.0000      -0.073628        -2.0035
  49   0.0000      -0.060705        -1.6519

MULLIKEN ATOMIC CHARGES
-----------------------
   0 O :   -0.654576
   1 P :    1.484632
   2 O :   -0.574232
   3 O :   -0.791998
   4 P :    1.478966
   5 O :   -0.566326
   6 O :   -0.644027
   7 O :   -0.666334
   8 O :   -0.651214
   9 H :    0.512197
  10 H :    0.514755
  11 H :    0.513427
  12 H :    0.513934
  13 H :    0.530793
Sum of atomic charges:    1.0000000

LOEWDIN ATOMIC CHARGES
----------------------
   0 O :   -0.382407
   1 P :    0.940938
   2 O :   -0.446480
   3 O :   -0.378943
   4 P :    0.943703
   5 O :   -0.444825
   6 O :   -0.369390
   7 O :   -0.392373
   8 O :   -0.376801
   9 H :    0.379746
  10 H :    0.379232
  11 H :    0.380173
  12 H :    0.379075
  13 H :    0.388353

  Mayer bond orders larger than 0.100000
B(  0-O ,  1-P ) :   1.1988 B(  0-O ,  9-H ) :   0.6997 B(  1-P ,  2-O ) :   1.9329
B(  1-P ,  3-O ) :   0.5570 B(  1-P ,  8-O ) :   1.2143 B(  3-O ,  4-P ) :   0.5401
B(  3-O , 13-H ) :   0.6761 B(  4-P ,  5-O ) :   1.9517 B(  4-P ,  6-O ) :   1.2250
B(  4-P ,  7-O ) :   1.1803 B(  6-O , 10-H ) :   0.6874 B(  7-O , 11-H ) :   0.6987
B(  8-O , 12-H ) :   0.6906

Dispersion correction           -0.008034930
FINAL SINGLE POINT ENERGY     -1210.285338097963

DIPOLE MOMENT
-------------
                                X             Y             Z
Electronic contribution:     -0.00631      -0.09525       0.49303
Nuclear contribution   :      0.10935       0.35550      -1.85777
                        -----------------------------------------
Total Dipole Moment    :      0.10304       0.26025      -1.36474
                        -----------------------------------------
Magnitude (a.u.)       :      1.39314
Magnitude (Debye)      :      3.54109

Rotational constants in cm-1:     0.077877     0.027740     0.027225
Rotational constants in MHz :  2334.703028   831.630691   816.170683

                             ****ORCA TERMINATED NORMALLY****
TOTAL RUN TIME: 0 days 0 hours 1 minutes 44 seconds 52 msec
