                         Program Version 5.0.3 -  RELEASE  -
|  1> ! PBEh-3c def2/J TightSCF DefGrid3
|  2>
|  3> %maxcore 60000
|  4>
|  5> %pal
|  6> nprocs 4
|  7> end
|  8>
|  9> *xyzfile 0 1 cl2.xyz
| 10>
| 11>                          ****END OF INPUT****

CARTESIAN COORDINATES (ANGSTROEM)
---------------------------------
  Cl     0.000000    0.000000   -0.991316
  Cl     0.000000    0.000000    0.991316

 Total Charge           Charge          ....    0
 Multiplicity           Mult            ....    1
 Number of Electrons    NEL             ....   34
 Basis Dimension        Dim             ....   36

ORBITAL ENERGIES
----------------

  NO   OCC          E(Eh)            E(eV)
   0   2.0000    -102.356412     -2785.2596
   1   2.0000    -102.356358     -2785.2581
   2   2.0000      -9.822417      -267.2815
   3   2.0000      -9.822405      -267.2812
   4   2.0000      -7.512995      -204.4390
   5   2.0000      -7.512868      -204.4355
   6   2.0000      -7.499872      -204.0819
   7   2.0000      -7.499872      -204.0819
   8   2.0000      -7.499871      -204.0819
   9   2.0000      -7.499871      -204.0819
  10   2.0000      -1.035085       -28.1661
  11   2.0000      -0.846402       -23.0318
  12   2.0000      -0.523014       -14.2319
  13   2.0000      -0.467567       -12.7231
  14   2.0000      -0.467567       -12.7231
  15   2.0000      -0.354588        -9.6488
  16   2.0000      -0.354588        -9.6488
  17   0.0000      -0.081341        -2.2134
  18   0.0000       0.437052        11.8928
  19   0.0000       0.559715        15.2306
  20   0.0000       0.598789        16.2939
  21   0.0000       0.626926        17.0595

MULLIKEN ATOMIC CHARGES
-----------------------
   0 Cl:   -0.000000
   1 Cl:    0.000000
Sum of atomic charges:   -0.0000000

LOEWDIN ATOMIC CHARGES
----------------------
   0 Cl:   -0.000000
   1 Cl:    0.000000

  Mayer bond orders larger than 0.100000
B(  0-Cl,  1-Cl) :   1.0345

Dispersion correction           -0.000448772
FINAL SINGLE POINT ENERGY      -919.358891658808

DIPOLE MOMENT
-------------
                                X             Y             Z
Electronic contribution:      0.00000       0.00000       0.00000
Nuclear contribution   :      0.00000       0.00000       0.00000
                        -----------------------------------------
Total Dipole Moment    :      0.00000       0.00000       0.00000
                        -----------------------------------------
Magnitude (a.u.)       :      0.00000
Magnitude (Debye)      :      0.00000

Rotational constants in cm-1:     0.000000     0.241930     0.241930
Rotational constants in MHz :     0.000000  7252.873839  7252.873839

                             ****ORCA TERMINATED NORMALLY****
TOTAL RUN TIME: 0 days 0 hours 1 minutes 3 seconds 732 msec
