                         Program Version 5.0.3 -  RELEASE  -
|  1> ! PBEh-3c def2/J TightSCF DefGrid3
|  2>
|  3> %maxcore 60000
|  4>
|  5> %pal
|  6> nprocs 4
|  7> end
|  8>
|  9> *xyzfile 0 1 52.xyz
| 10>
| 11>                          ****END OF INPUT****

CARTESIAN COORDINATES (ANGSTROEM)
---------------------------------
  N     -0.979500    2.528941   -0.184686
  C      0.263607    1.930354   -0.192317
  C      0.130154    0.571228   -0.013017
  C     -1.278295    0.320486    0.112132
  C     -2.033603   -0.850477    0.309938
  C     -3.410496   -0.740049    0.396271
  C     -4.059318    0.510365    0.289273
  C     -3.336592    1.676024    0.089795
  C     -1.943632    1.565828    0.000617
  H     -1.148137    3.511917   -0.293681
  H      1.149591    2.528305   -0.328046
  H     -1.569487   -1.822985    0.409663
  H     -5.136063    0.544102    0.386923
  H     -3.836522    2.633276    0.017331
  O     -4.166176   -1.874042    0.636310
  C     -4.810053   -2.358325   -0.539337
  H     -4.073805   -2.635425   -1.297700
  H     -5.486599   -1.609845   -0.957797
  H     -5.379239   -3.236194   -0.245137
  C      1.210771   -0.464823    0.050715
  C      2.605958    0.107204   -0.172937
  N      3.593235   -0.956455   -0.103473
  C      4.944509   -0.807041    0.069550
  C      5.416204    0.563447    0.511432
  H      1.017678   -1.235711   -0.702970
  H      1.191523   -0.968809    1.020755
  H      2.821471    0.841985    0.601526
  H      2.638004    0.622574   -1.138959
  H      3.338629   -1.850731   -0.494813
  O      5.715281   -1.739991   -0.099190
  H      4.964809    0.842367    1.463547
  H      5.151118    1.325176   -0.222153
  H      6.494974    0.527331    0.620446

 Total Charge           Charge          ....    0
 Multiplicity           Mult            ....    1
 Number of Electrons    NEL             ....  124
 Basis Dimension        Dim             ....  287

ORBITAL ENERGIES
----------------

  NO   OCC          E(Eh)            E(eV)
   0   2.0000     -19.506300      -530.7934
   1   2.0000     -19.449146      -529.2382
   2   2.0000     -14.691044      -399.7636
   3   2.0000     -14.655284      -398.7906
   4   2.0000     -10.544174      -286.9216
   5   2.0000     -10.496085      -285.6130
   6   2.0000     -10.487735      -285.3858
   7   2.0000     -10.487035      -285.3667
   8   2.0000     -10.484947      -285.3099
   9   2.0000     -10.481819      -285.2248
  10   2.0000     -10.457320      -284.5581
  11   2.0000     -10.457153      -284.5536
  12   2.0000     -10.451592      -284.4023
  13   2.0000     -10.450456      -284.3714
  14   2.0000     -10.447822      -284.2997
  15   2.0000     -10.446107      -284.2530
  16   2.0000     -10.439650      -284.0773
  17   2.0000      -1.154787       -31.4234
  18   2.0000      -1.135161       -30.8893
  19   2.0000      -1.093819       -29.7643
  20   2.0000      -1.021392       -27.7935
  21   2.0000      -0.941790       -25.6274
  22   2.0000      -0.907865       -24.7043
  23   2.0000      -0.851789       -23.1784
  24   2.0000      -0.833226       -22.6732
  25   2.0000      -0.824619       -22.4390
  26   2.0000      -0.805348       -21.9146
  27   2.0000      -0.768295       -20.9064
  28   2.0000      -0.736385       -20.0380
  29   2.0000      -0.704966       -19.1831
  30   2.0000      -0.667282       -18.1577
  31   2.0000      -0.655655       -17.8413
  32   2.0000      -0.631594       -17.1865
  33   2.0000      -0.616644       -16.7797
  34   2.0000      -0.576275       -15.6812
  35   2.0000      -0.562574       -15.3084
  36   2.0000      -0.554945       -15.1008
  37   2.0000      -0.547880       -14.9086
  38   2.0000      -0.532101       -14.4792
  39   2.0000      -0.521328       -14.1860
  40   2.0000      -0.518014       -14.0959
  41   2.0000      -0.504413       -13.7258
  42   2.0000      -0.501816       -13.6551
  43   2.0000      -0.491599       -13.3771
  44   2.0000      -0.485532       -13.2120
  45   2.0000      -0.472356       -12.8535
  46   2.0000      -0.471095       -12.8192
  47   2.0000      -0.456390       -12.4190
  48   2.0000      -0.455261       -12.3883
  49   2.0000      -0.446096       -12.1389
  50   2.0000      -0.439020       -11.9463
  51   2.0000      -0.424139       -11.5414
  52   2.0000      -0.410755       -11.1772
  53   2.0000      -0.406819       -11.0701
  54   2.0000      -0.400962       -10.9107
  55   2.0000      -0.378682       -10.3045
  56   2.0000      -0.328398        -8.9362
  57   2.0000      -0.324851        -8.8396
  58   2.0000      -0.303666        -8.2632
  59   2.0000      -0.295416        -8.0387
  60   2.0000      -0.259220        -7.0537
  61   2.0000      -0.247571        -6.7368
  62   0.0000       0.000577         0.0157
  63   0.0000       0.045995         1.2516
  64   0.0000       0.065160         1.7731
  65   0.0000       0.087424         2.3789
  66   0.0000       0.118569         3.2264

MULLIKEN ATOMIC CHARGES
-----------------------
   0 N :   -0.707448
   1 C :   -0.056069
   2 C :    0.006966
   3 C :    0.076557
   4 C :   -0.429132
   5 C :    0.361290
   6 C :   -0.311157
   7 C :   -0.262259
   8 C :    0.366173
   9 H :    0.359690
  10 H :    0.237992
  11 H :    0.219279
  12 H :    0.229093
  13 H :    0.215605
  14 O :   -0.485394
  15 C :   -0.376931
  16 H :    0.202434
  17 H :    0.197986
  18 H :    0.220996
  19 C :   -0.522388
  20 C :   -0.237946
  21 N :   -0.621461
  22 C :    0.497948
  23 C :   -0.781002
  24 H :    0.223514
  25 H :    0.247055
  26 H :    0.224889
  27 H :    0.215560
  28 H :    0.358746
  29 O :   -0.415600
  30 H :    0.239373
  31 H :    0.232609
  32 H :    0.273033
Sum of atomic charges:    0.0000000

LOEWDIN ATOMIC CHARGES
----------------------
   0 N :   -0.158370
   1 C :   -0.090292
   2 C :   -0.103070
   3 C :   -0.054634
   4 C :   -0.149356
   5 C :    0.043280
   6 C :   -0.157119
   7 C :   -0.153085
   8 C :    0.014916
   9 H :    0.262491
  10 H :    0.134458
  11 H :    0.145189
  12 H :    0.142772
  13 H :    0.137432
  14 O :   -0.220173
  15 C :   -0.172332
  16 H :    0.110425
  17 H :    0.107745
  18 H :    0.124483
  19 C :   -0.230401
  20 C :   -0.141543
  21 N :   -0.251755
  22 C :    0.107929
  23 C :   -0.397943
  24 H :    0.133009
  25 H :    0.143276
  26 H :    0.127862
  27 H :    0.114080
  28 H :    0.258152
  29 O :   -0.270892
  30 H :    0.145103
  31 H :    0.141972
  32 H :    0.156391

  Mayer bond orders larger than 0.100000
B(  0-N ,  1-C ) :   1.1234 B(  0-N ,  8-C ) :   1.0132 B(  0-N ,  9-H ) :   0.8332
B(  1-C ,  2-C ) :   1.5482 B(  1-C , 10-H ) :   0.9122 B(  2-C ,  3-C ) :   1.2520
B(  2-C , 19-C ) :   0.9766 B(  3-C ,  4-C ) :   1.2409 B(  3-C ,  8-C ) :   1.2390
B(  4-C ,  5-C ) :   1.4812 B(  4-C , 11-H ) :   0.9287 B(  5-C ,  6-C ) :   1.3200
B(  5-C , 14-O ) :   0.9533 B(  6-C ,  7-C ) :   1.4845 B(  6-C , 12-H ) :   0.9121
B(  7-C ,  8-C ) :   1.2897 B(  7-C , 13-H ) :   0.9202 B( 14-O , 15-C ) :   0.9515
B( 15-C , 16-H ) :   0.9124 B( 15-C , 17-H ) :   0.9119 B( 15-C , 18-H ) :   0.9282
B( 19-C , 20-C ) :   1.0051 B( 19-C , 24-H ) :   0.9045 B( 19-C , 25-H ) :   0.8964
B( 20-C , 21-N ) :   0.9483 B( 20-C , 26-H ) :   0.8982 B( 20-C , 27-H ) :   0.8970
B( 21-N , 22-C ) :   1.1495 B( 21-N , 28-H ) :   0.8193 B( 22-C , 23-C ) :   0.9287
B( 22-C , 29-O ) :   2.0395 B( 23-C , 30-H ) :   0.9094 B( 23-C , 31-H ) :   0.9105
B( 23-C , 32-H ) :   0.9156

Dispersion correction           -0.020666733
FINAL SINGLE POINT ENERGY      -763.317659453012

DIPOLE MOMENT
-------------
                                X             Y             Z
Electronic contribution:     -4.04681       1.13027       1.34904
Nuclear contribution   :      2.82900       0.71436      -2.01227
                        -----------------------------------------
Total Dipole Moment    :     -1.21781       1.84463      -0.66323
                        -----------------------------------------
Magnitude (a.u.)       :      2.30772
Magnitude (Debye)      :      5.86577

Rotational constants in cm-1:     0.033352     0.005858     0.005065
Rotational constants in MHz :   999.863148   175.621245   151.833700

                             ****ORCA TERMINATED NORMALLY****
TOTAL RUN TIME: 0 days 0 hours 3 minutes 32 seconds 88 msec
