                         Program Version 5.0.3 -  RELEASE  -
|  1> ! PBEh-3c def2/J TightSCF DefGrid3
|  2>
|  3> %maxcore 60000
|  4>
|  5> %pal
|  6> nprocs 4
|  7> end
|  8>
|  9> *xyzfile 0 1 27.xyz
| 10>
| 11>                          ****END OF INPUT****

CARTESIAN COORDINATES (ANGSTROEM)
---------------------------------
  N     -0.219567    2.639738    0.154897
  C      0.867476    1.948596    0.645547
  C      0.544219    0.621549    0.817912
  C     -0.824582    0.482898    0.400130
  C     -1.706887   -0.606271    0.340981
  C     -3.002722   -0.399231   -0.116639
  C     -3.434147    0.885338   -0.517649
  C     -2.573271    1.976525   -0.463710
  C     -1.272387    1.766300   -0.005713
  H     -0.236704    3.621891   -0.049271
  H      1.800946    2.454244    0.834405
  H     -1.412280   -1.602320    0.644448
  H     -4.441486    1.039368   -0.871911
  H     -2.916136    2.955804   -0.771877
  O     -3.805702   -1.511436   -0.146020
  C     -5.134587   -1.333956   -0.606037
  H     -5.156902   -0.979259   -1.638786
  H     -5.688281   -0.638118    0.028072
  H     -5.599967   -2.313681   -0.553922
  C      1.457481   -0.475569    1.265098
  C      1.985733   -1.295312    0.074120
  N      2.729471   -0.489818   -0.877823
  C      4.048610   -0.133471   -0.769055
  C      4.907248   -0.977216    0.153357
  H      0.933360   -1.147774    1.950365
  H      2.304359   -0.053914    1.811034
  H      1.146139   -1.748412   -0.454554
  H      2.620438   -2.107259    0.424709
  H      2.191709    0.171470   -1.418554
  O      4.514960    0.792515   -1.418070
  H      4.874001   -2.027824   -0.134066
  H      4.572261   -0.901044    1.187851
  H      5.927196   -0.614343    0.080730

 Total Charge           Charge          ....    0
 Multiplicity           Mult            ....    1
 Number of Electrons    NEL             ....  124
 Basis Dimension        Dim             ....  287

ORBITAL ENERGIES
----------------

  NO   OCC          E(Eh)            E(eV)
   0   2.0000     -19.520607      -531.1827
   1   2.0000     -19.445900      -529.1498
   2   2.0000     -14.686082      -399.6286
   3   2.0000     -14.647663      -398.5832
   4   2.0000     -10.540161      -286.8124
   5   2.0000     -10.502911      -285.7988
   6   2.0000     -10.488610      -285.4096
   7   2.0000     -10.481972      -285.2289
   8   2.0000     -10.479656      -285.1659
   9   2.0000     -10.479493      -285.1615
  10   2.0000     -10.455520      -284.5092
  11   2.0000     -10.449829      -284.3543
  12   2.0000     -10.448921      -284.3296
  13   2.0000     -10.447225      -284.2835
  14   2.0000     -10.443738      -284.1886
  15   2.0000     -10.440572      -284.1024
  16   2.0000     -10.436506      -283.9918
  17   2.0000      -1.168413       -31.7941
  18   2.0000      -1.130974       -30.7754
  19   2.0000      -1.088898       -29.6304
  20   2.0000      -1.014992       -27.6193
  21   2.0000      -0.940367       -25.5887
  22   2.0000      -0.899946       -24.4888
  23   2.0000      -0.845883       -23.0177
  24   2.0000      -0.835565       -22.7369
  25   2.0000      -0.821376       -22.3508
  26   2.0000      -0.806419       -21.9438
  27   2.0000      -0.774154       -21.0658
  28   2.0000      -0.729679       -19.8556
  29   2.0000      -0.704369       -19.1669
  30   2.0000      -0.667431       -18.1617
  31   2.0000      -0.647668       -17.6239
  32   2.0000      -0.629166       -17.1205
  33   2.0000      -0.611208       -16.6318
  34   2.0000      -0.579208       -15.7611
  35   2.0000      -0.560944       -15.2641
  36   2.0000      -0.553535       -15.0625
  37   2.0000      -0.541982       -14.7481
  38   2.0000      -0.530651       -14.4398
  39   2.0000      -0.527657       -14.3583
  40   2.0000      -0.514692       -14.0055
  41   2.0000      -0.503804       -13.7092
  42   2.0000      -0.495558       -13.4848
  43   2.0000      -0.491588       -13.3768
  44   2.0000      -0.476881       -12.9766
  45   2.0000      -0.469303       -12.7704
  46   2.0000      -0.459510       -12.5039
  47   2.0000      -0.454861       -12.3774
  48   2.0000      -0.450988       -12.2720
  49   2.0000      -0.446390       -12.1469
  50   2.0000      -0.432323       -11.7641
  51   2.0000      -0.420216       -11.4347
  52   2.0000      -0.417365       -11.3571
  53   2.0000      -0.406547       -11.0627
  54   2.0000      -0.399878       -10.8812
  55   2.0000      -0.378673       -10.3042
  56   2.0000      -0.354192        -9.6381
  57   2.0000      -0.323646        -8.8068
  58   2.0000      -0.300402        -8.1744
  59   2.0000      -0.289661        -7.8821
  60   2.0000      -0.251465        -6.8427
  61   2.0000      -0.236535        -6.4364
  62   0.0000       0.001641         0.0447
  63   0.0000       0.056359         1.5336
  64   0.0000       0.066639         1.8133
  65   0.0000       0.086625         2.3572
  66   0.0000       0.124066         3.3760

MULLIKEN ATOMIC CHARGES
-----------------------
   0 N :   -0.702395
   1 C :   -0.052764
   2 C :    0.007294
   3 C :    0.082730
   4 C :   -0.445736
   5 C :    0.403081
   6 C :   -0.365067
   7 C :   -0.256459
   8 C :    0.362080
   9 H :    0.360717
  10 H :    0.251682
  11 H :    0.214556
  12 H :    0.231957
  13 H :    0.216077
  14 O :   -0.469312
  15 C :   -0.404406
  16 H :    0.204292
  17 H :    0.204435
  18 H :    0.239821
  19 C :   -0.532063
  20 C :   -0.296936
  21 N :   -0.596391
  22 C :    0.487719
  23 C :   -0.778696
  24 H :    0.230573
  25 H :    0.229449
  26 H :    0.249474
  27 H :    0.232430
  28 H :    0.369107
  29 O :   -0.420377
  30 H :    0.241006
  31 H :    0.231069
  32 H :    0.271053
Sum of atomic charges:    0.0000000

LOEWDIN ATOMIC CHARGES
----------------------
   0 N :   -0.159919
   1 C :   -0.077072
   2 C :   -0.116148
   3 C :   -0.050368
   4 C :   -0.163188
   5 C :    0.060273
   6 C :   -0.192241
   7 C :   -0.148123
   8 C :    0.006106
   9 H :    0.262980
  10 H :    0.141039
  11 H :    0.143702
  12 H :    0.140613
  13 H :    0.137402
  14 O :   -0.194284
  15 C :   -0.180546
  16 H :    0.112260
  17 H :    0.112348
  18 H :    0.130298
  19 C :   -0.236697
  20 C :   -0.147338
  21 N :   -0.243213
  22 C :    0.104319
  23 C :   -0.398988
  24 H :    0.136485
  25 H :    0.132206
  26 H :    0.132333
  27 H :    0.128353
  28 H :    0.262185
  29 O :   -0.275934
  30 H :    0.145317
  31 H :    0.140192
  32 H :    0.155649

  Mayer bond orders larger than 0.100000
B(  0-N ,  1-C ) :   1.1385 B(  0-N ,  8-C ) :   1.0033 B(  0-N ,  9-H ) :   0.8324
B(  1-C ,  2-C ) :   1.5579 B(  1-C , 10-H ) :   0.9058 B(  2-C ,  3-C ) :   1.2351
B(  2-C , 19-C ) :   0.9598 B(  3-C ,  4-C ) :   1.2866 B(  3-C ,  8-C ) :   1.2304
B(  4-C ,  5-C ) :   1.4409 B(  4-C ,  7-C ) :   0.1021 B(  4-C , 11-H ) :   0.9277
B(  5-C ,  6-C ) :   1.2832 B(  5-C , 14-O ) :   1.0133 B(  6-C ,  7-C ) :   1.4714
B(  6-C , 12-H ) :   0.9051 B(  7-C ,  8-C ) :   1.3171 B(  7-C , 13-H ) :   0.9202
B( 14-O , 15-C ) :   0.9570 B( 15-C , 16-H ) :   0.9075 B( 15-C , 17-H ) :   0.9075
B( 15-C , 18-H ) :   0.9236 B( 19-C , 20-C ) :   0.9443 B( 19-C , 24-H ) :   0.9118
B( 19-C , 25-H ) :   0.9244 B( 20-C , 21-N ) :   0.9739 B( 20-C , 26-H ) :   0.9082
B( 20-C , 27-H ) :   0.9078 B( 21-N , 22-C ) :   1.1542 B( 21-N , 28-H ) :   0.8125
B( 22-C , 23-C ) :   0.9253 B( 22-C , 29-O ) :   2.0294 B( 23-C , 30-H ) :   0.9095
B( 23-C , 31-H ) :   0.9088 B( 23-C , 32-H ) :   0.9161

Dispersion correction           -0.021624058
FINAL SINGLE POINT ENERGY      -763.325468141247

DIPOLE MOMENT
-------------
                                X             Y             Z
Electronic contribution:     -2.21504       6.69426      -1.67164
Nuclear contribution   :      1.03324      -6.51597       2.23511
                        -----------------------------------------
Total Dipole Moment    :     -1.18180       0.17829       0.56346
                        -----------------------------------------
Magnitude (a.u.)       :      1.32134
Magnitude (Debye)      :      3.35858

Rotational constants in cm-1:     0.032888     0.007395     0.006561
Rotational constants in MHz :   985.956055   221.683749   196.705235

                             ****ORCA TERMINATED NORMALLY****
TOTAL RUN TIME: 0 days 0 hours 5 minutes 0 seconds 423 msec
