                         Program Version 5.0.3 -  RELEASE  -
|  1> ! PBEh-3c def2/J TightSCF DefGrid3
|  2>
|  3> %maxcore 60000
|  4>
|  5> %pal
|  6> nprocs 4
|  7> end
|  8>
|  9> *xyzfile 0 1 C4H9ONO.xyz
| 10>
| 11>                          ****END OF INPUT****

CARTESIAN COORDINATES (ANGSTROEM)
---------------------------------
  C      0.057450    1.051876   -2.154772
  H      1.079720    1.434308   -2.016623
  H      0.117292    0.177144   -2.819345
  H     -0.521772    1.827717   -2.674790
  C     -0.582372    0.685162   -0.813301
  H     -0.660365    1.586866   -0.183250
  H     -1.616355    0.338638   -0.980777
  C      0.199271   -0.396361   -0.057762
  H      0.278420   -1.305333   -0.675185
  H      1.227748   -0.049401    0.130771
  C     -0.461560   -0.758965    1.271169
  H     -1.481646   -1.140911    1.120461
  H     -0.504856    0.114535    1.941060
  O      0.230641   -1.836768    1.938761
  N      1.248101   -1.446661    2.915088
  O      1.390282   -0.281844    3.058495

 Total Charge           Charge          ....    0
 Multiplicity           Mult            ....    1
 Number of Electrons    NEL             ....   56
 Basis Dimension        Dim             ....  123

ORBITAL ENERGIES
----------------

  NO   OCC          E(Eh)            E(eV)
   0   2.0000     -19.587338      -532.9986
   1   2.0000     -19.553445      -532.0763
   2   2.0000     -14.830515      -403.5588
   3   2.0000     -10.499561      -285.7076
   4   2.0000     -10.447756      -284.2979
   5   2.0000     -10.446679      -284.2686
   6   2.0000     -10.434306      -283.9319
   7   2.0000      -1.338310       -36.4173
   8   2.0000      -1.146793       -31.2058
   9   2.0000      -0.898916       -24.4607
  10   2.0000      -0.834635       -22.7116
  11   2.0000      -0.766023       -20.8445
  12   2.0000      -0.689193       -18.7539
  13   2.0000      -0.663289       -18.0490
  14   2.0000      -0.622282       -16.9332
  15   2.0000      -0.575411       -15.6577
  16   2.0000      -0.563247       -15.3267
  17   2.0000      -0.536153       -14.5895
  18   2.0000      -0.502222       -13.6662
  19   2.0000      -0.485900       -13.2220
  20   2.0000      -0.461496       -12.5580
  21   2.0000      -0.446432       -12.1480
  22   2.0000      -0.420351       -11.4383
  23   2.0000      -0.408610       -11.1188
  24   2.0000      -0.394960       -10.7474
  25   2.0000      -0.383993       -10.4490
  26   2.0000      -0.355952        -9.6859
  27   2.0000      -0.337610        -9.1868
  28   0.0000      -0.046988        -1.2786
  29   0.0000       0.118193         3.2162
  30   0.0000       0.131035         3.5656
  31   0.0000       0.158610         4.3160
  32   0.0000       0.165186         4.4949

MULLIKEN ATOMIC CHARGES
-----------------------
   0 C :   -0.633613
   1 H :    0.213091
   2 H :    0.212514
   3 H :    0.222273
   4 C :   -0.421714
   5 H :    0.211275
   6 H :    0.207901
   7 C :   -0.431926
   8 H :    0.224017
   9 H :    0.219398
  10 C :   -0.177092
  11 H :    0.229927
  12 H :    0.221672
  13 O :   -0.395439
  14 N :    0.325501
  15 O :   -0.227786
Sum of atomic charges:   -0.0000000

LOEWDIN ATOMIC CHARGES
----------------------
   0 C :   -0.359800
   1 H :    0.125957
   2 H :    0.125653
   3 H :    0.128881
   4 C :   -0.246358
   5 H :    0.122438
   6 H :    0.121165
   7 C :   -0.256397
   8 H :    0.130414
   9 H :    0.128614
  10 C :   -0.118524
  11 H :    0.130274
  12 H :    0.121770
  13 O :   -0.201971
  14 N :    0.151971
  15 O :   -0.104088

  Mayer bond orders larger than 0.100000
B(  0-C ,  1-H ) :   0.9278 B(  0-C ,  2-H ) :   0.9280 B(  0-C ,  3-H ) :   0.9303
B(  0-C ,  4-C ) :   0.9942 B(  4-C ,  5-H ) :   0.9172 B(  4-C ,  6-H ) :   0.9181
B(  4-C ,  7-C ) :   0.9692 B(  7-C ,  8-H ) :   0.9127 B(  7-C ,  9-H ) :   0.9138
B(  7-C , 10-C ) :   0.9724 B( 10-C , 11-H ) :   0.9090 B( 10-C , 12-H ) :   0.8925
B( 10-C , 13-O ) :   0.8956 B( 13-O , 14-N ) :   1.0169 B( 13-O , 15-O ) :   0.1774
B( 14-N , 15-O ) :   1.9484

Dispersion correction           -0.006772029
FINAL SINGLE POINT ENERGY      -362.162485581992

DIPOLE MOMENT
-------------
                                X             Y             Z
Electronic contribution:      4.11426      -5.95368      12.81823
Nuclear contribution   :     -4.54195       6.39106     -13.37470
                        -----------------------------------------
Total Dipole Moment    :     -0.42769       0.43738      -0.55647
                        -----------------------------------------
Magnitude (a.u.)       :      0.82697
Magnitude (Debye)      :      2.10199

Rotational constants in cm-1:     0.225650     0.036272     0.034069
Rotational constants in MHz :  6764.821587  1087.417468  1021.376569

                             ****ORCA TERMINATED NORMALLY****
TOTAL RUN TIME: 0 days 0 hours 1 minutes 46 seconds 716 msec
