                         Program Version 5.0.3 -  RELEASE  -
|  1> ! PBEh-3c def2/J TightSCF DefGrid3
|  2>
|  3> %maxcore 60000
|  4>
|  5> %pal
|  6> nprocs 4
|  7> end
|  8>
|  9> *xyzfile 0 1 06.xyz
| 10>
| 11>                          ****END OF INPUT****

CARTESIAN COORDINATES (ANGSTROEM)
---------------------------------
  O     -1.725659    0.985176   -0.004488
  H     -0.753115    1.011056   -0.009535
  C     -2.095409   -0.374570   -0.009260
  H     -3.181662   -0.423850   -0.005009
  H     -1.742144   -0.905305   -0.898618
  H     -1.734818   -0.913475    0.872205
  N      1.182534    0.902925   -0.014213
  H      1.553153    1.410702    0.778920
  H      1.553277    1.367264   -0.833471
  C      1.660286   -0.483108    0.023248
  H      1.268401   -1.017133   -0.838943
  H      2.746997   -0.589843    0.026283
  H      1.268159   -0.969838    0.912881

 Total Charge           Charge          ....    0
 Multiplicity           Mult            ....    1
 Number of Electrons    NEL             ....   36
 Basis Dimension        Dim             ....   78

ORBITAL ENERGIES
----------------

  NO   OCC          E(Eh)            E(eV)
   0   2.0000     -19.437743      -528.9279
   1   2.0000     -14.639009      -398.3477
   2   2.0000     -10.466429      -284.8060
   3   2.0000     -10.448709      -284.3238
   4   2.0000      -1.078570       -29.3494
   5   2.0000      -0.994860       -27.0715
   6   2.0000      -0.758579       -20.6420
   7   2.0000      -0.730438       -19.8762
   8   2.0000      -0.573553       -15.6072
   9   2.0000      -0.540419       -14.7056
  10   2.0000      -0.515541       -14.0286
  11   2.0000      -0.475337       -12.9346
  12   2.0000      -0.470510       -12.8032
  13   2.0000      -0.450413       -12.2564
  14   2.0000      -0.439121       -11.9491
  15   2.0000      -0.363837        -9.9005
  16   2.0000      -0.311628        -8.4798
  17   2.0000      -0.288773        -7.8579
  18   0.0000       0.109428         2.9777
  19   0.0000       0.166823         4.5395
  20   0.0000       0.190151         5.1743
  21   0.0000       0.200062         5.4440
  22   0.0000       0.200275         5.4498

MULLIKEN ATOMIC CHARGES
-----------------------
   0 O :   -0.669027
   1 H :    0.452272
   2 C :   -0.362808
   3 H :    0.203936
   4 H :    0.161741
   5 H :    0.161696
   6 N :   -0.772733
   7 H :    0.336197
   8 H :    0.336106
   9 C :   -0.505490
  10 H :    0.228434
  11 H :    0.201041
  12 H :    0.228634
Sum of atomic charges:   -0.0000000

LOEWDIN ATOMIC CHARGES
----------------------
   0 O :   -0.453670
   1 H :    0.293379
   2 C :   -0.197578
   3 H :    0.112754
   4 H :    0.085226
   5 H :    0.085173
   6 N :   -0.462391
   7 H :    0.230212
   8 H :    0.230142
   9 C :   -0.279271
  10 H :    0.126355
  11 H :    0.103217
  12 H :    0.126451

  Mayer bond orders larger than 0.100000
B(  0-O ,  1-H ) :   0.6971 B(  0-O ,  2-C ) :   1.0565 B(  2-C ,  3-H ) :   0.9288
B(  2-C ,  4-H ) :   0.9190 B(  2-C ,  5-H ) :   0.9189 B(  6-N ,  7-H ) :   0.8549
B(  6-N ,  8-H ) :   0.8550 B(  6-N ,  9-C ) :   1.0005 B(  9-C , 10-H ) :   0.9226
B(  9-C , 11-H ) :   0.9177 B(  9-C , 12-H ) :   0.9226

Dispersion correction           -0.003927920
FINAL SINGLE POINT ENERGY      -211.125086444572

DIPOLE MOMENT
-------------
                                X             Y             Z
Electronic contribution:     -1.45757       2.80915      -0.02287
Nuclear contribution   :      2.94904      -3.23670       0.01744
                        -----------------------------------------
Total Dipole Moment    :      1.49146      -0.42755      -0.00544
                        -----------------------------------------
Magnitude (a.u.)       :      1.55155
Magnitude (Debye)      :      3.94371

Rotational constants in cm-1:     0.418823     0.090373     0.077367
Rotational constants in MHz : 12556.008030  2709.309307  2319.397022

                             ****ORCA TERMINATED NORMALLY****
TOTAL RUN TIME: 0 days 0 hours 1 minutes 7 seconds 902 msec
