                         Program Version 5.0.3 -  RELEASE  -
|  1> ! PBEh-3c def2/J TightSCF DefGrid3
|  2>
|  3> %maxcore 60000
|  4>
|  5> %pal
|  6> nprocs 4
|  7> end
|  8>
|  9> *xyzfile 0 1 21b.xyz
| 10>
| 11>                          ****END OF INPUT****

CARTESIAN COORDINATES (ANGSTROEM)
---------------------------------
  P      0.000000    0.259570    0.000000
  H      0.247605   -0.660083   -1.041782
  H      0.247605   -0.660083    1.041782
  C     -1.784996   -0.008789    0.000000
  N     -2.932988   -0.074536    0.000000

 Total Charge           Charge          ....    0
 Multiplicity           Mult            ....    1
 Number of Electrons    NEL             ....   30
 Basis Dimension        Dim             ....   52

ORBITAL ENERGIES
----------------

  NO   OCC          E(Eh)            E(eV)
   0   2.0000     -77.791711     -2116.8201
   1   2.0000     -14.656758      -398.8307
   2   2.0000     -10.495750      -285.6039
   3   2.0000      -6.869312      -186.9235
   4   2.0000      -4.960124      -134.9718
   5   2.0000      -4.959063      -134.9430
   6   2.0000      -4.957399      -134.8977
   7   2.0000      -1.018357       -27.7109
   8   2.0000      -0.792822       -21.5738
   9   2.0000      -0.553743       -15.0681
  10   2.0000      -0.495965       -13.4959
  11   2.0000      -0.440041       -11.9741
  12   2.0000      -0.422772       -11.5042
  13   2.0000      -0.399943       -10.8830
  14   2.0000      -0.346346        -9.4245
  15   0.0000       0.007956         0.2165
  16   0.0000       0.015388         0.4187
  17   0.0000       0.074842         2.0366
  18   0.0000       0.094741         2.5780
  19   0.0000       0.119357         3.2479

MULLIKEN ATOMIC CHARGES
-----------------------
   0 P :    0.060585
   1 H :    0.123853
   2 H :    0.123853
   3 C :   -0.148637
   4 N :   -0.159655
Sum of atomic charges:   -0.0000000

LOEWDIN ATOMIC CHARGES
----------------------
   0 P :    0.147490
   1 H :    0.060706
   2 H :    0.060706
   3 C :   -0.203548
   4 N :   -0.065354

  Mayer bond orders larger than 0.100000
B(  0-P ,  1-H ) :   0.9450 B(  0-P ,  2-H ) :   0.9450 B(  0-P ,  3-C ) :   0.9448
B(  3-C ,  4-N ) :   3.0793

Dispersion correction           -0.001622061
FINAL SINGLE POINT ENERGY      -434.760593082272

DIPOLE MOMENT
-------------
                                X             Y             Z
Electronic contribution:     -0.12366       1.31682      -0.00000
Nuclear contribution   :      1.48731      -1.56400       0.00000
                        -----------------------------------------
Total Dipole Moment    :      1.36365      -0.24718      -0.00000
                        -----------------------------------------
Magnitude (a.u.)       :      1.38587
Magnitude (Debye)      :      3.52259

Rotational constants in cm-1:     4.352244     0.175206     0.174296
Rotational constants in MHz : 130476.986560  5252.556146  5225.258625

                             ****ORCA TERMINATED NORMALLY****
TOTAL RUN TIME: 0 days 0 hours 0 minutes 58 seconds 380 msec
