                         Program Version 5.0.3 -  RELEASE  -
|  1> ! PBEh-3c def2/J TightSCF DefGrid3
|  2>
|  3> %maxcore 60000
|  4>
|  5> %pal
|  6> nprocs 4
|  7> end
|  8>
|  9> *xyzfile 0 1 20.xyz
| 10>
| 11>                          ****END OF INPUT****

CARTESIAN COORDINATES (ANGSTROEM)
---------------------------------
  C     -1.925503    0.094535    0.009607
  O     -1.221955    1.067853    0.249360
  O     -1.453098   -1.107687   -0.278664
  H     -0.459359   -1.074882   -0.264041
  C     -3.422222    0.139945    0.013804
  H     -3.759792    1.144859    0.235863
  H     -3.796683   -0.180215   -0.955449
  H     -3.801006   -0.557695    0.757104
  C      1.925554   -0.094186   -0.011269
  O      1.221936   -1.067500   -0.251057
  O      1.453128    1.108249    0.276509
  H      0.459339    1.075351    0.262109
  C      3.422266   -0.140089   -0.013234
  H      3.759846   -1.141408   -0.250759
  H      3.803765    0.570264   -0.742703
  H      3.793783    0.162606    0.962821

 Total Charge           Charge          ....    0
 Multiplicity           Mult            ....    1
 Number of Electrons    NEL             ....   64
 Basis Dimension        Dim             ....  136

ORBITAL ENERGIES
----------------

  NO   OCC          E(Eh)            E(eV)
   0   2.0000     -19.532127      -531.4962
   1   2.0000     -19.532119      -531.4960
   2   2.0000     -19.500497      -530.6355
   3   2.0000     -19.500484      -530.6351
   4   2.0000     -10.594984      -288.3042
   5   2.0000     -10.594970      -288.3038
   6   2.0000     -10.450254      -284.3659
   7   2.0000     -10.450249      -284.3657
   8   2.0000      -1.228417       -33.4269
   9   2.0000      -1.217178       -33.1211
  10   2.0000      -1.134810       -30.8797
  11   2.0000      -1.122112       -30.5342
  12   2.0000      -0.855963       -23.2919
  13   2.0000      -0.848232       -23.0816
  14   2.0000      -0.695619       -18.9288
  15   2.0000      -0.679935       -18.5020
  16   2.0000      -0.600062       -16.3285
  17   2.0000      -0.558885       -15.2080
  18   2.0000      -0.554306       -15.0834
  19   2.0000      -0.546660       -14.8754
  20   2.0000      -0.541222       -14.7274
  21   2.0000      -0.536938       -14.6108
  22   2.0000      -0.476696       -12.9716
  23   2.0000      -0.474623       -12.9151
  24   2.0000      -0.468373       -12.7451
  25   2.0000      -0.455506       -12.3950
  26   2.0000      -0.451499       -12.2859
  27   2.0000      -0.435543       -11.8517
  28   2.0000      -0.385626       -10.4934
  29   2.0000      -0.376173       -10.2362
  30   2.0000      -0.356696        -9.7062
  31   2.0000      -0.344320        -9.3694
  32   0.0000       0.035297         0.9605
  33   0.0000       0.039425         1.0728
  34   0.0000       0.156808         4.2670
  35   0.0000       0.163813         4.4576
  36   0.0000       0.183835         5.0024

MULLIKEN ATOMIC CHARGES
-----------------------
   0 C :    0.540100
   1 O :   -0.468089
   2 O :   -0.592091
   3 H :    0.483675
   4 C :   -0.736233
   5 H :    0.256408
   6 H :    0.258015
   7 H :    0.258217
   8 C :    0.540113
   9 O :   -0.468106
  10 O :   -0.592147
  11 H :    0.483672
  12 C :   -0.736215
  13 H :    0.256412
  14 H :    0.258154
  15 H :    0.258112
Sum of atomic charges:    0.0000000

LOEWDIN ATOMIC CHARGES
----------------------
   0 C :    0.150866
   1 O :   -0.272256
   2 O :   -0.290842
   3 H :    0.326659
   4 C :   -0.385009
   5 H :    0.151549
   6 H :    0.159292
   7 H :    0.159746
   8 C :    0.150943
   9 O :   -0.272282
  10 O :   -0.290928
  11 H :    0.326666
  12 C :   -0.385006
  13 H :    0.151547
  14 H :    0.159556
  15 H :    0.159498

  Mayer bond orders larger than 0.100000
B(  0-C ,  1-O ) :   1.8583 B(  0-C ,  2-O ) :   1.2776 B(  0-C ,  4-C ) :   0.9451
B(  1-O , 11-H ) :   0.1583 B(  2-O ,  3-H ) :   0.6012 B(  3-H ,  9-O ) :   0.1583
B(  4-C ,  5-H ) :   0.9162 B(  4-C ,  6-H ) :   0.9046 B(  4-C ,  7-H ) :   0.9043
B(  8-C ,  9-O ) :   1.8583 B(  8-C , 10-O ) :   1.2775 B(  8-C , 12-C ) :   0.9451
B( 10-O , 11-H ) :   0.6012 B( 12-C , 13-H ) :   0.9162 B( 12-C , 14-H ) :   0.9045
B( 12-C , 15-H ) :   0.9045

Dispersion correction           -0.006297586
FINAL SINGLE POINT ENERGY      -457.231361691398

DIPOLE MOMENT
-------------
                                X             Y             Z
Electronic contribution:      0.00026       0.00136      -0.00645
Nuclear contribution   :     -0.00018      -0.00204       0.00898
                        -----------------------------------------
Total Dipole Moment    :      0.00008      -0.00068       0.00252
                        -----------------------------------------
Magnitude (a.u.)       :      0.00262
Magnitude (Debye)      :      0.00665

Rotational constants in cm-1:     0.187950     0.029262     0.025558
Rotational constants in MHz :  5634.602690   877.250144   766.205473

                             ****ORCA TERMINATED NORMALLY****
TOTAL RUN TIME: 0 days 0 hours 1 minutes 39 seconds 356 msec
