                         Program Version 5.0.3 -  RELEASE  -
|  1> ! PBEh-3c def2/J TightSCF DefGrid3
|  2>
|  3> %maxcore 60000
|  4>
|  5> %pal
|  6> nprocs 4
|  7> end
|  8>
|  9> *xyzfile 0 1 Ether_TS.xyz
| 10>
| 11>                          ****END OF INPUT****

CARTESIAN COORDINATES (ANGSTROEM)
---------------------------------
  O     -0.000209    0.000338    0.010096
  C      1.374975    0.000005    0.010337
  C     -1.375215    0.000681    0.009783
  H      1.766623    0.406908   -0.931081
  H      1.766470    0.613794    0.829919
  H      1.771333   -1.016633    0.130373
  H     -1.768777   -1.018022    0.120524
  H     -1.767663    0.605368    0.835796
  H     -1.768183    0.416173   -0.927336

 Total Charge           Charge          ....    0
 Multiplicity           Mult            ....    1
 Number of Electrons    NEL             ....   26
 Basis Dimension        Dim             ....   57

ORBITAL ENERGIES
----------------

  NO   OCC          E(Eh)            E(eV)
   0   2.0000     -19.452535      -529.3304
   1   2.0000     -10.491796      -285.4963
   2   2.0000     -10.491765      -285.4955
   3   2.0000      -1.118440       -30.4343
   4   2.0000      -0.835082       -22.7237
   5   2.0000      -0.694620       -18.9016
   6   2.0000      -0.552365       -15.0306
   7   2.0000      -0.522840       -14.2272
   8   2.0000      -0.522738       -14.2244
   9   2.0000      -0.459090       -12.4925
  10   2.0000      -0.458870       -12.4865
  11   2.0000      -0.288676        -7.8553
  12   2.0000      -0.288487        -7.8501
  13   0.0000       0.152108         4.1391
  14   0.0000       0.166233         4.5234
  15   0.0000       0.193056         5.2533
  16   0.0000       0.220763         6.0073
  17   0.0000       0.221045         6.0149

MULLIKEN ATOMIC CHARGES
-----------------------
   0 O :   -0.517089
   1 C :   -0.291483
   2 C :   -0.291438
   3 H :    0.183199
   4 H :    0.183693
   5 H :    0.183175
   6 H :    0.183214
   7 H :    0.183592
   8 H :    0.183137
Sum of atomic charges:   -0.0000000

LOEWDIN ATOMIC CHARGES
----------------------
   0 O :   -0.292088
   1 C :   -0.154670
   2 C :   -0.154697
   3 H :    0.100227
   4 H :    0.100317
   5 H :    0.100213
   6 H :    0.100255
   7 H :    0.100252
   8 H :    0.100192

  Mayer bond orders larger than 0.100000
B(  0-O ,  1-C ) :   0.9347 B(  0-O ,  2-C ) :   0.9348 B(  1-C ,  3-H ) :   0.9122
B(  1-C ,  4-H ) :   0.9120 B(  1-C ,  5-H ) :   0.9117 B(  2-C ,  6-H ) :   0.9120
B(  2-C ,  7-H ) :   0.9119 B(  2-C ,  8-H ) :   0.9120

Dispersion correction           -0.002141013
FINAL SINGLE POINT ENERGY      -154.627981646298

DIPOLE MOMENT
-------------
                                X             Y             Z
Electronic contribution:     -0.00020      -0.00362       0.00273
Nuclear contribution   :      0.00060       0.00451      -0.00183
                        -----------------------------------------
Total Dipole Moment    :      0.00041       0.00090       0.00090
                        -----------------------------------------
Magnitude (a.u.)       :      0.00133
Magnitude (Debye)      :      0.00339

Rotational constants in cm-1:     2.655829     0.249745     0.249701
Rotational constants in MHz : 79619.735853  7487.163282  7485.861366

                             ****ORCA TERMINATED NORMALLY****
TOTAL RUN TIME: 0 days 0 hours 0 minutes 32 seconds 930 msec
