                         Program Version 5.0.3 -  RELEASE  -
|  1> ! PBEh-3c def2/J TightSCF DefGrid3
|  2>
|  3> %maxcore 60000
|  4>
|  5> %pal
|  6> nprocs 4
|  7> end
|  8>
|  9> *xyzfile 0 1 teh2_nh3.xyz
| 10>
| 11>                          ****END OF INPUT****

CARTESIAN COORDINATES (ANGSTROEM)
---------------------------------
  Te    -0.278014   -1.821518    0.000000
  H      0.218166   -3.388666    0.000000
  H      1.276544   -1.333468    0.000000
  N     -0.278014    1.353739    0.000000
  H      0.153359    1.772178    0.812260
  H      0.153359    1.772178   -0.812260
  H     -1.245401    1.645555    0.000000

 Total Charge           Charge          ....    0
 Multiplicity           Mult            ....    1
 Number of Electrons    NEL             ....   36
 Basis Dimension        Dim             ....   51

ORBITAL ENERGIES
----------------

  NO   OCC          E(Eh)            E(eV)
   0   2.0000     -14.620839      -397.8532
   1   2.0000      -6.480895      -176.3541
   2   2.0000      -4.574498      -124.4784
   3   2.0000      -4.570363      -124.3659
   4   2.0000      -4.559194      -124.0620
   5   2.0000      -1.685259       -45.8582
   6   2.0000      -1.682183       -45.7745
   7   2.0000      -1.671928       -45.4955
   8   2.0000      -1.668388       -45.3991
   9   2.0000      -1.667095       -45.3640
  10   2.0000      -0.958104       -26.0713
  11   2.0000      -0.692543       -18.8451
  12   2.0000      -0.533278       -14.5112
  13   2.0000      -0.533051       -14.5051
  14   2.0000      -0.416845       -11.3429
  15   2.0000      -0.363470        -9.8905
  16   2.0000      -0.319946        -8.7062
  17   2.0000      -0.243378        -6.6226
  18   0.0000       0.042260         1.1500
  19   0.0000       0.088533         2.4091
  20   0.0000       0.139737         3.8024
  21   0.0000       0.210543         5.7292
  22   0.0000       0.210978         5.7410

MULLIKEN ATOMIC CHARGES
-----------------------
   0 Te:   -0.186933
   1 H :    0.051809
   2 H :    0.082569
   3 N :   -0.942491
   4 H :    0.331341
   5 H :    0.331341
   6 H :    0.332363
Sum of atomic charges:   -0.0000000

LOEWDIN ATOMIC CHARGES
----------------------
   0 Te:   -0.135867
   1 H :    0.025460
   2 H :    0.051546
   3 N :   -0.617942
   4 H :    0.225299
   5 H :    0.225299
   6 H :    0.226206

  Mayer bond orders larger than 0.100000
B(  0-Te,  1-H ) :   0.9565 B(  0-Te,  2-H ) :   0.9717 B(  3-N ,  4-H ) :   0.8691
B(  3-N ,  5-H ) :   0.8691 B(  3-N ,  6-H ) :   0.8691

Dispersion correction           -0.001749256
FINAL SINGLE POINT ENERGY      -325.664423609002

DIPOLE MOMENT
-------------
                                X             Y             Z
Electronic contribution:     -2.71130     -33.83590       0.00000
Nuclear contribution   :      2.76757      34.98728       0.00000
                        -----------------------------------------
Total Dipole Moment    :      0.05626       1.15138       0.00000
                        -----------------------------------------
Magnitude (a.u.)       :      1.15276
Magnitude (Debye)      :      2.93007

Rotational constants in cm-1:     3.180594     0.103138     0.101498
Rotational constants in MHz : 95351.823535  3091.984979  3042.837763

                             ****ORCA TERMINATED NORMALLY****
TOTAL RUN TIME: 0 days 0 hours 1 minutes 16 seconds 967 msec
