                         Program Version 5.0.3 -  RELEASE  -
|  1> ! PBEh-3c def2/J TightSCF DefGrid3
|  2>
|  3> %maxcore 60000
|  4>
|  5> %pal
|  6> nprocs 4
|  7> end
|  8>
|  9> *xyzfile 0 1 ARG_xbv.xyz
| 10>
| 11>                          ****END OF INPUT****

CARTESIAN COORDINATES (ANGSTROEM)
---------------------------------
  N      2.515515   -0.236103    0.425252
  H      2.946691    0.444955    1.035388
  C      1.258159    0.175803   -0.145731
  H      1.393497    0.322591   -1.222901
  C      0.146826   -0.869538    0.056564
  C      0.930832    1.535153    0.481195
  H      0.616397   -1.820641    0.302009
  H     -0.470711   -0.571740    0.905617
  C     -0.697266   -1.038480   -1.201836
  O      1.766745    2.141370    1.152295
  H     -0.109038   -1.583359   -1.942294
  H     -0.901381   -0.061261   -1.639945
  C     -2.011719   -1.786905   -0.968147
  H     -1.811485   -2.841887   -0.786303
  H     -2.634156   -1.739403   -1.863128
  N     -2.787168   -1.316153    0.175976
  H     -2.511259   -1.741154    1.047420
  C     -3.071939    0.026656    0.304209
  N     -3.101572    0.915921   -0.628771
  N     -3.297975    0.422063    1.617555
  H     -2.893130    0.489329   -1.525432
  H     -3.773108   -0.263615    2.183804
  H     -3.759606    1.318351    1.648433
  N     -0.298493    2.027142    0.241648
  C     -0.706893    3.283961    0.836059
  H     -1.022081    1.474736   -0.196982
  H     -0.715549    3.219989    1.923494
  H     -1.704962    3.513265    0.475569
  H     -0.021328    4.077828    0.549772
  C      3.227685   -1.233098   -0.154875
  C      4.606369   -1.465579    0.413073
  O      2.773744   -1.907941   -1.076541
  H      5.341676   -1.203778   -0.345165
  H      4.797139   -0.885308    1.312134
  H      4.719961   -2.524141    0.631134

 Total Charge           Charge          ....    0
 Multiplicity           Mult            ....    1
 Number of Electrons    NEL             ....  124
 Basis Dimension        Dim             ....  278

ORBITAL ENERGIES
----------------

  NO   OCC          E(Eh)            E(eV)
   0   2.0000     -19.458552      -529.4941
   1   2.0000     -19.447032      -529.1806
   2   2.0000     -14.668002      -399.1366
   3   2.0000     -14.654308      -398.7640
   4   2.0000     -14.652330      -398.7102
   5   2.0000     -14.647927      -398.5904
   6   2.0000     -14.599687      -397.2777
   7   2.0000     -10.556081      -287.2456
   8   2.0000     -10.543091      -286.8921
   9   2.0000     -10.538956      -286.7796
  10   2.0000     -10.488817      -285.4152
  11   2.0000     -10.484709      -285.3034
  12   2.0000     -10.456024      -284.5229
  13   2.0000     -10.445827      -284.2454
  14   2.0000     -10.442191      -284.1465
  15   2.0000     -10.434222      -283.9296
  16   2.0000      -1.144812       -31.1519
  17   2.0000      -1.130267       -30.7561
  18   2.0000      -1.101318       -29.9684
  19   2.0000      -1.016274       -27.6542
  20   2.0000      -1.014112       -27.5954
  21   2.0000      -1.001716       -27.2581
  22   2.0000      -0.951028       -25.8788
  23   2.0000      -0.895473       -24.3671
  24   2.0000      -0.844516       -22.9804
  25   2.0000      -0.809748       -22.0344
  26   2.0000      -0.781524       -21.2663
  27   2.0000      -0.740859       -20.1598
  28   2.0000      -0.693718       -18.8770
  29   2.0000      -0.659491       -17.9457
  30   2.0000      -0.654934       -17.8216
  31   2.0000      -0.639329       -17.3970
  32   2.0000      -0.628636       -17.1061
  33   2.0000      -0.601459       -16.3665
  34   2.0000      -0.592747       -16.1295
  35   2.0000      -0.548824       -14.9343
  36   2.0000      -0.536152       -14.5894
  37   2.0000      -0.535284       -14.5658
  38   2.0000      -0.528295       -14.3756
  39   2.0000      -0.519945       -14.1484
  40   2.0000      -0.506867       -13.7926
  41   2.0000      -0.502737       -13.6802
  42   2.0000      -0.494797       -13.4641
  43   2.0000      -0.489365       -13.3163
  44   2.0000      -0.467974       -12.7342
  45   2.0000      -0.464476       -12.6390
  46   2.0000      -0.456996       -12.4355
  47   2.0000      -0.449702       -12.2370
  48   2.0000      -0.444177       -12.0867
  49   2.0000      -0.440578       -11.9887
  50   2.0000      -0.423253       -11.5173
  51   2.0000      -0.419730       -11.4214
  52   2.0000      -0.401190       -10.9169
  53   2.0000      -0.394326       -10.7302
  54   2.0000      -0.386929       -10.5289
  55   2.0000      -0.337651        -9.1879
  56   2.0000      -0.327177        -8.9029
  57   2.0000      -0.314329        -8.5533
  58   2.0000      -0.303872        -8.2688
  59   2.0000      -0.298212        -8.1148
  60   2.0000      -0.290691        -7.9101
  61   2.0000      -0.288165        -7.8414
  62   0.0000       0.056132         1.5274
  63   0.0000       0.069139         1.8814
  64   0.0000       0.073077         1.9885
  65   0.0000       0.095198         2.5905
  66   0.0000       0.124984         3.4010

MULLIKEN ATOMIC CHARGES
-----------------------
   0 N :   -0.647570
   1 H :    0.385573
   2 C :   -0.135071
   3 H :    0.266345
   4 C :   -0.464747
   5 C :    0.529065
   6 H :    0.269449
   7 H :    0.225251
   8 C :   -0.485628
   9 O :   -0.454188
  10 H :    0.270996
  11 H :    0.205362
  12 C :   -0.324361
  13 H :    0.242855
  14 H :    0.240486
  15 N :   -0.607703
  16 H :    0.350219
  17 C :    0.528623
  18 N :   -0.639273
  19 N :   -0.786662
  20 H :    0.310913
  21 H :    0.342722
  22 H :    0.365862
  23 N :   -0.651557
  24 C :   -0.491352
  25 H :    0.413623
  26 H :    0.226010
  27 H :    0.230443
  28 H :    0.236484
  29 C :    0.518804
  30 C :   -0.748499
  31 O :   -0.450434
  32 H :    0.253180
  33 H :    0.221065
  34 H :    0.253712
Sum of atomic charges:   -0.0000000

LOEWDIN ATOMIC CHARGES
----------------------
   0 N :   -0.230179
   1 H :    0.268736
   2 C :   -0.083831
   3 H :    0.144973
   4 C :   -0.246313
   5 C :    0.111163
   6 H :    0.147260
   7 H :    0.123110
   8 C :   -0.265090
   9 O :   -0.293528
  10 H :    0.149899
  11 H :    0.115109
  12 C :   -0.156228
  13 H :    0.135195
  14 H :    0.128689
  15 N :   -0.272508
  16 H :    0.250756
  17 C :    0.080192
  18 N :   -0.450918
  19 N :   -0.402988
  20 H :    0.221061
  21 H :    0.243261
  22 H :    0.257120
  23 N :   -0.236422
  24 C :   -0.250715
  25 H :    0.260909
  26 H :    0.125352
  27 H :    0.133055
  28 H :    0.132656
  29 C :    0.104414
  30 C :   -0.387613
  31 O :   -0.297224
  32 H :    0.155072
  33 H :    0.131552
  34 H :    0.154020

  Mayer bond orders larger than 0.100000
B(  0-N ,  1-H ) :   0.7664 B(  0-N ,  2-C ) :   0.9417 B(  0-N , 29-C ) :   1.1694
B(  2-C ,  3-H ) :   0.8846 B(  2-C ,  4-C ) :   0.9169 B(  2-C ,  5-C ) :   0.9276
B(  4-C ,  6-H ) :   0.9073 B(  4-C ,  7-H ) :   0.9070 B(  4-C ,  8-C ) :   0.9521
B(  5-C ,  9-O ) :   1.9255 B(  5-C , 23-N ) :   1.1874 B(  8-C , 10-H ) :   0.8947
B(  8-C , 11-H ) :   0.9120 B(  8-C , 12-C ) :   0.9590 B( 12-C , 13-H ) :   0.9165
B( 12-C , 14-H ) :   0.9104 B( 12-C , 15-N ) :   0.9734 B( 15-N , 16-H ) :   0.8289
B( 15-N , 17-C ) :   1.0915 B( 17-C , 18-N ) :   1.8535 B( 17-C , 19-N ) :   1.0732
B( 18-N , 20-H ) :   0.8409 B( 19-N , 21-H ) :   0.8422 B( 19-N , 22-H ) :   0.8340
B( 23-N , 24-C ) :   0.9636 B( 23-N , 25-H ) :   0.7299 B( 24-C , 26-H ) :   0.9168
B( 24-C , 27-H ) :   0.9193 B( 24-C , 28-H ) :   0.9157 B( 29-C , 30-C ) :   0.9286
B( 29-C , 31-O ) :   1.9476 B( 30-C , 32-H ) :   0.9104 B( 30-C , 33-H ) :   0.9203
B( 30-C , 34-H ) :   0.9136

Dispersion correction           -0.023171227
FINAL SINGLE POINT ENERGY      -776.973371969054

DIPOLE MOMENT
-------------
                                X             Y             Z
Electronic contribution:      2.35818       0.59999       0.37181
Nuclear contribution   :     -3.63170      -1.29557       0.41375
                        -----------------------------------------
Total Dipole Moment    :     -1.27352      -0.69558       0.78556
                        -----------------------------------------
Magnitude (a.u.)       :      1.65009
Magnitude (Debye)      :      4.19419

Rotational constants in cm-1:     0.024431     0.011096     0.008401
Rotational constants in MHz :   732.421554   332.655040   251.862580

                             ****ORCA TERMINATED NORMALLY****
TOTAL RUN TIME: 0 days 0 hours 4 minutes 56 seconds 511 msec
