                         Program Version 5.0.3 -  RELEASE  -
|  1> ! PBEh-3c def2/J TightSCF DefGrid3
|  2>
|  3> %maxcore 60000
|  4>
|  5> %pal
|  6> nprocs 4
|  7> end
|  8>
|  9> *xyzfile 0 1 i11p.xyz
| 10>
| 11>                          ****END OF INPUT****

CARTESIAN COORDINATES (ANGSTROEM)
---------------------------------
  C      4.136765    1.301007    0.000000
  C      2.864610    0.684345    0.000000
  C      2.728510   -0.763992    0.000000
  C      3.884179   -1.557618    0.000000
  C      5.126799   -0.923411    0.000000
  C      5.260483    0.490323    0.000000
  C      1.542927    1.159893    0.000000
  C      0.696398   -0.036686    0.000000
  N      1.410571   -1.180985    0.000000
  C     -0.696398    0.036686    0.000000
  C     -1.542927   -1.159893    0.000000
  C     -2.864610   -0.684345    0.000000
  C     -2.728510    0.763992    0.000000
  N     -1.410571    1.180985    0.000000
  C     -4.136765   -1.301007    0.000000
  C     -5.260483   -0.490323    0.000000
  C     -5.126799    0.923411    0.000000
  C     -3.884179    1.557618    0.000000
  O     -1.067002   -2.393208    0.000000
  O      1.067002    2.393208    0.000000
  H     -4.222209   -2.385462    0.000000
  H     -6.253950   -0.931467    0.000000
  H     -6.028129    1.534115    0.000000
  H     -3.803956    2.642257    0.000000
  H     -0.059333   -2.317720    0.000000
  H      0.059333    2.317720    0.000000
  H      3.803956   -2.642257    0.000000
  H      6.028129   -1.534115    0.000000
  H      6.253950    0.931467    0.000000
  H      4.222209    2.385462    0.000000

 Total Charge           Charge          ....    0
 Multiplicity           Mult            ....    1
 Number of Electrons    NEL             ....  136
 Basis Dimension        Dim             ....  320

ORBITAL ENERGIES
----------------

  NO   OCC          E(Eh)            E(eV)
   0   2.0000     -19.563883      -532.3603
   1   2.0000     -19.563883      -532.3603
   2   2.0000     -14.633220      -398.1901
   3   2.0000     -14.633195      -398.1895
   4   2.0000     -10.560793      -287.3738
   5   2.0000     -10.560779      -287.3734
   6   2.0000     -10.505861      -285.8790
   7   2.0000     -10.505276      -285.8631
   8   2.0000     -10.503493      -285.8146
   9   2.0000     -10.503485      -285.8144
  10   2.0000     -10.477578      -285.1094
  11   2.0000     -10.477577      -285.1094
  12   2.0000     -10.477397      -285.1045
  13   2.0000     -10.477395      -285.1044
  14   2.0000     -10.465068      -284.7690
  15   2.0000     -10.465063      -284.7688
  16   2.0000     -10.459631      -284.6210
  17   2.0000     -10.459623      -284.6208
  18   2.0000     -10.459172      -284.6085
  19   2.0000     -10.459170      -284.6085
  20   2.0000      -1.210799       -32.9475
  21   2.0000      -1.208675       -32.8897
  22   2.0000      -1.076344       -29.2888
  23   2.0000      -1.061444       -28.8834
  24   2.0000      -0.956730       -26.0340
  25   2.0000      -0.948443       -25.8085
  26   2.0000      -0.881649       -23.9909
  27   2.0000      -0.880236       -23.9524
  28   2.0000      -0.863274       -23.4909
  29   2.0000      -0.834188       -22.6994
  30   2.0000      -0.820814       -22.3355
  31   2.0000      -0.791760       -21.5449
  32   2.0000      -0.745273       -20.2799
  33   2.0000      -0.704118       -19.1600
  34   2.0000      -0.680367       -18.5137
  35   2.0000      -0.679965       -18.5028
  36   2.0000      -0.669770       -18.2254
  37   2.0000      -0.668321       -18.1859
  38   2.0000      -0.616612       -16.7789
  39   2.0000      -0.607293       -16.5253
  40   2.0000      -0.583971       -15.8907
  41   2.0000      -0.565498       -15.3880
  42   2.0000      -0.555741       -15.1225
  43   2.0000      -0.531444       -14.4613
  44   2.0000      -0.530061       -14.4237
  45   2.0000      -0.523125       -14.2350
  46   2.0000      -0.514553       -14.0017
  47   2.0000      -0.505739       -13.7618
  48   2.0000      -0.505689       -13.7605
  49   2.0000      -0.505590       -13.7578
  50   2.0000      -0.495294       -13.4776
  51   2.0000      -0.470313       -12.7979
  52   2.0000      -0.463493       -12.6123
  53   2.0000      -0.449803       -12.2398
  54   2.0000      -0.448452       -12.2030
  55   2.0000      -0.433512       -11.7965
  56   2.0000      -0.431282       -11.7358
  57   2.0000      -0.425304       -11.5731
  58   2.0000      -0.416022       -11.3205
  59   2.0000      -0.411764       -11.2047
  60   2.0000      -0.381685       -10.3862
  61   2.0000      -0.359708        -9.7881
  62   2.0000      -0.330515        -8.9938
  63   2.0000      -0.326864        -8.8944
  64   2.0000      -0.323160        -8.7936
  65   2.0000      -0.299514        -8.1502
  66   2.0000      -0.257076        -6.9954
  67   2.0000      -0.223563        -6.0835
  68   0.0000      -0.133281        -3.6267
  69   0.0000      -0.030449        -0.8286
  70   0.0000       0.016611         0.4520
  71   0.0000       0.038780         1.0553
  72   0.0000       0.039935         1.0867

MULLIKEN ATOMIC CHARGES
-----------------------
   0 C :   -0.244009
   1 C :   -0.041167
   2 C :    0.314262
   3 C :   -0.303148
   4 C :   -0.204990
   5 C :   -0.247916
   6 C :    0.339727
   7 C :    0.159457
   8 N :   -0.638778
   9 C :    0.159456
  10 C :    0.339729
  11 C :   -0.041165
  12 C :    0.314264
  13 N :   -0.638777
  14 C :   -0.244012
  15 C :   -0.247916
  16 C :   -0.204989
  17 C :   -0.303151
  18 O :   -0.550507
  19 O :   -0.550507
  20 H :    0.237265
  21 H :    0.228186
  22 H :    0.234190
  23 H :    0.233209
  24 H :    0.484217
  25 H :    0.484217
  26 H :    0.233210
  27 H :    0.234190
  28 H :    0.228186
  29 H :    0.237265
Sum of atomic charges:   -0.0000000

LOEWDIN ATOMIC CHARGES
----------------------
   0 C :   -0.077219
   1 C :   -0.126446
   2 C :    0.069899
   3 C :   -0.156479
   4 C :   -0.085486
   5 C :   -0.170661
   6 C :    0.148239
   7 C :   -0.012169
   8 N :   -0.278973
   9 C :   -0.012169
  10 C :    0.148239
  11 C :   -0.126446
  12 C :    0.069899
  13 N :   -0.278973
  14 C :   -0.077219
  15 C :   -0.170661
  16 C :   -0.085486
  17 C :   -0.156479
  18 O :   -0.240076
  19 O :   -0.240076
  20 H :    0.150218
  21 H :    0.140499
  22 H :    0.143080
  23 H :    0.148475
  24 H :    0.347100
  25 H :    0.347100
  26 H :    0.148475
  27 H :    0.143080
  28 H :    0.140499
  29 H :    0.150218

  Mayer bond orders larger than 0.100000
B(  0-C ,  1-C ) :   1.1987 B(  0-C ,  5-C ) :   1.5431 B(  0-C , 29-H ) :   0.9247
B(  1-C ,  2-C ) :   1.1586 B(  1-C ,  6-C ) :   1.2856 B(  2-C ,  3-C ) :   1.2720
B(  2-C ,  8-N ) :   1.3369 B(  3-C ,  4-C ) :   1.4917 B(  3-C , 26-H ) :   0.9147
B(  4-C ,  5-C ) :   1.2912 B(  4-C , 27-H ) :   0.9161 B(  5-C , 28-H ) :   0.9172
B(  6-C ,  7-C ) :   0.9957 B(  6-C , 19-O ) :   1.3070 B(  7-C ,  8-N ) :   1.3656
B(  7-C ,  9-C ) :   1.1896 B(  8-N , 24-H ) :   0.1537 B(  9-C , 10-C ) :   0.9957
B(  9-C , 13-N ) :   1.3656 B( 10-C , 11-C ) :   1.2856 B( 10-C , 18-O ) :   1.3070
B( 11-C , 12-C ) :   1.1586 B( 11-C , 14-C ) :   1.1987 B( 12-C , 13-N ) :   1.3369
B( 12-C , 17-C ) :   1.2720 B( 13-N , 25-H ) :   0.1537 B( 14-C , 15-C ) :   1.5431
B( 14-C , 20-H ) :   0.9247 B( 15-C , 16-C ) :   1.2912 B( 15-C , 21-H ) :   0.9172
B( 16-C , 17-C ) :   1.4917 B( 16-C , 22-H ) :   0.9161 B( 17-C , 23-H ) :   0.9147
B( 18-O , 24-H ) :   0.6143 B( 19-O , 25-H ) :   0.6143

Dispersion correction           -0.022153850
FINAL SINGLE POINT ENERGY      -873.725397463595

DIPOLE MOMENT
-------------
                                X             Y             Z
Electronic contribution:      0.00000       0.00000      -0.00000
Nuclear contribution   :     -0.00000       0.00000       0.00000
                        -----------------------------------------
Total Dipole Moment    :      0.00000       0.00000      -0.00000
                        -----------------------------------------
Magnitude (a.u.)       :      0.00000
Magnitude (Debye)      :      0.00000

Rotational constants in cm-1:     0.037626     0.005970     0.005152
Rotational constants in MHz :  1128.001842   178.968613   154.461736

                             ****ORCA TERMINATED NORMALLY****
TOTAL RUN TIME: 0 days 0 hours 5 minutes 55 seconds 994 msec
