                         Program Version 5.0.3 -  RELEASE  -
|  1> ! PBEh-3c def2/J TightSCF DefGrid3
|  2>
|  3> %maxcore 60000
|  4>
|  5> %pal
|  6> nprocs 4
|  7> end
|  8>
|  9> *xyzfile 0 1 12A.xyz
| 10>
| 11>                          ****END OF INPUT****

CARTESIAN COORDINATES (ANGSTROEM)
---------------------------------
  N      0.438264   -0.805594    0.000000
  H      0.078615   -1.298981    0.806675
  H      0.078615   -1.298981   -0.806675
  C     -0.069547    0.571586    0.000000
  H      0.319801    1.090868   -0.871809
  H     -1.158203    0.653569    0.000000
  H      0.319801    1.090868    0.871809

 Total Charge           Charge          ....    0
 Multiplicity           Mult            ....    1
 Number of Electrons    NEL             ....   18
 Basis Dimension        Dim             ....   40

ORBITAL ENERGIES
----------------

  NO   OCC          E(Eh)            E(eV)
   0   2.0000     -14.603522      -397.3820
   1   2.0000     -10.445560      -284.2381
   2   2.0000      -0.963714       -26.2240
   3   2.0000      -0.735025       -20.0011
   4   2.0000      -0.544784       -14.8243
   5   2.0000      -0.492794       -13.4096
   6   2.0000      -0.453707       -12.3460
   7   2.0000      -0.416222       -11.3260
   8   2.0000      -0.283161        -7.7052
   9   0.0000       0.138091         3.7576
  10   0.0000       0.201512         5.4834
  11   0.0000       0.213651         5.8137
  12   0.0000       0.227763         6.1978
  13   0.0000       0.234915         6.3924

MULLIKEN ATOMIC CHARGES
-----------------------
   0 N :   -0.738394
   1 H :    0.312788
   2 H :    0.312788
   3 C :   -0.502513
   4 H :    0.216734
   5 H :    0.181863
   6 H :    0.216734
Sum of atomic charges:    0.0000000

LOEWDIN ATOMIC CHARGES
----------------------
   0 N :   -0.488498
   1 H :    0.217426
   2 H :    0.217426
   3 C :   -0.279357
   4 H :    0.120488
   5 H :    0.092025
   6 H :    0.120489

  Mayer bond orders larger than 0.100000
B(  0-N ,  1-H ) :   0.8680 B(  0-N ,  2-H ) :   0.8680 B(  0-N ,  3-C ) :   1.0329
B(  3-C ,  4-H ) :   0.9266 B(  3-C ,  5-H ) :   0.9184 B(  3-C ,  6-H ) :   0.9266

Dispersion correction           -0.001525585
FINAL SINGLE POINT ENERGY       -95.642591394125

DIPOLE MOMENT
-------------
                                X             Y             Z
Electronic contribution:      0.48930      -0.90780       0.00000
Nuclear contribution   :     -1.08349       0.85021       0.00000
                        -----------------------------------------
Total Dipole Moment    :     -0.59418      -0.05759       0.00000
                        -----------------------------------------
Magnitude (a.u.)       :      0.59697
Magnitude (Debye)      :      1.51737

Rotational constants in cm-1:     3.466215     0.758768     0.731607
Rotational constants in MHz : 103914.516367 22747.301918 21933.020256

                             ****ORCA TERMINATED NORMALLY****
TOTAL RUN TIME: 0 days 0 hours 1 minutes 1 seconds 830 msec
