                         Program Version 5.0.3 -  RELEASE  -
|  1> ! PBEh-3c def2/J TightSCF DefGrid3
|  2>
|  3> %maxcore 60000
|  4>
|  5> %pal
|  6> nprocs 4
|  7> end
|  8>
|  9> *xyzfile 0 1 8b.xyz
| 10>
| 11>                          ****END OF INPUT****

CARTESIAN COORDINATES (ANGSTROEM)
---------------------------------
  N     -1.030600   -0.432319    0.000000
  C     -1.812521    0.683611    0.000000
  N     -1.086410    1.781013    0.000000
  C      0.217004    1.344078    0.000000
  C      0.283363   -0.028511    0.000000
  C      1.427524   -0.978799    0.000000
  H      1.042165    2.035027    0.000000
  H     -2.887328    0.635451    0.000000
  H      1.421517   -1.618143   -0.882371
  H      2.359382   -0.420306    0.000000
  H      1.421517   -1.618143    0.882371
  H     -1.355613   -1.382957    0.000000

 Total Charge           Charge          ....    0
 Multiplicity           Mult            ....    1
 Number of Electrons    NEL             ....   44
 Basis Dimension        Dim             ....  102

ORBITAL ENERGIES
----------------

  NO   OCC          E(Eh)            E(eV)
   0   2.0000     -14.691435      -399.7743
   1   2.0000     -14.610477      -397.5713
   2   2.0000     -10.490394      -285.4581
   3   2.0000     -10.475278      -285.0468
   4   2.0000     -10.448272      -284.3119
   5   2.0000     -10.443407      -284.1796
   6   2.0000      -1.118520       -30.4365
   7   2.0000      -0.962937       -26.2029
   8   2.0000      -0.865454       -23.5502
   9   2.0000      -0.774289       -21.0695
  10   2.0000      -0.685214       -18.6456
  11   2.0000      -0.658041       -17.9062
  12   2.0000      -0.599366       -16.3096
  13   2.0000      -0.511673       -13.9233
  14   2.0000      -0.509826       -13.8731
  15   2.0000      -0.469664       -12.7802
  16   2.0000      -0.459359       -12.4998
  17   2.0000      -0.458068       -12.4647
  18   2.0000      -0.451415       -12.2836
  19   2.0000      -0.322779        -8.7833
  20   2.0000      -0.318241        -8.6598
  21   2.0000      -0.257531        -7.0078
  22   0.0000       0.060561         1.6479
  23   0.0000       0.108408         2.9499
  24   0.0000       0.122596         3.3360
  25   0.0000       0.164957         4.4887
  26   0.0000       0.186981         5.0880

MULLIKEN ATOMIC CHARGES
-----------------------
   0 N :   -0.613442
   1 C :    0.107280
   2 N :   -0.371854
   3 C :   -0.206209
   4 C :    0.284166
   5 C :   -0.717455
   6 H :    0.216288
   7 H :    0.231928
   8 H :    0.230899
   9 H :    0.246315
  10 H :    0.230899
  11 H :    0.361185
Sum of atomic charges:   -0.0000000

LOEWDIN ATOMIC CHARGES
----------------------
   0 N :   -0.144852
   1 C :   -0.056897
   2 N :   -0.183294
   3 C :   -0.146013
   4 C :   -0.053539
   5 C :   -0.357709
   6 H :    0.128637
   7 H :    0.128444
   8 H :    0.136916
   9 H :    0.149741
  10 H :    0.136916
  11 H :    0.261649

  Mayer bond orders larger than 0.100000
B(  0-N ,  1-C ) :   1.1732 B(  0-N ,  4-C ) :   1.0998 B(  0-N , 11-H ) :   0.8245
B(  1-C ,  2-N ) :   1.6366 B(  1-C ,  7-H ) :   0.9120 B(  2-N ,  3-C ) :   1.3605
B(  3-C ,  4-C ) :   1.5452 B(  3-C ,  6-H ) :   0.9294 B(  4-C ,  5-C ) :   0.9625
B(  5-C ,  8-H ) :   0.9152 B(  5-C ,  9-H ) :   0.9265 B(  5-C , 10-H ) :   0.9152

Dispersion correction           -0.005238783
FINAL SINGLE POINT ENERGY      -264.955829994362

DIPOLE MOMENT
-------------
                                X             Y             Z
Electronic contribution:     -3.56535       2.58956       0.00000
Nuclear contribution   :      3.66939      -4.19070       0.00000
                        -----------------------------------------
Total Dipole Moment    :      0.10404      -1.60114       0.00000
                        -----------------------------------------
Magnitude (a.u.)       :      1.60452
Magnitude (Debye)      :      4.07836

Rotational constants in cm-1:     0.303813     0.116308     0.085447
Rotational constants in MHz :  9108.096472  3486.816985  2561.637396

                             ****ORCA TERMINATED NORMALLY****
TOTAL RUN TIME: 0 days 0 hours 1 minutes 24 seconds 144 msec
