                         Program Version 5.0.3 -  RELEASE  -
|  1> ! PBEh-3c def2/J TightSCF DefGrid3
|  2>
|  3> %maxcore 60000
|  4>
|  5> %pal
|  6> nprocs 4
|  7> end
|  8>
|  9> *xyzfile 0 1 h2s2.xyz
| 10>
| 11>                          ****END OF INPUT****

CARTESIAN COORDINATES (ANGSTROEM)
---------------------------------
  S     -1.023005   -0.011997   -0.468291
  S      1.023005    0.011997   -0.468291
  H     -1.235482    0.931351    0.468291
  H      1.235482   -0.931351    0.468291

 Total Charge           Charge          ....    0
 Multiplicity           Mult            ....    1
 Number of Electrons    NEL             ....   34
 Basis Dimension        Dim             ....   40

ORBITAL ENERGIES
----------------

  NO   OCC          E(Eh)            E(eV)
   0   2.0000     -89.613045     -2438.4949
   1   2.0000     -89.612993     -2438.4935
   2   2.0000      -8.253888      -224.5997
   3   2.0000      -8.253842      -224.5985
   4   2.0000      -6.145570      -167.2295
   5   2.0000      -6.145366      -167.2239
   6   2.0000      -6.141319      -167.1138
   7   2.0000      -6.141280      -167.1127
   8   2.0000      -6.135219      -166.9478
   9   2.0000      -6.135218      -166.9478
  10   2.0000      -0.899894       -24.4874
  11   2.0000      -0.746188       -20.3048
  12   2.0000      -0.515194       -14.0191
  13   2.0000      -0.462670       -12.5899
  14   2.0000      -0.407315       -11.0836
  15   2.0000      -0.310327        -8.4444
  16   2.0000      -0.309208        -8.4140
  17   0.0000       0.002757         0.0750
  18   0.0000       0.071355         1.9417
  19   0.0000       0.074066         2.0154
  20   0.0000       0.393869        10.7177
  21   0.0000       0.464259        12.6331

MULLIKEN ATOMIC CHARGES
-----------------------
   0 S :   -0.196481
   1 S :   -0.196481
   2 H :    0.196481
   3 H :    0.196481
Sum of atomic charges:   -0.0000000

LOEWDIN ATOMIC CHARGES
----------------------
   0 S :   -0.101841
   1 S :   -0.101841
   2 H :    0.101841
   3 H :    0.101841

  Mayer bond orders larger than 0.100000
B(  0-S ,  1-S ) :   1.0799 B(  0-S ,  2-H ) :   0.9028 B(  1-S ,  3-H ) :   0.9028

Dispersion correction           -0.001229428
FINAL SINGLE POINT ENERGY      -796.672688330458

DIPOLE MOMENT
-------------
                                X             Y             Z
Electronic contribution:     -0.00000      -0.00000      -1.08303
Nuclear contribution   :      0.00000       0.00000       1.70544
                        -----------------------------------------
Total Dipole Moment    :     -0.00000      -0.00000       0.62241
                        -----------------------------------------
Magnitude (a.u.)       :      0.62241
Magnitude (Debye)      :      1.58204

Rotational constants in cm-1:     4.903162     0.234361     0.234332
Rotational constants in MHz : 146993.097647  7025.972498  7025.082118

                             ****ORCA TERMINATED NORMALLY****
TOTAL RUN TIME: 0 days 0 hours 1 minutes 12 seconds 614 msec
