                         Program Version 5.0.3 -  RELEASE  -
|  1> ! PBEh-3c def2/J TightSCF DefGrid3
|  2>
|  3> %maxcore 60000
|  4>
|  5> %pal
|  6> nprocs 4
|  7> end
|  8>
|  9> *xyzfile 0 1 35A.xyz
| 10>
| 11>                          ****END OF INPUT****

CARTESIAN COORDINATES (ANGSTROEM)
---------------------------------
  C      0.300976    0.028523   -2.532762
  H      0.850336    0.969289   -2.566296
  H      1.030680   -0.780760   -2.561769
  H     -0.306362   -0.036975   -3.434162
  C     -0.549744   -0.054558   -1.272262
  H     -1.115808   -0.989195   -1.270037
  H     -1.288212    0.750414   -1.271028
  C      0.282661    0.030222    0.000000
  H      1.026876   -0.772309    0.000000
  H      0.846918    0.967581    0.000000
  C     -0.549744   -0.054558    1.272262
  H     -1.115808   -0.989195    1.270037
  H     -1.288212    0.750414    1.271028
  C      0.300976    0.028523    2.532762
  H      0.850336    0.969289    2.566296
  H     -0.306362   -0.036975    3.434162
  H      1.030680   -0.780760    2.561769

 Total Charge           Charge          ....    0
 Multiplicity           Mult            ....    1
 Number of Electrons    NEL             ....   42
 Basis Dimension        Dim             ....   99

ORBITAL ENERGIES
----------------

  NO   OCC          E(Eh)            E(eV)
   0   2.0000     -10.426735      -283.7259
   1   2.0000     -10.426710      -283.7252
   2   2.0000     -10.424725      -283.6712
   3   2.0000     -10.418806      -283.5101
   4   2.0000     -10.418797      -283.5099
   5   2.0000      -0.893108       -24.3027
   6   2.0000      -0.836950       -22.7746
   7   2.0000      -0.754566       -20.5328
   8   2.0000      -0.670568       -18.2471
   9   2.0000      -0.644258       -17.5311
  10   2.0000      -0.535926       -14.5833
  11   2.0000      -0.495085       -13.4720
  12   2.0000      -0.488113       -13.2822
  13   2.0000      -0.457610       -12.4522
  14   2.0000      -0.447206       -12.1691
  15   2.0000      -0.427833       -11.6419
  16   2.0000      -0.402270       -10.9463
  17   2.0000      -0.382193       -10.4000
  18   2.0000      -0.373254       -10.1568
  19   2.0000      -0.366102        -9.9621
  20   2.0000      -0.361551        -9.8383
  21   0.0000       0.137510         3.7418
  22   0.0000       0.155120         4.2210
  23   0.0000       0.185397         5.0449
  24   0.0000       0.186650         5.0790
  25   0.0000       0.202775         5.5178

MULLIKEN ATOMIC CHARGES
-----------------------
   0 C :   -0.638680
   1 H :    0.208797
   2 H :    0.208796
   3 H :    0.218419
   4 C :   -0.410097
   5 H :    0.204443
   6 H :    0.204532
   7 C :   -0.390970
   8 H :    0.199217
   9 H :    0.199333
  10 C :   -0.410097
  11 H :    0.204442
  12 H :    0.204532
  13 C :   -0.638680
  14 H :    0.208797
  15 H :    0.218419
  16 H :    0.208796
Sum of atomic charges:   -0.0000000

LOEWDIN ATOMIC CHARGES
----------------------
   0 C :   -0.361929
   1 H :    0.123326
   2 H :    0.123300
   3 H :    0.125759
   4 C :   -0.246236
   5 H :    0.119200
   6 H :    0.119295
   7 C :   -0.241546
   8 H :    0.118006
   9 H :    0.118115
  10 C :   -0.246236
  11 H :    0.119200
  12 H :    0.119295
  13 C :   -0.361929
  14 H :    0.123326
  15 H :    0.125759
  16 H :    0.123300

  Mayer bond orders larger than 0.100000
B(  0-C ,  1-H ) :   0.9296 B(  0-C ,  2-H ) :   0.9296 B(  0-C ,  3-H ) :   0.9325
B(  0-C ,  4-C ) :   0.9986 B(  4-C ,  5-H ) :   0.9204 B(  4-C ,  6-H ) :   0.9203
B(  4-C ,  7-C ) :   0.9923 B(  7-C ,  8-H ) :   0.9182 B(  7-C ,  9-H ) :   0.9181
B(  7-C , 10-C ) :   0.9923 B( 10-C , 11-H ) :   0.9204 B( 10-C , 12-H ) :   0.9203
B( 10-C , 13-C ) :   0.9986 B( 13-C , 14-H ) :   0.9296 B( 13-C , 15-H ) :   0.9325
B( 13-C , 16-H ) :   0.9296

Dispersion correction           -0.006815801
FINAL SINGLE POINT ENERGY      -197.333899461391

DIPOLE MOMENT
-------------
                                X             Y             Z
Electronic contribution:     -0.59057      -0.05869      -0.00000
Nuclear contribution   :      0.57065       0.05720       0.00000
                        -----------------------------------------
Total Dipole Moment    :     -0.01992      -0.00150      -0.00000
                        -----------------------------------------
Magnitude (a.u.)       :      0.01998
Magnitude (Debye)      :      0.05079

Rotational constants in cm-1:     0.568978     0.065463     0.062054
Rotational constants in MHz : 17057.534377  1962.517046  1860.346633

                             ****ORCA TERMINATED NORMALLY****
TOTAL RUN TIME: 0 days 0 hours 1 minutes 5 seconds 484 msec
