                         Program Version 5.0.3 -  RELEASE  -
|  1> ! PBEh-3c def2/J TightSCF DefGrid3
|  2>
|  3> %maxcore 60000
|  4>
|  5> %pal
|  6> nprocs 4
|  7> end
|  8>
|  9> *xyzfile 0 1 23.xyz
| 10>
| 11>                          ****END OF INPUT****

CARTESIAN COORDINATES (ANGSTROEM)
---------------------------------
  Li     0.000000    0.000000    1.359181
  Li     0.000000    0.000000   -1.359181

 Total Charge           Charge          ....    0
 Multiplicity           Mult            ....    1
 Number of Electrons    NEL             ....    6
 Basis Dimension        Dim             ....   18

ORBITAL ENERGIES
----------------

  NO   OCC          E(Eh)            E(eV)
   0   2.0000      -2.116278       -57.5868
   1   2.0000      -2.115953       -57.5780
   2   2.0000      -0.152681        -4.1547
   3   0.0000      -0.038364        -1.0439
   4   0.0000       0.007992         0.2175
   5   0.0000       0.007992         0.2175
   6   0.0000       0.010687         0.2908
   7   0.0000       0.066568         1.8114

MULLIKEN ATOMIC CHARGES
-----------------------
   0 Li:    0.000000
   1 Li:   -0.000000
Sum of atomic charges:   -0.0000000

LOEWDIN ATOMIC CHARGES
----------------------
   0 Li:    0.000000
   1 Li:   -0.000000

  Mayer bond orders larger than 0.100000
B(  0-Li,  1-Li) :   0.9977

Dispersion correction           -0.000210378
FINAL SINGLE POINT ENERGY       -14.935122667620

DIPOLE MOMENT
-------------
                                X             Y             Z
Electronic contribution:     -0.00000       0.00000       0.00000
Nuclear contribution   :      0.00000       0.00000       0.00000
                        -----------------------------------------
Total Dipole Moment    :     -0.00000       0.00000       0.00000
                        -----------------------------------------
Magnitude (a.u.)       :      0.00000
Magnitude (Debye)      :      0.00000

Rotational constants in cm-1:     0.000000     0.657341     0.657341
Rotational constants in MHz :     0.000000 19706.575694 19706.575694

                             ****ORCA TERMINATED NORMALLY****
TOTAL RUN TIME: 0 days 0 hours 0 minutes 21 seconds 603 msec
