                         Program Version 5.0.3 -  RELEASE  -
|  1> ! PBEh-3c def2/J TightSCF DefGrid3
|  2>
|  3> %maxcore 60000
|  4>
|  5> %pal
|  6> nprocs 4
|  7> end
|  8>
|  9> *xyzfile 0 1 FI_NH3.xyz
| 10>
| 11>                          ****END OF INPUT****

CARTESIAN COORDINATES (ANGSTROEM)
---------------------------------
  F      0.000000    0.000000    2.088520
  I      0.000000    0.000000    0.116802
  N      0.000000    0.000000   -2.392210
  H      0.000000    0.946870   -2.747243
  H     -0.820013   -0.473435   -2.747243
  H      0.820013   -0.473435   -2.747243

 Total Charge           Charge          ....    0
 Multiplicity           Mult            ....    1
 Number of Electrons    NEL             ....   44
 Basis Dimension        Dim             ....   62

ORBITAL ENERGIES
----------------

  NO   OCC          E(Eh)            E(eV)
   0   2.0000     -25.005866      -680.4442
   1   2.0000     -14.693231      -399.8231
   2   2.0000      -7.099898      -193.1981
   3   2.0000      -5.090005      -138.5061
   4   2.0000      -5.062882      -137.7680
   5   2.0000      -5.062882      -137.7680
   6   2.0000      -2.042494       -55.5791
   7   2.0000      -2.034056       -55.3495
   8   2.0000      -2.034056       -55.3495
   9   2.0000      -2.011398       -54.7329
  10   2.0000      -2.011396       -54.7329
  11   2.0000      -1.198876       -32.6231
  12   2.0000      -1.023368       -27.8473
  13   2.0000      -0.740623       -20.1534
  14   2.0000      -0.598825       -16.2949
  15   2.0000      -0.598825       -16.2948
  16   2.0000      -0.484160       -13.1747
  17   2.0000      -0.420065       -11.4305
  18   2.0000      -0.420065       -11.4305
  19   2.0000      -0.373411       -10.1610
  20   2.0000      -0.283658        -7.7187
  21   2.0000      -0.283658        -7.7187
  22   0.0000      -0.009523        -0.2591
  23   0.0000       0.098424         2.6782
  24   0.0000       0.163770         4.4564
  25   0.0000       0.163770         4.4564
  26   0.0000       0.316831         8.6214

MULLIKEN ATOMIC CHARGES
-----------------------
   0 F :   -0.523467
   1 I :    0.355090
   2 N :   -0.965256
   3 H :    0.377876
   4 H :    0.377879
   5 H :    0.377879
Sum of atomic charges:   -0.0000000

LOEWDIN ATOMIC CHARGES
----------------------
   0 F :   -0.481884
   1 I :    0.273853
   2 N :   -0.547239
   3 H :    0.251756
   4 H :    0.251757
   5 H :    0.251757

  Mayer bond orders larger than 0.100000
B(  0-F ,  1-I ) :   0.7232 B(  1-I ,  2-N ) :   0.2704 B(  2-N ,  3-H ) :   0.8379
B(  2-N ,  4-H ) :   0.8379 B(  2-N ,  5-H ) :   0.8379

Dispersion correction           -0.001576728
FINAL SINGLE POINT ENERGY      -453.812387200380

DIPOLE MOMENT
-------------
                                X             Y             Z
Electronic contribution:      0.00000       0.00000       9.75409
Nuclear contribution   :      0.00000      -0.00000     -12.65362
                        -----------------------------------------
Total Dipole Moment    :      0.00000       0.00000      -2.89953
                        -----------------------------------------
Magnitude (a.u.)       :      2.89953
Magnitude (Debye)      :      7.37001

Rotational constants in cm-1:     6.217771     0.089693     0.089693
Rotational constants in MHz : 186404.090330  2688.938610  2688.938585

                             ****ORCA TERMINATED NORMALLY****
TOTAL RUN TIME: 0 days 0 hours 1 minutes 16 seconds 779 msec
