                         Program Version 5.0.3 -  RELEASE  -
|  1> ! PBEh-3c def2/J TightSCF DefGrid3
|  2>
|  3> %maxcore 60000
|  4>
|  5> %pal
|  6> nprocs 4
|  7> end
|  8>
|  9> *xyzfile 0 1 P34.xyz
| 10>
| 11>                          ****END OF INPUT****

CARTESIAN COORDINATES (ANGSTROEM)
---------------------------------
  C      0.184091    0.515137    0.147980
  C     -0.006060   -0.364832    1.213289
  C     -0.176604   -1.729253    0.989226
  C     -0.163207   -2.227210   -0.308648
  C      0.020548   -1.355452   -1.380649
  C      0.196626    0.003925   -1.153595
  C      0.388825    1.993442    0.390213
  O     -0.454408    2.825425   -0.409701
  H     -1.369318    2.562659   -0.253617
  H     -0.025125    0.020003    2.227577
  H     -0.324566   -2.399617    1.827678
  H     -0.298348   -3.287421   -0.486635
  H      0.032381   -1.738875   -2.394254
  H      0.332284    0.682789   -1.987492
  H      0.256977    2.211341    1.457059
  H      1.405905    2.287939    0.121570

 Total Charge           Charge          ....    0
 Multiplicity           Mult            ....    1
 Number of Electrons    NEL             ....   58
 Basis Dimension        Dim             ....  136

ORBITAL ENERGIES
----------------

  NO   OCC          E(Eh)            E(eV)
   0   2.0000     -19.489668      -530.3408
   1   2.0000     -10.490035      -285.4484
   2   2.0000     -10.457074      -284.5514
   3   2.0000     -10.452275      -284.4209
   4   2.0000     -10.451713      -284.4056
   5   2.0000     -10.451276      -284.3937
   6   2.0000     -10.450701      -284.3780
   7   2.0000     -10.448756      -284.3251
   8   2.0000      -1.123493       -30.5718
   9   2.0000      -0.958971       -26.0949
  10   2.0000      -0.858539       -23.3620
  11   2.0000      -0.839099       -22.8330
  12   2.0000      -0.760018       -20.6811
  13   2.0000      -0.686381       -18.6774
  14   2.0000      -0.665706       -18.1148
  15   2.0000      -0.593318       -16.1450
  16   2.0000      -0.561319       -15.2743
  17   2.0000      -0.529960       -14.4209
  18   2.0000      -0.508699       -13.8424
  19   2.0000      -0.497380       -13.5344
  20   2.0000      -0.485242       -13.2041
  21   2.0000      -0.478917       -13.0320
  22   2.0000      -0.424735       -11.5576
  23   2.0000      -0.420060       -11.4304
  24   2.0000      -0.400907       -10.9092
  25   2.0000      -0.380078       -10.3425
  26   2.0000      -0.336543        -9.1578
  27   2.0000      -0.296563        -8.0699
  28   2.0000      -0.288979        -7.8635
  29   0.0000       0.010221         0.2781
  30   0.0000       0.015943         0.4338
  31   0.0000       0.139669         3.8006
  32   0.0000       0.144526         3.9328
  33   0.0000       0.180102         4.9008

MULLIKEN ATOMIC CHARGES
-----------------------
   0 C :    0.043380
   1 C :   -0.271266
   2 C :   -0.205069
   3 C :   -0.231428
   4 C :   -0.207194
   5 C :   -0.254979
   6 C :   -0.196396
   7 O :   -0.620184
   8 H :    0.414648
   9 H :    0.213907
  10 H :    0.220062
  11 H :    0.221159
  12 H :    0.220681
  13 H :    0.236256
  14 H :    0.191079
  15 H :    0.225343
Sum of atomic charges:   -0.0000000

LOEWDIN ATOMIC CHARGES
----------------------
   0 C :   -0.084174
   1 C :   -0.137441
   2 C :   -0.133475
   3 C :   -0.135857
   4 C :   -0.132056
   5 C :   -0.125038
   6 C :   -0.079206
   7 O :   -0.407165
   8 H :    0.309976
   9 H :    0.134060
  10 H :    0.136511
  11 H :    0.136456
  12 H :    0.136750
  13 H :    0.144199
  14 H :    0.105255
  15 H :    0.131204

  Mayer bond orders larger than 0.100000
B(  0-C ,  1-C ) :   1.4076 B(  0-C ,  5-C ) :   1.3757 B(  0-C ,  6-C ) :   0.9454
B(  1-C ,  2-C ) :   1.4200 B(  1-C ,  9-H ) :   0.9202 B(  2-C ,  3-C ) :   1.4354
B(  2-C , 10-H ) :   0.9196 B(  3-C ,  4-C ) :   1.4103 B(  3-C , 11-H ) :   0.9193
B(  4-C ,  5-C ) :   1.4368 B(  4-C , 12-H ) :   0.9200 B(  5-C , 13-H ) :   0.9147
B(  6-C ,  7-O ) :   1.0287 B(  6-C , 14-H ) :   0.9159 B(  6-C , 15-H ) :   0.9078
B(  7-O ,  8-H ) :   0.7906

Dispersion correction           -0.008485654
FINAL SINGLE POINT ENERGY      -346.010335973682

DIPOLE MOMENT
-------------
                                X             Y             Z
Electronic contribution:     -0.37799      -0.31628      -0.65267
Nuclear contribution   :      0.13666      -0.16467       0.97948
                        -----------------------------------------
Total Dipole Moment    :     -0.24133      -0.48095       0.32681
                        -----------------------------------------
Magnitude (a.u.)       :      0.62957
Magnitude (Debye)      :      1.60023

Rotational constants in cm-1:     0.160169     0.048830     0.039327
Rotational constants in MHz :  4801.739129  1463.890322  1179.001060

                             ****ORCA TERMINATED NORMALLY****
TOTAL RUN TIME: 0 days 0 hours 1 minutes 28 seconds 337 msec
