                         Program Version 5.0.3 -  RELEASE  -
|  1> ! PBEh-3c def2/J TightSCF DefGrid3
|  2>
|  3> %maxcore 60000
|  4>
|  5> %pal
|  6> nprocs 4
|  7> end
|  8>
|  9> *xyzfile 0 1 ch3nh2.xyz
| 10>
| 11>                          ****END OF INPUT****

CARTESIAN COORDINATES (ANGSTROEM)
---------------------------------
  C     -0.740440    0.000000    0.013778
  N      0.722205    0.000000   -0.072891
  H     -1.142877    0.000000    1.032894
  H     -1.128064    0.877640   -0.503077
  H     -1.128064   -0.877640   -0.503077
  H      1.093148   -0.807607    0.411018
  H      1.093148    0.807607    0.411018

 Total Charge           Charge          ....    0
 Multiplicity           Mult            ....    1
 Number of Electrons    NEL             ....   18
 Basis Dimension        Dim             ....   40

ORBITAL ENERGIES
----------------

  NO   OCC          E(Eh)            E(eV)
   0   2.0000     -14.603784      -397.3892
   1   2.0000     -10.446454      -284.2625
   2   2.0000      -0.964088       -26.2342
   3   2.0000      -0.734256       -19.9801
   4   2.0000      -0.545396       -14.8410
   5   2.0000      -0.492670       -13.4062
   6   2.0000      -0.452634       -12.3168
   7   2.0000      -0.416541       -11.3347
   8   2.0000      -0.282719        -7.6932
   9   0.0000       0.138071         3.7571
  10   0.0000       0.200769         5.4632
  11   0.0000       0.212692         5.7877
  12   0.0000       0.228298         6.2123
  13   0.0000       0.233144         6.3442

MULLIKEN ATOMIC CHARGES
-----------------------
   0 C :   -0.500761
   1 N :   -0.737784
   2 H :    0.180234
   3 H :    0.215939
   4 H :    0.215939
   5 H :    0.313216
   6 H :    0.313216
Sum of atomic charges:   -0.0000000

LOEWDIN ATOMIC CHARGES
----------------------
   0 C :   -0.278993
   1 N :   -0.487685
   2 H :    0.090786
   3 H :    0.120156
   4 H :    0.120156
   5 H :    0.217790
   6 H :    0.217790

  Mayer bond orders larger than 0.100000
B(  0-C ,  1-N ) :   1.0333 B(  0-C ,  2-H ) :   0.9177 B(  0-C ,  3-H ) :   0.9266
B(  0-C ,  4-H ) :   0.9266 B(  1-N ,  5-H ) :   0.8677 B(  1-N ,  6-H ) :   0.8677

Dispersion correction           -0.001524958
FINAL SINGLE POINT ENERGY       -95.642724456092

DIPOLE MOMENT
-------------
                                X             Y             Z
Electronic contribution:      1.02504      -0.00000      -0.21297
Nuclear contribution   :     -1.13377       0.00000       0.79589
                        -----------------------------------------
Total Dipole Moment    :     -0.10873      -0.00000       0.58292
                        -----------------------------------------
Magnitude (a.u.)       :      0.59297
Magnitude (Debye)      :      1.50722

Rotational constants in cm-1:     3.461085     0.759873     0.731363
Rotational constants in MHz : 103760.730139 22780.427653 21925.709657

                             ****ORCA TERMINATED NORMALLY****
TOTAL RUN TIME: 0 days 0 hours 0 minutes 54 seconds 963 msec
