                         Program Version 5.0.3 -  RELEASE  -
|  1> ! PBEh-3c def2/J TightSCF DefGrid3
|  2>
|  3> %maxcore 60000
|  4>
|  5> %pal
|  6> nprocs 4
|  7> end
|  8>
|  9> *xyzfile 0 1 r8.xyz
| 10>
| 11>                          ****END OF INPUT****

CARTESIAN COORDINATES (ANGSTROEM)
---------------------------------
  C     -0.724393   -0.246255   -0.294739
  C     -0.854677   -0.882278    1.090972
  C      0.724393    0.246255   -0.294739
  C      0.854677    0.882278    1.090972
  C      0.000000    0.000000    2.027725
  C     -1.079252   -1.183392   -1.434939
  C      1.079252    1.183392   -1.434939
  H     -1.368406    0.640660   -0.337849
  H     -1.890280   -0.970654    1.417473
  H     -0.443413   -1.893453    1.045426
  H      1.368406   -0.640660   -0.337849
  H      1.890280    0.970654    1.417473
  H      0.443413    1.893453    1.045426
  H      0.624528   -0.611886    2.676187
  H     -0.624528    0.611886    2.676187
  H     -0.419231   -2.052738   -1.424606
  H     -0.980444   -0.696075   -2.404549
  H     -2.104813   -1.542170   -1.347238
  H      0.419231    2.052738   -1.424606
  H      0.980444    0.696075   -2.404549
  H      2.104813    1.542170   -1.347238

 Total Charge           Charge          ....    0
 Multiplicity           Mult            ....    1
 Number of Electrons    NEL             ....   56
 Basis Dimension        Dim             ....  133

ORBITAL ENERGIES
----------------

  NO   OCC          E(Eh)            E(eV)
   0   2.0000     -10.430854      -283.8380
   1   2.0000     -10.430618      -283.8316
   2   2.0000     -10.423996      -283.6514
   3   2.0000     -10.422628      -283.6141
   4   2.0000     -10.422609      -283.6136
   5   2.0000     -10.418133      -283.4918
   6   2.0000     -10.418132      -283.4918
   7   2.0000      -0.938093       -25.5268
   8   2.0000      -0.827522       -22.5180
   9   2.0000      -0.826158       -22.4809
  10   2.0000      -0.741575       -20.1793
  11   2.0000      -0.712809       -19.3965
  12   2.0000      -0.627900       -17.0860
  13   2.0000      -0.619239       -16.8503
  14   2.0000      -0.525813       -14.3081
  15   2.0000      -0.515320       -14.0226
  16   2.0000      -0.489036       -13.3073
  17   2.0000      -0.485867       -13.2211
  18   2.0000      -0.470559       -12.8045
  19   2.0000      -0.436976       -11.8907
  20   2.0000      -0.429565       -11.6891
  21   2.0000      -0.410161       -11.1610
  22   2.0000      -0.379571       -10.3287
  23   2.0000      -0.376335       -10.2406
  24   2.0000      -0.368164       -10.0182
  25   2.0000      -0.357914        -9.7393
  26   2.0000      -0.355060        -9.6617
  27   2.0000      -0.345018        -9.3884
  28   0.0000       0.128442         3.4951
  29   0.0000       0.152198         4.1415
  30   0.0000       0.154847         4.2136
  31   0.0000       0.168437         4.5834
  32   0.0000       0.197665         5.3787

MULLIKEN ATOMIC CHARGES
-----------------------
   0 C :   -0.211794
   1 C :   -0.417533
   2 C :   -0.211794
   3 C :   -0.417533
   4 C :   -0.428739
   5 C :   -0.636599
   6 C :   -0.636599
   7 H :    0.200201
   8 H :    0.218894
   9 H :    0.205448
  10 H :    0.200201
  11 H :    0.218894
  12 H :    0.205448
  13 H :    0.216868
  14 H :    0.216868
  15 H :    0.203423
  16 H :    0.216903
  17 H :    0.218558
  18 H :    0.203423
  19 H :    0.216903
  20 H :    0.218558
Sum of atomic charges:   -0.0000000

LOEWDIN ATOMIC CHARGES
----------------------
   0 C :   -0.153877
   1 C :   -0.234618
   2 C :   -0.153877
   3 C :   -0.234618
   4 C :   -0.243026
   5 C :   -0.352449
   6 C :   -0.352449
   7 H :    0.117554
   8 H :    0.124004
   9 H :    0.120531
  10 H :    0.117554
  11 H :    0.124004
  12 H :    0.120531
  13 H :    0.124355
  14 H :    0.124355
  15 H :    0.123149
  16 H :    0.125290
  17 H :    0.127576
  18 H :    0.123149
  19 H :    0.125290
  20 H :    0.127576

  Mayer bond orders larger than 0.100000
B(  0-C ,  1-C ) :   0.9805 B(  0-C ,  2-C ) :   0.9612 B(  0-C ,  5-C ) :   1.0003
B(  0-C ,  7-H ) :   0.9071 B(  1-C ,  4-C ) :   0.9721 B(  1-C ,  8-H ) :   0.9310
B(  1-C ,  9-H ) :   0.9249 B(  2-C ,  3-C ) :   0.9805 B(  2-C ,  6-C ) :   1.0003
B(  2-C , 10-H ) :   0.9071 B(  3-C ,  4-C ) :   0.9721 B(  3-C , 11-H ) :   0.9310
B(  3-C , 12-H ) :   0.9249 B(  4-C , 13-H ) :   0.9324 B(  4-C , 14-H ) :   0.9324
B(  5-C , 15-H ) :   0.9276 B(  5-C , 16-H ) :   0.9281 B(  5-C , 17-H ) :   0.9307
B(  6-C , 18-H ) :   0.9276 B(  6-C , 19-H ) :   0.9281 B(  6-C , 20-H ) :   0.9307

Dispersion correction           -0.010906770
FINAL SINGLE POINT ENERGY      -274.587994667566

DIPOLE MOMENT
-------------
                                X             Y             Z
Electronic contribution:     -0.00000       0.00000       1.81259
Nuclear contribution   :     -0.00000       0.00000      -1.80827
                        -----------------------------------------
Total Dipole Moment    :     -0.00000       0.00000       0.00432
                        -----------------------------------------
Magnitude (a.u.)       :      0.00432
Magnitude (Debye)      :      0.01099

Rotational constants in cm-1:     0.105169     0.091765     0.053532
Rotational constants in MHz :  3152.899249  2751.051868  1604.842964

                             ****ORCA TERMINATED NORMALLY****
TOTAL RUN TIME: 0 days 0 hours 1 minutes 8 seconds 871 msec
