                         Program Version 5.0.3 -  RELEASE  -
|  1> ! PBEh-3c def2/J TightSCF DefGrid3
|  2>
|  3> %maxcore 60000
|  4>
|  5> %pal
|  6> nprocs 4
|  7> end
|  8>
|  9> *xyzfile 0 1 04B.xyz
| 10>
| 11>                          ****END OF INPUT****

CARTESIAN COORDINATES (ANGSTROEM)
---------------------------------
  C     -1.452627   -1.215349    0.000000
  H     -0.802179   -2.086296    0.000000
  H     -2.100115   -1.243100   -0.872989
  H     -2.100115   -1.243100    0.872989
  C     -0.697325    0.089088    0.000000
  O     -1.274462    1.175501    0.000000
  N      0.654310   -0.015674    0.000000
  H      1.055566   -0.935240    0.000000
  C      1.523227    1.140977    0.000000
  H      0.886199    2.019289    0.000000
  H      2.154799    1.156369    0.886157
  H      2.154799    1.156369   -0.886157

 Total Charge           Charge          ....    0
 Multiplicity           Mult            ....    1
 Number of Electrons    NEL             ....   40
 Basis Dimension        Dim             ....   89

ORBITAL ENERGIES
----------------

  NO   OCC          E(Eh)            E(eV)
   0   2.0000     -19.444469      -529.1109
   1   2.0000     -14.661391      -398.9567
   2   2.0000     -10.542301      -286.8706
   3   2.0000     -10.464071      -284.7418
   4   2.0000     -10.440323      -284.0956
   5   2.0000      -1.130744       -30.7691
   6   2.0000      -1.017765       -27.6948
   7   2.0000      -0.841548       -22.8997
   8   2.0000      -0.769857       -20.9489
   9   2.0000      -0.654307       -17.8046
  10   2.0000      -0.569923       -15.5084
  11   2.0000      -0.529632       -14.4120
  12   2.0000      -0.520537       -14.1645
  13   2.0000      -0.482494       -13.1293
  14   2.0000      -0.461465       -12.5571
  15   2.0000      -0.453195       -12.3321
  16   2.0000      -0.440578       -11.9887
  17   2.0000      -0.402787       -10.9604
  18   2.0000      -0.300840        -8.1863
  19   2.0000      -0.297946        -8.1075
  20   0.0000       0.069572         1.8932
  21   0.0000       0.119856         3.2614
  22   0.0000       0.176242         4.7958
  23   0.0000       0.188505         5.1295
  24   0.0000       0.201819         5.4918

MULLIKEN ATOMIC CHARGES
-----------------------
   0 C :   -0.747687
   1 H :    0.204958
   2 H :    0.259722
   3 H :    0.259722
   4 C :    0.521316
   5 O :   -0.438429
   6 N :   -0.624852
   7 H :    0.351271
   8 C :   -0.493765
   9 H :    0.271803
  10 H :    0.217970
  11 H :    0.217970
Sum of atomic charges:   -0.0000000

LOEWDIN ATOMIC CHARGES
----------------------
   0 C :   -0.388982
   1 H :    0.123589
   2 H :    0.157256
   3 H :    0.157256
   4 C :    0.104188
   5 O :   -0.294419
   6 N :   -0.248888
   7 H :    0.249664
   8 C :   -0.259752
   9 H :    0.157563
  10 H :    0.121262
  11 H :    0.121262

  Mayer bond orders larger than 0.100000
B(  0-C ,  1-H ) :   0.9226 B(  0-C ,  2-H ) :   0.9098 B(  0-C ,  3-H ) :   0.9098
B(  0-C ,  4-C ) :   0.9260 B(  4-C ,  5-O ) :   1.9868 B(  4-C ,  6-N ) :   1.1406
B(  6-N ,  7-H ) :   0.8297 B(  6-N ,  8-C ) :   0.9482 B(  8-C ,  9-H ) :   0.8938
B(  8-C , 10-H ) :   0.9223 B(  8-C , 11-H ) :   0.9223

Dispersion correction           -0.004434235
FINAL SINGLE POINT ENERGY      -247.988744466225

DIPOLE MOMENT
-------------
                                X             Y             Z
Electronic contribution:     -1.73022       1.54791       0.00000
Nuclear contribution   :      2.73309      -2.66999       0.00000
                        -----------------------------------------
Total Dipole Moment    :      1.00287      -1.12208       0.00000
                        -----------------------------------------
Magnitude (a.u.)       :      1.50493
Magnitude (Debye)      :      3.82522

Rotational constants in cm-1:     0.335060     0.129536     0.096765
Rotational constants in MHz : 10044.834708  3883.404745  2900.952542

                             ****ORCA TERMINATED NORMALLY****
TOTAL RUN TIME: 0 days 0 hours 1 minutes 16 seconds 233 msec
