                         Program Version 5.0.3 -  RELEASE  -
|  1> ! PBEh-3c def2/J TightSCF DefGrid3
|  2>
|  3> %maxcore 60000
|  4>
|  5> %pal
|  6> nprocs 4
|  7> end
|  8>
|  9> *xyzfile 0 1 BrBr_pyr.xyz
| 10>
| 11>                          ****END OF INPUT****

CARTESIAN COORDINATES (ANGSTROEM)
---------------------------------
  Br     0.000000    0.000000    3.085849
  Br     0.000000    0.000000    0.765138
  C      0.000000    1.142949   -2.491199
  C      0.000000    1.192801   -3.875067
  C      0.000000    0.000000   -4.578997
  C      0.000000   -1.192801   -3.875067
  C      0.000000   -1.142949   -2.491199
  N      0.000000    0.000000   -1.813080
  H      0.000000    2.050443   -1.897651
  H      0.000000    2.147023   -4.383490
  H      0.000000    0.000000   -5.661508
  H      0.000000   -2.147023   -4.383490
  H      0.000000   -2.050443   -1.897651

 Total Charge           Charge          ....    0
 Multiplicity           Mult            ....    1
 Number of Electrons    NEL             ....  112
 Basis Dimension        Dim             ....  164

ORBITAL ENERGIES
----------------

  NO   OCC          E(Eh)            E(eV)
   0   2.0000    -484.542642    -13185.0756
   1   2.0000    -484.521118    -13184.4899
   2   2.0000     -63.203806     -1719.8630
   3   2.0000     -63.184010     -1719.3243
   4   2.0000     -56.909362     -1548.5825
   5   2.0000     -56.905003     -1548.4638
   6   2.0000     -56.905001     -1548.4638
   7   2.0000     -56.888732     -1548.0211
   8   2.0000     -56.885732     -1547.9395
   9   2.0000     -56.885710     -1547.9389
  10   2.0000     -14.681520      -399.5045
  11   2.0000     -10.508408      -285.9483
  12   2.0000     -10.508386      -285.9477
  13   2.0000     -10.491716      -285.4941
  14   2.0000     -10.480070      -285.1772
  15   2.0000     -10.480059      -285.1769
  16   2.0000      -9.031749      -245.7664
  17   2.0000      -9.012666      -245.2471
  18   2.0000      -6.810424      -185.3211
  19   2.0000      -6.790843      -184.7882
  20   2.0000      -6.790658      -184.7832
  21   2.0000      -6.788879      -184.7348
  22   2.0000      -6.773433      -184.3145
  23   2.0000      -6.773410      -184.3139
  24   2.0000      -2.823305       -76.8260
  25   2.0000      -2.817584       -76.6704
  26   2.0000      -2.817423       -76.6660
  27   2.0000      -2.801984       -76.2459
  28   2.0000      -2.800684       -76.2105
  29   2.0000      -2.800671       -76.2101
  30   2.0000      -2.797530       -76.1247
  31   2.0000      -2.797516       -76.1243
  32   2.0000      -2.784307       -75.7648
  33   2.0000      -2.784286       -75.7643
  34   2.0000      -1.084639       -29.5145
  35   2.0000      -0.928881       -25.2761
  36   2.0000      -0.897544       -24.4234
  37   2.0000      -0.883229       -24.0339
  38   2.0000      -0.775231       -21.0951
  39   2.0000      -0.739077       -20.1113
  40   2.0000      -0.733245       -19.9526
  41   2.0000      -0.627388       -17.0721
  42   2.0000      -0.576910       -15.6985
  43   2.0000      -0.557883       -15.1808
  44   2.0000      -0.517526       -14.0826
  45   2.0000      -0.500156       -13.6099
  46   2.0000      -0.488244       -13.2858
  47   2.0000      -0.446992       -12.1633
  48   2.0000      -0.439779       -11.9670
  49   2.0000      -0.380872       -10.3641
  50   2.0000      -0.380221       -10.3464
  51   2.0000      -0.360653        -9.8139
  52   2.0000      -0.335798        -9.1375
  53   2.0000      -0.330628        -8.9968
  54   2.0000      -0.298132        -8.1126
  55   2.0000      -0.296472        -8.0674
  56   0.0000      -0.060105        -1.6355
  57   0.0000      -0.028961        -0.7881
  58   0.0000      -0.012458        -0.3390
  59   0.0000       0.128587         3.4990
  60   0.0000       0.161333         4.3901

MULLIKEN ATOMIC CHARGES
-----------------------
   0 Br:   -0.132034
   1 Br:    0.011869
   2 C :    0.017319
   3 C :   -0.312516
   4 C :   -0.116625
   5 C :   -0.312516
   6 C :    0.017319
   7 N :   -0.426410
   8 H :    0.258099
   9 H :    0.245711
  10 H :    0.245976
  11 H :    0.245711
  12 H :    0.258099
Sum of atomic charges:   -0.0000000

LOEWDIN ATOMIC CHARGES
----------------------
   0 Br:   -0.124783
   1 Br:    0.001055
   2 C :   -0.042437
   3 C :   -0.154473
   4 C :   -0.090484
   5 C :   -0.154473
   6 C :   -0.042437
   7 N :   -0.119687
   8 H :    0.141714
   9 H :    0.148890
  10 H :    0.146508
  11 H :    0.148890
  12 H :    0.141714

  Mayer bond orders larger than 0.100000
B(  0-Br,  1-Br) :   0.9467 B(  1-Br,  7-N ) :   0.1392 B(  2-C ,  3-C ) :   1.3930
B(  2-C ,  7-N ) :   1.4289 B(  2-C ,  8-H ) :   0.9040 B(  3-C ,  4-C ) :   1.4056
B(  3-C ,  9-H ) :   0.9092 B(  4-C ,  5-C ) :   1.4056 B(  4-C , 10-H ) :   0.9145
B(  5-C ,  6-C ) :   1.3930 B(  5-C , 11-H ) :   0.9092 B(  6-C ,  7-N ) :   1.4289
B(  6-C , 12-H ) :   0.9040

Dispersion correction           -0.007247439
FINAL SINGLE POINT ENERGY     -5393.756155052116

DIPOLE MOMENT
-------------
                                X             Y             Z
Electronic contribution:     -0.00000      -0.00000      47.27060
Nuclear contribution   :      0.00000      -0.00000     -49.61150
                        -----------------------------------------
Total Dipole Moment    :     -0.00000      -0.00000      -2.34090
                        -----------------------------------------
Magnitude (a.u.)       :      2.34090
Magnitude (Debye)      :      5.95011

Rotational constants in cm-1:     0.202306     0.010031     0.009558
Rotational constants in MHz :  6064.966740   300.734726   286.527120

                             ****ORCA TERMINATED NORMALLY****
TOTAL RUN TIME: 0 days 0 hours 2 minutes 8 seconds 600 msec
