                         Program Version 5.0.3 -  RELEASE  -
|  1> ! PBEh-3c def2/J TightSCF DefGrid3
|  2>
|  3> %maxcore 60000
|  4>
|  5> %pal
|  6> nprocs 4
|  7> end
|  8>
|  9> *xyzfile 0 2 P3.xyz
| 10>
| 11>                          ****END OF INPUT****

CARTESIAN COORDINATES (ANGSTROEM)
---------------------------------
  N     -2.687447    0.006398    0.000000
  C     -1.515443    0.067890    0.000000
  C     -0.187967    0.227854    0.000000
  C      1.088858   -0.025161    0.000000
  H      1.470899   -1.046539    0.000000
  H      1.831100    0.769557    0.000000

 Total Charge           Charge          ....    0
 Multiplicity           Mult            ....    2
 Number of Electrons    NEL             ....   27
 Basis Dimension        Dim             ....   64

ORBITAL ENERGIES
----------------
                 SPIN UP ORBITALS
  NO   OCC          E(Eh)            E(eV)
   0   1.0000     -14.677892      -399.4057
   1   1.0000     -10.526232      -286.4333
   2   1.0000     -10.511352      -286.0284
   3   1.0000     -10.500383      -285.7299
   4   1.0000      -1.037597       -28.2345
   5   1.0000      -0.922146       -25.0929
   6   1.0000      -0.779900       -21.2222
   7   1.0000      -0.594397       -16.1744
   8   1.0000      -0.555500       -15.1159
   9   1.0000      -0.461929       -12.5697
  10   1.0000      -0.459881       -12.5140
  11   1.0000      -0.452683       -12.3181
  12   1.0000      -0.351583        -9.5671
  13   1.0000      -0.303649        -8.2627
  14   0.0000      -0.050808        -1.3826
  15   0.0000       0.088826         2.4171
  16   0.0000       0.150843         4.1046
  17   0.0000       0.169756         4.6193
  18   0.0000       0.207115         5.6359

                 SPIN DOWN ORBITALS
  NO   OCC          E(Eh)            E(eV)
   0   1.0000     -14.665943      -399.0806
   1   1.0000     -10.516953      -286.1808
   2   1.0000     -10.510722      -286.0113
   3   1.0000     -10.504246      -285.8351
   4   1.0000      -1.016932       -27.6721
   5   1.0000      -0.898049       -24.4372
   6   1.0000      -0.768749       -20.9187
   7   1.0000      -0.583661       -15.8822
   8   1.0000      -0.532607       -14.4930
   9   1.0000      -0.449706       -12.2371
  10   1.0000      -0.441778       -12.0214
  11   1.0000      -0.412253       -11.2180
  12   1.0000      -0.344510        -9.3746
  13   0.0000      -0.091444        -2.4883
  14   0.0000      -0.045354        -1.2341
  15   0.0000       0.125465         3.4141
  16   0.0000       0.156128         4.2485
  17   0.0000       0.180530         4.9125

MULLIKEN ATOMIC CHARGES AND SPIN POPULATIONS
--------------------------------------------
   0 N :   -0.160658    0.545167
   1 C :   -0.025284   -0.352466
   2 C :    0.217780    0.950006
   3 C :   -0.558153   -0.279403
   4 H :    0.260323    0.077416
   5 H :    0.265992    0.059281
Sum of atomic charges         :   -0.0000000

LOEWDIN ATOMIC CHARGES AND SPIN POPULATIONS
-------------------------------------------
   0 N :   -0.042081    0.484464
   1 C :   -0.043796   -0.188544
   2 C :   -0.019816    0.765301
   3 C :   -0.219129   -0.167546
   4 H :    0.162263    0.060746
   5 H :    0.162558    0.045579

  Mayer bond orders larger than 0.100000
B(  0-N ,  1-C ) :   2.8325 B(  0-N ,  3-C ) :   0.1049 B(  1-C ,  2-C ) :   1.2200
B(  2-C ,  3-C ) :   1.8231 B(  3-C ,  4-H ) :   0.8940 B(  3-C ,  5-H ) :   0.8941

Dispersion correction           -0.001821517
FINAL SINGLE POINT ENERGY      -169.765378842871

DIPOLE MOMENT
-------------
                                X             Y             Z
Electronic contribution:     -3.08440       0.30806       0.00000
Nuclear contribution   :      4.59040      -0.37046       0.00000
                        -----------------------------------------
Total Dipole Moment    :      1.50600      -0.06240       0.00000
                        -----------------------------------------
Magnitude (a.u.)       :      1.50729
Magnitude (Debye)      :      3.83124

Rotational constants in cm-1:     7.634251     0.145859     0.143124
Rotational constants in MHz : 228869.078218  4372.728726  4290.750471

                             ****ORCA TERMINATED NORMALLY****
TOTAL RUN TIME: 0 days 0 hours 3 minutes 54 seconds 224 msec
