                         Program Version 5.0.3 -  RELEASE  -
|  1> ! PBEh-3c def2/J TightSCF DefGrid3
|  2>
|  3> %maxcore 60000
|  4>
|  5> %pal
|  6> nprocs 4
|  7> end
|  8>
|  9> *xyzfile 0 1 te2me2.xyz
| 10>
| 11>                          ****END OF INPUT****

CARTESIAN COORDINATES (ANGSTROEM)
---------------------------------
  Te    -0.104164   -1.341620   -1.427591
  Te     0.104164    1.341620   -1.427591
  C     -1.371460    1.765046    0.158059
  C      1.371460   -1.765046    0.158059
  H      2.342285   -1.346208   -0.103976
  H      1.041759   -1.349753    1.109623
  H      1.472267   -2.847671    0.263884
  H     -2.342285    1.346208   -0.103976
  H     -1.041759    1.349753    1.109623
  H     -1.472267    2.847671    0.263884

 Total Charge           Charge          ....    0
 Multiplicity           Mult            ....    1
 Number of Electrons    NEL             ....   66
 Basis Dimension        Dim             ....   94

ORBITAL ENERGIES
----------------

  NO   OCC          E(Eh)            E(eV)
   0   2.0000     -10.462055      -284.6870
   1   2.0000     -10.462049      -284.6868
   2   2.0000      -6.505609      -177.0266
   3   2.0000      -6.505583      -177.0259
   4   2.0000      -4.598957      -125.1440
   5   2.0000      -4.598734      -125.1379
   6   2.0000      -4.594804      -125.0310
   7   2.0000      -4.594731      -125.0290
   8   2.0000      -4.583669      -124.7280
   9   2.0000      -4.583668      -124.7279
  10   2.0000      -1.710133       -46.5351
  11   2.0000      -1.706766       -46.4435
  12   2.0000      -1.706642       -46.4401
  13   2.0000      -1.704372       -46.3783
  14   2.0000      -1.696206       -46.1561
  15   2.0000      -1.696166       -46.1550
  16   2.0000      -1.692757       -46.0623
  17   2.0000      -1.692596       -46.0579
  18   2.0000      -1.691006       -46.0146
  19   2.0000      -1.689678       -45.9785
  20   2.0000      -0.805084       -21.9075
  21   2.0000      -0.792047       -21.5527
  22   2.0000      -0.695201       -18.9174
  23   2.0000      -0.610224       -16.6050
  24   2.0000      -0.479141       -13.0381
  25   2.0000      -0.474441       -12.9102
  26   2.0000      -0.474167       -12.9027
  27   2.0000      -0.470857       -12.8127
  28   2.0000      -0.383032       -10.4228
  29   2.0000      -0.362398        -9.8613
  30   2.0000      -0.322904        -8.7867
  31   2.0000      -0.255828        -6.9614
  32   2.0000      -0.252378        -6.8675
  33   0.0000      -0.042482        -1.1560
  34   0.0000       0.011510         0.3132
  35   0.0000       0.012761         0.3472
  36   0.0000       0.141406         3.8479
  37   0.0000       0.167047         4.5456

MULLIKEN ATOMIC CHARGES
-----------------------
   0 Te:    0.087952
   1 Te:    0.087952
   2 C :   -0.847995
   3 C :   -0.847995
   4 H :    0.260708
   5 H :    0.253094
   6 H :    0.246241
   7 H :    0.260708
   8 H :    0.253094
   9 H :    0.246241
Sum of atomic charges:   -0.0000000

LOEWDIN ATOMIC CHARGES
----------------------
   0 Te:    0.090940
   1 Te:    0.090940
   2 C :   -0.519306
   3 C :   -0.519306
   4 H :    0.144978
   5 H :    0.140741
   6 H :    0.142646
   7 H :    0.144978
   8 H :    0.140741
   9 H :    0.142646

  Mayer bond orders larger than 0.100000
B(  0-Te,  1-Te) :   1.1274 B(  0-Te,  3-C ) :   0.9698 B(  1-Te,  2-C ) :   0.9698
B(  2-C ,  7-H ) :   0.9016 B(  2-C ,  8-H ) :   0.9045 B(  2-C ,  9-H ) :   0.9037
B(  3-C ,  4-H ) :   0.9016 B(  3-C ,  5-H ) :   0.9045 B(  3-C ,  6-H ) :   0.9037

Dispersion correction           -0.004424439
FINAL SINGLE POINT ENERGY      -615.775215050764

DIPOLE MOMENT
-------------
                                X             Y             Z
Electronic contribution:     -0.00000      -0.00000     -34.76849
Nuclear contribution   :     -0.00000       0.00000      35.39475
                        -----------------------------------------
Total Dipole Moment    :     -0.00000      -0.00000       0.62626
                        -----------------------------------------
Magnitude (a.u.)       :      0.62626
Magnitude (Debye)      :      1.59182

Rotational constants in cm-1:     0.123516     0.027040     0.026536
Rotational constants in MHz :  3702.905025   810.645539   795.535256

                             ****ORCA TERMINATED NORMALLY****
TOTAL RUN TIME: 0 days 0 hours 1 minutes 48 seconds 960 msec
