                         Program Version 5.0.3 -  RELEASE  -
|  1> ! PBEh-3c def2/J TightSCF DefGrid3
|  2>
|  3> %maxcore 60000
|  4>
|  5> %pal
|  6> nprocs 4
|  7> end
|  8>
|  9> *xyzfile 0 1 c2h2Ar.xyz
| 10>
| 11>                          ****END OF INPUT****

CARTESIAN COORDINATES (ANGSTROEM)
---------------------------------
  H     -1.666650    0.000000   -0.793766
  C     -0.603250    0.000000   -0.793766
  C      0.603250    0.000000   -0.793766
  H      1.666650    0.000000   -0.793766
  Ar     0.000000    0.000000    3.175063

 Total Charge           Charge          ....    0
 Multiplicity           Mult            ....    1
 Number of Electrons    NEL             ....   32
 Basis Dimension        Dim             ....   52

ORBITAL ENERGIES
----------------

  NO   OCC          E(Eh)            E(eV)
   0   2.0000    -115.887526     -3153.4599
   1   2.0000     -11.446513      -311.4754
   2   2.0000     -10.457656      -284.5673
   3   2.0000     -10.455190      -284.5002
   4   2.0000      -8.921285      -242.7605
   5   2.0000      -8.921256      -242.7597
   6   2.0000      -8.921163      -242.7572
   7   2.0000      -1.044446       -28.4208
   8   2.0000      -0.841124       -22.8882
   9   2.0000      -0.638441       -17.3729
  10   2.0000      -0.559929       -15.2364
  11   2.0000      -0.465370       -12.6634
  12   2.0000      -0.465086       -12.6556
  13   2.0000      -0.464713       -12.6455
  14   2.0000      -0.338733        -9.2174
  15   2.0000      -0.338478        -9.2105
  16   0.0000       0.069822         1.8999
  17   0.0000       0.069906         1.9022
  18   0.0000       0.161546         4.3959
  19   0.0000       0.208539         5.6746
  20   0.0000       0.422906        11.5079

MULLIKEN ATOMIC CHARGES
-----------------------
   0 H :    0.237243
   1 C :   -0.237753
   2 C :   -0.237753
   3 H :    0.237243
   4 Ar:    0.001019
Sum of atomic charges:   -0.0000000

LOEWDIN ATOMIC CHARGES
----------------------
   0 H :    0.163000
   1 C :   -0.163646
   2 C :   -0.163646
   3 H :    0.163000
   4 Ar:    0.001291

  Mayer bond orders larger than 0.100000
B(  0-H ,  1-C ) :   0.9283 B(  1-C ,  2-C ) :   2.8346 B(  2-C ,  3-H ) :   0.9283

Dispersion correction           -0.001027080
FINAL SINGLE POINT ENERGY      -604.117268419008

DIPOLE MOMENT
-------------
                                X             Y             Z
Electronic contribution:     -0.00000      -0.00000      10.29242
Nuclear contribution   :     -0.00000       0.00000     -10.29628
                        -----------------------------------------
Total Dipole Moment    :     -0.00000      -0.00000      -0.00386
                        -----------------------------------------
Magnitude (a.u.)       :      0.00386
Magnitude (Debye)      :      0.00981

Rotational constants in cm-1:     1.175425     0.067892     0.064185
Rotational constants in MHz : 35238.348898  2035.363331  1924.220554

                             ****ORCA TERMINATED NORMALLY****
TOTAL RUN TIME: 0 days 0 hours 1 minutes 4 seconds 804 msec
