                         Program Version 5.0.3 -  RELEASE  -
|  1> ! PBEh-3c def2/J TightSCF DefGrid3
|  2>
|  3> %maxcore 60000
|  4>
|  5> %pal
|  6> nprocs 4
|  7> end
|  8>
|  9> *xyzfile 0 1 148.xyz
| 10>
| 11>                          ****END OF INPUT****

CARTESIAN COORDINATES (ANGSTROEM)
---------------------------------
  C      1.053720   -0.013400   -0.387760
  N     -0.184590   -0.013380    0.251910
  C      0.033260   -0.013370    1.587460
  N      1.347050   -0.013380    1.807940
  C      2.009050   -0.013380    0.598980
  C     -1.505760   -0.013380   -0.396870
  H      1.664740   -0.013380    2.774270
  H     -0.707370   -0.013370    2.377550
  H      3.088250   -0.013370    0.535960
  H      1.137000   -0.013410   -1.466220
  H     -1.365520   -0.013360   -1.480850
  H     -2.065670   -0.909000   -0.106090
  H     -2.065690    0.882220   -0.106070
  Cl     1.537510   -0.013380    4.633060

 Total Charge           Charge          ....    0
 Multiplicity           Mult            ....    1
 Number of Electrons    NEL             ....   62
 Basis Dimension        Dim             ....  122

ORBITAL ENERGIES
----------------

  NO   OCC          E(Eh)            E(eV)
   0   2.0000    -102.104727     -2778.4109
   1   2.0000     -14.778890      -402.1540
   2   2.0000     -14.728358      -400.7790
   3   2.0000     -10.576726      -287.8073
   4   2.0000     -10.544121      -286.9201
   5   2.0000     -10.540999      -286.8352
   6   2.0000     -10.534044      -286.6459
   7   2.0000      -9.569855      -260.4090
   8   2.0000      -7.253954      -197.3901
   9   2.0000      -7.252079      -197.3391
  10   2.0000      -7.251760      -197.3304
  11   2.0000      -1.205445       -32.8018
  12   2.0000      -1.072438       -29.1825
  13   2.0000      -0.915650       -24.9161
  14   2.0000      -0.871678       -23.7196
  15   2.0000      -0.762506       -20.7489
  16   2.0000      -0.724708       -19.7203
  17   2.0000      -0.712348       -19.3840
  18   2.0000      -0.680080       -18.5059
  19   2.0000      -0.598357       -16.2821
  20   2.0000      -0.584701       -15.9105
  21   2.0000      -0.570823       -15.5329
  22   2.0000      -0.556543       -15.1443
  23   2.0000      -0.548411       -14.9230
  24   2.0000      -0.524437       -14.2706
  25   2.0000      -0.514253       -13.9935
  26   2.0000      -0.401878       -10.9357
  27   2.0000      -0.340646        -9.2695
  28   2.0000      -0.226423        -6.1613
  29   2.0000      -0.211383        -5.7520
  30   2.0000      -0.208184        -5.6650
  31   0.0000      -0.020102        -0.5470
  32   0.0000       0.015020         0.4087
  33   0.0000       0.084543         2.3005
  34   0.0000       0.113385         3.0854
  35   0.0000       0.127975         3.4824

MULLIKEN ATOMIC CHARGES
-----------------------
   0 C :   -0.090506
   1 N :   -0.421765
   2 C :    0.239090
   3 N :   -0.524432
   4 C :   -0.035104
   5 C :   -0.499953
   6 H :    0.374213
   7 H :    0.331656
   8 H :    0.286779
   9 H :    0.279292
  10 H :    0.255783
  11 H :    0.268558
  12 H :    0.268558
  13 Cl:   -0.732170
Sum of atomic charges:   -0.0000000

LOEWDIN ATOMIC CHARGES
----------------------
   0 C :   -0.101050
   1 N :   -0.018213
   2 C :    0.043367
   3 N :   -0.080039
   4 C :   -0.074025
   5 C :   -0.233826
   6 H :    0.251559
   7 H :    0.182351
   8 H :    0.165353
   9 H :    0.156391
  10 H :    0.149769
  11 H :    0.151049
  12 H :    0.151049
  13 Cl:   -0.743734

  Mayer bond orders larger than 0.100000
B(  0-C ,  1-N ) :   1.1314 B(  0-C ,  4-C ) :   1.6199 B(  0-C ,  9-H ) :   0.8900
B(  1-N ,  2-C ) :   1.2473 B(  1-N ,  5-C ) :   0.8949 B(  2-C ,  3-N ) :   1.3950
B(  2-C ,  7-H ) :   0.8626 B(  3-N ,  4-C ) :   1.1903 B(  3-N ,  6-H ) :   0.5028
B(  4-C ,  8-H ) :   0.8951 B(  5-C , 10-H ) :   0.9149 B(  5-C , 11-H ) :   0.9010
B(  5-C , 12-H ) :   0.9010 B(  6-H , 13-Cl) :   0.4326

Dispersion correction           -0.006773329
FINAL SINGLE POINT ENERGY      -725.241709703972

DIPOLE MOMENT
-------------
                                X             Y             Z
Electronic contribution:      4.52153       0.00001       8.12931
Nuclear contribution   :     -6.30785      -0.00000     -13.21892
                        -----------------------------------------
Total Dipole Moment    :     -1.78632       0.00000      -5.08960
                        -----------------------------------------
Magnitude (a.u.)       :      5.39398
Magnitude (Debye)      :     13.71041

Rotational constants in cm-1:     0.168141     0.031101     0.026379
Rotational constants in MHz :  5040.738845   932.375461   790.817974

                             ****ORCA TERMINATED NORMALLY****
TOTAL RUN TIME: 0 days 0 hours 1 minutes 17 seconds 277 msec
