                         Program Version 5.0.3 -  RELEASE  -
|  1> ! PBEh-3c def2/J TightSCF DefGrid3
|  2>
|  3> %maxcore 60000
|  4>
|  5> %pal
|  6> nprocs 4
|  7> end
|  8>
|  9> *xyzfile 0 1 28_CH3I-benA.xyz
| 10>
| 11>                          ****END OF INPUT****

CARTESIAN COORDINATES (ANGSTROEM)
---------------------------------
  H      0.022107    0.337720    0.044305
  C      0.026919    0.297157    1.127793
  C      1.232420    0.374285    1.823206
  C      1.238505    0.318304    3.215636
  C      0.039447    0.184541    3.913255
  C     -1.166220    0.107113    3.218629
  C     -1.172980    0.163913    1.825515
  H      2.165532    0.474316    1.280310
  H      2.176629    0.375131    3.756175
  H      0.044717    0.137041    4.996381
  H     -2.098862   -0.000563    3.760947
  H     -2.110703    0.101605    1.284610

 Total Charge           Charge          ....    0
 Multiplicity           Mult            ....    1
 Number of Electrons    NEL             ....   42
 Basis Dimension        Dim             ....  102

ORBITAL ENERGIES
----------------

  NO   OCC          E(Eh)            E(eV)
   0   2.0000     -10.449146      -284.3357
   1   2.0000     -10.448911      -284.3293
   2   2.0000     -10.448906      -284.3292
   3   2.0000     -10.448318      -284.3132
   4   2.0000     -10.448287      -284.3124
   5   2.0000     -10.448058      -284.3061
   6   2.0000      -0.952100       -25.9080
   7   2.0000      -0.835343       -22.7308
   8   2.0000      -0.835259       -22.7285
   9   2.0000      -0.678639       -18.4667
  10   2.0000      -0.678590       -18.4654
  11   2.0000      -0.591444       -16.0940
  12   2.0000      -0.525093       -14.2885
  13   2.0000      -0.508532       -13.8379
  14   2.0000      -0.481445       -13.1008
  15   2.0000      -0.481374       -13.0988
  16   2.0000      -0.420941       -11.4544
  17   2.0000      -0.398088       -10.8325
  18   2.0000      -0.398027       -10.8309
  19   2.0000      -0.292576        -7.9614
  20   2.0000      -0.292501        -7.9593
  21   0.0000       0.019099         0.5197
  22   0.0000       0.019169         0.5216
  23   0.0000       0.139648         3.8000
  24   0.0000       0.196201         5.3389
  25   0.0000       0.200817         5.4645

MULLIKEN ATOMIC CHARGES
-----------------------
   0 H :    0.219783
   1 C :   -0.219876
   2 C :   -0.219637
   3 C :   -0.219704
   4 C :   -0.219637
   5 C :   -0.219780
   6 C :   -0.219972
   7 H :    0.219765
   8 H :    0.219740
   9 H :    0.219760
  10 H :    0.219774
  11 H :    0.219784
Sum of atomic charges:   -0.0000000

LOEWDIN ATOMIC CHARGES
----------------------
   0 H :    0.135760
   1 C :   -0.135764
   2 C :   -0.135790
   3 C :   -0.135746
   4 C :   -0.135785
   5 C :   -0.135772
   6 C :   -0.135734
   7 H :    0.135769
   8 H :    0.135765
   9 H :    0.135767
  10 H :    0.135764
  11 H :    0.135767

  Mayer bond orders larger than 0.100000
B(  0-H ,  1-C ) :   0.9200 B(  1-C ,  2-C ) :   1.4260 B(  1-C ,  6-C ) :   1.4260
B(  2-C ,  3-C ) :   1.4261 B(  2-C ,  7-H ) :   0.9200 B(  3-C ,  4-C ) :   1.4259
B(  3-C ,  8-H ) :   0.9200 B(  4-C ,  5-C ) :   1.4261 B(  4-C ,  9-H ) :   0.9200
B(  5-C ,  6-C ) :   1.4259 B(  5-C , 10-H ) :   0.9200 B(  6-C , 11-H ) :   0.9200

Dispersion correction           -0.005877873
FINAL SINGLE POINT ENERGY      -231.725774991888

DIPOLE MOMENT
-------------
                                X             Y             Z
Electronic contribution:     -0.00071       0.01190       0.00086
Nuclear contribution   :      0.00115      -0.01737      -0.00113
                        -----------------------------------------
Total Dipole Moment    :      0.00044      -0.00547      -0.00027
                        -----------------------------------------
Magnitude (a.u.)       :      0.00549
Magnitude (Debye)      :      0.01396

Rotational constants in cm-1:     0.190327     0.190291     0.095155
Rotational constants in MHz :  5705.847591  5704.787689  2852.660989

                             ****ORCA TERMINATED NORMALLY****
TOTAL RUN TIME: 0 days 0 hours 1 minutes 20 seconds 567 msec
