                         Program Version 5.0.3 -  RELEASE  -
|  1> ! PBEh-3c def2/J TightSCF DefGrid3
|  2>
|  3> %maxcore 60000
|  4>
|  5> %pal
|  6> nprocs 4
|  7> end
|  8>
|  9> *xyzfile 0 1 h2o_4_ts.xyz
| 10>
| 11>                          ****END OF INPUT****

CARTESIAN COORDINATES (ANGSTROEM)
---------------------------------
  O     -1.703649    0.000000    0.039217
  H      0.935877    0.935877    0.000000
  H     -0.935877    0.935877    0.000000
  O      0.000000    1.703649   -0.039217
  H     -0.935877   -0.935877    0.000000
  O      0.000000   -1.703649   -0.039217
  H      0.935877   -0.935877    0.000000
  O      1.703649    0.000000    0.039217
  H      2.295559    0.000000   -0.717948
  H      0.000000    2.295559    0.717948
  H     -2.295559    0.000000   -0.717948
  H      0.000000   -2.295559    0.717948

 Total Charge           Charge          ....    0
 Multiplicity           Mult            ....    1
 Number of Electrons    NEL             ....   40
 Basis Dimension        Dim             ....   76

ORBITAL ENERGIES
----------------

  NO   OCC          E(Eh)            E(eV)
   0   2.0000     -19.472058      -529.8616
   1   2.0000     -19.472014      -529.8604
   2   2.0000     -19.472014      -529.8604
   3   2.0000     -19.471896      -529.8572
   4   2.0000      -1.124171       -30.5902
   5   2.0000      -1.086527       -29.5659
   6   2.0000      -1.086527       -29.5659
   7   2.0000      -1.048330       -28.5265
   8   2.0000      -0.614323       -16.7166
   9   2.0000      -0.587648       -15.9907
  10   2.0000      -0.587648       -15.9907
  11   2.0000      -0.572676       -15.5833
  12   2.0000      -0.506164       -13.7734
  13   2.0000      -0.439042       -11.9469
  14   2.0000      -0.439042       -11.9469
  15   2.0000      -0.390478       -10.6254
  16   2.0000      -0.352755        -9.5989
  17   2.0000      -0.352755        -9.5989
  18   2.0000      -0.349652        -9.5145
  19   2.0000      -0.334477        -9.1016
  20   0.0000       0.125201         3.4069
  21   0.0000       0.163371         4.4455
  22   0.0000       0.163371         4.4455
  23   0.0000       0.185179         5.0390
  24   0.0000       0.324843         8.8394

MULLIKEN ATOMIC CHARGES
-----------------------
   0 O :   -0.901252
   1 H :    0.478428
   2 H :    0.478428
   3 O :   -0.901252
   4 H :    0.478428
   5 O :   -0.901252
   6 H :    0.478428
   7 O :   -0.901252
   8 H :    0.422824
   9 H :    0.422824
  10 H :    0.422824
  11 H :    0.422824
Sum of atomic charges:   -0.0000000

LOEWDIN ATOMIC CHARGES
----------------------
   0 O :   -0.653804
   1 H :    0.348220
   2 H :    0.348220
   3 O :   -0.653804
   4 H :    0.348220
   5 O :   -0.653804
   6 H :    0.348220
   7 O :   -0.653804
   8 H :    0.305584
   9 H :    0.305584
  10 H :    0.305584
  11 H :    0.305584

  Mayer bond orders larger than 0.100000
B(  0-O ,  2-H ) :   0.3844 B(  0-O ,  4-H ) :   0.3844 B(  0-O , 10-H ) :   0.7947
B(  1-H ,  3-O ) :   0.3844 B(  1-H ,  7-O ) :   0.3844 B(  2-H ,  3-O ) :   0.3844
B(  3-O ,  9-H ) :   0.7947 B(  4-H ,  5-O ) :   0.3844 B(  5-O ,  6-H ) :   0.3844
B(  5-O , 11-H ) :   0.7947 B(  6-H ,  7-O ) :   0.3844 B(  7-O ,  8-H ) :   0.7947

Dispersion correction           -0.003437592
FINAL SINGLE POINT ENERGY      -305.057148672879

DIPOLE MOMENT
-------------
                                X             Y             Z
Electronic contribution:     -0.00000       0.00000      -0.00000
Nuclear contribution   :      0.00000       0.00000       0.00000
                        -----------------------------------------
Total Dipole Moment    :     -0.00000       0.00000      -0.00000
                        -----------------------------------------
Magnitude (a.u.)       :      0.00000
Magnitude (Debye)      :      0.00000

Rotational constants in cm-1:     0.154369     0.154369     0.078754
Rotational constants in MHz :  4627.876486  4627.876486  2360.999295

                             ****ORCA TERMINATED NORMALLY****
TOTAL RUN TIME: 0 days 0 hours 0 minutes 58 seconds 525 msec
