                         Program Version 5.0.3 -  RELEASE  -
|  1> ! PBEh-3c def2/J TightSCF DefGrid3
|  2>
|  3> %maxcore 60000
|  4>
|  5> %pal
|  6> nprocs 4
|  7> end
|  8>
|  9> *xyzfile 0 1 113.xyz
| 10>
| 11>                          ****END OF INPUT****

CARTESIAN COORDINATES (ANGSTROEM)
---------------------------------
  C     -0.262420   -0.594155    0.000000
  C      0.318440    0.790687    0.000000
  O     -0.328572    1.806534    0.000000
  H     -1.349373   -0.558700    0.000000
  H      0.097021   -1.139802    0.876678
  H      0.097021   -1.139802   -0.876678
  H      1.427882    0.835237    0.000000

 Total Charge           Charge          ....    0
 Multiplicity           Mult            ....    1
 Number of Electrons    NEL             ....   24
 Basis Dimension        Dim             ....   53

ORBITAL ENERGIES
----------------

  NO   OCC          E(Eh)            E(eV)
   0   2.0000     -19.497519      -530.5545
   1   2.0000     -10.539000      -286.7808
   2   2.0000     -10.448426      -284.3161
   3   2.0000      -1.161237       -31.5989
   4   2.0000      -0.844530       -22.9808
   5   2.0000      -0.655329       -17.8324
   6   2.0000      -0.547076       -14.8867
   7   2.0000      -0.505337       -13.7509
   8   2.0000      -0.502393       -13.6708
   9   2.0000      -0.457524       -12.4499
  10   2.0000      -0.418959       -11.4004
  11   2.0000      -0.313939        -8.5427
  12   0.0000       0.013097         0.3564
  13   0.0000       0.159894         4.3509
  14   0.0000       0.180825         4.9205
  15   0.0000       0.189740         5.1631
  16   0.0000       0.200099         5.4450

MULLIKEN ATOMIC CHARGES
-----------------------
   0 C :   -0.743105
   1 C :    0.171089
   2 O :   -0.311106
   3 H :    0.255612
   4 H :    0.240111
   5 H :    0.240111
   6 H :    0.147289
Sum of atomic charges:   -0.0000000

LOEWDIN ATOMIC CHARGES
----------------------
   0 C :   -0.409003
   1 C :    0.058245
   2 O :   -0.179624
   3 H :    0.149865
   4 H :    0.150197
   5 H :    0.150197
   6 H :    0.080125

  Mayer bond orders larger than 0.100000
B(  0-C ,  1-C ) :   0.9307 B(  0-C ,  3-H ) :   0.9123 B(  0-C ,  4-H ) :   0.9069
B(  0-C ,  5-H ) :   0.9069 B(  1-C ,  2-O ) :   2.1425 B(  1-C ,  6-H ) :   0.8693

Dispersion correction           -0.001781028
FINAL SINGLE POINT ENERGY      -153.495737245725

DIPOLE MOMENT
-------------
                                X             Y             Z
Electronic contribution:     -0.19391       3.34878       0.00000
Nuclear contribution   :      0.61938      -4.35353       0.00000
                        -----------------------------------------
Total Dipole Moment    :      0.42546      -1.00475       0.00000
                        -----------------------------------------
Magnitude (a.u.)       :      1.09112
Magnitude (Debye)      :      2.77341

Rotational constants in cm-1:     1.913523     0.338944     0.304033
Rotational constants in MHz : 57365.975395 10161.274640  9114.685269

                             ****ORCA TERMINATED NORMALLY****
TOTAL RUN TIME: 0 days 0 hours 0 minutes 21 seconds 488 msec
