                         Program Version 5.0.3 -  RELEASE  -
|  1> ! PBEh-3c def2/J TightSCF DefGrid3
|  2>
|  3> %maxcore 60000
|  4>
|  5> %pal
|  6> nprocs 4
|  7> end
|  8>
|  9> *xyzfile -1 2 EA_11.xyz
| 10>
| 11>                          ****END OF INPUT****

CARTESIAN COORDINATES (ANGSTROEM)
---------------------------------
  N      0.000000    0.000000    0.523924
  H      0.000000    0.000000   -0.523924

 Total Charge           Charge          ....   -1
 Multiplicity           Mult            ....    2
 Number of Electrons    NEL             ....    9
 Basis Dimension        Dim             ....   17

ORBITAL ENERGIES
----------------
                 SPIN UP ORBITALS
  NO   OCC          E(Eh)            E(eV)
   0   1.0000     -14.214919      -386.8076
   1   1.0000      -0.463364       -12.6088
   2   1.0000      -0.025113        -0.6834
   3   1.0000       0.051806         1.4097
   4   1.0000       0.115189         3.1344
   5   0.0000       0.471240        12.8231
   6   0.0000       1.126839        30.6629
   7   0.0000       1.173840        31.9418
   8   0.0000       1.175466        31.9861
   9   0.0000       1.261104        34.3164

                 SPIN DOWN ORBITALS
  NO   OCC          E(Eh)            E(eV)
   0   1.0000     -14.196599      -386.3091
   1   1.0000      -0.395711       -10.7679
   2   1.0000       0.000707         0.0192
   3   1.0000       0.139102         3.7851
   4   0.0000       0.362930         9.8758
   5   0.0000       0.482665        13.1340
   6   0.0000       1.190628        32.3986
   7   0.0000       1.191185        32.4138
   8   0.0000       1.238759        33.7084

MULLIKEN ATOMIC CHARGES AND SPIN POPULATIONS
--------------------------------------------
   0 N :   -1.062609    1.047282
   1 H :    0.062609   -0.047282
Sum of atomic charges         :   -1.0000000

LOEWDIN ATOMIC CHARGES AND SPIN POPULATIONS
-------------------------------------------
   0 N :   -1.047129    1.028150
   1 H :    0.047129   -0.028150

  Mayer bond orders larger than 0.100000
B(  0-N ,  1-H ) :   0.9414

Dispersion correction           -0.000112762
FINAL SINGLE POINT ENERGY       -55.047913481926

DIPOLE MOMENT
-------------
                                X             Y             Z
Electronic contribution:      0.00000      -0.00000       0.49844
Nuclear contribution   :      0.00000       0.00000      -0.91668
                        -----------------------------------------
Total Dipole Moment    :      0.00000      -0.00000      -0.41824
                        -----------------------------------------
Magnitude (a.u.)       :      0.41824
Magnitude (Debye)      :      1.06309

Rotational constants in cm-1:     0.000000    16.327505    16.327505
Rotational constants in MHz :     0.000000 489486.294686 489486.294686

                             ****ORCA TERMINATED NORMALLY****
TOTAL RUN TIME: 0 days 0 hours 1 minutes 10 seconds 353 msec
