                         Program Version 5.0.3 -  RELEASE  -
|  1> ! PBEh-3c def2/J TightSCF DefGrid3
|  2>
|  3> %maxcore 60000
|  4>
|  5> %pal
|  6> nprocs 4
|  7> end
|  8>
|  9> *xyzfile 0 1 Hexahelicene_TS.xyz
| 10>
| 11>                          ****END OF INPUT****

CARTESIAN COORDINATES (ANGSTROEM)
---------------------------------
  C     -0.202139   -5.403382   -0.207561
  C      0.068978   -4.565365    0.879829
  C     -0.128434   -3.206864    0.774192
  C     -0.589816   -2.605850   -0.406620
  C     -1.086756   -3.492877   -1.408899
  C     -0.805670   -4.871105   -1.323503
  C     -2.030931   -3.009153   -2.360968
  C     -2.559898   -1.776260   -2.181163
  C     -1.997950   -0.851081   -1.247334
  C     -0.815176   -1.171780   -0.532357
  C     -2.620776    0.408713   -1.076808
  C     -1.977132    1.391034   -0.403639
  C     -0.602074    1.230858   -0.088270
  C      0.034953   -0.051365   -0.104154
  C      0.140393    2.440091   -0.042821
  C      1.457443    2.419898   -0.356214
  C      2.132261    1.181714   -0.483544
  C      1.505725   -0.026972   -0.084630
  C      3.442053    1.170116   -1.054045
  C      4.153454    0.024108   -1.164538
  C      3.720848   -1.121661   -0.436545
  C      2.456783   -1.089693    0.226379
  C      4.620532   -2.176178   -0.181837
  C      4.379627   -3.084167    0.822277
  C      3.252721   -2.912681    1.635147
  C      2.323249   -1.941978    1.335020
  H      0.418405   -4.985552    1.813209
  H      5.109856    0.000626   -1.669825
  H      5.093458   -3.868199    1.035156
  H      5.547359   -2.209734   -0.740449
  H      3.826840    2.103696   -1.445385
  H      2.006765    3.334971   -0.534697
  H     -0.396729    3.373818    0.055074
  H     -2.428252    2.364994   -0.266687
  H     -3.596761    0.572316   -1.515416
  H     -2.405556   -3.677276   -3.124929
  H     -0.005728   -6.465099   -0.141426
  H     -1.145418   -5.515777   -2.124370
  H     -3.394745   -1.437693   -2.780878
  H     -0.011125   -2.588223    1.642377
  H      1.514852   -1.763590    2.018911
  H      3.115364   -3.531138    2.511506

 Total Charge           Charge          ....    0
 Multiplicity           Mult            ....    1
 Number of Electrons    NEL             ....  172
 Basis Dimension        Dim             ....  422

ORBITAL ENERGIES
----------------

  NO   OCC          E(Eh)            E(eV)
   0   2.0000     -10.483268      -285.2642
   1   2.0000     -10.477789      -285.1151
   2   2.0000     -10.477092      -285.0962
   3   2.0000     -10.466280      -284.8020
   4   2.0000     -10.464657      -284.7578
   5   2.0000     -10.463319      -284.7214
   6   2.0000     -10.462794      -284.7071
   7   2.0000     -10.462660      -284.7034
   8   2.0000     -10.459320      -284.6126
   9   2.0000     -10.458815      -284.5988
  10   2.0000     -10.452906      -284.4380
  11   2.0000     -10.452835      -284.4361
  12   2.0000     -10.451692      -284.4050
  13   2.0000     -10.451657      -284.4041
  14   2.0000     -10.450558      -284.3741
  15   2.0000     -10.450414      -284.3702
  16   2.0000     -10.449681      -284.3503
  17   2.0000     -10.449542      -284.3465
  18   2.0000     -10.447115      -284.2804
  19   2.0000     -10.446788      -284.2716
  20   2.0000     -10.446262      -284.2572
  21   2.0000     -10.446114      -284.2532
  22   2.0000     -10.445604      -284.2393
  23   2.0000     -10.445383      -284.2333
  24   2.0000     -10.443764      -284.1893
  25   2.0000     -10.443000      -284.1685
  26   2.0000      -0.998833       -27.1796
  27   2.0000      -0.981060       -26.6960
  28   2.0000      -0.962483       -26.1905
  29   2.0000      -0.937066       -25.4989
  30   2.0000      -0.913658       -24.8619
  31   2.0000      -0.888170       -24.1683
  32   2.0000      -0.883951       -24.0535
  33   2.0000      -0.857591       -23.3362
  34   2.0000      -0.850457       -23.1421
  35   2.0000      -0.829459       -22.5707
  36   2.0000      -0.823028       -22.3957
  37   2.0000      -0.802878       -21.8474
  38   2.0000      -0.797999       -21.7146
  39   2.0000      -0.725859       -19.7516
  40   2.0000      -0.725002       -19.7283
  41   2.0000      -0.701841       -19.0981
  42   2.0000      -0.690225       -18.7820
  43   2.0000      -0.688108       -18.7244
  44   2.0000      -0.672464       -18.2987
  45   2.0000      -0.655811       -17.8455
  46   2.0000      -0.629382       -17.1264
  47   2.0000      -0.615655       -16.7528
  48   2.0000      -0.595070       -16.1927
  49   2.0000      -0.581768       -15.8307
  50   2.0000      -0.574844       -15.6423
  51   2.0000      -0.565654       -15.3922
  52   2.0000      -0.550302       -14.9745
  53   2.0000      -0.547226       -14.8908
  54   2.0000      -0.526870       -14.3369
  55   2.0000      -0.519102       -14.1255
  56   2.0000      -0.509747       -13.8709
  57   2.0000      -0.503152       -13.6915
  58   2.0000      -0.499151       -13.5826
  59   2.0000      -0.492162       -13.3924
  60   2.0000      -0.486584       -13.2406
  61   2.0000      -0.479925       -13.0594
  62   2.0000      -0.474630       -12.9153
  63   2.0000      -0.471962       -12.8427
  64   2.0000      -0.463726       -12.6186
  65   2.0000      -0.454375       -12.3642
  66   2.0000      -0.447652       -12.1812
  67   2.0000      -0.447258       -12.1705
  68   2.0000      -0.433392       -11.7932
  69   2.0000      -0.426117       -11.5952
  70   2.0000      -0.421993       -11.4830
  71   2.0000      -0.411638       -11.2012
  72   2.0000      -0.402280       -10.9466
  73   2.0000      -0.398018       -10.8306
  74   2.0000      -0.385672       -10.4947
  75   2.0000      -0.378651       -10.3036
  76   2.0000      -0.373579       -10.1656
  77   2.0000      -0.369984       -10.0678
  78   2.0000      -0.340005        -9.2520
  79   2.0000      -0.334983        -9.1153
  80   2.0000      -0.304776        -8.2934
  81   2.0000      -0.300186        -8.1685
  82   2.0000      -0.280946        -7.6449
  83   2.0000      -0.260808        -7.0969
  84   2.0000      -0.240450        -6.5430
  85   2.0000      -0.228726        -6.2240
  86   0.0000      -0.040884        -1.1125
  87   0.0000      -0.037362        -1.0167
  88   0.0000      -0.016021        -0.4360
  89   0.0000       0.006320         0.1720
  90   0.0000       0.023981         0.6525

MULLIKEN ATOMIC CHARGES
-----------------------
   0 C :   -0.224568
   1 C :   -0.209899
   2 C :   -0.287549
   3 C :    0.047449
   4 C :    0.113844
   5 C :   -0.269650
   6 C :   -0.285250
   7 C :   -0.261434
   8 C :    0.086620
   9 C :    0.006602
  10 C :   -0.278674
  11 C :   -0.262215
  12 C :    0.086598
  13 C :    0.071058
  14 C :   -0.262041
  15 C :   -0.278403
  16 C :    0.087969
  17 C :    0.002109
  18 C :   -0.260062
  19 C :   -0.283497
  20 C :    0.112955
  21 C :    0.049436
  22 C :   -0.268778
  23 C :   -0.224211
  24 C :   -0.211568
  25 C :   -0.309068
  26 H :    0.210673
  27 H :    0.216225
  28 H :    0.218512
  29 H :    0.213981
  30 H :    0.216361
  31 H :    0.220603
  32 H :    0.217779
  33 H :    0.218008
  34 H :    0.220819
  35 H :    0.216083
  36 H :    0.218394
  37 H :    0.213151
  38 H :    0.215882
  39 H :    0.234462
  40 H :    0.248974
  41 H :    0.212320
Sum of atomic charges:   -0.0000000

LOEWDIN ATOMIC CHARGES
----------------------
   0 C :   -0.131323
   1 C :   -0.138463
   2 C :   -0.110194
   3 C :   -0.020701
   4 C :   -0.028555
   5 C :   -0.128367
   6 C :   -0.119383
   7 C :   -0.127224
   8 C :   -0.032101
   9 C :    0.000449
  10 C :   -0.124240
  11 C :   -0.121053
  12 C :   -0.025345
  13 C :   -0.022020
  14 C :   -0.120960
  15 C :   -0.124387
  16 C :   -0.031917
  17 C :    0.001271
  18 C :   -0.127116
  19 C :   -0.119184
  20 C :   -0.028086
  21 C :   -0.020073
  22 C :   -0.127837
  23 C :   -0.131349
  24 C :   -0.140687
  25 C :   -0.111195
  26 H :    0.134876
  27 H :    0.139306
  28 H :    0.136566
  29 H :    0.137133
  30 H :    0.139577
  31 H :    0.140904
  32 H :    0.139290
  33 H :    0.139350
  34 H :    0.140976
  35 H :    0.139330
  36 H :    0.136540
  37 H :    0.136874
  38 H :    0.139360
  39 H :    0.137629
  40 H :    0.137469
  41 H :    0.134864

  Mayer bond orders larger than 0.100000
B(  0-C ,  1-C ) :   1.3484 B(  0-C ,  5-C ) :   1.4947 B(  0-C , 36-H ) :   0.9193
B(  1-C ,  2-C ) :   1.4956 B(  1-C , 26-H ) :   0.9222 B(  2-C ,  3-C ) :   1.3336
B(  2-C , 39-H ) :   0.9027 B(  3-C ,  4-C ) :   1.2731 B(  3-C ,  9-C ) :   1.0882
B(  4-C ,  5-C ) :   1.2754 B(  4-C ,  6-C ) :   1.1700 B(  5-C , 37-H ) :   0.9240
B(  6-C ,  7-C ) :   1.6227 B(  6-C , 35-H ) :   0.9229 B(  7-C ,  8-C ) :   1.1678
B(  7-C , 38-H ) :   0.9239 B(  8-C ,  9-C ) :   1.3754 B(  8-C , 10-C ) :   1.2024
B(  9-C , 13-C ) :   1.1698 B( 10-C , 11-C ) :   1.5817 B( 10-C , 34-H ) :   0.9219
B( 11-C , 12-C ) :   1.2049 B( 11-C , 33-H ) :   0.9204 B( 12-C , 13-C ) :   1.2725
B( 12-C , 14-C ) :   1.2050 B( 13-C , 17-C ) :   1.1652 B( 14-C , 15-C ) :   1.5816
B( 14-C , 32-H ) :   0.9205 B( 15-C , 16-C ) :   1.2024 B( 15-C , 31-H ) :   0.9220
B( 16-C , 17-C ) :   1.3768 B( 16-C , 18-C ) :   1.1675 B( 17-C , 21-C ) :   1.0915
B( 18-C , 19-C ) :   1.6222 B( 18-C , 30-H ) :   0.9236 B( 19-C , 20-C ) :   1.1706
B( 19-C , 27-H ) :   0.9226 B( 20-C , 21-C ) :   1.2765 B( 20-C , 22-C ) :   1.2734
B( 21-C , 25-C ) :   1.3263 B( 22-C , 23-C ) :   1.4982 B( 22-C , 29-H ) :   0.9234
B( 23-C , 24-C ) :   1.3471 B( 23-C , 28-H ) :   0.9192 B( 24-C , 25-C ) :   1.4983
B( 24-C , 41-H ) :   0.9218 B( 25-C , 40-H ) :   0.9005

Dispersion correction           -0.038181707
FINAL SINGLE POINT ENERGY      -998.170910550806

DIPOLE MOMENT
-------------
                                X             Y             Z
Electronic contribution:     -1.80696       3.63728      -0.62095
Nuclear contribution   :      1.78788      -3.50385       0.50089
                        -----------------------------------------
Total Dipole Moment    :     -0.01908       0.13343      -0.12006
                        -----------------------------------------
Magnitude (a.u.)       :      0.18050
Magnitude (Debye)      :      0.45881

Rotational constants in cm-1:     0.009169     0.008176     0.004931
Rotational constants in MHz :   274.882996   245.106874   147.820810

                             ****ORCA TERMINATED NORMALLY****
TOTAL RUN TIME: 0 days 0 hours 7 minutes 52 seconds 17 msec
