                         Program Version 5.0.3 -  RELEASE  -
|  1> ! PBEh-3c def2/J TightSCF DefGrid3
|  2>
|  3> %maxcore 60000
|  4>
|  5> %pal
|  6> nprocs 4
|  7> end
|  8>
|  9> *xyzfile 0 1 P2.xyz
| 10>
| 11>                          ****END OF INPUT****

CARTESIAN COORDINATES (ANGSTROEM)
---------------------------------
  C      1.244999    0.000000   -0.663426
  C      0.000000    0.000000   -1.489501
  C     -1.244999    0.000000   -0.663426
  C     -1.244999    0.000000    0.663426
  C      0.000000    0.000000    1.489501
  C      1.244999    0.000000    0.663426
  H      2.190975    0.000000   -1.197556
  H      0.000000    0.868142   -2.164153
  H      0.000000   -0.868142   -2.164153
  H     -2.190975    0.000000   -1.197556
  H     -2.190975    0.000000    1.197556
  H      0.000000   -0.868142    2.164153
  H      0.000000    0.868142    2.164153
  H      2.190975    0.000000    1.197556

 Total Charge           Charge          ....    0
 Multiplicity           Mult            ....    1
 Number of Electrons    NEL             ....   44
 Basis Dimension        Dim             ....  106

ORBITAL ENERGIES
----------------

  NO   OCC          E(Eh)            E(eV)
   0   2.0000     -10.440356      -284.0965
   1   2.0000     -10.440313      -284.0954
   2   2.0000     -10.437522      -284.0194
   3   2.0000     -10.437468      -284.0179
   4   2.0000     -10.436520      -283.9922
   5   2.0000     -10.436502      -283.9917
   6   2.0000      -0.933041       -25.3893
   7   2.0000      -0.832277       -22.6474
   8   2.0000      -0.831039       -22.6137
   9   2.0000      -0.709131       -19.2964
  10   2.0000      -0.649342       -17.6695
  11   2.0000      -0.569547       -15.4982
  12   2.0000      -0.533004       -14.5038
  13   2.0000      -0.495885       -13.4937
  14   2.0000      -0.494363       -13.4523
  15   2.0000      -0.465749       -12.6737
  16   2.0000      -0.463991       -12.6258
  17   2.0000      -0.438511       -11.9325
  18   2.0000      -0.398728       -10.8499
  19   2.0000      -0.361056        -9.8248
  20   2.0000      -0.303523        -8.2593
  21   2.0000      -0.271267        -7.3816
  22   0.0000       0.047058         1.2805
  23   0.0000       0.069440         1.8896
  24   0.0000       0.149822         4.0769
  25   0.0000       0.189173         5.1476
  26   0.0000       0.199263         5.4222

MULLIKEN ATOMIC CHARGES
-----------------------
   0 C :   -0.192867
   1 C :   -0.496567
   2 C :   -0.192867
   3 C :   -0.192867
   4 C :   -0.496567
   5 C :   -0.192867
   6 H :    0.211942
   7 H :    0.229208
   8 H :    0.229208
   9 H :    0.211942
  10 H :    0.211943
  11 H :    0.229208
  12 H :    0.229208
  13 H :    0.211942
Sum of atomic charges:   -0.0000000

LOEWDIN ATOMIC CHARGES
----------------------
   0 C :   -0.147601
   1 C :   -0.239349
   2 C :   -0.147601
   3 C :   -0.147601
   4 C :   -0.239349
   5 C :   -0.147601
   6 H :    0.130297
   7 H :    0.136978
   8 H :    0.136978
   9 H :    0.130297
  10 H :    0.130297
  11 H :    0.136978
  12 H :    0.136978
  13 H :    0.130297

  Mayer bond orders larger than 0.100000
B(  0-C ,  1-C ) :   0.9974 B(  0-C ,  5-C ) :   1.9210 B(  0-C ,  6-H ) :   0.9217
B(  1-C ,  2-C ) :   0.9974 B(  1-C ,  7-H ) :   0.8988 B(  1-C ,  8-H ) :   0.8988
B(  2-C ,  3-C ) :   1.9210 B(  2-C ,  9-H ) :   0.9217 B(  3-C ,  4-C ) :   0.9974
B(  3-C , 10-H ) :   0.9217 B(  4-C ,  5-C ) :   0.9974 B(  4-C , 11-H ) :   0.8988
B(  4-C , 12-H ) :   0.8988 B(  5-C , 13-H ) :   0.9217

Dispersion correction           -0.006725206
FINAL SINGLE POINT ENERGY      -232.898257889505

DIPOLE MOMENT
-------------
                                X             Y             Z
Electronic contribution:      0.00000       0.00000       0.00000
Nuclear contribution   :      0.00000       0.00000      -0.00000
                        -----------------------------------------
Total Dipole Moment    :      0.00000       0.00000       0.00000
                        -----------------------------------------
Magnitude (a.u.)       :      0.00000
Magnitude (Debye)      :      0.00000

Rotational constants in cm-1:     0.174036     0.165034     0.087376
Rotational constants in MHz :  5217.456874  4947.586387  2619.465969

                             ****ORCA TERMINATED NORMALLY****
TOTAL RUN TIME: 0 days 0 hours 0 minutes 51 seconds 669 msec
