                         Program Version 5.0.3 -  RELEASE  -
|  1> ! PBEh-3c def2/J TightSCF DefGrid3
|  2>
|  3> %maxcore 60000
|  4>
|  5> %pal
|  6> nprocs 4
|  7> end
|  8>
|  9> *xyzfile 0 1 15b.xyz
| 10>
| 11>                          ****END OF INPUT****

CARTESIAN COORDINATES (ANGSTROEM)
---------------------------------
  N     -0.668891   -2.153071    0.000000
  H     -1.547845   -1.651341    0.000000
  H     -0.665161   -2.753873   -0.813407
  H     -0.665161   -2.753873    0.813407

 Total Charge           Charge          ....    0
 Multiplicity           Mult            ....    1
 Number of Electrons    NEL             ....   10
 Basis Dimension        Dim             ....   21

ORBITAL ENERGIES
----------------

  NO   OCC          E(Eh)            E(eV)
   0   2.0000     -14.595446      -397.1623
   1   2.0000      -0.934328       -25.4243
   2   2.0000      -0.511827       -13.9275
   3   2.0000      -0.511407       -13.9161
   4   2.0000      -0.304814        -8.2944
   5   0.0000       0.142433         3.8758
   6   0.0000       0.226384         6.1602
   7   0.0000       0.226481         6.1629
   8   0.0000       0.762906        20.7597
   9   0.0000       0.763911        20.7871

MULLIKEN ATOMIC CHARGES
-----------------------
   0 N :   -0.945137
   1 H :    0.315044
   2 H :    0.315046
   3 H :    0.315046
Sum of atomic charges:   -0.0000000

LOEWDIN ATOMIC CHARGES
----------------------
   0 N :   -0.649873
   1 H :    0.216726
   2 H :    0.216574
   3 H :    0.216574

  Mayer bond orders larger than 0.100000
B(  0-N ,  1-H ) :   0.8799 B(  0-N ,  2-H ) :   0.8798 B(  0-N ,  3-H ) :   0.8798

Dispersion correction           -0.000444497
FINAL SINGLE POINT ENERGY       -56.428120358719

DIPOLE MOMENT
-------------
                                X             Y             Z
Electronic contribution:      0.09507       0.07680       0.00000
Nuclear contribution   :     -0.67216      -0.53979       0.00000
                        -----------------------------------------
Total Dipole Moment    :     -0.57709      -0.46299       0.00000
                        -----------------------------------------
Magnitude (a.u.)       :      0.73986
Magnitude (Debye)      :      1.88057

Rotational constants in cm-1:    10.039775    10.000485     6.303590
Rotational constants in MHz : 300984.883743 299807.010545 188976.874091

                             ****ORCA TERMINATED NORMALLY****
TOTAL RUN TIME: 0 days 0 hours 0 minutes 32 seconds 810 msec
