                         Program Version 5.0.3 -  RELEASE  -
|  1> ! PBEh-3c def2/J TightSCF DefGrid3
|  2>
|  3> %maxcore 60000
|  4>
|  5> %pal
|  6> nprocs 4
|  7> end
|  8>
|  9> *xyzfile 0 1 34.xyz
| 10>
| 11>                          ****END OF INPUT****

CARTESIAN COORDINATES (ANGSTROEM)
---------------------------------
  C      1.584036    1.089830   -2.533368
  H      2.670115    1.177020   -2.563727
  H      1.335970    0.029083   -2.567029
  H      1.185779    1.553923   -3.434471
  C      1.027022    1.736361   -1.271923
  H     -0.063542    1.667915   -1.271024
  H      1.266995    2.802180   -1.266680
  C      1.568138    1.097368    0.000000
  H      1.325110    0.030630    0.000000
  H      2.660331    1.162696    0.000000
  C      1.027022    1.736361    1.271923
  H     -0.063542    1.667915    1.271024
  H      1.266995    2.802180    1.266680
  C      1.584036    1.089830    2.533368
  H      2.670115    1.177020    2.563727
  H      1.185779    1.553923    3.434471
  H      1.335970    0.029083    2.567029
  C     -1.584036   -1.089830    2.533368
  H     -1.335970   -0.029083    2.567029
  H     -2.670115   -1.177020    2.563727
  H     -1.185779   -1.553923    3.434471
  C     -1.027022   -1.736361    1.271923
  H     -1.266995   -2.802180    1.266680
  H      0.063542   -1.667915    1.271024
  C     -1.568138   -1.097368    0.000000
  H     -2.660331   -1.162696    0.000000
  H     -1.325110   -0.030630    0.000000
  C     -1.027022   -1.736361   -1.271923
  H     -1.266995   -2.802180   -1.266680
  H      0.063542   -1.667915   -1.271024
  C     -1.584036   -1.089830   -2.533368
  H     -1.335970   -0.029083   -2.567029
  H     -1.185779   -1.553923   -3.434471
  H     -2.670115   -1.177020   -2.563727

 Total Charge           Charge          ....    0
 Multiplicity           Mult            ....    1
 Number of Electrons    NEL             ....   84
 Basis Dimension        Dim             ....  198

ORBITAL ENERGIES
----------------

  NO   OCC          E(Eh)            E(eV)
   0   2.0000     -10.427729      -283.7529
   1   2.0000     -10.427722      -283.7527
   2   2.0000     -10.427705      -283.7523
   3   2.0000     -10.427695      -283.7520
   4   2.0000     -10.425542      -283.6934
   5   2.0000     -10.425535      -283.6932
   6   2.0000     -10.419169      -283.5200
   7   2.0000     -10.419162      -283.5198
   8   2.0000     -10.419160      -283.5198
   9   2.0000     -10.419148      -283.5194
  10   2.0000      -0.896162       -24.3858
  11   2.0000      -0.891794       -24.2669
  12   2.0000      -0.839573       -22.8459
  13   2.0000      -0.835563       -22.7368
  14   2.0000      -0.757097       -20.6017
  15   2.0000      -0.753170       -20.4948
  16   2.0000      -0.671240       -18.2654
  17   2.0000      -0.671066       -18.2606
  18   2.0000      -0.647752       -17.6262
  19   2.0000      -0.642526       -17.4840
  20   2.0000      -0.549243       -14.9457
  21   2.0000      -0.525038       -14.2870
  22   2.0000      -0.499177       -13.5833
  23   2.0000      -0.497147       -13.5281
  24   2.0000      -0.494161       -13.4468
  25   2.0000      -0.478756       -13.0276
  26   2.0000      -0.459257       -12.4970
  27   2.0000      -0.457437       -12.4475
  28   2.0000      -0.447843       -12.1864
  29   2.0000      -0.447097       -12.1661
  30   2.0000      -0.436193       -11.8694
  31   2.0000      -0.420904       -11.4534
  32   2.0000      -0.403460       -10.9787
  33   2.0000      -0.401761       -10.9325
  34   2.0000      -0.385021       -10.4770
  35   2.0000      -0.380858       -10.3637
  36   2.0000      -0.377918       -10.2837
  37   2.0000      -0.376097       -10.2341
  38   2.0000      -0.369266       -10.0482
  39   2.0000      -0.362733        -9.8705
  40   2.0000      -0.361534        -9.8378
  41   2.0000      -0.358007        -9.7419
  42   0.0000       0.091431         2.4880
  43   0.0000       0.117670         3.2020
  44   0.0000       0.148221         4.0333
  45   0.0000       0.164656         4.4805
  46   0.0000       0.170996         4.6530

MULLIKEN ATOMIC CHARGES
-----------------------
   0 C :   -0.647312
   1 H :    0.211489
   2 H :    0.216928
   3 H :    0.218535
   4 C :   -0.417516
   5 H :    0.205823
   6 H :    0.207882
   7 C :   -0.404039
   8 H :    0.208612
   9 H :    0.203767
  10 C :   -0.417516
  11 H :    0.205823
  12 H :    0.207882
  13 C :   -0.647311
  14 H :    0.211490
  15 H :    0.218535
  16 H :    0.216928
  17 C :   -0.647311
  18 H :    0.216928
  19 H :    0.211489
  20 H :    0.218535
  21 C :   -0.417516
  22 H :    0.207882
  23 H :    0.205823
  24 C :   -0.404039
  25 H :    0.203767
  26 H :    0.208612
  27 C :   -0.417516
  28 H :    0.207882
  29 H :    0.205823
  30 C :   -0.647311
  31 H :    0.216928
  32 H :    0.218535
  33 H :    0.211489
Sum of atomic charges:   -0.0000000

LOEWDIN ATOMIC CHARGES
----------------------
   0 C :   -0.362171
   1 H :    0.123693
   2 H :    0.124072
   3 H :    0.126176
   4 C :   -0.245763
   5 H :    0.116479
   6 H :    0.119839
   7 C :   -0.241466
   8 H :    0.117811
   9 H :    0.119003
  10 C :   -0.245763
  11 H :    0.116479
  12 H :    0.119839
  13 C :   -0.362171
  14 H :    0.123693
  15 H :    0.126176
  16 H :    0.124072
  17 C :   -0.362171
  18 H :    0.124072
  19 H :    0.123693
  20 H :    0.126176
  21 C :   -0.245763
  22 H :    0.119839
  23 H :    0.116479
  24 C :   -0.241466
  25 H :    0.119003
  26 H :    0.117811
  27 C :   -0.245763
  28 H :    0.119839
  29 H :    0.116479
  30 C :   -0.362171
  31 H :    0.124072
  32 H :    0.126176
  33 H :    0.123693

  Mayer bond orders larger than 0.100000
B(  0-C ,  1-H ) :   0.9283 B(  0-C ,  2-H ) :   0.9213 B(  0-C ,  3-H ) :   0.9323
B(  0-C ,  4-C ) :   0.9971 B(  4-C ,  5-H ) :   0.9133 B(  4-C ,  6-H ) :   0.9193
B(  4-C ,  7-C ) :   0.9897 B(  7-C ,  8-H ) :   0.9063 B(  7-C ,  9-H ) :   0.9176
B(  7-C , 10-C ) :   0.9897 B( 10-C , 11-H ) :   0.9133 B( 10-C , 12-H ) :   0.9193
B( 10-C , 13-C ) :   0.9971 B( 13-C , 14-H ) :   0.9283 B( 13-C , 15-H ) :   0.9323
B( 13-C , 16-H ) :   0.9213 B( 17-C , 18-H ) :   0.9213 B( 17-C , 19-H ) :   0.9283
B( 17-C , 20-H ) :   0.9323 B( 17-C , 21-C ) :   0.9971 B( 21-C , 22-H ) :   0.9193
B( 21-C , 23-H ) :   0.9133 B( 21-C , 24-C ) :   0.9897 B( 24-C , 25-H ) :   0.9176
B( 24-C , 26-H ) :   0.9063 B( 24-C , 27-C ) :   0.9897 B( 27-C , 28-H ) :   0.9193
B( 27-C , 29-H ) :   0.9133 B( 27-C , 30-C ) :   0.9971 B( 30-C , 31-H ) :   0.9213
B( 30-C , 32-H ) :   0.9323 B( 30-C , 33-H ) :   0.9283

Dispersion correction           -0.018086333
FINAL SINGLE POINT ENERGY      -394.673840885214

DIPOLE MOMENT
-------------
                                X             Y             Z
Electronic contribution:     -0.00000      -0.00000       0.00000
Nuclear contribution   :     -0.00000      -0.00000      -0.00000
                        -----------------------------------------
Total Dipole Moment    :     -0.00000      -0.00000       0.00000
                        -----------------------------------------
Magnitude (a.u.)       :      0.00000
Magnitude (Debye)      :      0.00000

Rotational constants in cm-1:     0.031031     0.028671     0.016146
Rotational constants in MHz :   930.298060   859.522687   484.034796

                             ****ORCA TERMINATED NORMALLY****
TOTAL RUN TIME: 0 days 0 hours 2 minutes 18 seconds 192 msec
