                         Program Version 5.0.3 -  RELEASE  -
|  1> ! PBEh-3c def2/J TightSCF DefGrid3
|  2>
|  3> %maxcore 60000
|  4>
|  5> %pal
|  6> nprocs 4
|  7> end
|  8>
|  9> *xyzfile 1 1 si2h6p.xyz
| 10>
| 11>                          ****END OF INPUT****

CARTESIAN COORDINATES (ANGSTROEM)
---------------------------------
  Si    -0.005703    1.591161   -0.000442
  Si     0.005703   -1.591161   -0.000442
  H      1.427294    1.845634   -0.057577
  H     -0.673523    1.843409    1.268368
  H     -0.772026    1.832609   -1.214693
  H      0.673523   -1.843409    1.268368
  H      0.772026   -1.832609   -1.214693
  H     -1.427294   -1.845634   -0.057577
  H      0.000000    0.000000    0.008687

 Total Charge           Charge          ....    1
 Multiplicity           Mult            ....    1
 Number of Electrons    NEL             ....   34
 Basis Dimension        Dim             ....   50

ORBITAL ENERGIES
----------------

  NO   OCC          E(Eh)            E(eV)
   0   2.0000     -66.976425     -1822.5212
   1   2.0000     -66.976374     -1822.5198
   2   2.0000      -5.758806      -156.7051
   3   2.0000      -5.758753      -156.7036
   4   2.0000      -4.053848      -110.3108
   5   2.0000      -4.053749      -110.3081
   6   2.0000      -4.046515      -110.1113
   7   2.0000      -4.046514      -110.1112
   8   2.0000      -4.046510      -110.1111
   9   2.0000      -4.046509      -110.1111
  10   2.0000      -0.881103       -23.9760
  11   2.0000      -0.805157       -21.9094
  12   2.0000      -0.657653       -17.8957
  13   2.0000      -0.628628       -17.1058
  14   2.0000      -0.628484       -17.1019
  15   2.0000      -0.618658       -16.8345
  16   2.0000      -0.618501       -16.8303
  17   0.0000      -0.256956        -6.9921
  18   0.0000      -0.155519        -4.2319
  19   0.0000      -0.124378        -3.3845
  20   0.0000      -0.124268        -3.3815
  21   0.0000      -0.090943        -2.4747

MULLIKEN ATOMIC CHARGES
-----------------------
   0 Si:    0.399071
   1 Si:    0.399071
   2 H :    0.074807
   3 H :    0.075007
   4 H :    0.074783
   5 H :    0.075007
   6 H :    0.074783
   7 H :    0.074807
   8 H :   -0.247335
Sum of atomic charges:    1.0000000

LOEWDIN ATOMIC CHARGES
----------------------
   0 Si:    0.401917
   1 Si:    0.401917
   2 H :    0.039009
   3 H :    0.039062
   4 H :    0.038966
   5 H :    0.039062
   6 H :    0.038966
   7 H :    0.039009
   8 H :   -0.037907

  Mayer bond orders larger than 0.100000
B(  0-Si,  1-Si) :   0.1278 B(  0-Si,  2-H ) :   0.9602 B(  0-Si,  3-H ) :   0.9602
B(  0-Si,  4-H ) :   0.9601 B(  0-Si,  8-H ) :   0.4493 B(  1-Si,  5-H ) :   0.9602
B(  1-Si,  6-H ) :   0.9601 B(  1-Si,  7-H ) :   0.9602 B(  1-Si,  8-H ) :   0.4493

Dispersion correction           -0.002784172
FINAL SINGLE POINT ENERGY      -582.126054550141

DIPOLE MOMENT
-------------
                                X             Y             Z
Electronic contribution:      0.00000       0.00000      -0.00460
Nuclear contribution   :      0.00000       0.00000       0.00332
                        -----------------------------------------
Total Dipole Moment    :      0.00000       0.00000      -0.00128
                        -----------------------------------------
Magnitude (a.u.)       :      0.00128
Magnitude (Debye)      :      0.00325

Rotational constants in cm-1:     1.354301     0.099791     0.099790
Rotational constants in MHz : 40600.931355  2991.662323  2991.632529

                             ****ORCA TERMINATED NORMALLY****
TOTAL RUN TIME: 0 days 0 hours 0 minutes 49 seconds 112 msec
