                         Program Version 5.0.3 -  RELEASE  -
|  1> ! PBEh-3c def2/J TightSCF DefGrid3
|  2>
|  3> %maxcore 60000
|  4>
|  5> %pal
|  6> nprocs 4
|  7> end
|  8>
|  9> *xyzfile 0 1 ass.xyz
| 10>
| 11>                          ****END OF INPUT****

CARTESIAN COORDINATES (ANGSTROEM)
---------------------------------
  C      1.019401    0.266340   -0.120891
  C      0.014537   -0.589066    0.340798
  C      0.218324   -1.957541    0.385889
  C      1.424929   -2.495205   -0.025864
  C      2.432302   -1.663854   -0.490700
  C      2.228259   -0.297319   -0.532663
  C      0.820194    1.735932   -0.155964
  O     -1.171871   -0.113277    0.819360
  O     -0.192962    2.317391    0.129844
  O      1.920381    2.386532   -0.545971
  C     -2.099310    0.314055   -0.081616
  H      1.715715    3.330317   -0.557546
  O     -1.988301    0.135517   -1.254213
  C     -3.228824    0.994832    0.623805
  H     -0.576526   -2.594458    0.749965
  H      1.574610   -3.565994    0.011763
  H      3.376422   -2.077831   -0.816615
  H      3.019947    0.342573   -0.893707
  H     -3.574876    0.413196    1.477250
  H     -4.052846    1.161462   -0.063533
  H     -2.879505    1.956398    1.000609

 Total Charge           Charge          ....    0
 Multiplicity           Mult            ....    1
 Number of Electrons    NEL             ....   94
 Basis Dimension        Dim             ....  211

ORBITAL ENERGIES
----------------

  NO   OCC          E(Eh)            E(eV)
   0   2.0000     -19.549918      -531.9803
   1   2.0000     -19.548871      -531.9518
   2   2.0000     -19.491521      -530.3913
   3   2.0000     -19.482876      -530.1560
   4   2.0000     -10.592698      -288.2420
   5   2.0000     -10.581420      -287.9351
   6   2.0000     -10.530494      -286.5493
   7   2.0000     -10.476373      -285.0766
   8   2.0000     -10.469248      -284.8827
   9   2.0000     -10.468766      -284.8696
  10   2.0000     -10.461098      -284.6610
  11   2.0000     -10.460225      -284.6372
  12   2.0000     -10.440940      -284.1124
  13   2.0000      -1.239729       -33.7348
  14   2.0000      -1.232284       -33.5321
  15   2.0000      -1.140395       -31.0317
  16   2.0000      -1.134146       -30.8617
  17   2.0000      -0.978777       -26.6339
  18   2.0000      -0.878750       -23.9120
  19   2.0000      -0.872220       -23.7343
  20   2.0000      -0.828379       -22.5413
  21   2.0000      -0.760200       -20.6861
  22   2.0000      -0.718680       -19.5563
  23   2.0000      -0.703824       -19.1520
  24   2.0000      -0.645659       -17.5693
  25   2.0000      -0.604349       -16.4452
  26   2.0000      -0.569972       -15.5097
  27   2.0000      -0.564324       -15.3560
  28   2.0000      -0.561314       -15.2741
  29   2.0000      -0.558333       -15.1930
  30   2.0000      -0.539606       -14.6834
  31   2.0000      -0.526640       -14.3306
  32   2.0000      -0.515840       -14.0367
  33   2.0000      -0.506747       -13.7893
  34   2.0000      -0.474038       -12.8992
  35   2.0000      -0.469489       -12.7754
  36   2.0000      -0.463195       -12.6042
  37   2.0000      -0.449322       -12.2267
  38   2.0000      -0.437006       -11.8915
  39   2.0000      -0.427415       -11.6306
  40   2.0000      -0.421381       -11.4664
  41   2.0000      -0.388463       -10.5706
  42   2.0000      -0.372370       -10.1327
  43   2.0000      -0.341101        -9.2818
  44   2.0000      -0.336222        -9.1491
  45   2.0000      -0.314651        -8.5621
  46   2.0000      -0.300575        -8.1791
  47   0.0000      -0.033103        -0.9008
  48   0.0000       0.007700         0.2095
  49   0.0000       0.051788         1.4092
  50   0.0000       0.088293         2.4026
  51   0.0000       0.120994         3.2924

MULLIKEN ATOMIC CHARGES
-----------------------
   0 C :   -0.140303
   1 C :    0.417751
   2 C :   -0.290974
   3 C :   -0.214362
   4 C :   -0.214824
   5 C :   -0.246034
   6 C :    0.548939
   7 O :   -0.482901
   8 O :   -0.395385
   9 O :   -0.589029
  10 C :    0.542802
  11 H :    0.450388
  12 O :   -0.355888
  13 C :   -0.759907
  14 H :    0.241225
  15 H :    0.233226
  16 H :    0.230212
  17 H :    0.253747
  18 H :    0.243930
  19 H :    0.251893
  20 H :    0.275496
Sum of atomic charges:   -0.0000000

LOEWDIN ATOMIC CHARGES
----------------------
   0 C :   -0.110684
   1 C :    0.101864
   2 C :   -0.140060
   3 C :   -0.103760
   4 C :   -0.142408
   5 C :   -0.093016
   6 C :    0.144465
   7 O :   -0.124667
   8 O :   -0.221027
   9 O :   -0.282957
  10 C :    0.151672
  11 H :    0.337414
  12 O :   -0.189537
  13 C :   -0.386419
  14 H :    0.150498
  15 H :    0.142861
  16 H :    0.141547
  17 H :    0.154557
  18 H :    0.150687
  19 H :    0.150316
  20 H :    0.168657

  Mayer bond orders larger than 0.100000
B(  0-C ,  1-C ) :   1.3259 B(  0-C ,  5-C ) :   1.3413 B(  0-C ,  6-C ) :   0.9750
B(  1-C ,  2-C ) :   1.4099 B(  1-C ,  7-O ) :   0.9447 B(  2-C ,  3-C ) :   1.4086
B(  2-C , 14-H ) :   0.9104 B(  3-C ,  4-C ) :   1.4121 B(  3-C , 15-H ) :   0.9161
B(  4-C ,  5-C ) :   1.4347 B(  4-C , 16-H ) :   0.9169 B(  5-C , 17-H ) :   0.9063
B(  6-C ,  8-O ) :   2.0120 B(  6-C ,  9-O ) :   1.1657 B(  7-O , 10-C ) :   0.9844
B(  9-O , 11-H ) :   0.7508 B( 10-C , 12-O ) :   2.1326 B( 10-C , 13-C ) :   0.9530
B( 13-C , 18-H ) :   0.9084 B( 13-C , 19-H ) :   0.9164 B( 13-C , 20-H ) :   0.8933

Dispersion correction           -0.012976488
FINAL SINGLE POINT ENERGY      -647.318145238532

DIPOLE MOMENT
-------------
                                X             Y             Z
Electronic contribution:      2.34819       1.98849      -0.93763
Nuclear contribution   :     -1.73740      -2.16975       1.40153
                        -----------------------------------------
Total Dipole Moment    :      0.61079      -0.18125       0.46390
                        -----------------------------------------
Magnitude (a.u.)       :      0.78811
Magnitude (Debye)      :      2.00322

Rotational constants in cm-1:     0.038429     0.025591     0.016959
Rotational constants in MHz :  1152.082503   767.195590   508.421994

                             ****ORCA TERMINATED NORMALLY****
TOTAL RUN TIME: 0 days 0 hours 2 minutes 33 seconds 98 msec
