                         Program Version 5.0.3 -  RELEASE  -
|  1> ! PBEh-3c def2/J TightSCF DefGrid3
|  2>
|  3> %maxcore 60000
|  4>
|  5> %pal
|  6> nprocs 4
|  7> end
|  8>
|  9> *xyzfile 0 2 c3h7.xyz
| 10>
| 11>                          ****END OF INPUT****

CARTESIAN COORDINATES (ANGSTROEM)
---------------------------------
  C      1.122586   -0.262476    0.000051
  C     -0.151212    0.600844   -0.000063
  C     -1.400642   -0.214805   -0.000017
  H      1.155517   -0.903681    0.881228
  H      1.155544   -0.903871   -0.880985
  H      2.016018    0.363440   -0.000006
  H     -0.134071    1.251563   -0.877096
  H     -0.134125    1.251748    0.876830
  H     -1.814998   -0.591059    0.924430
  H     -1.814617   -0.591704   -0.924372

 Total Charge           Charge          ....    0
 Multiplicity           Mult            ....    2
 Number of Electrons    NEL             ....   25
 Basis Dimension        Dim             ....   59

ORBITAL ENERGIES
----------------
                 SPIN UP ORBITALS
  NO   OCC          E(Eh)            E(eV)
   0   1.0000     -10.440355      -284.0965
   1   1.0000     -10.435840      -283.9737
   2   1.0000     -10.425470      -283.6915
   3   1.0000      -0.874036       -23.7837
   4   1.0000      -0.757565       -20.6144
   5   1.0000      -0.654686       -17.8149
   6   1.0000      -0.526348       -14.3227
   7   1.0000      -0.489009       -13.3066
   8   1.0000      -0.450307       -12.2535
   9   1.0000      -0.436025       -11.8648
  10   1.0000      -0.401579       -10.9275
  11   1.0000      -0.383403       -10.4329
  12   1.0000      -0.252637        -6.8746
  13   0.0000       0.152019         4.1366
  14   0.0000       0.185439         5.0460
  15   0.0000       0.198808         5.4098
  16   0.0000       0.205817         5.6006
  17   0.0000       0.221240         6.0203

                 SPIN DOWN ORBITALS
  NO   OCC          E(Eh)            E(eV)
   0   1.0000     -10.437095      -284.0078
   1   1.0000     -10.424394      -283.6622
   2   1.0000     -10.423662      -283.6423
   3   1.0000      -0.860726       -23.4216
   4   1.0000      -0.732940       -19.9443
   5   1.0000      -0.636642       -17.3239
   6   1.0000      -0.520928       -14.1752
   7   1.0000      -0.481539       -13.1033
   8   1.0000      -0.444105       -12.0847
   9   1.0000      -0.420285       -11.4365
  10   1.0000      -0.395195       -10.7538
  11   1.0000      -0.380934       -10.3657
  12   0.0000      -0.003926        -0.1068
  13   0.0000       0.156406         4.2560
  14   0.0000       0.200880         5.4662
  15   0.0000       0.202020         5.4972
  16   0.0000       0.209225         5.6933

MULLIKEN ATOMIC CHARGES AND SPIN POPULATIONS
--------------------------------------------
   0 C :   -0.629878    0.048233
   1 C :   -0.447230   -0.094640
   2 C :   -0.424698    1.135364
   3 H :    0.214403   -0.001994
   4 H :    0.214399   -0.001995
   5 H :    0.215977    0.011141
   6 H :    0.217882    0.013605
   7 H :    0.217878    0.013578
   8 H :    0.210637   -0.061647
   9 H :    0.210630   -0.061646
Sum of atomic charges         :    0.0000000

LOEWDIN ATOMIC CHARGES AND SPIN POPULATIONS
-------------------------------------------
   0 C :   -0.360971    0.053710
   1 C :   -0.265296   -0.022026
   2 C :   -0.254301    0.999412
   3 H :    0.125400   -0.001542
   4 H :    0.125399   -0.001542
   5 H :    0.125080    0.006892
   6 H :    0.127407    0.012040
   7 H :    0.127405    0.012015
   8 H :    0.124940   -0.029480
   9 H :    0.124937   -0.029480

  Mayer bond orders larger than 0.100000
B(  0-C ,  1-C ) :   0.9680 B(  0-C ,  3-H ) :   0.9298 B(  0-C ,  4-H ) :   0.9298
B(  0-C ,  5-H ) :   0.9274 B(  1-C ,  2-C ) :   1.0134 B(  1-C ,  6-H ) :   0.9196
B(  1-C ,  7-H ) :   0.9196 B(  2-C ,  8-H ) :   0.9239 B(  2-C ,  9-H ) :   0.9239

Dispersion correction           -0.003077674
FINAL SINGLE POINT ENERGY      -118.206873635768

DIPOLE MOMENT
-------------
                                X             Y             Z
Electronic contribution:     -1.01613       0.30869      -0.00005
Nuclear contribution   :      1.12260      -0.32314       0.00007
                        -----------------------------------------
Total Dipole Moment    :      0.10647      -0.01444       0.00002
                        -----------------------------------------
Magnitude (a.u.)       :      0.10744
Magnitude (Debye)      :      0.27309

Rotational constants in cm-1:     1.043668     0.296981     0.266570
Rotational constants in MHz : 31288.377378  8903.264541  7991.556754

                             ****ORCA TERMINATED NORMALLY****
TOTAL RUN TIME: 0 days 0 hours 1 minutes 41 seconds 147 msec
