                         Program Version 5.0.3 -  RELEASE  -
|  1> ! PBEh-3c def2/J TightSCF DefGrid3
|  2>
|  3> %maxcore 60000
|  4>
|  5> %pal
|  6> nprocs 4
|  7> end
|  8>
|  9> *xyzfile 0 1 05r.xyz
| 10>
| 11>                          ****END OF INPUT****

CARTESIAN COORDINATES (ANGSTROEM)
---------------------------------
  N      0.000000    0.000000    1.142716
  C     -1.124157    0.000000    0.352902
  C      1.124157    0.000000    0.352902
  C     -0.711897    0.000000   -0.960066
  C      0.711897    0.000000   -0.960066
  H      0.000000    0.000000    2.148336
  H     -2.111455    0.000000    0.785258
  H      2.111455    0.000000    0.785258
  H     -1.358538    0.000000   -1.823620
  H      1.358538    0.000000   -1.823620

 Total Charge           Charge          ....    0
 Multiplicity           Mult            ....    1
 Number of Electrons    NEL             ....   36
 Basis Dimension        Dim             ....   85

ORBITAL ENERGIES
----------------

  NO   OCC          E(Eh)            E(eV)
   0   2.0000     -14.681177      -399.4951
   1   2.0000     -10.458761      -284.5974
   2   2.0000     -10.458713      -284.5960
   3   2.0000     -10.420623      -283.5596
   4   2.0000     -10.420178      -283.5475
   5   2.0000      -1.074986       -29.2518
   6   2.0000      -0.857275       -23.3276
   7   2.0000      -0.802052       -21.8249
   8   2.0000      -0.657605       -17.8944
   9   2.0000      -0.631236       -17.1768
  10   2.0000      -0.609266       -16.5790
  11   2.0000      -0.484679       -13.1888
  12   2.0000      -0.477416       -12.9911
  13   2.0000      -0.461713       -12.5639
  14   2.0000      -0.441224       -12.0063
  15   2.0000      -0.425768       -11.5857
  16   2.0000      -0.282406        -7.6847
  17   2.0000      -0.248010        -6.7487
  18   0.0000       0.070937         1.9303
  19   0.0000       0.117486         3.1970
  20   0.0000       0.128227         3.4892
  21   0.0000       0.193783         5.2731
  22   0.0000       0.223703         6.0873

MULLIKEN ATOMIC CHARGES
-----------------------
   0 N :   -0.578201
   1 C :   -0.029276
   2 C :   -0.029276
   3 C :   -0.299866
   4 C :   -0.299865
   5 H :    0.360260
   6 H :    0.228940
   7 H :    0.228940
   8 H :    0.209172
   9 H :    0.209172
Sum of atomic charges:   -0.0000000

LOEWDIN ATOMIC CHARGES
----------------------
   0 N :   -0.138400
   1 C :   -0.123367
   2 C :   -0.123367
   3 C :   -0.202002
   4 C :   -0.202002
   5 H :    0.258557
   6 H :    0.131398
   7 H :    0.131398
   8 H :    0.133892
   9 H :    0.133892

  Mayer bond orders larger than 0.100000
B(  0-N ,  1-C ) :   1.1592 B(  0-N ,  2-C ) :   1.1592 B(  0-N ,  5-H ) :   0.8273
B(  1-C ,  3-C ) :   1.5463 B(  1-C ,  6-H ) :   0.9145 B(  2-C ,  4-C ) :   1.5463
B(  2-C ,  7-H ) :   0.9145 B(  3-C ,  4-C ) :   1.3733 B(  3-C ,  8-H ) :   0.9278
B(  4-C ,  9-H ) :   0.9278

Dispersion correction           -0.004134451
FINAL SINGLE POINT ENERGY      -209.703539715657

DIPOLE MOMENT
-------------
                                X             Y             Z
Electronic contribution:     -0.00000       0.00000       0.82207
Nuclear contribution   :      0.00000       0.00000      -0.03103
                        -----------------------------------------
Total Dipole Moment    :     -0.00000       0.00000       0.79104
                        -----------------------------------------
Magnitude (a.u.)       :      0.79104
Magnitude (Debye)      :      2.01068

Rotational constants in cm-1:     0.305170     0.301081     0.151556
Rotational constants in MHz :  9148.762356  9026.189992  4543.531429

                             ****ORCA TERMINATED NORMALLY****
TOTAL RUN TIME: 0 days 0 hours 1 minutes 17 seconds 709 msec
