                         Program Version 5.0.3 -  RELEASE  -
|  1> ! PBEh-3c def2/J TightSCF DefGrid3
|  2>
|  3> %maxcore 60000
|  4>
|  5> %pal
|  6> nprocs 4
|  7> end
|  8>
|  9> *xyzfile 0 1 15-Hexadiene.xyz
| 10>
| 11>                          ****END OF INPUT****

CARTESIAN COORDINATES (ANGSTROEM)
---------------------------------
  C      0.212010   -0.489573    0.560190
  C     -0.213063    0.490205   -0.560495
  C      0.440945    0.181311   -1.879436
  C     -0.202484   -0.151118   -2.999141
  C     -0.440946   -0.179941    1.879479
  C      0.203558    0.149622    2.999412
  H     -0.053027   -1.508883    0.243770
  H      1.303951   -0.468970    0.673100
  H     -1.304916    0.468789   -0.674088
  H      0.051050    1.509626   -0.243685
  H      1.531750    0.228337   -1.890037
  H     -1.288607   -0.212544   -3.036997
  H      0.327674   -0.370219   -3.922273
  H     -1.531878   -0.223976    1.890205
  H     -0.325866    0.369246    3.922840
  H      1.289847    0.208086    3.037156

 Total Charge           Charge          ....    0
 Multiplicity           Mult            ....    1
 Number of Electrons    NEL             ....   46
 Basis Dimension        Dim             ....  110

ORBITAL ENERGIES
----------------

  NO   OCC          E(Eh)            E(eV)
   0   2.0000     -10.448045      -284.3058
   1   2.0000     -10.447999      -284.3045
   2   2.0000     -10.443594      -284.1847
   3   2.0000     -10.443405      -284.1795
   4   2.0000     -10.434542      -283.9383
   5   2.0000     -10.434536      -283.9382
   6   2.0000      -0.905603       -24.6427
   7   2.0000      -0.863060       -23.4851
   8   2.0000      -0.798357       -21.7244
   9   2.0000      -0.711077       -19.3494
  10   2.0000      -0.627614       -17.0782
  11   2.0000      -0.619065       -16.8456
  12   2.0000      -0.539828       -14.6895
  13   2.0000      -0.523038       -14.2326
  14   2.0000      -0.502854       -13.6834
  15   2.0000      -0.460877       -12.5411
  16   2.0000      -0.460030       -12.5181
  17   2.0000      -0.437244       -11.8980
  18   2.0000      -0.404819       -11.0157
  19   2.0000      -0.390095       -10.6150
  20   2.0000      -0.382132       -10.3983
  21   2.0000      -0.308301        -8.3893
  22   2.0000      -0.294295        -8.0082
  23   0.0000       0.041103         1.1185
  24   0.0000       0.048445         1.3182
  25   0.0000       0.152507         4.1499
  26   0.0000       0.168393         4.5822
  27   0.0000       0.170768         4.6468

MULLIKEN ATOMIC CHARGES
-----------------------
   0 C :   -0.471841
   1 C :   -0.471905
   2 C :   -0.124703
   3 C :   -0.487622
   4 C :   -0.124647
   5 C :   -0.487659
   6 H :    0.232399
   7 H :    0.216453
   8 H :    0.216442
   9 H :    0.232386
  10 H :    0.211874
  11 H :    0.208554
  12 H :    0.214933
  13 H :    0.211854
  14 H :    0.214929
  15 H :    0.208554
Sum of atomic charges:    0.0000000

LOEWDIN ATOMIC CHARGES
----------------------
   0 C :   -0.234862
   1 C :   -0.234879
   2 C :   -0.139454
   3 C :   -0.275661
   4 C :   -0.139458
   5 C :   -0.275665
   6 H :    0.135338
   7 H :    0.127295
   8 H :    0.127292
   9 H :    0.135321
  10 H :    0.127913
  11 H :    0.127573
  12 H :    0.131883
  13 H :    0.127908
  14 H :    0.131882
  15 H :    0.127573

  Mayer bond orders larger than 0.100000
B(  0-C ,  1-C ) :   0.9434 B(  0-C ,  4-C ) :   0.9992 B(  0-C ,  6-H ) :   0.9073
B(  0-C ,  7-H ) :   0.9223 B(  1-C ,  2-C ) :   0.9993 B(  1-C ,  8-H ) :   0.9223
B(  1-C ,  9-H ) :   0.9073 B(  2-C ,  3-C ) :   1.9364 B(  2-C , 10-H ) :   0.9171
B(  3-C , 11-H ) :   0.9303 B(  3-C , 12-H ) :   0.9292 B(  4-C ,  5-C ) :   1.9364
B(  4-C , 13-H ) :   0.9171 B(  5-C , 14-H ) :   0.9292 B(  5-C , 15-H ) :   0.9303

Dispersion correction           -0.006879495
FINAL SINGLE POINT ENERGY      -234.082612666072

DIPOLE MOMENT
-------------
                                X             Y             Z
Electronic contribution:      0.00001       0.00112      -0.00002
Nuclear contribution   :     -0.00005      -0.00111      -0.00002
                        -----------------------------------------
Total Dipole Moment    :     -0.00004       0.00000      -0.00004
                        -----------------------------------------
Magnitude (a.u.)       :      0.00006
Magnitude (Debye)      :      0.00015

Rotational constants in cm-1:     0.542768     0.044486     0.043805
Rotational constants in MHz : 16271.780598  1333.665121  1313.249508

                             ****ORCA TERMINATED NORMALLY****
TOTAL RUN TIME: 0 days 0 hours 1 minutes 39 seconds 53 msec
