                         Program Version 5.0.3 -  RELEASE  -
|  1> ! PBEh-3c def2/J TightSCF DefGrid3
|  2>
|  3> %maxcore 60000
|  4>
|  5> %pal
|  6> nprocs 4
|  7> end
|  8>
|  9> *xyzfile 0 1 f2o.xyz
| 10>
| 11>                          ****END OF INPUT****

CARTESIAN COORDINATES (ANGSTROEM)
---------------------------------
  F     -1.100771   -0.258989    0.000000
  O      0.000000    0.615070    0.000000
  F      1.100771   -0.258989    0.000000

 Total Charge           Charge          ....    0
 Multiplicity           Mult            ....    1
 Number of Electrons    NEL             ....   26
 Basis Dimension        Dim             ....   45

ORBITAL ENERGIES
----------------

  NO   OCC          E(Eh)            E(eV)
   0   2.0000     -25.180919      -685.2077
   1   2.0000     -25.180903      -685.2072
   2   2.0000     -19.728164      -536.8306
   3   2.0000      -1.465883       -39.8887
   4   2.0000      -1.350382       -36.7458
   5   2.0000      -1.046967       -28.4894
   6   2.0000      -0.677867       -18.4457
   7   2.0000      -0.642032       -17.4706
   8   2.0000      -0.628915       -17.1137
   9   2.0000      -0.536512       -14.5992
  10   2.0000      -0.512777       -13.9534
  11   2.0000      -0.511593       -13.9212
  12   2.0000      -0.409220       -11.1355
  13   0.0000      -0.040476        -1.1014
  14   0.0000      -0.007105        -0.1933
  15   0.0000       0.758277        20.6338
  16   0.0000       0.803736        21.8708
  17   0.0000       0.910673        24.7807

MULLIKEN ATOMIC CHARGES
-----------------------
   0 F :   -0.153682
   1 O :    0.307364
   2 F :   -0.153682
Sum of atomic charges:    0.0000000

LOEWDIN ATOMIC CHARGES
----------------------
   0 F :   -0.138553
   1 O :    0.277105
   2 F :   -0.138553

  Mayer bond orders larger than 0.100000
B(  0-F ,  1-O ) :   1.0009 B(  1-O ,  2-F ) :   1.0009

Dispersion correction           -0.000296279
FINAL SINGLE POINT ENERGY      -274.116669757229

DIPOLE MOMENT
-------------
                                X             Y             Z
Electronic contribution:      0.00000      -0.36765      -0.00000
Nuclear contribution   :      0.00000       0.48902       0.00000
                        -----------------------------------------
Total Dipole Moment    :      0.00000       0.12137      -0.00000
                        -----------------------------------------
Magnitude (a.u.)       :      0.12137
Magnitude (Debye)      :      0.30849

Rotational constants in cm-1:     1.959920     0.366155     0.308517
Rotational constants in MHz : 58756.921507 10977.055118  9249.120689

                             ****ORCA TERMINATED NORMALLY****
TOTAL RUN TIME: 0 days 0 hours 0 minutes 22 seconds 54 msec
