                         Program Version 5.0.3 -  RELEASE  -
|  1> ! PBEh-3c def2/J TightSCF DefGrid3
|  2>
|  3> %maxcore 60000
|  4>
|  5> %pal
|  6> nprocs 4
|  7> end
|  8>
|  9> *xyzfile 0 1 C5H8.xyz
| 10>
| 11>                          ****END OF INPUT****

CARTESIAN COORDINATES (ANGSTROEM)
---------------------------------
  C     -1.955622   -0.539541    0.000008
  C     -1.131085    0.713180    0.000050
  C      0.205648    0.807009    0.000027
  C      1.157570   -0.301674   -0.000043
  C      2.483598   -0.126203   -0.000035
  H     -2.605071   -0.568863    0.877133
  H     -2.605113   -0.568773   -0.877089
  H     -1.351317   -1.443349   -0.000054
  H     -1.693653    1.640320    0.000104
  H      0.645771    1.798375    0.000065
  H      0.765275   -1.310510   -0.000104
  H      3.164707   -0.964989   -0.000087
  H      2.919291    0.865017    0.000024

 Total Charge           Charge          ....    0
 Multiplicity           Mult            ....    1
 Number of Electrons    NEL             ....   38
 Basis Dimension        Dim             ....   91

ORBITAL ENERGIES
----------------

  NO   OCC          E(Eh)            E(eV)
   0   2.0000     -10.448514      -284.3185
   1   2.0000     -10.447892      -284.3016
   2   2.0000     -10.442075      -284.1433
   3   2.0000     -10.436347      -283.9874
   4   2.0000     -10.434614      -283.9403
   5   2.0000      -0.904401       -24.6100
   6   2.0000      -0.845948       -23.0194
   7   2.0000      -0.768132       -20.9019
   8   2.0000      -0.666539       -18.1375
   9   2.0000      -0.600956       -16.3528
  10   2.0000      -0.543265       -14.7830
  11   2.0000      -0.509835       -13.8733
  12   2.0000      -0.471755       -12.8371
  13   2.0000      -0.462922       -12.5968
  14   2.0000      -0.437994       -11.9184
  15   2.0000      -0.425137       -11.5686
  16   2.0000      -0.384908       -10.4739
  17   2.0000      -0.363110        -9.8807
  18   2.0000      -0.263008        -7.1568
  19   0.0000       0.003471         0.0945
  20   0.0000       0.113324         3.0837
  21   0.0000       0.151939         4.1345
  22   0.0000       0.163108         4.4384
  23   0.0000       0.181058         4.9268

MULLIKEN ATOMIC CHARGES
-----------------------
   0 C :   -0.688820
   1 C :   -0.206838
   2 C :   -0.200698
   3 C :   -0.166670
   4 C :   -0.494760
   5 H :    0.230755
   6 H :    0.230754
   7 H :    0.224374
   8 H :    0.215013
   9 H :    0.210647
  10 H :    0.212278
  11 H :    0.219087
  12 H :    0.214878
Sum of atomic charges:   -0.0000000

LOEWDIN ATOMIC CHARGES
----------------------
   0 C :   -0.360889
   1 C :   -0.143048
   2 C :   -0.158005
   3 C :   -0.140785
   4 C :   -0.263174
   5 H :    0.138326
   6 H :    0.138326
   7 H :    0.130253
   8 H :    0.131618
   9 H :    0.134057
  10 H :    0.130391
  11 H :    0.132951
  12 H :    0.129977

  Mayer bond orders larger than 0.100000
B(  0-C ,  1-C ) :   1.0019 B(  0-C ,  5-H ) :   0.9143 B(  0-C ,  6-H ) :   0.9143
B(  0-C ,  7-H ) :   0.9230 B(  1-C ,  2-C ) :   1.8278 B(  1-C ,  4-C ) :   0.1104
B(  1-C ,  8-H ) :   0.9197 B(  2-C ,  3-C ) :   1.0936 B(  2-C ,  9-H ) :   0.9207
B(  3-C ,  4-C ) :   1.8467 B(  3-C , 10-H ) :   0.9170 B(  4-C , 11-H ) :   0.9292
B(  4-C , 12-H ) :   0.9300

Dispersion correction           -0.005185101
FINAL SINGLE POINT ENERGY      -194.866631877668

DIPOLE MOMENT
-------------
                                X             Y             Z
Electronic contribution:      1.43661       1.13737       0.00002
Nuclear contribution   :     -1.63461      -1.18873      -0.00002
                        -----------------------------------------
Total Dipole Moment    :     -0.19801      -0.05136       0.00000
                        -----------------------------------------
Magnitude (a.u.)       :      0.20456
Magnitude (Debye)      :      0.51995

Rotational constants in cm-1:     0.529370     0.088422     0.076838
Rotational constants in MHz : 15870.104762  2650.831314  2303.542852

                             ****ORCA TERMINATED NORMALLY****
TOTAL RUN TIME: 0 days 0 hours 1 minutes 29 seconds 0 msec
