                         Program Version 5.0.3 -  RELEASE  -
|  1> ! PBEh-3c def2/J TightSCF DefGrid3
|  2>
|  3> %maxcore 60000
|  4>
|  5> %pal
|  6> nprocs 4
|  7> end
|  8>
|  9> *xyzfile 0 1 ts6h2o.xyz
| 10>
| 11>                          ****END OF INPUT****

CARTESIAN COORDINATES (ANGSTROEM)
---------------------------------
  C      0.400536    0.981737    0.000000
  H      1.439562    1.305672    0.000000
  C     -0.140918    0.610512    1.236330
  H     -1.222768    0.568193    1.337934
  H     -0.024329   -0.774016    0.808303
  H      0.390421    0.880481    2.139292
  H     -0.024329   -0.774016   -0.808303
  O     -0.140918   -1.709205    0.000000
  H      0.688936   -2.197916    0.000000
  C     -0.140918    0.610512   -1.236330
  H      0.390421    0.880481   -2.139292
  H     -1.222768    0.568193   -1.337934

 Total Charge           Charge          ....    0
 Multiplicity           Mult            ....    1
 Number of Electrons    NEL             ....   34
 Basis Dimension        Dim             ....   76

ORBITAL ENERGIES
----------------

  NO   OCC          E(Eh)            E(eV)
   0   2.0000     -19.497032      -530.5412
   1   2.0000     -10.479147      -285.1521
   2   2.0000     -10.414244      -283.3860
   3   2.0000     -10.414181      -283.3843
   4   2.0000      -1.104909       -30.0661
   5   2.0000      -0.894930       -24.3523
   6   2.0000      -0.758400       -20.6371
   7   2.0000      -0.634687       -17.2707
   8   2.0000      -0.584492       -15.9048
   9   2.0000      -0.526897       -14.3376
  10   2.0000      -0.496259       -13.5039
  11   2.0000      -0.474422       -12.9097
  12   2.0000      -0.457306       -12.4439
  13   2.0000      -0.422834       -11.5059
  14   2.0000      -0.406086       -11.0502
  15   2.0000      -0.335764        -9.1366
  16   2.0000      -0.251417        -6.8414
  17   0.0000       0.004393         0.1196
  18   0.0000       0.142020         3.8646
  19   0.0000       0.157994         4.2992
  20   0.0000       0.204037         5.5521
  21   0.0000       0.204472         5.5640

MULLIKEN ATOMIC CHARGES
-----------------------
   0 C :   -0.054371
   1 H :    0.225079
   2 C :   -0.775864
   3 H :    0.258808
   4 H :    0.398931
   5 H :    0.226634
   6 H :    0.398931
   7 O :   -0.810167
   8 H :    0.422442
   9 C :   -0.775864
  10 H :    0.226634
  11 H :    0.258808
Sum of atomic charges:   -0.0000000

LOEWDIN ATOMIC CHARGES
----------------------
   0 C :   -0.046115
   1 H :    0.134576
   2 C :   -0.487387
   3 H :    0.145399
   4 H :    0.321014
   5 H :    0.133167
   6 H :    0.321014
   7 O :   -0.620840
   8 H :    0.307994
   9 C :   -0.487387
  10 H :    0.133167
  11 H :    0.145399

  Mayer bond orders larger than 0.100000
B(  0-C ,  1-H ) :   0.9170 B(  0-C ,  2-C ) :   1.3517 B(  0-C ,  9-C ) :   1.3517
B(  2-C ,  3-H ) :   0.9017 B(  2-C ,  4-H ) :   0.3600 B(  2-C ,  5-H ) :   0.9288
B(  4-H ,  7-O ) :   0.4097 B(  6-H ,  7-O ) :   0.4097 B(  6-H ,  9-C ) :   0.3600
B(  7-O ,  8-H ) :   0.7938 B(  9-C , 10-H ) :   0.9288 B(  9-C , 11-H ) :   0.9017

Dispersion correction           -0.004499830
FINAL SINGLE POINT ENERGY      -193.809634946027

DIPOLE MOMENT
-------------
                                X             Y             Z
Electronic contribution:      0.30923      -0.57930      -0.00000
Nuclear contribution   :      0.43875       0.45703       0.00000
                        -----------------------------------------
Total Dipole Moment    :      0.74798      -0.12227      -0.00000
                        -----------------------------------------
Magnitude (a.u.)       :      0.75791
Magnitude (Debye)      :      1.92645

Rotational constants in cm-1:     0.286097     0.196283     0.130982
Rotational constants in MHz :  8576.969795  5884.415507  3926.742079

                             ****ORCA TERMINATED NORMALLY****
TOTAL RUN TIME: 0 days 0 hours 1 minutes 15 seconds 982 msec
