                         Program Version 5.0.3 -  RELEASE  -
|  1> ! PBEh-3c def2/J TightSCF DefGrid3
|  2>
|  3> %maxcore 60000
|  4>
|  5> %pal
|  6> nprocs 4
|  7> end
|  8>
|  9> *xyzfile 0 1 F22f.xyz
| 10>
| 11>                          ****END OF INPUT****

CARTESIAN COORDINATES (ANGSTROEM)
---------------------------------
  C      1.877449    0.420184    2.757144
  C      1.598694   -0.367672    4.049487
  C      1.538398    0.525819    5.310948
  C      0.768306   -0.105417    6.498950
  C     -0.768306    0.105417    6.498950
  C     -1.538398   -0.525819    5.310948
  C     -1.598694    0.367672    4.049487
  C     -1.877449   -0.420184    2.757144
  C     -1.736051    0.438510    1.488580
  C     -1.889892   -0.371685    0.190496
  C     -1.708501    0.478627   -1.078230
  C     -1.861426   -0.334355   -2.374768
  C     -1.692183    0.514179   -3.646304
  C     -1.857928   -0.299634   -4.941855
  C     -1.704131    0.561813   -6.209077
  C      1.736051   -0.438510    1.488580
  C      1.889892    0.371685    0.190496
  C      1.708501   -0.478627   -1.078230
  C      1.861426    0.334355   -2.374768
  C      1.692183   -0.514179   -3.646304
  C      1.857928    0.299634   -4.941855
  C      1.704131   -0.561813   -6.209077
  H      2.882762    0.871751    2.794950
  H      1.161895    1.257319    2.696053
  H      0.649612   -0.901891    3.925129
  H      2.369250   -1.143063    4.188985
  H      1.068407    1.489210    5.054410
  H      2.567450    0.762095    5.623759
  H      0.978992   -1.188084    6.529148
  H      1.157440    0.314181    7.439775
  H     -0.978992    1.188084    6.529148
  H     -1.157440   -0.314181    7.439775
  H     -1.068407   -1.489210    5.054410
  H     -2.567450   -0.762095    5.623759
  H     -0.649612    0.901891    3.925129
  H     -2.369250    1.143063    4.188985
  H     -1.161895   -1.257319    2.696053
  H     -2.882762   -0.871751    2.794950
  H     -0.743981    0.916633    1.494712
  H     -2.479415    1.252825    1.505082
  H     -1.146667   -1.186382    0.187495
  H     -2.882306   -0.852501    0.170615
  H     -0.711955    0.945741   -1.059422
  H     -2.443401    1.300935   -1.074715
  H     -1.117895   -1.148145   -2.379953
  H     -2.853432   -0.816435   -2.387791
  H     -0.696514    0.983109   -3.639132
  H     -2.428326    1.335584   -3.635997
  H     -1.111865   -1.109937   -4.951911
  H     -2.847896   -0.784126   -4.938032
  H     -0.709351    1.028344   -6.241091
  H     -1.825667   -0.038594   -7.122574
  H     -2.456857    1.364914   -6.224867
  H      0.743981   -0.916633    1.494712
  H      2.479415   -1.252825    1.505082
  H      1.146667    1.186382    0.187495
  H      2.882306    0.852501    0.170615
  H      0.711955   -0.945741   -1.059422
  H      2.443401   -1.300935   -1.074715
  H      1.117895    1.148145   -2.379953
  H      2.853432    0.816435   -2.387791
  H      0.696514   -0.983109   -3.639132
  H      2.428326   -1.335584   -3.635997
  H      1.111865    1.109937   -4.951911
  H      2.847896    0.784126   -4.938032
  H      0.709351   -1.028344   -6.241091
  H      1.825667    0.038594   -7.122574
  H      2.456857   -1.364914   -6.224867

 Total Charge           Charge          ....    0
 Multiplicity           Mult            ....    1
 Number of Electrons    NEL             ....  178
 Basis Dimension        Dim             ....  422

ORBITAL ENERGIES
----------------

  NO   OCC          E(Eh)            E(eV)
   0   2.0000     -10.432342      -283.8785
   1   2.0000     -10.432331      -283.8782
   2   2.0000     -10.431207      -283.8476
   3   2.0000     -10.431039      -283.8430
   4   2.0000     -10.430310      -283.8232
   5   2.0000     -10.430305      -283.8230
   6   2.0000     -10.430298      -283.8228
   7   2.0000     -10.430294      -283.8227
   8   2.0000     -10.430167      -283.8193
   9   2.0000     -10.430157      -283.8190
  10   2.0000     -10.430121      -283.8180
  11   2.0000     -10.430117      -283.8179
  12   2.0000     -10.429687      -283.8062
  13   2.0000     -10.429671      -283.8058
  14   2.0000     -10.429590      -283.8036
  15   2.0000     -10.429585      -283.8034
  16   2.0000     -10.429567      -283.8030
  17   2.0000     -10.429563      -283.8028
  18   2.0000     -10.428139      -283.7641
  19   2.0000     -10.428137      -283.7640
  20   2.0000     -10.423641      -283.6417
  21   2.0000     -10.423633      -283.6415
  22   2.0000      -0.907755       -24.7013
  23   2.0000      -0.896505       -24.3951
  24   2.0000      -0.896264       -24.3886
  25   2.0000      -0.879190       -23.9240
  26   2.0000      -0.874872       -23.8065
  27   2.0000      -0.852633       -23.2013
  28   2.0000      -0.844094       -22.9690
  29   2.0000      -0.818015       -22.2593
  30   2.0000      -0.804773       -21.8990
  31   2.0000      -0.776482       -21.1292
  32   2.0000      -0.759306       -20.6618
  33   2.0000      -0.729165       -19.8416
  34   2.0000      -0.708934       -19.2911
  35   2.0000      -0.682783       -18.5795
  36   2.0000      -0.664296       -18.0764
  37   2.0000      -0.652134       -17.7455
  38   2.0000      -0.646852       -17.6017
  39   2.0000      -0.643946       -17.5227
  40   2.0000      -0.640833       -17.4379
  41   2.0000      -0.637106       -17.3365
  42   2.0000      -0.634640       -17.2694
  43   2.0000      -0.625412       -17.0183
  44   2.0000      -0.564689       -15.3660
  45   2.0000      -0.551167       -14.9980
  46   2.0000      -0.528191       -14.3728
  47   2.0000      -0.525093       -14.2885
  48   2.0000      -0.509244       -13.8572
  49   2.0000      -0.500547       -13.6206
  50   2.0000      -0.499625       -13.5955
  51   2.0000      -0.487270       -13.2593
  52   2.0000      -0.487197       -13.2573
  53   2.0000      -0.485419       -13.2089
  54   2.0000      -0.478181       -13.0120
  55   2.0000      -0.473358       -12.8807
  56   2.0000      -0.469664       -12.7802
  57   2.0000      -0.460879       -12.5412
  58   2.0000      -0.460401       -12.5281
  59   2.0000      -0.456380       -12.4187
  60   2.0000      -0.444160       -12.0862
  61   2.0000      -0.436100       -11.8669
  62   2.0000      -0.433648       -11.8002
  63   2.0000      -0.430038       -11.7019
  64   2.0000      -0.427180       -11.6242
  65   2.0000      -0.415648       -11.3104
  66   2.0000      -0.414917       -11.2905
  67   2.0000      -0.403314       -10.9747
  68   2.0000      -0.399255       -10.8643
  69   2.0000      -0.396592       -10.7918
  70   2.0000      -0.391995       -10.6667
  71   2.0000      -0.384536       -10.4638
  72   2.0000      -0.383448       -10.4341
  73   2.0000      -0.381505       -10.3813
  74   2.0000      -0.378745       -10.3062
  75   2.0000      -0.377842       -10.2816
  76   2.0000      -0.377116       -10.2618
  77   2.0000      -0.375421       -10.2157
  78   2.0000      -0.373979       -10.1765
  79   2.0000      -0.370967       -10.0945
  80   2.0000      -0.365168        -9.9367
  81   2.0000      -0.364936        -9.9304
  82   2.0000      -0.359274        -9.7763
  83   2.0000      -0.358393        -9.7524
  84   2.0000      -0.356915        -9.7121
  85   2.0000      -0.350920        -9.5490
  86   2.0000      -0.343454        -9.3459
  87   2.0000      -0.338322        -9.2062
  88   2.0000      -0.328920        -8.9504
  89   0.0000       0.099559         2.7091
  90   0.0000       0.108761         2.9595
  91   0.0000       0.119122         3.2415
  92   0.0000       0.131541         3.5794
  93   0.0000       0.133665         3.6372

MULLIKEN ATOMIC CHARGES
-----------------------
   0 C :   -0.408928
   1 C :   -0.433509
   2 C :   -0.419929
   3 C :   -0.417575
   4 C :   -0.417575
   5 C :   -0.419929
   6 C :   -0.433510
   7 C :   -0.408928
   8 C :   -0.420032
   9 C :   -0.407651
  10 C :   -0.420729
  11 C :   -0.408437
  12 C :   -0.415509
  13 C :   -0.418968
  14 C :   -0.648184
  15 C :   -0.420033
  16 C :   -0.407650
  17 C :   -0.420729
  18 C :   -0.408437
  19 C :   -0.415509
  20 C :   -0.418969
  21 C :   -0.648184
  22 H :    0.209049
  23 H :    0.197582
  24 H :    0.221475
  25 H :    0.214892
  26 H :    0.201378
  27 H :    0.216569
  28 H :    0.204246
  29 H :    0.214005
  30 H :    0.204245
  31 H :    0.214005
  32 H :    0.201378
  33 H :    0.216569
  34 H :    0.221474
  35 H :    0.214892
  36 H :    0.197582
  37 H :    0.209049
  38 H :    0.213955
  39 H :    0.207795
  40 H :    0.200885
  41 H :    0.205332
  42 H :    0.216137
  43 H :    0.206653
  44 H :    0.202345
  45 H :    0.204703
  46 H :    0.214506
  47 H :    0.205990
  48 H :    0.205144
  49 H :    0.208838
  50 H :    0.219412
  51 H :    0.216651
  52 H :    0.211912
  53 H :    0.213955
  54 H :    0.207795
  55 H :    0.200885
  56 H :    0.205332
  57 H :    0.216137
  58 H :    0.206653
  59 H :    0.202345
  60 H :    0.204704
  61 H :    0.214506
  62 H :    0.205990
  63 H :    0.205144
  64 H :    0.208838
  65 H :    0.219412
  66 H :    0.216651
  67 H :    0.211912
Sum of atomic charges:   -0.0000000

LOEWDIN ATOMIC CHARGES
----------------------
   0 C :   -0.237676
   1 C :   -0.243722
   2 C :   -0.242216
   3 C :   -0.237654
   4 C :   -0.237654
   5 C :   -0.242216
   6 C :   -0.243722
   7 C :   -0.237676
   8 C :   -0.238354
   9 C :   -0.236831
  10 C :   -0.238342
  11 C :   -0.237299
  12 C :   -0.240225
  13 C :   -0.244612
  14 C :   -0.362708
  15 C :   -0.238354
  16 C :   -0.236831
  17 C :   -0.238342
  18 C :   -0.237299
  19 C :   -0.240225
  20 C :   -0.244612
  21 C :   -0.362708
  22 H :    0.120416
  23 H :    0.113859
  24 H :    0.122106
  25 H :    0.121992
  26 H :    0.116724
  27 H :    0.123004
  28 H :    0.119434
  29 H :    0.123248
  30 H :    0.119434
  31 H :    0.123248
  32 H :    0.116724
  33 H :    0.123004
  34 H :    0.122106
  35 H :    0.121992
  36 H :    0.113859
  37 H :    0.120417
  38 H :    0.119374
  39 H :    0.120583
  40 H :    0.115519
  41 H :    0.119543
  42 H :    0.120047
  43 H :    0.120058
  44 H :    0.115868
  45 H :    0.119264
  46 H :    0.119354
  47 H :    0.119628
  48 H :    0.115446
  49 H :    0.119860
  50 H :    0.124618
  51 H :    0.126016
  52 H :    0.123678
  53 H :    0.119374
  54 H :    0.120583
  55 H :    0.115519
  56 H :    0.119543
  57 H :    0.120047
  58 H :    0.120058
  59 H :    0.115868
  60 H :    0.119264
  61 H :    0.119354
  62 H :    0.119628
  63 H :    0.115446
  64 H :    0.119861
  65 H :    0.124618
  66 H :    0.126016
  67 H :    0.123678

  Mayer bond orders larger than 0.100000
B(  0-C ,  1-C ) :   0.9837 B(  0-C , 15-C ) :   0.9855 B(  0-C , 22-H ) :   0.9182
B(  0-C , 23-H ) :   0.9113 B(  1-C ,  2-C ) :   0.9702 B(  1-C , 24-H ) :   0.9006
B(  1-C , 25-H ) :   0.9187 B(  2-C ,  3-C ) :   0.9651 B(  2-C , 26-H ) :   0.9209
B(  2-C , 27-H ) :   0.9260 B(  3-C ,  4-C ) :   0.9954 B(  3-C , 28-H ) :   0.9192
B(  3-C , 29-H ) :   0.9260 B(  4-C ,  5-C ) :   0.9651 B(  4-C , 30-H ) :   0.9192
B(  4-C , 31-H ) :   0.9260 B(  5-C ,  6-C ) :   0.9702 B(  5-C , 32-H ) :   0.9209
B(  5-C , 33-H ) :   0.9260 B(  6-C ,  7-C ) :   0.9837 B(  6-C , 34-H ) :   0.9006
B(  6-C , 35-H ) :   0.9187 B(  7-C ,  8-C ) :   0.9855 B(  7-C , 36-H ) :   0.9113
B(  7-C , 37-H ) :   0.9182 B(  8-C ,  9-C ) :   0.9870 B(  8-C , 38-H ) :   0.9012
B(  8-C , 39-H ) :   0.9187 B(  9-C , 10-C ) :   0.9870 B(  9-C , 40-H ) :   0.9099
B(  9-C , 41-H ) :   0.9181 B( 10-C , 11-C ) :   0.9866 B( 10-C , 42-H ) :   0.8992
B( 10-C , 43-H ) :   0.9188 B( 11-C , 12-C ) :   0.9873 B( 11-C , 44-H ) :   0.9082
B( 11-C , 45-H ) :   0.9180 B( 12-C , 13-C ) :   0.9823 B( 12-C , 46-H ) :   0.8988
B( 12-C , 47-H ) :   0.9187 B( 13-C , 14-C ) :   0.9911 B( 13-C , 48-H ) :   0.9093
B( 13-C , 49-H ) :   0.9199 B( 14-C , 50-H ) :   0.9163 B( 14-C , 51-H ) :   0.9318
B( 14-C , 52-H ) :   0.9281 B( 15-C , 16-C ) :   0.9870 B( 15-C , 53-H ) :   0.9012
B( 15-C , 54-H ) :   0.9187 B( 16-C , 17-C ) :   0.9870 B( 16-C , 55-H ) :   0.9099
B( 16-C , 56-H ) :   0.9181 B( 17-C , 18-C ) :   0.9866 B( 17-C , 57-H ) :   0.8992
B( 17-C , 58-H ) :   0.9188 B( 18-C , 19-C ) :   0.9873 B( 18-C , 59-H ) :   0.9082
B( 18-C , 60-H ) :   0.9180 B( 19-C , 20-C ) :   0.9823 B( 19-C , 61-H ) :   0.8988
B( 19-C , 62-H ) :   0.9187 B( 20-C , 21-C ) :   0.9911 B( 20-C , 63-H ) :   0.9093
B( 20-C , 64-H ) :   0.9199 B( 21-C , 65-H ) :   0.9163 B( 21-C , 66-H ) :   0.9318
B( 21-C , 67-H ) :   0.9281

Dispersion correction           -0.046632861
FINAL SINGLE POINT ENERGY      -864.195655693808

DIPOLE MOMENT
-------------
                                X             Y             Z
Electronic contribution:      0.00000      -0.00000      10.15079
Nuclear contribution   :     -0.00000      -0.00000     -10.09159
                        -----------------------------------------
Total Dipole Moment    :      0.00000      -0.00000       0.05921
                        -----------------------------------------
Magnitude (a.u.)       :      0.05921
Magnitude (Debye)      :      0.15049

Rotational constants in cm-1:     0.016587     0.003201     0.002769
Rotational constants in MHz :   497.259904    95.960799    83.013997

                             ****ORCA TERMINATED NORMALLY****
TOTAL RUN TIME: 0 days 0 hours 6 minutes 51 seconds 695 msec
