                         Program Version 5.0.3 -  RELEASE  -
|  1> ! PBEh-3c def2/J TightSCF DefGrid3
|  2>
|  3> %maxcore 60000
|  4>
|  5> %pal
|  6> nprocs 4
|  7> end
|  8>
|  9> *xyzfile 0 1 E21.xyz
| 10>
| 11>                          ****END OF INPUT****

CARTESIAN COORDINATES (ANGSTROEM)
---------------------------------
  C     -0.567601    0.092257    0.000000
  N      0.894011    0.175013    0.000000
  H      1.284692   -0.281727    0.815637
  H      1.284692   -0.281727   -0.815637
  H     -0.957222    0.611579    0.877953
  H     -0.981351   -0.926973    0.000000
  H     -0.957222    0.611579   -0.877953

 Total Charge           Charge          ....    0
 Multiplicity           Mult            ....    1
 Number of Electrons    NEL             ....   18
 Basis Dimension        Dim             ....   40

ORBITAL ENERGIES
----------------

  NO   OCC          E(Eh)            E(eV)
   0   2.0000     -14.603192      -397.3731
   1   2.0000     -10.447250      -284.2841
   2   2.0000      -0.961443       -26.1622
   3   2.0000      -0.733547       -19.9608
   4   2.0000      -0.545657       -14.8481
   5   2.0000      -0.491393       -13.3715
   6   2.0000      -0.453343       -12.3361
   7   2.0000      -0.416450       -11.3322
   8   2.0000      -0.279239        -7.5985
   9   0.0000       0.138843         3.7781
  10   0.0000       0.199365         5.4250
  11   0.0000       0.211004         5.7417
  12   0.0000       0.229784         6.2528
  13   0.0000       0.233432         6.3520

MULLIKEN ATOMIC CHARGES
-----------------------
   0 C :   -0.495015
   1 N :   -0.743093
   2 H :    0.314771
   3 H :    0.314771
   4 H :    0.214859
   5 H :    0.178849
   6 H :    0.214859
Sum of atomic charges:    0.0000000

LOEWDIN ATOMIC CHARGES
----------------------
   0 C :   -0.277536
   1 N :   -0.489684
   2 H :    0.218773
   3 H :    0.218773
   4 H :    0.119887
   5 H :    0.089898
   6 H :    0.119887

  Mayer bond orders larger than 0.100000
B(  0-C ,  1-N ) :   1.0323 B(  0-C ,  4-H ) :   0.9265 B(  0-C ,  5-H ) :   0.9168
B(  0-C ,  6-H ) :   0.9265 B(  1-N ,  2-H ) :   0.8663 B(  1-N ,  3-H ) :   0.8663

Dispersion correction           -0.001522180
FINAL SINGLE POINT ENERGY       -95.642684975788

DIPOLE MOMENT
-------------
                                X             Y             Z
Electronic contribution:      1.03151       0.19370      -0.00000
Nuclear contribution   :     -1.11422      -0.74729       0.00000
                        -----------------------------------------
Total Dipole Moment    :     -0.08271      -0.55359      -0.00000
                        -----------------------------------------
Magnitude (a.u.)       :      0.55974
Magnitude (Debye)      :      1.42274

Rotational constants in cm-1:     3.470052     0.757906     0.727420
Rotational constants in MHz : 104029.553375 22721.447133 21807.499203

                             ****ORCA TERMINATED NORMALLY****
TOTAL RUN TIME: 0 days 0 hours 1 minutes 0 seconds 771 msec
