                         Program Version 5.0.3 -  RELEASE  -
|  1> ! PBEh-3c def2/J TightSCF DefGrid3
|  2>
|  3> %maxcore 60000
|  4>
|  5> %pal
|  6> nprocs 4
|  7> end
|  8>
|  9> *xyzfile 0 1 P3.xyz
| 10>
| 11>                          ****END OF INPUT****

CARTESIAN COORDINATES (ANGSTROEM)
---------------------------------
  C     -0.317604    0.202408   -1.119905
  C      0.515876    1.377830   -0.666386
  C      0.515876    1.377830    0.666386
  C     -0.317604    0.202408    1.119905
  C     -1.365047    0.159947    0.000000
  C      0.513552   -1.064937   -0.773729
  C      0.513552   -1.064937    0.773729
  H     -0.683176    0.235623   -2.145679
  H      1.102408    2.011282   -1.320318
  H      1.102408    2.011282    1.320318
  H     -0.683176    0.235623    2.145679
  H     -2.020628    1.032459    0.000000
  H     -1.960797   -0.757576    0.000000
  H      0.025240   -1.959152   -1.169049
  H      1.516940   -1.020469   -1.199429
  H      0.025240   -1.959152    1.169049
  H      1.516940   -1.020469    1.199429

 Total Charge           Charge          ....    0
 Multiplicity           Mult            ....    1
 Number of Electrons    NEL             ....   52
 Basis Dimension        Dim             ....  125

ORBITAL ENERGIES
----------------

  NO   OCC          E(Eh)            E(eV)
   0   2.0000     -10.440759      -284.1075
   1   2.0000     -10.440708      -284.1061
   2   2.0000     -10.431531      -283.8564
   3   2.0000     -10.430549      -283.8297
   4   2.0000     -10.430274      -283.8222
   5   2.0000     -10.430078      -283.8169
   6   2.0000     -10.428841      -283.7832
   7   2.0000      -0.981898       -26.7188
   8   2.0000      -0.827743       -22.5240
   9   2.0000      -0.799589       -21.7579
  10   2.0000      -0.775707       -21.1081
  11   2.0000      -0.651261       -17.7217
  12   2.0000      -0.625668       -17.0253
  13   2.0000      -0.578555       -15.7433
  14   2.0000      -0.575561       -15.6618
  15   2.0000      -0.534192       -14.5361
  16   2.0000      -0.496716       -13.5163
  17   2.0000      -0.448232       -12.1970
  18   2.0000      -0.433436       -11.7944
  19   2.0000      -0.398276       -10.8376
  20   2.0000      -0.395231       -10.7548
  21   2.0000      -0.390976       -10.6390
  22   2.0000      -0.380841       -10.3632
  23   2.0000      -0.370969       -10.0946
  24   2.0000      -0.347062        -9.4440
  25   2.0000      -0.277651        -7.5553
  26   0.0000       0.049324         1.3422
  27   0.0000       0.145443         3.9577
  28   0.0000       0.164549         4.4776
  29   0.0000       0.188115         5.1189
  30   0.0000       0.196261         5.3405

MULLIKEN ATOMIC CHARGES
-----------------------
   0 C :   -0.304374
   1 C :   -0.177862
   2 C :   -0.177862
   3 C :   -0.304374
   4 C :   -0.394968
   5 C :   -0.416285
   6 C :   -0.416284
   7 H :    0.212617
   8 H :    0.212393
   9 H :    0.212393
  10 H :    0.212617
  11 H :    0.234443
  12 H :    0.211967
  13 H :    0.221714
  14 H :    0.226076
  15 H :    0.221714
  16 H :    0.226075
Sum of atomic charges:   -0.0000000

LOEWDIN ATOMIC CHARGES
----------------------
   0 C :   -0.147922
   1 C :   -0.143208
   2 C :   -0.143207
   3 C :   -0.147922
   4 C :   -0.211191
   5 C :   -0.230249
   6 C :   -0.230249
   7 H :    0.122497
   8 H :    0.130155
   9 H :    0.130155
  10 H :    0.122497
  11 H :    0.130055
  12 H :    0.118472
  13 H :    0.124311
  14 H :    0.125748
  15 H :    0.124311
  16 H :    0.125748

  Mayer bond orders larger than 0.100000
B(  0-C ,  1-C ) :   0.9859 B(  0-C ,  4-C ) :   0.9498 B(  0-C ,  5-C ) :   0.9600
B(  0-C ,  7-H ) :   0.9310 B(  1-C ,  2-C ) :   1.8723 B(  1-C ,  8-H ) :   0.9272
B(  2-C ,  3-C ) :   0.9859 B(  2-C ,  9-H ) :   0.9272 B(  3-C ,  4-C ) :   0.9498
B(  3-C ,  6-C ) :   0.9600 B(  3-C , 10-H ) :   0.9310 B(  4-C , 11-H ) :   0.9218
B(  4-C , 12-H ) :   0.9251 B(  5-C ,  6-C ) :   0.9582 B(  5-C , 13-H ) :   0.9235
B(  5-C , 14-H ) :   0.9276 B(  6-C , 15-H ) :   0.9235 B(  6-C , 16-H ) :   0.9276

Dispersion correction           -0.009328714
FINAL SINGLE POINT ENERGY      -272.133342905789

DIPOLE MOMENT
-------------
                                X             Y             Z
Electronic contribution:      0.14839       2.29050       0.00000
Nuclear contribution   :     -0.11922      -2.42219       0.00000
                        -----------------------------------------
Total Dipole Moment    :      0.02917      -0.13168       0.00000
                        -----------------------------------------
Magnitude (a.u.)       :      0.13487
Magnitude (Debye)      :      0.34282

Rotational constants in cm-1:     0.132551     0.115762     0.101735
Rotational constants in MHz :  3973.793091  3470.450880  3049.944665

                             ****ORCA TERMINATED NORMALLY****
TOTAL RUN TIME: 0 days 0 hours 1 minutes 12 seconds 340 msec
