                         Program Version 5.0.3 -  RELEASE  -
|  1> ! PBEh-3c def2/J TightSCF DefGrid3
|  2>
|  3> %maxcore 60000
|  4>
|  5> %pal
|  6> nprocs 4
|  7> end
|  8>
|  9> *xyzfile 0 1 25_benBr-mSHB.xyz
| 10>
| 11>                          ****END OF INPUT****

CARTESIAN COORDINATES (ANGSTROEM)
---------------------------------
  S     -4.157444    5.729584   -0.878761
  H     -4.823791    4.796089   -1.563433
  C     -2.828339    5.970593   -2.091190
  H     -2.167577    6.722357   -1.668622
  H     -2.264955    5.054836   -2.240198
  H     -3.218525    6.337448   -3.035087

 Total Charge           Charge          ....    0
 Multiplicity           Mult            ....    1
 Number of Electrons    NEL             ....   26
 Basis Dimension        Dim             ....   41

ORBITAL ENERGIES
----------------

  NO   OCC          E(Eh)            E(eV)
   0   2.0000     -89.573913     -2437.4301
   1   2.0000     -10.464653      -284.7577
   2   2.0000      -8.215233      -223.5479
   3   2.0000      -6.106362      -166.1625
   4   2.0000      -6.103241      -166.0776
   5   2.0000      -6.097207      -165.9134
   6   2.0000      -0.867204       -23.5978
   7   2.0000      -0.720139       -19.5960
   8   2.0000      -0.508563       -13.8387
   9   2.0000      -0.489982       -13.3331
  10   2.0000      -0.443557       -12.0698
  11   2.0000      -0.378526       -10.3002
  12   2.0000      -0.278894        -7.5891
  13   0.0000       0.075735         2.0608
  14   0.0000       0.117821         3.2061
  15   0.0000       0.176123         4.7926
  16   0.0000       0.192512         5.2385
  17   0.0000       0.200812         5.4644

MULLIKEN ATOMIC CHARGES
-----------------------
   0 S :   -0.180294
   1 H :    0.173611
   2 C :   -0.750635
   3 H :    0.257864
   4 H :    0.249687
   5 H :    0.249768
Sum of atomic charges:   -0.0000000

LOEWDIN ATOMIC CHARGES
----------------------
   0 S :   -0.031494
   1 H :    0.095131
   2 C :   -0.471057
   3 H :    0.143048
   4 H :    0.132233
   5 H :    0.132139

  Mayer bond orders larger than 0.100000
B(  0-S ,  1-H ) :   0.9250 B(  0-S ,  2-C ) :   1.0292 B(  2-C ,  3-H ) :   0.9061
B(  2-C ,  4-H ) :   0.8997 B(  2-C ,  5-H ) :   0.8995

Dispersion correction           -0.001581558
FINAL SINGLE POINT ENERGY      -438.157516428224

DIPOLE MOMENT
-------------
                                X             Y             Z
Electronic contribution:     -2.08480       0.05059       2.57834
Nuclear contribution   :      2.33804      -0.23063      -3.16679
                        -----------------------------------------
Total Dipole Moment    :      0.25324      -0.18005      -0.58845
                        -----------------------------------------
Magnitude (a.u.)       :      0.66545
Magnitude (Debye)      :      1.69143

Rotational constants in cm-1:     3.459057     0.432207     0.414545
Rotational constants in MHz : 103699.925574 12957.238128 12427.757460

                             ****ORCA TERMINATED NORMALLY****
TOTAL RUN TIME: 0 days 0 hours 0 minutes 40 seconds 487 msec
