                         Program Version 5.0.3 -  RELEASE  -
|  1> ! PBEh-3c def2/J TightSCF DefGrid3
|  2>
|  3> %maxcore 60000
|  4>
|  5> %pal
|  6> nprocs 4
|  7> end
|  8>
|  9> *xyzfile 1 1 T0.xyz
| 10>
| 11>                          ****END OF INPUT****

CARTESIAN COORDINATES (ANGSTROEM)
---------------------------------
  N     -0.512844    1.857166    0.000000
  N      1.492050    0.711475    0.000000
  C     -0.546141   -0.523608    0.000000
  C      0.860363   -0.468359    0.000000
  C     -1.173362    0.687061    0.000000
  C      0.863795    1.970996    0.000000
  C     -1.270818   -1.834174    0.000000
  O      1.513387   -1.586657    0.000000
  O      1.471798    2.989893    0.000000
  H     -1.024355    2.732505    0.000000
  H      2.507314    0.768536    0.000000
  H     -2.254420    0.756416    0.000000
  H     -1.028782   -2.427886   -0.881591
  H     -1.028782   -2.427886    0.881591
  H     -2.347477   -1.672973    0.000000
  H      2.478275   -1.532506    0.000000

 Total Charge           Charge          ....    1
 Multiplicity           Mult            ....    1
 Number of Electrons    NEL             ....   66
 Basis Dimension        Dim             ....  149

ORBITAL ENERGIES
----------------

  NO   OCC          E(Eh)            E(eV)
   0   2.0000     -19.771018      -537.9967
   1   2.0000     -19.663345      -535.0668
   2   2.0000     -14.917089      -405.9146
   3   2.0000     -14.901973      -405.5033
   4   2.0000     -10.803872      -293.9883
   5   2.0000     -10.790554      -293.6259
   6   2.0000     -10.718957      -291.6776
   7   2.0000     -10.658310      -290.0273
   8   2.0000     -10.598298      -288.3943
   9   2.0000      -1.446023       -39.3483
  10   2.0000      -1.386221       -37.7210
  11   2.0000      -1.295586       -35.2547
  12   2.0000      -1.252560       -34.0839
  13   2.0000      -1.112964       -30.2853
  14   2.0000      -0.993287       -27.0287
  15   2.0000      -0.981614       -26.7111
  16   2.0000      -0.945206       -25.7204
  17   2.0000      -0.902871       -24.5684
  18   2.0000      -0.834878       -22.7182
  19   2.0000      -0.821634       -22.3578
  20   2.0000      -0.786939       -21.4137
  21   2.0000      -0.759659       -20.6714
  22   2.0000      -0.701176       -19.0800
  23   2.0000      -0.696973       -18.9656
  24   2.0000      -0.694288       -18.8925
  25   2.0000      -0.673204       -18.3188
  26   2.0000      -0.640391       -17.4259
  27   2.0000      -0.635756       -17.2998
  28   2.0000      -0.603938       -16.4340
  29   2.0000      -0.602071       -16.3832
  30   2.0000      -0.574687       -15.6380
  31   2.0000      -0.534673       -14.5492
  32   2.0000      -0.471981       -12.8433
  33   0.0000      -0.228107        -6.2071
  34   0.0000      -0.148777        -4.0484
  35   0.0000      -0.087582        -2.3832
  36   0.0000      -0.063833        -1.7370
  37   0.0000      -0.031869        -0.8672

MULLIKEN ATOMIC CHARGES
-----------------------
   0 N :   -0.666401
   1 N :   -0.724618
   2 C :   -0.143393
   3 C :    0.690063
   4 C :    0.119079
   5 C :    0.708194
   6 C :   -0.678669
   7 O :   -0.500958
   8 O :   -0.313325
   9 H :    0.441529
  10 H :    0.432049
  11 H :    0.331507
  12 H :    0.277998
  13 H :    0.277998
  14 H :    0.262029
  15 H :    0.486919
Sum of atomic charges:    1.0000000

LOEWDIN ATOMIC CHARGES
----------------------
   0 N :   -0.133024
   1 N :   -0.150652
   2 C :   -0.137162
   3 C :    0.214757
   4 C :    0.060434
   5 C :    0.158692
   6 C :   -0.333135
   7 O :   -0.180498
   8 O :   -0.157955
   9 H :    0.313472
  10 H :    0.307933
  11 H :    0.181878
  12 H :    0.164521
  13 H :    0.164521
  14 H :    0.158080
  15 H :    0.368139

  Mayer bond orders larger than 0.100000
B(  0-N ,  4-C ) :   1.1641 B(  0-N ,  5-C ) :   1.0209 B(  0-N ,  9-H ) :   0.7736
B(  1-N ,  3-C ) :   1.1821 B(  1-N ,  5-C ) :   0.9461 B(  1-N , 10-H ) :   0.7751
B(  2-C ,  3-C ) :   1.2099 B(  2-C ,  4-C ) :   1.4947 B(  2-C ,  6-C ) :   0.9579
B(  3-C ,  7-O ) :   1.3039 B(  4-C , 11-H ) :   0.8707 B(  5-C ,  8-O ) :   2.1390
B(  6-C , 12-H ) :   0.8970 B(  6-C , 13-H ) :   0.8970 B(  6-C , 14-H ) :   0.9087
B(  7-O , 15-H ) :   0.7185

Dispersion correction           -0.008579088
FINAL SINGLE POINT ENERGY      -453.509584401631

DIPOLE MOMENT
-------------
                                X             Y             Z
Electronic contribution:      4.57899       5.34533      -0.00000
Nuclear contribution   :     -4.74549      -6.26663       0.00000
                        -----------------------------------------
Total Dipole Moment    :     -0.16650      -0.92130      -0.00000
                        -----------------------------------------
Magnitude (a.u.)       :      0.93623
Magnitude (Debye)      :      2.37970

Rotational constants in cm-1:     0.105488     0.046861     0.032644
Rotational constants in MHz :  3162.448403  1404.868127   978.645354

                             ****ORCA TERMINATED NORMALLY****
TOTAL RUN TIME: 0 days 0 hours 1 minutes 43 seconds 798 msec
