                         Program Version 5.0.3 -  RELEASE  -
|  1> ! PBEh-3c def2/J TightSCF DefGrid3
|  2>
|  3> %maxcore 60000
|  4>
|  5> %pal
|  6> nprocs 4
|  7> end
|  8>
|  9> *xyzfile 0 1 35.xyz
| 10>
| 11>                          ****END OF INPUT****

CARTESIAN COORDINATES (ANGSTROEM)
---------------------------------
  N      0.485638    2.616082   -0.194809
  C     -0.560439    1.770971   -0.494528
  C     -0.124019    0.461941   -0.469879
  C      1.268935    0.510149   -0.127928
  C      2.246258   -0.494552    0.044041
  C      3.532499   -0.103401    0.385184
  C      3.861456    1.264716    0.554672
  C      2.917828    2.259253    0.386002
  C      1.616426    1.868542    0.041229
  H      0.412276    3.612252   -0.098786
  H     -1.540106    2.171090   -0.698509
  H      1.983779   -1.533451   -0.088749
  H      4.880550    1.507444    0.821546
  H      3.184207    3.299872    0.518025
  O      4.580973   -0.960915    0.586441
  C      4.300115   -2.341851    0.435715
  H      3.541884   -2.672639    1.149080
  H      3.965715   -2.570419   -0.578816
  H      5.232971   -2.860883    0.633663
  C     -0.908704   -0.781627   -0.774361
  C     -2.417455   -0.561918   -0.828206
  N     -2.908200   -0.138603    0.473071
  C     -4.218748   -0.039103    0.854548
  C     -5.233899   -0.655519   -0.086975
  H     -0.588609   -1.194592   -1.735202
  H     -0.694233   -1.542418   -0.018522
  H     -2.650345    0.174462   -1.605784
  H     -2.901731   -1.496066   -1.110360
  H     -2.263746    0.359938    1.068229
  O     -4.542005    0.496050    1.905095
  H     -6.222928   -0.486376    0.325562
  H     -5.172500   -0.211007   -1.080553
  H     -5.063840   -1.727425   -0.190138

 Total Charge           Charge          ....    0
 Multiplicity           Mult            ....    1
 Number of Electrons    NEL             ....  124
 Basis Dimension        Dim             ....  287

ORBITAL ENERGIES
----------------

  NO   OCC          E(Eh)            E(eV)
   0   2.0000     -19.522383      -531.2311
   1   2.0000     -19.445859      -529.1487
   2   2.0000     -14.688407      -399.6919
   3   2.0000     -14.650572      -398.6623
   4   2.0000     -10.541046      -286.8364
   5   2.0000     -10.503622      -285.8181
   6   2.0000     -10.488538      -285.4076
   7   2.0000     -10.487090      -285.3682
   8   2.0000     -10.484233      -285.2905
   9   2.0000     -10.479371      -285.1582
  10   2.0000     -10.457348      -284.5589
  11   2.0000     -10.455243      -284.5016
  12   2.0000     -10.449129      -284.3353
  13   2.0000     -10.448598      -284.3208
  14   2.0000     -10.444939      -284.2212
  15   2.0000     -10.443242      -284.1751
  16   2.0000     -10.437535      -284.0198
  17   2.0000      -1.170828       -31.8598
  18   2.0000      -1.131543       -30.7908
  19   2.0000      -1.091060       -29.6893
  20   2.0000      -1.018643       -27.7187
  21   2.0000      -0.940744       -25.5990
  22   2.0000      -0.904133       -24.6027
  23   2.0000      -0.850409       -23.1408
  24   2.0000      -0.835911       -22.7463
  25   2.0000      -0.821353       -22.3501
  26   2.0000      -0.808344       -21.9962
  27   2.0000      -0.779458       -21.2101
  28   2.0000      -0.733640       -19.9634
  29   2.0000      -0.695662       -18.9299
  30   2.0000      -0.670213       -18.2374
  31   2.0000      -0.650144       -17.6913
  32   2.0000      -0.635734       -17.2992
  33   2.0000      -0.616429       -16.7739
  34   2.0000      -0.581761       -15.8305
  35   2.0000      -0.565679       -15.3929
  36   2.0000      -0.556868       -15.1532
  37   2.0000      -0.538472       -14.6526
  38   2.0000      -0.531542       -14.4640
  39   2.0000      -0.526100       -14.3159
  40   2.0000      -0.525138       -14.2897
  41   2.0000      -0.504449       -13.7267
  42   2.0000      -0.498070       -13.5532
  43   2.0000      -0.488945       -13.3049
  44   2.0000      -0.481013       -13.0890
  45   2.0000      -0.470435       -12.8012
  46   2.0000      -0.463086       -12.6012
  47   2.0000      -0.455210       -12.3869
  48   2.0000      -0.452761       -12.3202
  49   2.0000      -0.441848       -12.0233
  50   2.0000      -0.437033       -11.8923
  51   2.0000      -0.425811       -11.5869
  52   2.0000      -0.417985       -11.3740
  53   2.0000      -0.408947       -11.1280
  54   2.0000      -0.405506       -11.0344
  55   2.0000      -0.381102       -10.3703
  56   2.0000      -0.353405        -9.6166
  57   2.0000      -0.323453        -8.8016
  58   2.0000      -0.300116        -8.1666
  59   2.0000      -0.292506        -7.9595
  60   2.0000      -0.248255        -6.7554
  61   2.0000      -0.242246        -6.5918
  62   0.0000       0.003339         0.0908
  63   0.0000       0.055609         1.5132
  64   0.0000       0.068580         1.8661
  65   0.0000       0.085993         2.3400
  66   0.0000       0.121325         3.3014

MULLIKEN ATOMIC CHARGES
-----------------------
   0 N :   -0.702423
   1 C :   -0.058908
   2 C :   -0.027645
   3 C :    0.091671
   4 C :   -0.482731
   5 C :    0.394655
   6 C :   -0.316702
   7 C :   -0.251181
   8 C :    0.349655
   9 H :    0.361031
  10 H :    0.250671
  11 H :    0.221408
  12 H :    0.236071
  13 H :    0.216049
  14 O :   -0.466397
  15 C :   -0.405114
  16 H :    0.205666
  17 H :    0.204096
  18 H :    0.241501
  19 C :   -0.508748
  20 C :   -0.273621
  21 N :   -0.616486
  22 C :    0.494299
  23 C :   -0.776166
  24 H :    0.240279
  25 H :    0.235080
  26 H :    0.210535
  27 H :    0.234059
  28 H :    0.377574
  29 O :   -0.418682
  30 H :    0.271380
  31 H :    0.231148
  32 H :    0.237976
Sum of atomic charges:    0.0000000

LOEWDIN ATOMIC CHARGES
----------------------
   0 N :   -0.155042
   1 C :   -0.093720
   2 C :   -0.115755
   3 C :   -0.050505
   4 C :   -0.195522
   5 C :    0.060611
   6 C :   -0.154865
   7 C :   -0.145478
   8 C :    0.004886
   9 H :    0.263312
  10 H :    0.138546
  11 H :    0.140086
  12 H :    0.146953
  13 H :    0.138496
  14 O :   -0.190156
  15 C :   -0.179992
  16 H :    0.113382
  17 H :    0.112578
  18 H :    0.130512
  19 C :   -0.229916
  20 C :   -0.140944
  21 N :   -0.254303
  22 C :    0.104936
  23 C :   -0.397497
  24 H :    0.141151
  25 H :    0.138359
  26 H :    0.111060
  27 H :    0.128160
  28 H :    0.263382
  29 O :   -0.274309
  30 H :    0.155457
  31 H :    0.141292
  32 H :    0.144846

  Mayer bond orders larger than 0.100000
B(  0-N ,  1-C ) :   1.1403 B(  0-N ,  8-C ) :   1.0051 B(  0-N ,  9-H ) :   0.8322
B(  1-C ,  2-C ) :   1.5321 B(  1-C , 10-H ) :   0.9057 B(  2-C ,  3-C ) :   1.2681
B(  2-C , 19-C ) :   0.9682 B(  3-C ,  4-C ) :   1.2540 B(  3-C ,  8-C ) :   1.2556
B(  4-C ,  5-C ) :   1.4194 B(  4-C , 11-H ) :   0.9151 B(  5-C ,  6-C ) :   1.2989
B(  5-C , 14-O ) :   1.0268 B(  6-C ,  7-C ) :   1.5295 B(  6-C , 12-H ) :   0.9082
B(  7-C ,  8-C ) :   1.2712 B(  7-C , 13-H ) :   0.9194 B( 14-O , 15-C ) :   0.9562
B( 15-C , 16-H ) :   0.9067 B( 15-C , 17-H ) :   0.9070 B( 15-C , 18-H ) :   0.9230
B( 19-C , 20-C ) :   1.0024 B( 19-C , 24-H ) :   0.9057 B( 19-C , 25-H ) :   0.9044
B( 20-C , 21-N ) :   0.9480 B( 20-C , 26-H ) :   0.8971 B( 20-C , 27-H ) :   0.9050
B( 21-N , 22-C ) :   1.1598 B( 21-N , 28-H ) :   0.8002 B( 22-C , 23-C ) :   0.9290
B( 22-C , 29-O ) :   2.0337 B( 23-C , 30-H ) :   0.9166 B( 23-C , 31-H ) :   0.9105
B( 23-C , 32-H ) :   0.9104

Dispersion correction           -0.021176979
FINAL SINGLE POINT ENERGY      -763.323598254382

DIPOLE MOMENT
-------------
                                X             Y             Z
Electronic contribution:      6.56401       8.57958       3.69955
Nuclear contribution   :     -6.14346      -8.73032      -5.08190
                        -----------------------------------------
Total Dipole Moment    :      0.42056      -0.15073      -1.38236
                        -----------------------------------------
Magnitude (a.u.)       :      1.45275
Magnitude (Debye)      :      3.69261

Rotational constants in cm-1:     0.031912     0.006754     0.006023
Rotational constants in MHz :   956.708017   202.482844   180.557389

                             ****ORCA TERMINATED NORMALLY****
TOTAL RUN TIME: 0 days 0 hours 4 minutes 17 seconds 453 msec
