                         Program Version 5.0.3 -  RELEASE  -
|  1> ! PBEh-3c def2/J TightSCF DefGrid3
|  2>
|  3> %maxcore 60000
|  4>
|  5> %pal
|  6> nprocs 4
|  7> end
|  8>
|  9> *xyzfile 0 1 B33.xyz
| 10>
| 11>                          ****END OF INPUT****

CARTESIAN COORDINATES (ANGSTROEM)
---------------------------------
  C      1.873484   -0.516584    0.007526
  H      1.861861   -1.183153   -0.854163
  O      3.102616    0.197951   -0.081139
  C      0.654435    0.395113   -0.024766
  H      0.698253    1.079609    0.828729
  H      0.703009    1.007751   -0.927584
  C     -0.652281   -0.394384    0.015254
  H     -0.700966   -1.001200    0.921951
  H     -0.702397   -1.081057   -0.832390
  H      3.162288    0.762806    0.693902
  H      1.848673   -1.141101    0.906867
  C     -1.869447    0.509775   -0.024692
  H     -1.846507    1.199186    0.826058
  H     -1.855946    1.107449   -0.942046
  O     -3.028291   -0.318646    0.025047
  H     -3.800011    0.251748   -0.012521

 Total Charge           Charge          ....    0
 Multiplicity           Mult            ....    1
 Number of Electrons    NEL             ....   50
 Basis Dimension        Dim             ....  110

ORBITAL ENERGIES
----------------

  NO   OCC          E(Eh)            E(eV)
   0   2.0000     -19.485211      -530.2195
   1   2.0000     -19.483288      -530.1672
   2   2.0000     -10.483036      -285.2579
   3   2.0000     -10.479477      -285.1611
   4   2.0000     -10.436483      -283.9911
   5   2.0000     -10.434232      -283.9299
   6   2.0000      -1.121943       -30.5296
   7   2.0000      -1.119967       -30.4759
   8   2.0000      -0.888001       -24.1637
   9   2.0000      -0.796684       -21.6789
  10   2.0000      -0.702083       -19.1047
  11   2.0000      -0.662544       -18.0287
  12   2.0000      -0.575147       -15.6505
  13   2.0000      -0.569883       -15.5073
  14   2.0000      -0.543257       -14.7828
  15   2.0000      -0.505225       -13.7479
  16   2.0000      -0.480846       -13.0845
  17   2.0000      -0.461199       -12.5499
  18   2.0000      -0.439236       -11.9522
  19   2.0000      -0.410986       -11.1835
  20   2.0000      -0.394582       -10.7371
  21   2.0000      -0.385164       -10.4808
  22   2.0000      -0.370938       -10.0937
  23   2.0000      -0.326855        -8.8942
  24   2.0000      -0.322381        -8.7724
  25   0.0000       0.125284         3.4092
  26   0.0000       0.128566         3.4985
  27   0.0000       0.140331         3.8186
  28   0.0000       0.178873         4.8674
  29   0.0000       0.187482         5.1017

MULLIKEN ATOMIC CHARGES
-----------------------
   0 C :   -0.130928
   1 H :    0.209923
   2 O :   -0.622095
   3 C :   -0.468819
   4 H :    0.193355
   5 H :    0.223674
   6 C :   -0.448224
   7 H :    0.222247
   8 H :    0.225454
   9 H :    0.407539
  10 H :    0.177395
  11 C :   -0.127340
  12 H :    0.173537
  13 H :    0.176874
  14 O :   -0.628251
  15 H :    0.415660
Sum of atomic charges:    0.0000000

LOEWDIN ATOMIC CHARGES
----------------------
   0 C :   -0.094296
   1 H :    0.120098
   2 O :   -0.410266
   3 C :   -0.266375
   4 H :    0.115087
   5 H :    0.128770
   6 C :   -0.251772
   7 H :    0.129563
   8 H :    0.131241
   9 H :    0.305251
  10 H :    0.097483
  11 C :   -0.088881
  12 H :    0.095547
  13 H :    0.097137
  14 O :   -0.416953
  15 H :    0.308368

  Mayer bond orders larger than 0.100000
B(  0-C ,  1-H ) :   0.9126 B(  0-C ,  2-O ) :   1.0248 B(  0-C ,  3-C ) :   0.9866
B(  0-C , 10-H ) :   0.9098 B(  2-O ,  9-H ) :   0.7959 B(  3-C ,  4-H ) :   0.9192
B(  3-C ,  5-H ) :   0.9098 B(  3-C ,  6-C ) :   0.9570 B(  6-C ,  7-H ) :   0.9109
B(  6-C ,  8-H ) :   0.9107 B(  6-C , 11-C ) :   0.9963 B( 11-C , 12-H ) :   0.9052
B( 11-C , 13-H ) :   0.9045 B( 11-C , 14-O ) :   1.0254 B( 14-O , 15-H ) :   0.7932

Dispersion correction           -0.006342319
FINAL SINGLE POINT ENERGY      -308.206218544227

DIPOLE MOMENT
-------------
                                X             Y             Z
Electronic contribution:      0.13933      -0.32206      -0.19184
Nuclear contribution   :     -0.65703       1.04210       0.63343
                        -----------------------------------------
Total Dipole Moment    :     -0.51771       0.72004       0.44159
                        -----------------------------------------
Magnitude (a.u.)       :      0.99070
Magnitude (Debye)      :      2.51815

Rotational constants in cm-1:     0.569932     0.038097     0.036778
Rotational constants in MHz : 17086.133998  1142.126071  1102.584585

                             ****ORCA TERMINATED NORMALLY****
TOTAL RUN TIME: 0 days 0 hours 1 minutes 39 seconds 869 msec
