                         Program Version 5.0.3 -  RELEASE  -
|  1> ! PBEh-3c def2/J TightSCF DefGrid3
|  2>
|  3> %maxcore 60000
|  4>
|  5> %pal
|  6> nprocs 4
|  7> end
|  8>
|  9> *xyzfile 0 1 42.xyz
| 10>
| 11>                          ****END OF INPUT****

CARTESIAN COORDINATES (ANGSTROEM)
---------------------------------
  N      0.346730    2.371947   -0.252688
  C     -0.732128    1.555893   -0.519899
  C     -0.339205    0.235026   -0.506200
  C      1.065954    0.238671   -0.203041
  C      2.015782   -0.782424   -0.056746
  C      3.327627   -0.440308    0.249282
  C      3.706622    0.911713    0.409655
  C      2.777428    1.936304    0.262977
  C      1.461568    1.590327   -0.044594
  H      0.302459    3.368655   -0.146959
  H     -1.704769    1.985413   -0.696845
  H      1.759016   -1.826928   -0.172848
  H      4.726521    1.170083    0.648413
  H      3.080430    2.967926    0.386773
  O      4.199566   -1.491244    0.378802
  C      5.544452   -1.177162    0.696894
  H      6.006667   -0.562640   -0.078792
  H      5.619329   -0.663959    1.658092
  H      6.065001   -2.128201    0.757457
  C     -1.169105   -0.984243   -0.786574
  C     -2.669785   -0.714072   -0.828782
  N     -3.133806   -0.260097    0.472183
  C     -4.435730   -0.098455    0.860514
  C     -5.483319   -0.664320   -0.077147
  H     -0.872286   -1.419090   -1.745046
  H     -0.971128   -1.743035   -0.024395
  H     -2.884910    0.022114   -1.611569
  H     -3.187797   -1.634244   -1.097041
  H     -2.461940    0.199790    1.067906
  O     -4.728054    0.450748    1.913004
  H     -6.461505   -0.445299    0.337766
  H     -5.402406   -0.225334   -1.071770
  H     -5.367277   -1.743563   -0.178792

 Total Charge           Charge          ....    0
 Multiplicity           Mult            ....    1
 Number of Electrons    NEL             ....  124
 Basis Dimension        Dim             ....  287

ORBITAL ENERGIES
----------------

  NO   OCC          E(Eh)            E(eV)
   0   2.0000     -19.520239      -531.1727
   1   2.0000     -19.444745      -529.1184
   2   2.0000     -14.687096      -399.6562
   3   2.0000     -14.649620      -398.6364
   4   2.0000     -10.539980      -286.8074
   5   2.0000     -10.502734      -285.7939
   6   2.0000     -10.488245      -285.3997
   7   2.0000     -10.485672      -285.3296
   8   2.0000     -10.485159      -285.3157
   9   2.0000     -10.480074      -285.1773
  10   2.0000     -10.455611      -284.5116
  11   2.0000     -10.455432      -284.5068
  12   2.0000     -10.448845      -284.3275
  13   2.0000     -10.448328      -284.3134
  14   2.0000     -10.447567      -284.2928
  15   2.0000     -10.440194      -284.0921
  16   2.0000     -10.436449      -283.9902
  17   2.0000      -1.168218       -31.7888
  18   2.0000      -1.130435       -30.7607
  19   2.0000      -1.090235       -29.6668
  20   2.0000      -1.017546       -27.6888
  21   2.0000      -0.940767       -25.5996
  22   2.0000      -0.903300       -24.5800
  23   2.0000      -0.850324       -23.1385
  24   2.0000      -0.838220       -22.8091
  25   2.0000      -0.819764       -22.3069
  26   2.0000      -0.806535       -21.9469
  27   2.0000      -0.773930       -21.0597
  28   2.0000      -0.732422       -19.9302
  29   2.0000      -0.706788       -19.2327
  30   2.0000      -0.664295       -18.0764
  31   2.0000      -0.649065       -17.6620
  32   2.0000      -0.633547       -17.2397
  33   2.0000      -0.616688       -16.7809
  34   2.0000      -0.580354       -15.7922
  35   2.0000      -0.565130       -15.3780
  36   2.0000      -0.555970       -15.1287
  37   2.0000      -0.538502       -14.6534
  38   2.0000      -0.530342       -14.4313
  39   2.0000      -0.525350       -14.2955
  40   2.0000      -0.523874       -14.2553
  41   2.0000      -0.498405       -13.5623
  42   2.0000      -0.497389       -13.5346
  43   2.0000      -0.490692       -13.3524
  44   2.0000      -0.485884       -13.2216
  45   2.0000      -0.468477       -12.7479
  46   2.0000      -0.461123       -12.5478
  47   2.0000      -0.452527       -12.3139
  48   2.0000      -0.450923       -12.2702
  49   2.0000      -0.442926       -12.0526
  50   2.0000      -0.438083       -11.9208
  51   2.0000      -0.427031       -11.6201
  52   2.0000      -0.417392       -11.3578
  53   2.0000      -0.405481       -11.0337
  54   2.0000      -0.403799       -10.9879
  55   2.0000      -0.379485       -10.3263
  56   2.0000      -0.354626        -9.6499
  57   2.0000      -0.321630        -8.7520
  58   2.0000      -0.298942        -8.1346
  59   2.0000      -0.291529        -7.9329
  60   2.0000      -0.252472        -6.8701
  61   2.0000      -0.236998        -6.4490
  62   0.0000       0.001033         0.0281
  63   0.0000       0.055954         1.5226
  64   0.0000       0.069857         1.9009
  65   0.0000       0.087911         2.3922
  66   0.0000       0.121952         3.3185

MULLIKEN ATOMIC CHARGES
-----------------------
   0 N :   -0.706564
   1 C :   -0.055209
   2 C :   -0.029549
   3 C :    0.085469
   4 C :   -0.438724
   5 C :    0.403405
   6 C :   -0.363861
   7 C :   -0.256116
   8 C :    0.361852
   9 H :    0.360337
  10 H :    0.251623
  11 H :    0.219167
  12 H :    0.232077
  13 H :    0.216056
  14 O :   -0.468737
  15 C :   -0.404499
  16 H :    0.203777
  17 H :    0.204677
  18 H :    0.240119
  19 C :   -0.507704
  20 C :   -0.273678
  21 N :   -0.616821
  22 C :    0.494302
  23 C :   -0.775807
  24 H :    0.242429
  25 H :    0.239085
  26 H :    0.210249
  27 H :    0.234586
  28 H :    0.377147
  29 O :   -0.419420
  30 H :    0.270979
  31 H :    0.230791
  32 H :    0.238564
Sum of atomic charges:   -0.0000000

LOEWDIN ATOMIC CHARGES
----------------------
   0 N :   -0.160279
   1 C :   -0.088282
   2 C :   -0.115921
   3 C :   -0.048237
   4 C :   -0.158160
   5 C :    0.060545
   6 C :   -0.190509
   7 C :   -0.148619
   8 C :    0.008104
   9 H :    0.262907
  10 H :    0.138957
  11 H :    0.145983
  12 H :    0.140728
  13 H :    0.137388
  14 O :   -0.193554
  15 C :   -0.180551
  16 H :    0.111997
  17 H :    0.112471
  18 H :    0.130441
  19 C :   -0.229518
  20 C :   -0.141080
  21 N :   -0.254001
  22 C :    0.104765
  23 C :   -0.397384
  24 H :    0.142436
  25 H :    0.140353
  26 H :    0.111034
  27 H :    0.128225
  28 H :    0.263239
  29 O :   -0.275093
  30 H :    0.155276
  31 H :    0.141156
  32 H :    0.145181

  Mayer bond orders larger than 0.100000
B(  0-N ,  1-C ) :   1.1344 B(  0-N ,  8-C ) :   1.0004 B(  0-N ,  9-H ) :   0.8327
B(  1-C ,  2-C ) :   1.5465 B(  1-C , 10-H ) :   0.9052 B(  2-C ,  3-C ) :   1.2489
B(  2-C , 19-C ) :   0.9702 B(  3-C ,  4-C ) :   1.2895 B(  3-C ,  8-C ) :   1.2300
B(  4-C ,  5-C ) :   1.4365 B(  4-C ,  7-C ) :   0.1027 B(  4-C , 11-H ) :   0.9262
B(  5-C ,  6-C ) :   1.2835 B(  5-C , 14-O ) :   1.0135 B(  6-C ,  7-C ) :   1.4723
B(  6-C , 12-H ) :   0.9052 B(  7-C ,  8-C ) :   1.3167 B(  7-C , 13-H ) :   0.9200
B( 14-O , 15-C ) :   0.9571 B( 15-C , 16-H ) :   0.9076 B( 15-C , 17-H ) :   0.9074
B( 15-C , 18-H ) :   0.9235 B( 19-C , 20-C ) :   1.0019 B( 19-C , 24-H ) :   0.9052
B( 19-C , 25-H ) :   0.9026 B( 20-C , 21-N ) :   0.9461 B( 20-C , 26-H ) :   0.8974
B( 20-C , 27-H ) :   0.9050 B( 21-N , 22-C ) :   1.1607 B( 21-N , 28-H ) :   0.8009
B( 22-C , 23-C ) :   0.9292 B( 22-C , 29-O ) :   2.0330 B( 23-C , 30-H ) :   0.9168
B( 23-C , 31-H ) :   0.9106 B( 23-C , 32-H ) :   0.9102

Dispersion correction           -0.021120754
FINAL SINGLE POINT ENERGY      -763.322131501238

DIPOLE MOMENT
-------------
                                X             Y             Z
Electronic contribution:      3.46533       4.92416       2.64288
Nuclear contribution   :     -2.42322      -4.43030      -3.83439
                        -----------------------------------------
Total Dipole Moment    :      1.04211       0.49386      -1.19151
                        -----------------------------------------
Magnitude (a.u.)       :      1.65819
Magnitude (Debye)      :      4.21478

Rotational constants in cm-1:     0.038253     0.006198     0.005753
Rotational constants in MHz :  1146.806027   185.819617   172.462545

                             ****ORCA TERMINATED NORMALLY****
TOTAL RUN TIME: 0 days 0 hours 4 minutes 27 seconds 507 msec
