                         Program Version 5.0.3 -  RELEASE  -
|  1> ! PBEh-3c def2/J TightSCF DefGrid3
|  2>
|  3> %maxcore 60000
|  4>
|  5> %pal
|  6> nprocs 4
|  7> end
|  8>
|  9> *xyzfile 0 1 02a.xyz
| 10>
| 11>                          ****END OF INPUT****

CARTESIAN COORDINATES (ANGSTROEM)
---------------------------------
  O      0.000000    0.000000   -0.389050
  H      0.758612    0.000000    0.194525
  H     -0.758612    0.000000    0.194525

 Total Charge           Charge          ....    0
 Multiplicity           Mult            ....    1
 Number of Electrons    NEL             ....   10
 Basis Dimension        Dim             ....   19

ORBITAL ENERGIES
----------------

  NO   OCC          E(Eh)            E(eV)
   0   2.0000     -19.473488      -529.9005
   1   2.0000      -1.103688       -30.0329
   2   2.0000      -0.583984       -15.8910
   3   2.0000      -0.434009       -11.8100
   4   2.0000      -0.356657        -9.7051
   5   0.0000       0.132594         3.6081
   6   0.0000       0.210801         5.7362
   7   0.0000       0.876348        23.8466
   8   0.0000       0.982178        26.7264
   9   0.0000       0.991671        26.9847

MULLIKEN ATOMIC CHARGES
-----------------------
   0 O :   -0.818063
   1 H :    0.409031
   2 H :    0.409031
Sum of atomic charges:    0.0000000

LOEWDIN ATOMIC CHARGES
----------------------
   0 O :   -0.597085
   1 H :    0.298543
   2 H :    0.298543

  Mayer bond orders larger than 0.100000
B(  0-O ,  1-H ) :   0.8151 B(  0-O ,  2-H ) :   0.8151

Dispersion correction           -0.000209566
FINAL SINGLE POINT ENERGY       -76.258053176190

DIPOLE MOMENT
-------------
                                X             Y             Z
Electronic contribution:     -0.00000       0.00000      -0.12557
Nuclear contribution   :      0.00000       0.00000       0.97149
                        -----------------------------------------
Total Dipole Moment    :     -0.00000       0.00000       0.84592
                        -----------------------------------------
Magnitude (a.u.)       :      0.84592
Magnitude (Debye)      :      2.15016

Rotational constants in cm-1:    27.647428    14.530041     9.524475
Rotational constants in MHz : 828849.050881 435599.673118 285536.589009

                             ****ORCA TERMINATED NORMALLY****
TOTAL RUN TIME: 0 days 0 hours 1 minutes 35 seconds 233 msec
