                         Program Version 5.0.3 -  RELEASE  -
|  1> ! PBEh-3c def2/J TightSCF DefGrid3
|  2>
|  3> %maxcore 60000
|  4>
|  5> %pal
|  6> nprocs 4
|  7> end
|  8>
|  9> *xyzfile 0 1 ILE_xaq.xyz
| 10>
| 11>                          ****END OF INPUT****

CARTESIAN COORDINATES (ANGSTROEM)
---------------------------------
  N     -0.409352   -1.035077   -0.318939
  C      0.134874   -0.013142    0.564263
  C     -0.321821    1.395705    0.145389
  O      0.464905    2.267125   -0.213946
  C      1.655445   -0.122654    0.633364
  C      2.306047   -0.132614   -0.755256
  C      2.059677   -1.347388    1.446897
  C      3.755644    0.334795   -0.712372
  H      0.150871   -1.331440   -1.099629
  H     -0.294108   -0.209868    1.550075
  H      1.993469    0.781017    1.143198
  H      1.748505    0.524164   -1.422655
  H      2.269682   -1.146731   -1.167966
  H      1.696935   -1.278375    2.472191
  H      1.645148   -2.254417    1.004537
  H      3.142326   -1.457889    1.482012
  H      3.799378    1.369863   -0.376503
  H      4.218977    0.279219   -1.696061
  H      4.352469   -0.269242   -0.030080
  N     -1.660145    1.560611    0.235272
  H     -2.203599    0.763570    0.546666
  C     -2.309761    2.795617   -0.143259
  H     -2.961950    2.650962   -1.003483
  H     -2.899139    3.190030    0.682231
  H     -1.534387    3.510136   -0.401417
  C     -1.645599   -1.563949   -0.164842
  O     -2.425798   -1.178657    0.707610
  C     -2.016698   -2.658811   -1.132367
  H     -2.324318   -3.530827   -0.560685
  H     -1.206087   -2.934324   -1.802278
  H     -2.872355   -2.329909   -1.717818

 Total Charge           Charge          ....    0
 Multiplicity           Mult            ....    1
 Number of Electrons    NEL             ....  102
 Basis Dimension        Dim             ....  231

ORBITAL ENERGIES
----------------

  NO   OCC          E(Eh)            E(eV)
   0   2.0000     -19.470902      -529.8302
   1   2.0000     -19.452240      -529.3224
   2   2.0000     -14.677715      -399.4009
   3   2.0000     -14.647194      -398.5704
   4   2.0000     -10.563224      -287.4399
   5   2.0000     -10.537905      -286.7510
   6   2.0000     -10.488518      -285.4071
   7   2.0000     -10.457045      -284.5507
   8   2.0000     -10.453138      -284.4444
   9   2.0000     -10.447548      -284.2922
  10   2.0000     -10.434818      -283.9458
  11   2.0000     -10.427764      -283.7539
  12   2.0000     -10.421992      -283.5968
  13   2.0000      -1.157007       -31.4838
  14   2.0000      -1.133728       -30.8503
  15   2.0000      -1.040636       -28.3171
  16   2.0000      -1.009819       -27.4786
  17   2.0000      -0.912577       -24.8325
  18   2.0000      -0.854780       -23.2597
  19   2.0000      -0.821210       -22.3463
  20   2.0000      -0.802960       -21.8497
  21   2.0000      -0.762219       -20.7410
  22   2.0000      -0.712579       -19.3903
  23   2.0000      -0.676305       -18.4032
  24   2.0000      -0.647931       -17.6311
  25   2.0000      -0.636764       -17.3272
  26   2.0000      -0.598517       -16.2865
  27   2.0000      -0.567427       -15.4405
  28   2.0000      -0.554231       -15.0814
  29   2.0000      -0.526057       -14.3147
  30   2.0000      -0.517098       -14.0709
  31   2.0000      -0.514182       -13.9916
  32   2.0000      -0.504935       -13.7400
  33   2.0000      -0.492728       -13.4078
  34   2.0000      -0.485523       -13.2118
  35   2.0000      -0.475746       -12.9457
  36   2.0000      -0.467395       -12.7185
  37   2.0000      -0.463073       -12.6009
  38   2.0000      -0.441043       -12.0014
  39   2.0000      -0.437624       -11.9084
  40   2.0000      -0.433901       -11.8070
  41   2.0000      -0.423318       -11.5191
  42   2.0000      -0.419223       -11.4076
  43   2.0000      -0.409965       -11.1557
  44   2.0000      -0.381052       -10.3690
  45   2.0000      -0.378667       -10.3040
  46   2.0000      -0.371851       -10.1186
  47   2.0000      -0.338020        -9.1980
  48   2.0000      -0.323555        -8.8044
  49   2.0000      -0.292215        -7.9516
  50   2.0000      -0.288845        -7.8599
  51   0.0000       0.041055         1.1172
  52   0.0000       0.067180         1.8281
  53   0.0000       0.109978         2.9926
  54   0.0000       0.136579         3.7165
  55   0.0000       0.163817         4.4577

MULLIKEN ATOMIC CHARGES
-----------------------
   0 N :   -0.625854
   1 C :   -0.221505
   2 C :    0.574109
   3 O :   -0.439506
   4 C :   -0.234860
   5 C :   -0.443337
   6 C :   -0.636001
   7 C :   -0.643511
   8 H :    0.375728
   9 H :    0.274901
  10 H :    0.252393
  11 H :    0.252575
  12 H :    0.180677
  13 H :    0.223954
  14 H :    0.205396
  15 H :    0.225658
  16 H :    0.233687
  17 H :    0.220384
  18 H :    0.206083
  19 N :   -0.659897
  20 H :    0.405995
  21 C :   -0.493845
  22 H :    0.215854
  23 H :    0.220344
  24 H :    0.259189
  25 C :    0.541833
  26 O :   -0.466937
  27 C :   -0.745118
  28 H :    0.265003
  29 H :    0.216754
  30 H :    0.259854
Sum of atomic charges:   -0.0000000

LOEWDIN ATOMIC CHARGES
----------------------
   0 N :   -0.210456
   1 C :   -0.088941
   2 C :    0.103303
   3 O :   -0.286432
   4 C :   -0.153201
   5 C :   -0.248627
   6 C :   -0.351466
   7 C :   -0.355868
   8 H :    0.260342
   9 H :    0.152523
  10 H :    0.143949
  11 H :    0.137735
  12 H :    0.106241
  13 H :    0.128996
  14 H :    0.122508
  15 H :    0.128683
  16 H :    0.134756
  17 H :    0.127324
  18 H :    0.120596
  19 N :   -0.247189
  20 H :    0.267259
  21 C :   -0.256806
  22 H :    0.119793
  23 H :    0.122867
  24 H :    0.150301
  25 C :    0.111601
  26 O :   -0.304178
  27 C :   -0.383944
  28 H :    0.160765
  29 H :    0.129303
  30 H :    0.158263

  Mayer bond orders larger than 0.100000
B(  0-N ,  1-C ) :   0.8949 B(  0-N ,  8-H ) :   0.8028 B(  0-N , 25-C ) :   1.1835
B(  1-C ,  2-C ) :   0.8842 B(  1-C ,  4-C ) :   0.9564 B(  1-C ,  9-H ) :   0.8824
B(  2-C ,  3-O ) :   1.9507 B(  2-C , 19-N ) :   1.1906 B(  3-O , 19-N ) :   0.1075
B(  4-C ,  5-C ) :   0.9487 B(  4-C ,  6-C ) :   0.9863 B(  4-C , 10-H ) :   0.8961
B(  5-C ,  7-C ) :   1.0039 B(  5-C , 11-H ) :   0.9004 B(  5-C , 12-H ) :   0.9148
B(  6-C , 13-H ) :   0.9282 B(  6-C , 14-H ) :   0.9237 B(  6-C , 15-H ) :   0.9260
B(  7-C , 16-H ) :   0.9218 B(  7-C , 17-H ) :   0.9314 B(  7-C , 18-H ) :   0.9266
B( 19-N , 20-H ) :   0.7327 B( 19-N , 21-C ) :   0.9592 B( 21-C , 22-H ) :   0.9220
B( 21-C , 23-H ) :   0.9222 B( 21-C , 24-H ) :   0.9017 B( 25-C , 26-O ) :   1.8695
B( 25-C , 27-C ) :   0.9333 B( 27-C , 28-H ) :   0.9067 B( 27-C , 29-H ) :   0.9209
B( 27-C , 30-H ) :   0.9070

Dispersion correction           -0.018582021
FINAL SINGLE POINT ENERGY      -612.477713574793

DIPOLE MOMENT
-------------
                                X             Y             Z
Electronic contribution:     -8.91392       2.88514       1.89603
Nuclear contribution   :      8.87971      -3.91038      -2.50524
                        -----------------------------------------
Total Dipole Moment    :     -0.03422      -1.02524      -0.60921
                        -----------------------------------------
Magnitude (a.u.)       :      1.19308
Magnitude (Debye)      :      3.03256

Rotational constants in cm-1:     0.028896     0.020430     0.014021
Rotational constants in MHz :   866.271698   612.467304   420.337827

                             ****ORCA TERMINATED NORMALLY****
TOTAL RUN TIME: 0 days 0 hours 3 minutes 47 seconds 804 msec
