                         Program Version 5.0.3 -  RELEASE  -
|  1> ! PBEh-3c def2/J TightSCF DefGrid3
|  2>
|  3> %maxcore 60000
|  4>
|  5> %pal
|  6> nprocs 4
|  7> end
|  8>
|  9> *xyzfile 0 1 phenol.xyz
| 10>
| 11>                          ****END OF INPUT****

CARTESIAN COORDINATES (ANGSTROEM)
---------------------------------
  C      0.044845   -1.131821    0.000000
  C      1.258720   -0.447567    0.000000
  C      1.267662    0.938563    0.000000
  C      0.078310    1.657931    0.000000
  C     -1.127100    0.969457    0.000000
  C     -1.150946   -0.418623    0.000000
  O      0.089423   -2.478167    0.000000
  H      2.189371   -1.003829    0.000000
  H      2.216975    1.461356    0.000000
  H      0.091862    2.740820    0.000000
  H     -2.063947    1.514092    0.000000
  H     -2.100953   -0.944033    0.000000
  H     -0.794222   -2.858180    0.000000

 Total Charge           Charge          ....    0
 Multiplicity           Mult            ....    1
 Number of Electrons    NEL             ....   50
 Basis Dimension        Dim             ....  117

ORBITAL ENERGIES
----------------

  NO   OCC          E(Eh)            E(eV)
   0   2.0000     -19.526384      -531.3399
   1   2.0000     -10.511602      -286.0352
   2   2.0000     -10.450645      -284.3765
   3   2.0000     -10.448584      -284.3204
   4   2.0000     -10.446506      -284.2639
   5   2.0000     -10.440502      -284.1005
   6   2.0000     -10.439065      -284.0614
   7   2.0000      -1.179401       -32.0931
   8   2.0000      -0.951243       -25.8846
   9   2.0000      -0.840552       -22.8726
  10   2.0000      -0.828709       -22.5503
  11   2.0000      -0.704873       -19.1806
  12   2.0000      -0.680741       -18.5239
  13   2.0000      -0.618355       -16.8263
  14   2.0000      -0.565789       -15.3959
  15   2.0000      -0.533668       -14.5219
  16   2.0000      -0.500904       -13.6303
  17   2.0000      -0.483635       -13.1604
  18   2.0000      -0.477502       -12.9935
  19   2.0000      -0.450793       -12.2667
  20   2.0000      -0.417458       -11.3596
  21   2.0000      -0.394164       -10.7257
  22   2.0000      -0.393488       -10.7074
  23   2.0000      -0.295688        -8.0461
  24   2.0000      -0.263662        -7.1746
  25   0.0000       0.018343         0.4991
  26   0.0000       0.036869         1.0033
  27   0.0000       0.119909         3.2629
  28   0.0000       0.140902         3.8341
  29   0.0000       0.199020         5.4156

MULLIKEN ATOMIC CHARGES
-----------------------
   0 C :    0.374941
   1 C :   -0.299466
   2 C :   -0.205052
   3 C :   -0.244745
   4 C :   -0.205860
   5 C :   -0.355937
   6 O :   -0.603357
   7 H :    0.236367
   8 H :    0.220293
   9 H :    0.217078
  10 H :    0.220403
  11 H :    0.214127
  12 H :    0.431207
Sum of atomic charges:   -0.0000000

LOEWDIN ATOMIC CHARGES
----------------------
   0 C :    0.059915
   1 C :   -0.166130
   2 C :   -0.119489
   3 C :   -0.166363
   4 C :   -0.120358
   5 C :   -0.198598
   6 O :   -0.302488
   7 H :    0.146013
   8 H :    0.137050
   9 H :    0.135296
  10 H :    0.136418
  11 H :    0.132056
  12 H :    0.326679

  Mayer bond orders larger than 0.100000
B(  0-C ,  1-C ) :   1.3617 B(  0-C ,  5-C ) :   1.3432 B(  0-C ,  6-O ) :   1.0797
B(  1-C ,  2-C ) :   1.4511 B(  1-C ,  7-H ) :   0.9098 B(  2-C ,  3-C ) :   1.4170
B(  2-C ,  8-H ) :   0.9201 B(  3-C ,  4-C ) :   1.4381 B(  3-C ,  9-H ) :   0.9195
B(  4-C ,  5-C ) :   1.4274 B(  4-C , 10-H ) :   0.9193 B(  5-C , 11-H ) :   0.9187
B(  6-O , 12-H ) :   0.7771

Dispersion correction           -0.006575850
FINAL SINGLE POINT ENERGY      -306.795381130520

DIPOLE MOMENT
-------------
                                X             Y             Z
Electronic contribution:      0.20504      -2.08007      -0.00000
Nuclear contribution   :     -0.75661       2.01057       0.00000
                        -----------------------------------------
Total Dipole Moment    :     -0.55157      -0.06949      -0.00000
                        -----------------------------------------
Magnitude (a.u.)       :      0.55593
Magnitude (Debye)      :      1.41305

Rotational constants in cm-1:     0.190325     0.088247     0.060292
Rotational constants in MHz :  5705.808064  2645.592286  1807.510258

                             ****ORCA TERMINATED NORMALLY****
TOTAL RUN TIME: 0 days 0 hours 1 minutes 20 seconds 50 msec
