                         Program Version 5.0.3 -  RELEASE  -
|  1> ! PBEh-3c def2/J TightSCF DefGrid3
|  2>
|  3> %maxcore 60000
|  4>
|  5> %pal
|  6> nprocs 4
|  7> end
|  8>
|  9> *xyzfile 0 2 P34.xyz
| 10>
| 11>                          ****END OF INPUT****

CARTESIAN COORDINATES (ANGSTROEM)
---------------------------------
  C     -1.543798   -0.064155    0.030912
  S     -0.294265    1.126204    0.004221
  C      1.205493    0.077973    0.021382
  H     -2.559640    0.295951    0.086684
  H     -1.335909   -1.095997   -0.211693
  H      2.062722    0.747292   -0.029629
  H      1.214332   -0.584612   -0.843596
  H      1.251064   -0.502656    0.941718

 Total Charge           Charge          ....    0
 Multiplicity           Mult            ....    2
 Number of Electrons    NEL             ....   33
 Basis Dimension        Dim             ....   58

ORBITAL ENERGIES
----------------
                 SPIN UP ORBITALS
  NO   OCC          E(Eh)            E(eV)
   0   1.0000     -89.596406     -2438.0422
   1   1.0000     -10.469743      -284.8962
   2   1.0000     -10.459504      -284.6176
   3   1.0000      -8.234579      -224.0743
   4   1.0000      -6.125215      -166.6756
   5   1.0000      -6.121523      -166.5751
   6   1.0000      -6.119759      -166.5271
   7   1.0000      -0.898706       -24.4550
   8   1.0000      -0.785837       -21.3837
   9   1.0000      -0.666580       -18.1386
  10   1.0000      -0.515547       -14.0288
  11   1.0000      -0.497601       -13.5404
  12   1.0000      -0.493144       -13.4191
  13   1.0000      -0.434602       -11.8261
  14   1.0000      -0.377809       -10.2807
  15   1.0000      -0.353965        -9.6319
  16   1.0000      -0.215059        -5.8520
  17   0.0000       0.075841         2.0637
  18   0.0000       0.131254         3.5716
  19   0.0000       0.151289         4.1168
  20   0.0000       0.183888         5.0038
  21   0.0000       0.197764         5.3814

                 SPIN DOWN ORBITALS
  NO   OCC          E(Eh)            E(eV)
   0   1.0000     -89.595159     -2438.0082
   1   1.0000     -10.469909      -284.9007
   2   1.0000     -10.445167      -284.2275
   3   1.0000      -8.233312      -224.0398
   4   1.0000      -6.124692      -166.6613
   5   1.0000      -6.121162      -166.5653
   6   1.0000      -6.114639      -166.3878
   7   1.0000      -0.886912       -24.1341
   8   1.0000      -0.769478       -20.9386
   9   1.0000      -0.642754       -17.4902
  10   1.0000      -0.509663       -13.8686
  11   1.0000      -0.493142       -13.4191
  12   1.0000      -0.488060       -13.2808
  13   1.0000      -0.428301       -11.6547
  14   1.0000      -0.367719       -10.0061
  15   1.0000      -0.302881        -8.2418
  16   0.0000      -0.011094        -0.3019
  17   0.0000       0.080205         2.1825
  18   0.0000       0.146894         3.9972
  19   0.0000       0.155048         4.2191
  20   0.0000       0.185463         5.0467

MULLIKEN ATOMIC CHARGES AND SPIN POPULATIONS
--------------------------------------------
   0 C :   -0.601418    0.938032
   1 S :    0.097421    0.152357
   2 C :   -0.754680   -0.007239
   3 H :    0.249936   -0.051511
   4 H :    0.238888   -0.048820
   5 H :    0.258591   -0.000920
   6 H :    0.252552    0.007212
   7 H :    0.258709    0.010889
Sum of atomic charges         :    0.0000000

LOEWDIN ATOMIC CHARGES AND SPIN POPULATIONS
-------------------------------------------
   0 C :   -0.478923    0.846778
   1 S :    0.249392    0.190840
   2 C :   -0.461027   -0.001648
   3 H :    0.139264   -0.025500
   4 H :    0.132999   -0.024143
   5 H :    0.143548   -0.000686
   6 H :    0.136170    0.006301
   7 H :    0.138577    0.008058

  Mayer bond orders larger than 0.100000
B(  0-C ,  1-S ) :   1.2573 B(  0-C ,  3-H ) :   0.9074 B(  0-C ,  4-H ) :   0.8994
B(  1-S ,  2-C ) :   1.0095 B(  2-C ,  5-H ) :   0.9070 B(  2-C ,  6-H ) :   0.8958
B(  2-C ,  7-H ) :   0.8929

Dispersion correction           -0.002704388
FINAL SINGLE POINT ENERGY      -476.726377168950

DIPOLE MOMENT
-------------
                                X             Y             Z
Electronic contribution:     -1.20970       3.32962       0.03380
Nuclear contribution   :      1.58284      -3.78106      -0.10703
                        -----------------------------------------
Total Dipole Moment    :      0.37314      -0.45144      -0.07323
                        -----------------------------------------
Magnitude (a.u.)       :      0.59025
Magnitude (Debye)      :      1.50029

Rotational constants in cm-1:     0.681451     0.265135     0.198394
Rotational constants in MHz : 20429.386630  7948.555824  5947.698066

                             ****ORCA TERMINATED NORMALLY****
TOTAL RUN TIME: 0 days 0 hours 2 minutes 48 seconds 625 msec
