                         Program Version 5.0.3 -  RELEASE  -
|  1> ! PBEh-3c def2/J TightSCF DefGrid3
|  2>
|  3> %maxcore 60000
|  4>
|  5> %pal
|  6> nprocs 4
|  7> end
|  8>
|  9> *xyzfile 0 2 2p2.xyz
| 10>
| 11>                          ****END OF INPUT****

CARTESIAN COORDINATES (ANGSTROEM)
---------------------------------
  C     -0.765945    0.023345    0.000000
  C      0.772767    0.032144    0.000000
  O      1.162811   -1.270978    0.000000
  H     -1.115837    1.056954    0.000000
  H     -1.143114   -0.482908    0.888375
  H     -1.143114   -0.482908   -0.888375
  H      1.116216    0.562176    0.901574
  H      1.116216    0.562176   -0.901574

 Total Charge           Charge          ....    0
 Multiplicity           Mult            ....    2
 Number of Electrons    NEL             ....   25
 Basis Dimension        Dim             ....   55

ORBITAL ENERGIES
----------------
                 SPIN UP ORBITALS
  NO   OCC          E(Eh)            E(eV)
   0   1.0000     -19.534657      -531.5651
   1   1.0000     -10.491180      -285.4795
   2   1.0000     -10.450156      -284.3632
   3   1.0000      -1.142690       -31.0942
   4   1.0000      -0.839947       -22.8561
   5   1.0000      -0.689072       -18.7506
   6   1.0000      -0.549024       -14.9397
   7   1.0000      -0.543238       -14.7823
   8   1.0000      -0.496853       -13.5201
   9   1.0000      -0.447935       -12.1889
  10   1.0000      -0.442491       -12.0408
  11   1.0000      -0.378861       -10.3093
  12   1.0000      -0.339194        -9.2299
  13   0.0000       0.148491         4.0406
  14   0.0000       0.177603         4.8328
  15   0.0000       0.202779         5.5179
  16   0.0000       0.203999         5.5511
  17   0.0000       0.235968         6.4210

                 SPIN DOWN ORBITALS
  NO   OCC          E(Eh)            E(eV)
   0   1.0000     -19.508042      -530.8408
   1   1.0000     -10.492178      -285.5067
   2   1.0000     -10.447519      -284.2915
   3   1.0000      -1.074990       -29.2520
   4   1.0000      -0.823033       -22.3959
   5   1.0000      -0.676881       -18.4189
   6   1.0000      -0.544054       -14.8045
   7   1.0000      -0.504833       -13.7372
   8   1.0000      -0.450129       -12.2486
   9   1.0000      -0.437760       -11.9121
  10   1.0000      -0.437324       -11.9002
  11   1.0000      -0.316044        -8.6000
  12   0.0000      -0.076345        -2.0774
  13   0.0000       0.151985         4.1357
  14   0.0000       0.181547         4.9401
  15   0.0000       0.204459         5.5636
  16   0.0000       0.207894         5.6571

MULLIKEN ATOMIC CHARGES AND SPIN POPULATIONS
--------------------------------------------
   0 C :   -0.672818    0.088282
   1 C :   -0.146077   -0.069393
   2 O :   -0.263698    0.934668
   3 H :    0.228128    0.018045
   4 H :    0.239042   -0.004266
   5 H :    0.239042   -0.004266
   6 H :    0.188191    0.018465
   7 H :    0.188191    0.018465
Sum of atomic charges         :   -0.0000000

LOEWDIN ATOMIC CHARGES AND SPIN POPULATIONS
-------------------------------------------
   0 C :   -0.361212    0.082115
   1 C :   -0.131575   -0.019596
   2 O :   -0.130796    0.904535
   3 H :    0.138907    0.010455
   4 H :    0.137917   -0.002987
   5 H :    0.137917   -0.002987
   6 H :    0.104421    0.014232
   7 H :    0.104421    0.014232

  Mayer bond orders larger than 0.100000
B(  0-C ,  1-C ) :   0.9355 B(  0-C ,  3-H ) :   0.9174 B(  0-C ,  4-H ) :   0.9153
B(  0-C ,  5-H ) :   0.9153 B(  1-C ,  2-O ) :   1.1263 B(  1-C ,  6-H ) :   0.8881
B(  1-C ,  7-H ) :   0.8881

Dispersion correction           -0.002118506
FINAL SINGLE POINT ENERGY      -154.034252742114

DIPOLE MOMENT
-------------
                                X             Y             Z
Electronic contribution:      2.51432      -2.34963       0.00000
Nuclear contribution   :     -2.90834       3.04750       0.00000
                        -----------------------------------------
Total Dipole Moment    :     -0.39401       0.69787       0.00000
                        -----------------------------------------
Magnitude (a.u.)       :      0.80142
Magnitude (Debye)      :      2.03704

Rotational constants in cm-1:     1.179256     0.350003     0.301029
Rotational constants in MHz : 35353.218107 10492.817809  9024.629563

                             ****ORCA TERMINATED NORMALLY****
TOTAL RUN TIME: 0 days 0 hours 2 minutes 50 seconds 76 msec
