                         Program Version 5.0.3 -  RELEASE  -
|  1> ! PBEh-3c def2/J TightSCF DefGrid3
|  2>
|  3> %maxcore 60000
|  4>
|  5> %pal
|  6> nprocs 4
|  7> end
|  8>
|  9> *xyzfile 0 1 B52.xyz
| 10>
| 11>                          ****END OF INPUT****

CARTESIAN COORDINATES (ANGSTROEM)
---------------------------------
  C      1.249414   -0.415779    0.211236
  H      0.769122   -1.250783   -0.288233
  O      2.615776   -0.450441   -0.195930
  C      0.579230    0.902593   -0.163301
  H      1.178558    1.716885    0.256761
  H      0.612887    1.018575   -1.249044
  C     -0.861550    1.057907    0.331844
  H     -1.185909    2.086126    0.150262
  H     -0.902884    0.911088    1.416585
  H      3.065033    0.276088    0.244419
  H      1.161039   -0.581774    1.291453
  C     -1.875327    0.132895   -0.333103
  H     -2.889810    0.461191   -0.087477
  H     -1.767359    0.180390   -1.416730
  O     -1.705508   -1.243520    0.003009
  H     -1.873421   -1.331799    0.945314

 Total Charge           Charge          ....    0
 Multiplicity           Mult            ....    1
 Number of Electrons    NEL             ....   50
 Basis Dimension        Dim             ....  110

ORBITAL ENERGIES
----------------

  NO   OCC          E(Eh)            E(eV)
   0   2.0000     -19.489708      -530.3419
   1   2.0000     -19.477248      -530.0029
   2   2.0000     -10.484717      -285.3037
   3   2.0000     -10.470250      -284.9100
   4   2.0000     -10.442307      -284.1496
   5   2.0000     -10.434764      -283.9444
   6   2.0000      -1.125560       -30.6280
   7   2.0000      -1.113463       -30.2989
   8   2.0000      -0.883706       -24.0469
   9   2.0000      -0.794194       -21.6111
  10   2.0000      -0.714271       -19.4363
  11   2.0000      -0.661897       -18.0111
  12   2.0000      -0.567377       -15.4391
  13   2.0000      -0.562744       -15.3130
  14   2.0000      -0.529050       -14.3962
  15   2.0000      -0.515628       -14.0309
  16   2.0000      -0.471409       -12.8277
  17   2.0000      -0.463356       -12.6086
  18   2.0000      -0.450730       -12.2650
  19   2.0000      -0.415073       -11.2947
  20   2.0000      -0.400894       -10.9089
  21   2.0000      -0.383703       -10.4411
  22   2.0000      -0.366244        -9.9660
  23   2.0000      -0.324601        -8.8328
  24   2.0000      -0.316970        -8.6252
  25   0.0000       0.118415         3.2222
  26   0.0000       0.133536         3.6337
  27   0.0000       0.160921         4.3789
  28   0.0000       0.176230         4.7955
  29   0.0000       0.182768         4.9734

MULLIKEN ATOMIC CHARGES
-----------------------
   0 C :   -0.142466
   1 H :    0.242964
   2 O :   -0.624115
   3 C :   -0.457372
   4 H :    0.197739
   5 H :    0.225059
   6 C :   -0.463808
   7 H :    0.221348
   8 H :    0.200242
   9 H :    0.404139
  10 H :    0.160693
  11 C :   -0.160194
  12 H :    0.193661
  13 H :    0.212263
  14 O :   -0.620352
  15 H :    0.410199
Sum of atomic charges:    0.0000000

LOEWDIN ATOMIC CHARGES
----------------------
   0 C :   -0.102404
   1 H :    0.132958
   2 O :   -0.412635
   3 C :   -0.263458
   4 H :    0.116913
   5 H :    0.129470
   6 C :   -0.266440
   7 H :    0.131678
   8 H :    0.117670
   9 H :    0.302486
  10 H :    0.090246
  11 C :   -0.096201
  12 H :    0.102345
  13 H :    0.120901
  14 O :   -0.409318
  15 H :    0.305789

  Mayer bond orders larger than 0.100000
B(  0-C ,  1-H ) :   0.8961 B(  0-C ,  2-O ) :   1.0077 B(  0-C ,  3-C ) :   0.9770
B(  0-C , 10-H ) :   0.9151 B(  2-O ,  9-H ) :   0.7975 B(  3-C ,  4-H ) :   0.9253
B(  3-C ,  5-H ) :   0.9126 B(  3-C ,  6-C ) :   0.9739 B(  6-C ,  7-H ) :   0.9120
B(  6-C ,  8-H ) :   0.9183 B(  6-C , 11-C ) :   0.9596 B( 11-C , 12-H ) :   0.9150
B( 11-C , 13-H ) :   0.9149 B( 11-C , 14-O ) :   1.0130 B( 14-O , 15-H ) :   0.7938

Dispersion correction           -0.006709075
FINAL SINGLE POINT ENERGY      -308.205969250334

DIPOLE MOMENT
-------------
                                X             Y             Z
Electronic contribution:      1.41196      -2.65341      -0.49078
Nuclear contribution   :     -1.89470       3.60444       1.31315
                        -----------------------------------------
Total Dipole Moment    :     -0.48274       0.95103       0.82237
                        -----------------------------------------
Magnitude (a.u.)       :      1.34677
Magnitude (Debye)      :      3.42321

Rotational constants in cm-1:     0.212890     0.061753     0.051534
Rotational constants in MHz :  6382.288195  1851.309860  1544.938208

                             ****ORCA TERMINATED NORMALLY****
TOTAL RUN TIME: 0 days 0 hours 1 minutes 36 seconds 139 msec
