                         Program Version 5.0.3 -  RELEASE  -
|  1> ! PBEh-3c def2/J TightSCF DefGrid3
|  2>
|  3> %maxcore 60000
|  4>
|  5> %pal
|  6> nprocs 4
|  7> end
|  8>
|  9> *xyzfile 1 2 h2o2+_1.0.xyz
| 10>
| 11>                          ****END OF INPUT****

CARTESIAN COORDINATES (ANGSTROEM)
---------------------------------
  O      1.006894   -0.100096    0.000000
  O     -1.006894    0.100096    0.000000
  H      1.170803    0.471380    0.775137
  H      1.170803    0.471380   -0.775137
  H     -1.170803   -0.471380    0.775137
  H     -1.170803   -0.471380   -0.775137

 Total Charge           Charge          ....    1
 Multiplicity           Mult            ....    2
 Number of Electrons    NEL             ....   19
 Basis Dimension        Dim             ....   38

ORBITAL ENERGIES
----------------
                 SPIN UP ORBITALS
  NO   OCC          E(Eh)            E(eV)
   0   1.0000     -19.859509      -540.4047
   1   1.0000     -19.859390      -540.4015
   2   1.0000      -1.484875       -40.4055
   3   1.0000      -1.440426       -39.1960
   4   1.0000      -0.929295       -25.2874
   5   1.0000      -0.899793       -24.4846
   6   1.0000      -0.835335       -22.7306
   7   1.0000      -0.793228       -21.5848
   8   1.0000      -0.749011       -20.3816
   9   1.0000      -0.675942       -18.3933
  10   0.0000      -0.155354        -4.2274
  11   0.0000      -0.098223        -2.6728
  12   0.0000      -0.058115        -1.5814
  13   0.0000      -0.056001        -1.5239
  14   0.0000       0.507758        13.8168

                 SPIN DOWN ORBITALS
  NO   OCC          E(Eh)            E(eV)
   0   1.0000     -19.840531      -539.8883
   1   1.0000     -19.840462      -539.8864
   2   1.0000      -1.438712       -39.1493
   3   1.0000      -1.391348       -37.8605
   4   1.0000      -0.915442       -24.9104
   5   1.0000      -0.885049       -24.0834
   6   1.0000      -0.773572       -21.0500
   7   1.0000      -0.759219       -20.6594
   8   1.0000      -0.665528       -18.1099
   9   0.0000      -0.390908       -10.6372
  10   0.0000      -0.147687        -4.0188
  11   0.0000      -0.089540        -2.4365
  12   0.0000      -0.052752        -1.4355
  13   0.0000      -0.051303        -1.3960

MULLIKEN ATOMIC CHARGES AND SPIN POPULATIONS
--------------------------------------------
   0 O :   -0.526163    0.534334
   1 O :   -0.526163    0.534334
   2 H :    0.513081   -0.017167
   3 H :    0.513081   -0.017167
   4 H :    0.513081   -0.017167
   5 H :    0.513081   -0.017167
Sum of atomic charges         :    1.0000000

LOEWDIN ATOMIC CHARGES AND SPIN POPULATIONS
-------------------------------------------
   0 O :   -0.246029    0.526958
   1 O :   -0.246029    0.526958
   2 H :    0.373014   -0.013479
   3 H :    0.373014   -0.013479
   4 H :    0.373014   -0.013479
   5 H :    0.373014   -0.013479

  Mayer bond orders larger than 0.100000
B(  0-O ,  1-O ) :   0.4884 B(  0-O ,  2-H ) :   0.7216 B(  0-O ,  3-H ) :   0.7216
B(  1-O ,  4-H ) :   0.7216 B(  1-O ,  5-H ) :   0.7216

Dispersion correction           -0.000973508
FINAL SINGLE POINT ENERGY      -152.141251183192

DIPOLE MOMENT
-------------
                                X             Y             Z
Electronic contribution:      0.00000      -0.00000       0.00000
Nuclear contribution   :      0.00000       0.00000       0.00000
                        -----------------------------------------
Total Dipole Moment    :      0.00000      -0.00000       0.00000
                        -----------------------------------------
Magnitude (a.u.)       :      0.00000
Magnitude (Debye)      :      0.00000

Rotational constants in cm-1:     4.667242     0.430216     0.417089
Rotational constants in MHz : 139920.403718 12897.542460 12504.002477

                             ****ORCA TERMINATED NORMALLY****
TOTAL RUN TIME: 0 days 0 hours 1 minutes 14 seconds 188 msec
