                         Program Version 5.0.3 -  RELEASE  -
|  1> ! PBEh-3c def2/J TightSCF DefGrid3
|  2>
|  3> %maxcore 60000
|  4>
|  5> %pal
|  6> nprocs 4
|  7> end
|  8>
|  9> *xyzfile 0 1 E29.xyz
| 10>
| 11>                          ****END OF INPUT****

CARTESIAN COORDINATES (ANGSTROEM)
---------------------------------
  C      0.000000   -1.175508    0.045218
  O      0.000000    0.000000    0.828922
  C      0.000000    1.175508    0.045218
  H      0.000000   -2.022781    0.730197
  H     -0.891497   -1.235187   -0.594938
  H      0.891497   -1.235187   -0.594938
  H      0.000000    2.022781    0.730197
  H     -0.891497    1.235187   -0.594938
  H      0.891497    1.235187   -0.594938

 Total Charge           Charge          ....    0
 Multiplicity           Mult            ....    1
 Number of Electrons    NEL             ....   26
 Basis Dimension        Dim             ....   57

ORBITAL ENERGIES
----------------

  NO   OCC          E(Eh)            E(eV)
   0   2.0000     -19.491118      -530.3803
   1   2.0000     -10.475020      -285.0398
   2   2.0000     -10.474977      -285.0386
   3   2.0000      -1.134385       -30.8682
   4   2.0000      -0.801598       -21.8126
   5   2.0000      -0.713635       -19.4190
   6   2.0000      -0.533109       -14.5066
   7   2.0000      -0.531021       -14.4498
   8   2.0000      -0.530818       -14.4443
   9   2.0000      -0.448577       -12.2064
  10   2.0000      -0.428919       -11.6715
  11   2.0000      -0.370708       -10.0875
  12   2.0000      -0.308945        -8.4068
  13   0.0000       0.133319         3.6278
  14   0.0000       0.192234         5.2310
  15   0.0000       0.201239         5.4760
  16   0.0000       0.203664         5.5420
  17   0.0000       0.226475         6.1627

MULLIKEN ATOMIC CHARGES
-----------------------
   0 C :   -0.360806
   1 O :   -0.454915
   2 C :   -0.360806
   3 H :    0.221767
   4 H :    0.183248
   5 H :    0.183248
   6 H :    0.221767
   7 H :    0.183248
   8 H :    0.183248
Sum of atomic charges:   -0.0000000

LOEWDIN ATOMIC CHARGES
----------------------
   0 C :   -0.187300
   1 O :   -0.273063
   2 C :   -0.187300
   3 H :    0.123970
   4 H :    0.099930
   5 H :    0.099930
   6 H :    0.123970
   7 H :    0.099930
   8 H :    0.099930

  Mayer bond orders larger than 0.100000
B(  0-C ,  1-O ) :   0.9816 B(  0-C ,  3-H ) :   0.9300 B(  0-C ,  4-H ) :   0.9127
B(  0-C ,  5-H ) :   0.9127 B(  1-O ,  2-C ) :   0.9816 B(  2-C ,  6-H ) :   0.9300
B(  2-C ,  7-H ) :   0.9127 B(  2-C ,  8-H ) :   0.9127

Dispersion correction           -0.002349579
FINAL SINGLE POINT ENERGY      -154.682276268614

DIPOLE MOMENT
-------------
                                X             Y             Z
Electronic contribution:     -0.00000      -0.00000       1.94591
Nuclear contribution   :      0.00000       0.00000      -2.49450
                        -----------------------------------------
Total Dipole Moment    :     -0.00000      -0.00000      -0.54859
                        -----------------------------------------
Magnitude (a.u.)       :      0.54859
Magnitude (Debye)      :      1.39441

Rotational constants in cm-1:     1.313039     0.331851     0.294567
Rotational constants in MHz : 39363.922769  9948.633582  8830.901229

                             ****ORCA TERMINATED NORMALLY****
TOTAL RUN TIME: 0 days 0 hours 1 minutes 9 seconds 391 msec
