                         Program Version 5.0.3 -  RELEASE  -
|  1> ! PBEh-3c def2/J TightSCF DefGrid3
|  2>
|  3> %maxcore 60000
|  4>
|  5> %pal
|  6> nprocs 4
|  7> end
|  8>
|  9> *xyzfile 0 1 E13.xyz
| 10>
| 11>                          ****END OF INPUT****

CARTESIAN COORDINATES (ANGSTROEM)
---------------------------------
  C      0.005043   -0.510937   -1.297943
  C     -0.018388   -1.882362   -1.069507
  C     -0.015783   -2.371295    0.232012
  C      0.011155   -1.475970    1.300593
  C      0.032193   -0.108094    1.070701
  C      0.025271    0.402902   -0.235888
  C      0.040020    1.842371   -0.536289
  C     -0.047102    2.855364    0.327178
  H      0.003568   -0.136654   -2.315915
  H     -0.036306   -2.567913   -1.908495
  H     -0.031577   -3.438899    0.415424
  H      0.018268   -1.848897    2.318138
  H      0.060741    0.569359    1.915169
  H      0.124124    2.080138   -1.593856
  H     -0.145332    2.709655    1.396403
  H     -0.025894    3.881231   -0.017727

 Total Charge           Charge          ....    0
 Multiplicity           Mult            ....    1
 Number of Electrons    NEL             ....   56
 Basis Dimension        Dim             ....  136

ORBITAL ENERGIES
----------------

  NO   OCC          E(Eh)            E(eV)
   0   2.0000     -10.461146      -284.6623
   1   2.0000     -10.453899      -284.4651
   2   2.0000     -10.450967      -284.3853
   3   2.0000     -10.450855      -284.3822
   4   2.0000     -10.450381      -284.3693
   5   2.0000     -10.450145      -284.3629
   6   2.0000     -10.449855      -284.3550
   7   2.0000     -10.441351      -284.1236
   8   2.0000      -0.961647       -26.1678
   9   2.0000      -0.885259       -24.0891
  10   2.0000      -0.839423       -22.8418
  11   2.0000      -0.815921       -22.2023
  12   2.0000      -0.704282       -19.1645
  13   2.0000      -0.683209       -18.5911
  14   2.0000      -0.633250       -17.2316
  15   2.0000      -0.583427       -15.8758
  16   2.0000      -0.540506       -14.7079
  17   2.0000      -0.520670       -14.1682
  18   2.0000      -0.502610       -13.6767
  19   2.0000      -0.482359       -13.1257
  20   2.0000      -0.473520       -12.8851
  21   2.0000      -0.432678       -11.7738
  22   2.0000      -0.428346       -11.6559
  23   2.0000      -0.400327       -10.8934
  24   2.0000      -0.393349       -10.7036
  25   2.0000      -0.349914        -9.5216
  26   2.0000      -0.295887        -8.0515
  27   2.0000      -0.265784        -7.2323
  28   0.0000      -0.016025        -0.4361
  29   0.0000       0.018011         0.4901
  30   0.0000       0.085144         2.3169
  31   0.0000       0.140196         3.8149
  32   0.0000       0.162062         4.4099

MULLIKEN ATOMIC CHARGES
-----------------------
   0 C :   -0.285024
   1 C :   -0.203303
   2 C :   -0.236087
   3 C :   -0.198973
   4 C :   -0.285313
   5 C :    0.160070
   6 C :   -0.192277
   7 C :   -0.498395
   8 H :    0.215165
   9 H :    0.220330
  10 H :    0.221310
  11 H :    0.220910
  12 H :    0.209980
  13 H :    0.213068
  14 H :    0.213812
  15 H :    0.224726
Sum of atomic charges:    0.0000000

LOEWDIN ATOMIC CHARGES
----------------------
   0 C :   -0.126211
   1 C :   -0.132866
   2 C :   -0.135051
   3 C :   -0.131095
   4 C :   -0.119409
   5 C :   -0.050247
   6 C :   -0.128989
   7 C :   -0.257888
   8 H :    0.135560
   9 H :    0.137065
  10 H :    0.136684
  11 H :    0.136757
  12 H :    0.135422
  13 H :    0.134032
  14 H :    0.129053
  15 H :    0.137185

  Mayer bond orders larger than 0.100000
B(  0-C ,  1-C ) :   1.4257 B(  0-C ,  5-C ) :   1.3544 B(  0-C ,  8-H ) :   0.9215
B(  1-C ,  2-C ) :   1.4298 B(  1-C ,  9-H ) :   0.9197 B(  2-C ,  3-C ) :   1.4034
B(  2-C , 10-H ) :   0.9188 B(  3-C ,  4-C ) :   1.4511 B(  3-C , 11-H ) :   0.9198
B(  4-C ,  5-C ) :   1.3514 B(  4-C , 12-H ) :   0.9210 B(  5-C ,  6-C ) :   1.0468
B(  6-C ,  7-C ) :   1.8698 B(  6-C , 13-H ) :   0.9214 B(  7-C , 14-H ) :   0.9243
B(  7-C , 15-H ) :   0.9255

Dispersion correction           -0.008782250
FINAL SINGLE POINT ENERGY      -308.951408171628

DIPOLE MOMENT
-------------
                                X             Y             Z
Electronic contribution:      0.05628      -2.22267      -0.36344
Nuclear contribution   :     -0.05610       2.16042       0.36204
                        -----------------------------------------
Total Dipole Moment    :      0.00018      -0.06225      -0.00140
                        -----------------------------------------
Magnitude (a.u.)       :      0.06227
Magnitude (Debye)      :      0.15827

Rotational constants in cm-1:     0.173658     0.051427     0.039699
Rotational constants in MHz :  5206.140352  1541.743319  1190.147277

                             ****ORCA TERMINATED NORMALLY****
TOTAL RUN TIME: 0 days 0 hours 1 minutes 10 seconds 450 msec
