                         Program Version 5.0.3 -  RELEASE  -
|  1> ! PBEh-3c def2/J TightSCF DefGrid3
|  2>
|  3> %maxcore 60000
|  4>
|  5> %pal
|  6> nprocs 4
|  7> end
|  8>
|  9> *xyzfile 1 1 phenolp.xyz
| 10>
| 11>                          ****END OF INPUT****

CARTESIAN COORDINATES (ANGSTROEM)
---------------------------------
  C      0.062361   -1.264549    0.000000
  C      1.300998   -0.563041    0.000000
  C      1.289602    0.782927    0.000000
  C      0.042265    1.555359    0.000000
  C     -1.193643    0.765711    0.000000
  C     -1.185845   -0.581371    0.000000
  O      0.135498   -2.551520    0.000000
  H      2.224769   -1.127612    0.000000
  H      2.223316    1.332033    0.000000
  H      0.036122    2.247493   -0.855713
  H     -2.135738    1.300330    0.000000
  H     -2.108382   -1.150627    0.000000
  H     -0.727446   -2.992626    0.000000
  H      0.036122    2.247493    0.855713

 Total Charge           Charge          ....    1
 Multiplicity           Mult            ....    1
 Number of Electrons    NEL             ....   50
 Basis Dimension        Dim             ....  119

ORBITAL ENERGIES
----------------

  NO   OCC          E(Eh)            E(eV)
   0   2.0000     -19.765070      -537.8349
   1   2.0000     -10.768021      -293.0127
   2   2.0000     -10.682850      -290.6951
   3   2.0000     -10.676064      -290.5105
   4   2.0000     -10.657339      -290.0009
   5   2.0000     -10.651903      -289.8530
   6   2.0000     -10.647955      -289.7456
   7   2.0000      -1.429702       -38.9042
   8   2.0000      -1.168290       -31.7908
   9   2.0000      -1.064160       -28.9573
  10   2.0000      -1.049818       -28.5670
  11   2.0000      -0.937119       -25.5003
  12   2.0000      -0.900798       -24.5120
  13   2.0000      -0.839667       -22.8485
  14   2.0000      -0.776905       -21.1407
  15   2.0000      -0.756131       -20.5754
  16   2.0000      -0.716101       -19.4861
  17   2.0000      -0.701320       -19.0839
  18   2.0000      -0.698388       -19.0041
  19   2.0000      -0.686048       -18.6683
  20   2.0000      -0.661553       -18.0018
  21   2.0000      -0.631226       -17.1765
  22   2.0000      -0.593626       -16.1534
  23   2.0000      -0.537857       -14.6358
  24   2.0000      -0.516239       -14.0476
  25   0.0000      -0.263767        -7.1775
  26   0.0000      -0.176869        -4.8129
  27   0.0000      -0.065935        -1.7942
  28   0.0000      -0.056537        -1.5385
  29   0.0000      -0.038176        -1.0388

MULLIKEN ATOMIC CHARGES
-----------------------
   0 C :    0.463841
   1 C :   -0.255230
   2 C :   -0.149338
   3 C :   -0.562255
   4 C :   -0.141696
   5 C :   -0.306825
   6 O :   -0.485561
   7 H :    0.323972
   8 H :    0.319484
   9 H :    0.341963
  10 H :    0.319933
  11 H :    0.301107
  12 H :    0.488641
  13 H :    0.341963
Sum of atomic charges:    1.0000000

LOEWDIN ATOMIC CHARGES
----------------------
   0 C :    0.192403
   1 C :   -0.148466
   2 C :    0.001152
   3 C :   -0.244813
   4 C :    0.010888
   5 C :   -0.178320
   6 O :   -0.153634
   7 H :    0.187409
   8 H :    0.180695
   9 H :    0.215006
  10 H :    0.180784
  11 H :    0.173492
  12 H :    0.368398
  13 H :    0.215006

  Mayer bond orders larger than 0.100000
B(  0-C ,  1-C ) :   1.1759 B(  0-C ,  5-C ) :   1.1589 B(  0-C ,  6-O ) :   1.2869
B(  1-C ,  2-C ) :   1.6500 B(  1-C ,  7-H ) :   0.8744 B(  2-C ,  3-C ) :   1.0259
B(  2-C ,  8-H ) :   0.8812 B(  3-C ,  4-C ) :   1.0288 B(  3-C ,  9-H ) :   0.8234
B(  3-C , 13-H ) :   0.8234 B(  4-C ,  5-C ) :   1.6579 B(  4-C , 10-H ) :   0.8788
B(  5-C , 11-H ) :   0.8862 B(  6-O , 12-H ) :   0.7255

Dispersion correction           -0.007027649
FINAL SINGLE POINT ENERGY      -307.117904955514

DIPOLE MOMENT
-------------
                                X             Y             Z
Electronic contribution:      0.16640      -3.34034       0.00000
Nuclear contribution   :     -0.80229       3.82155       0.00000
                        -----------------------------------------
Total Dipole Moment    :     -0.63589       0.48121       0.00000
                        -----------------------------------------
Magnitude (a.u.)       :      0.79744
Magnitude (Debye)      :      2.02694

Rotational constants in cm-1:     0.176691     0.087961     0.059336
Rotational constants in MHz :  5297.076187  2636.989986  1778.847694

                             ****ORCA TERMINATED NORMALLY****
TOTAL RUN TIME: 0 days 0 hours 1 minutes 31 seconds 297 msec
