                         Program Version 5.0.3 -  RELEASE  -
|  1> ! PBEh-3c def2/J TightSCF DefGrid3
|  2>
|  3> %maxcore 60000
|  4>
|  5> %pal
|  6> nprocs 4
|  7> end
|  8>
|  9> *xyzfile -1 1 20.xyz
| 10>
| 11>                          ****END OF INPUT****

CARTESIAN COORDINATES (ANGSTROEM)
---------------------------------
  O      1.597754   -0.226446   -0.027520
  O      0.474965    1.771463   -0.184510
  C      0.560403    0.508074   -0.072294
  H     -0.423142   -0.039746   -0.003354
  H      2.403943    2.352078   -0.278866
  O      3.324627    2.018953   -0.268760
  H      3.077967    1.074134   -0.177509

 Total Charge           Charge          ....   -1
 Multiplicity           Mult            ....    1
 Number of Electrons    NEL             ....   34
 Basis Dimension        Dim             ....   66

ORBITAL ENERGIES
----------------

  NO   OCC          E(Eh)            E(eV)
   0   2.0000     -19.248092      -523.7672
   1   2.0000     -19.240477      -523.5600
   2   2.0000     -19.240137      -523.5507
   3   2.0000     -10.337347      -281.2935
   4   2.0000      -0.923465       -25.1288
   5   2.0000      -0.870364       -23.6838
   6   2.0000      -0.835835       -22.7442
   7   2.0000      -0.425074       -11.5669
   8   2.0000      -0.336179        -9.1479
   9   2.0000      -0.304498        -8.2858
  10   2.0000      -0.263252        -7.1635
  11   2.0000      -0.243849        -6.6355
  12   2.0000      -0.235812        -6.4168
  13   2.0000      -0.137515        -3.7420
  14   2.0000      -0.102113        -2.7786
  15   2.0000      -0.101881        -2.7723
  16   2.0000      -0.093886        -2.5548
  17   0.0000       0.285130         7.7588
  18   0.0000       0.376133        10.2351
  19   0.0000       0.418399        11.3852
  20   0.0000       0.453415        12.3381
  21   0.0000       0.564508        15.3610

MULLIKEN ATOMIC CHARGES
-----------------------
   0 O :   -0.589649
   1 O :   -0.588451
   2 C :    0.260768
   3 H :    0.030536
   4 H :    0.407180
   5 O :   -0.930743
   6 H :    0.410360
Sum of atomic charges:   -1.0000000

LOEWDIN ATOMIC CHARGES
----------------------
   0 O :   -0.441492
   1 O :   -0.441413
   2 C :   -0.002663
   3 H :    0.002248
   4 H :    0.285954
   5 O :   -0.689239
   6 H :    0.286605

  Mayer bond orders larger than 0.100000
B(  0-O ,  1-O ) :   0.1429 B(  0-O ,  2-C ) :   1.7029 B(  0-O ,  6-H ) :   0.1091
B(  1-O ,  2-C ) :   1.7116 B(  1-O ,  4-H ) :   0.1014 B(  2-C ,  3-H ) :   0.8762
B(  4-H ,  5-O ) :   0.7534 B(  5-O ,  6-H ) :   0.7449

Dispersion correction           -0.001797218
FINAL SINGLE POINT ENERGY      -265.074475860562

DIPOLE MOMENT
-------------
                                X             Y             Z
Electronic contribution:     -0.91418      -0.49736       0.06637
Nuclear contribution   :      0.37265       0.21199      -0.02913
                        -----------------------------------------
Total Dipole Moment    :     -0.54153      -0.28538       0.03725
                        -----------------------------------------
Magnitude (a.u.)       :      0.61325
Magnitude (Debye)      :      1.55877

Rotational constants in cm-1:     0.389626     0.167140     0.116965
Rotational constants in MHz : 11680.695941  5010.746042  3506.527928

                             ****ORCA TERMINATED NORMALLY****
TOTAL RUN TIME: 0 days 0 hours 0 minutes 38 seconds 816 msec
