                         Program Version 5.0.3 -  RELEASE  -
|  1> ! PBEh-3c def2/J TightSCF DefGrid3
|  2>
|  3> %maxcore 60000
|  4>
|  5> %pal
|  6> nprocs 4
|  7> end
|  8>
|  9> *xyzfile 0 1 methylamine_ecl.xyz
| 10>
| 11>                          ****END OF INPUT****

CARTESIAN COORDINATES (ANGSTROEM)
---------------------------------
  C     -0.023909   -0.053026   -0.107459
  N      0.000921    0.003655    1.444777
  H      0.942086   -0.012590    1.825145
  H     -0.462025    0.820396    1.832206
  H     -0.477738   -0.806059    1.815649
  H     -0.494624    0.889660   -0.388744
  H      1.028649    0.047130   -0.379578

 Total Charge           Charge          ....    0
 Multiplicity           Mult            ....    1
 Number of Electrons    NEL             ....   18
 Basis Dimension        Dim             ....   40

ORBITAL ENERGIES
----------------

  NO   OCC          E(Eh)            E(eV)
   0   2.0000     -14.728947      -400.7950
   1   2.0000     -10.360456      -281.9223
   2   2.0000      -1.065003       -28.9802
   3   2.0000      -0.694566       -18.9001
   4   2.0000      -0.625158       -17.0114
   5   2.0000      -0.617159       -16.7937
   6   2.0000      -0.453911       -12.3515
   7   2.0000      -0.365949        -9.9580
   8   2.0000      -0.164605        -4.4791
   9   0.0000       0.082588         2.2473
  10   0.0000       0.138989         3.7821
  11   0.0000       0.157263         4.2794
  12   0.0000       0.226364         6.1597
  13   0.0000       0.268441         7.3047

MULLIKEN ATOMIC CHARGES
-----------------------
   0 C :   -0.651287
   1 N :   -0.778284
   2 H :    0.384125
   3 H :    0.381859
   4 H :    0.408471
   5 H :    0.128117
   6 H :    0.127000
Sum of atomic charges:   -0.0000000

LOEWDIN ATOMIC CHARGES
----------------------
   0 C :   -0.675345
   1 N :   -0.250466
   2 H :    0.257242
   3 H :    0.254762
   4 H :    0.268078
   5 H :    0.073049
   6 H :    0.072679

  Mayer bond orders larger than 0.100000
B(  0-C ,  1-N ) :   0.7502 B(  0-C ,  5-H ) :   0.9627 B(  0-C ,  6-H ) :   0.9625
B(  1-N ,  2-H ) :   0.8178 B(  1-N ,  3-H ) :   0.8158 B(  1-N ,  4-H ) :   0.8092

Dispersion correction           -0.001631882
FINAL SINGLE POINT ENERGY       -95.527294513474

DIPOLE MOMENT
-------------
                                X             Y             Z
Electronic contribution:     -0.13083      -0.21589       1.41407
Nuclear contribution   :      0.46292       0.82605       0.83973
                        -----------------------------------------
Total Dipole Moment    :      0.33208       0.61015       2.25381
                        -----------------------------------------
Magnitude (a.u.)       :      2.35843
Magnitude (Debye)      :      5.99466

Rotational constants in cm-1:     3.509752     0.713660     0.686401
Rotational constants in MHz : 105219.731733 21394.988724 20577.790819

                             ****ORCA TERMINATED NORMALLY****
TOTAL RUN TIME: 0 days 0 hours 0 minutes 47 seconds 376 msec
