                         Program Version 5.0.3 -  RELEASE  -
|  1> ! PBEh-3c def2/J TightSCF DefGrid3
|  2>
|  3> %maxcore 60000
|  4>
|  5> %pal
|  6> nprocs 4
|  7> end
|  8>
|  9> *xyzfile 0 1 18B.xyz
| 10>
| 11>                          ****END OF INPUT****

CARTESIAN COORDINATES (ANGSTROEM)
---------------------------------
  N      0.000000    0.000000   -1.605235
  C     -1.144784    0.000000   -0.908569
  H     -2.055616    0.000000   -1.493756
  C     -1.194863    0.000000    0.481980
  H     -2.149222    0.000000    0.988439
  C      0.000000    0.000000    1.193985
  H      0.000000    0.000000    2.275065
  C      1.194863    0.000000    0.481980
  H      2.149222    0.000000    0.988439
  C      1.144784    0.000000   -0.908569
  H      2.055616    0.000000   -1.493756

 Total Charge           Charge          ....    0
 Multiplicity           Mult            ....    1
 Number of Electrons    NEL             ....   42
 Basis Dimension        Dim             ....  100

ORBITAL ENERGIES
----------------

  NO   OCC          E(Eh)            E(eV)
   0   2.0000     -14.639785      -398.3688
   1   2.0000     -10.483063      -285.2586
   2   2.0000     -10.483032      -285.2578
   3   2.0000     -10.470876      -284.9270
   4   2.0000     -10.459135      -284.6075
   5   2.0000     -10.459124      -284.6072
   6   2.0000      -1.046142       -28.4670
   7   2.0000      -0.901644       -24.5350
   8   2.0000      -0.855386       -23.2762
   9   2.0000      -0.709846       -19.3159
  10   2.0000      -0.709832       -19.3155
  11   2.0000      -0.601408       -16.3651
  12   2.0000      -0.547244       -14.8913
  13   2.0000      -0.537630       -14.6297
  14   2.0000      -0.492981       -13.4147
  15   2.0000      -0.467863       -12.7312
  16   2.0000      -0.456204       -12.4139
  17   2.0000      -0.422434       -11.4950
  18   2.0000      -0.333210        -9.0671
  19   2.0000      -0.312875        -8.5138
  20   2.0000      -0.306492        -8.3401
  21   0.0000      -0.004430        -0.1206
  22   0.0000       0.008898         0.2421
  23   0.0000       0.145157         3.9499
  24   0.0000       0.182412         4.9637
  25   0.0000       0.196015         5.3338

MULLIKEN ATOMIC CHARGES
-----------------------
   0 N :   -0.361321
   1 C :   -0.037089
   2 H :    0.233805
   3 C :   -0.298699
   4 H :    0.231832
   5 C :   -0.133242
   6 H :    0.234864
   7 C :   -0.298699
   8 H :    0.231832
   9 C :   -0.037089
  10 H :    0.233805
Sum of atomic charges:   -0.0000000

LOEWDIN ATOMIC CHARGES
----------------------
   0 N :   -0.140057
   1 C :   -0.056801
   2 H :    0.130528
   3 C :   -0.164100
   4 H :    0.141859
   5 C :   -0.103940
   6 H :    0.141026
   7 C :   -0.164100
   8 H :    0.141859
   9 C :   -0.056801
  10 H :    0.130528

  Mayer bond orders larger than 0.100000
B(  0-N ,  1-C ) :   1.4975 B(  0-N ,  9-C ) :   1.4975 B(  1-C ,  2-H ) :   0.9170
B(  1-C ,  3-C ) :   1.3822 B(  3-C ,  4-H ) :   0.9129 B(  3-C ,  5-C ) :   1.4140
B(  5-C ,  6-H ) :   0.9184 B(  5-C ,  7-C ) :   1.4140 B(  7-C ,  8-H ) :   0.9129
B(  7-C ,  9-C ) :   1.3822 B(  9-C , 10-H ) :   0.9170

Dispersion correction           -0.005323093
FINAL SINGLE POINT ENERGY      -247.729371693052

DIPOLE MOMENT
-------------
                                X             Y             Z
Electronic contribution:     -0.00000       0.00000      -1.32420
Nuclear contribution   :      0.00000       0.00000       2.19365
                        -----------------------------------------
Total Dipole Moment    :     -0.00000       0.00000       0.86945
                        -----------------------------------------
Magnitude (a.u.)       :      0.86945
Magnitude (Debye)      :      2.20996

Rotational constants in cm-1:     0.201626     0.194643     0.099036
Rotational constants in MHz :  6044.581685  5835.260737  2969.038555

                             ****ORCA TERMINATED NORMALLY****
TOTAL RUN TIME: 0 days 0 hours 1 minutes 33 seconds 536 msec
