                         Program Version 5.0.3 -  RELEASE  -
|  1> ! PBEh-3c def2/J TightSCF DefGrid3
|  2>
|  3> %maxcore 60000
|  4>
|  5> %pal
|  6> nprocs 4
|  7> end
|  8>
|  9> *xyzfile 0 1 213.xyz
| 10>
| 11>                          ****END OF INPUT****

CARTESIAN COORDINATES (ANGSTROEM)
---------------------------------
  C     -0.489080   -1.393130   -0.478210
  N      0.097440   -0.122700    0.070810
  C     -0.618460    1.154260   -0.292940
  C     -2.014410    1.269680    0.320210
  H      0.160760   -0.221690    1.094660
  H      1.067290   -0.090400   -0.274440
  H     -0.530720   -1.310870   -1.568300
  H      0.189240   -2.200250   -0.187400
  H     -1.489300   -1.565600   -0.071990
  H     -2.440310    2.251230    0.077760
  H     -2.700510    0.506650   -0.066090
  H     -1.976340    1.183600    1.414930
  H     -0.651510    1.194680   -1.388580
  H      0.032420    1.968670    0.049090
  O      2.568620   -0.279380   -0.681600
  N      3.051810   -1.062050    0.265610
  O      4.245950   -1.378820    0.244510
  O      2.247600   -1.467770    1.177260

 Total Charge           Charge          ....    0
 Multiplicity           Mult            ....    1
 Number of Electrons    NEL             ....   66
 Basis Dimension        Dim             ....  140

ORBITAL ENERGIES
----------------

  NO   OCC          E(Eh)            E(eV)
   0   2.0000     -19.464173      -529.6471
   1   2.0000     -19.463417      -529.6265
   2   2.0000     -19.460106      -529.5364
   3   2.0000     -14.860150      -404.3652
   4   2.0000     -14.753866      -401.4731
   5   2.0000     -10.537032      -286.7272
   6   2.0000     -10.517962      -286.2083
   7   2.0000     -10.486634      -285.3558
   8   2.0000      -1.293376       -35.1945
   9   2.0000      -1.117304       -30.4034
  10   2.0000      -1.083506       -29.4837
  11   2.0000      -1.057979       -28.7891
  12   2.0000      -0.901041       -24.5186
  13   2.0000      -0.824710       -22.4415
  14   2.0000      -0.751604       -20.4522
  15   2.0000      -0.675411       -18.3789
  16   2.0000      -0.638602       -17.3772
  17   2.0000      -0.617460       -16.8019
  18   2.0000      -0.579046       -15.7567
  19   2.0000      -0.549735       -14.9590
  20   2.0000      -0.542931       -14.7739
  21   2.0000      -0.537199       -14.6179
  22   2.0000      -0.529090       -14.3973
  23   2.0000      -0.506127       -13.7724
  24   2.0000      -0.501575       -13.6486
  25   2.0000      -0.476941       -12.9782
  26   2.0000      -0.470993       -12.8164
  27   2.0000      -0.455906       -12.4058
  28   2.0000      -0.340578        -9.2676
  29   2.0000      -0.325928        -8.8689
  30   2.0000      -0.310403        -8.4465
  31   2.0000      -0.303277        -8.2526
  32   2.0000      -0.274242        -7.4625
  33   0.0000       0.041058         1.1172
  34   0.0000       0.070859         1.9282
  35   0.0000       0.109480         2.9791
  36   0.0000       0.124352         3.3838
  37   0.0000       0.134975         3.6729

MULLIKEN ATOMIC CHARGES
-----------------------
   0 C :   -0.534053
   1 N :   -0.656925
   2 C :   -0.307738
   3 C :   -0.662373
   4 H :    0.416149
   5 H :    0.465984
   6 H :    0.257250
   7 H :    0.307517
   8 H :    0.242527
   9 H :    0.256595
  10 H :    0.234849
  11 H :    0.231636
  12 H :    0.260638
  13 H :    0.274766
  14 O :   -0.533110
  15 N :    0.672756
  16 O :   -0.399350
  17 O :   -0.527118
Sum of atomic charges:   -0.0000000

LOEWDIN ATOMIC CHARGES
----------------------
   0 C :   -0.254484
   1 N :   -0.169575
   2 C :   -0.147284
   3 C :   -0.373174
   4 H :    0.287259
   5 H :    0.287252
   6 H :    0.145887
   7 H :    0.170109
   8 H :    0.135268
   9 H :    0.151527
  10 H :    0.136221
  11 H :    0.136679
  12 H :    0.143370
  13 H :    0.148697
  14 O :   -0.428725
  15 N :    0.293138
  16 O :   -0.263302
  17 O :   -0.398863

  Mayer bond orders larger than 0.100000
B(  0-C ,  1-N ) :   0.9119 B(  0-C ,  6-H ) :   0.9095 B(  0-C ,  7-H ) :   0.8779
B(  0-C ,  8-H ) :   0.9117 B(  1-N ,  2-C ) :   0.8925 B(  1-N ,  4-H ) :   0.7816
B(  1-N ,  5-H ) :   0.5234 B(  2-C ,  3-C ) :   0.9825 B(  2-C , 12-H ) :   0.9001
B(  2-C , 13-H ) :   0.9008 B(  3-C ,  9-H ) :   0.9128 B(  3-C , 10-H ) :   0.9178
B(  3-C , 11-H ) :   0.9184 B(  5-H , 14-O ) :   0.2990 B( 14-O , 15-N ) :   1.2878
B( 14-O , 16-O ) :   0.1356 B( 14-O , 17-O ) :   0.1116 B( 15-N , 16-O ) :   1.6727
B( 15-N , 17-O ) :   1.4880 B( 16-O , 17-O ) :   0.1692

Dispersion correction           -0.008183412
FINAL SINGLE POINT ENERGY      -454.404710399951

DIPOLE MOMENT
-------------
                                X             Y             Z
Electronic contribution:     14.58713      -4.34336       1.36808
Nuclear contribution   :    -18.73738       5.61384      -1.63966
                        -----------------------------------------
Total Dipole Moment    :     -4.15025       1.27048      -0.27158
                        -----------------------------------------
Magnitude (a.u.)       :      4.34884
Magnitude (Debye)      :     11.05388

Rotational constants in cm-1:     0.155282     0.026775     0.025608
Rotational constants in MHz :  4655.245994   802.691284   767.712720

                             ****ORCA TERMINATED NORMALLY****
TOTAL RUN TIME: 0 days 0 hours 1 minutes 29 seconds 942 msec
