                         Program Version 5.0.3 -  RELEASE  -
|  1> ! PBEh-3c def2/J TightSCF DefGrid3
|  2>
|  3> %maxcore 60000
|  4>
|  5> %pal
|  6> nprocs 4
|  7> end
|  8>
|  9> *xyzfile 0 1 49A.xyz
| 10>
| 11>                          ****END OF INPUT****

CARTESIAN COORDINATES (ANGSTROEM)
---------------------------------
  C      1.207283    0.697025    0.000000
  H      2.143958    1.237815    0.000000
  C      1.207283   -0.697025    0.000000
  H      2.143958   -1.237815    0.000000
  C      0.000000   -1.394051    0.000000
  H      0.000000   -2.475629    0.000000
  C     -1.207283   -0.697025    0.000000
  H     -2.143958   -1.237815    0.000000
  C     -1.207283    0.697025    0.000000
  H     -2.143958    1.237815    0.000000
  C      0.000000    1.394051    0.000000
  H      0.000000    2.475629    0.000000

 Total Charge           Charge          ....    0
 Multiplicity           Mult            ....    1
 Number of Electrons    NEL             ....   42
 Basis Dimension        Dim             ....  102

ORBITAL ENERGIES
----------------

  NO   OCC          E(Eh)            E(eV)
   0   2.0000     -10.448806      -284.3265
   1   2.0000     -10.448588      -284.3205
   2   2.0000     -10.448586      -284.3205
   3   2.0000     -10.447975      -284.3039
   4   2.0000     -10.447973      -284.3038
   5   2.0000     -10.447746      -284.2976
   6   2.0000      -0.952001       -25.9053
   7   2.0000      -0.835425       -22.7331
   8   2.0000      -0.835424       -22.7331
   9   2.0000      -0.678964       -18.4755
  10   2.0000      -0.678964       -18.4755
  11   2.0000      -0.591947       -16.1077
  12   2.0000      -0.525969       -14.3123
  13   2.0000      -0.508400       -13.8343
  14   2.0000      -0.481763       -13.1094
  15   2.0000      -0.481761       -13.1094
  16   2.0000      -0.420802       -11.4506
  17   2.0000      -0.398324       -10.8389
  18   2.0000      -0.398323       -10.8389
  19   2.0000      -0.292448        -7.9579
  20   2.0000      -0.292444        -7.9578
  21   0.0000       0.019135         0.5207
  22   0.0000       0.019136         0.5207
  23   0.0000       0.140768         3.8305
  24   0.0000       0.196140         5.3372
  25   0.0000       0.201780         5.4907

MULLIKEN ATOMIC CHARGES
-----------------------
   0 C :   -0.219868
   1 H :    0.219868
   2 C :   -0.219868
   3 H :    0.219868
   4 C :   -0.219881
   5 H :    0.219881
   6 C :   -0.219867
   7 H :    0.219868
   8 C :   -0.219868
   9 H :    0.219868
  10 C :   -0.219881
  11 H :    0.219881
Sum of atomic charges:    0.0000000

LOEWDIN ATOMIC CHARGES
----------------------
   0 C :   -0.135687
   1 H :    0.135689
   2 C :   -0.135687
   3 H :    0.135689
   4 C :   -0.135693
   5 H :    0.135689
   6 C :   -0.135687
   7 H :    0.135689
   8 C :   -0.135687
   9 H :    0.135689
  10 C :   -0.135693
  11 H :    0.135689

  Mayer bond orders larger than 0.100000
B(  0-C ,  1-H ) :   0.9200 B(  0-C ,  2-C ) :   1.4265 B(  0-C , 10-C ) :   1.4264
B(  2-C ,  3-H ) :   0.9200 B(  2-C ,  4-C ) :   1.4264 B(  4-C ,  5-H ) :   0.9200
B(  4-C ,  6-C ) :   1.4264 B(  6-C ,  7-H ) :   0.9200 B(  6-C ,  8-C ) :   1.4265
B(  8-C ,  9-H ) :   0.9200 B(  8-C , 10-C ) :   1.4264 B( 10-C , 11-H ) :   0.9200

Dispersion correction           -0.005880248
FINAL SINGLE POINT ENERGY      -231.725785031025

DIPOLE MOMENT
-------------
                                X             Y             Z
Electronic contribution:     -0.00000       0.00000       0.00000
Nuclear contribution   :      0.00000       0.00000       0.00000
                        -----------------------------------------
Total Dipole Moment    :     -0.00000       0.00000       0.00000
                        -----------------------------------------
Magnitude (a.u.)       :      0.00000
Magnitude (Debye)      :      0.00000

Rotational constants in cm-1:     0.190355     0.190355     0.095177
Rotational constants in MHz :  5706.695960  5706.695822  2853.347946

                             ****ORCA TERMINATED NORMALLY****
TOTAL RUN TIME: 0 days 0 hours 1 minutes 16 seconds 644 msec
