                         Program Version 5.0.3 -  RELEASE  -
|  1> ! PBEh-3c def2/J TightSCF DefGrid3
|  2>
|  3> %maxcore 60000
|  4>
|  5> %pal
|  6> nprocs 4
|  7> end
|  8>
|  9> *xyzfile 0 1 E25.xyz
| 10>
| 11>                          ****END OF INPUT****

CARTESIAN COORDINATES (ANGSTROEM)
---------------------------------
  C     -0.832727   -0.230052   -0.002280
  N      0.352004    0.617038   -0.082748
  H      0.390452    1.199752    0.749659
  O      1.514580   -0.237875    0.062012
  H      2.020312   -0.045189   -0.735869
  H     -1.705209    0.426869    0.041644
  H     -0.834376   -0.892298    0.872070
  H     -0.905036   -0.838244   -0.904488

 Total Charge           Charge          ....    0
 Multiplicity           Mult            ....    1
 Number of Electrons    NEL             ....   26
 Basis Dimension        Dim             ....   55

ORBITAL ENERGIES
----------------

  NO   OCC          E(Eh)            E(eV)
   0   2.0000     -19.504781      -530.7521
   1   2.0000     -14.668264      -399.1437
   2   2.0000     -10.452002      -284.4134
   3   2.0000      -1.150015       -31.2935
   4   2.0000      -0.922263       -25.0960
   5   2.0000      -0.732706       -19.9380
   6   2.0000      -0.567962       -15.4550
   7   2.0000      -0.540556       -14.7093
   8   2.0000      -0.487561       -13.2672
   9   2.0000      -0.455586       -12.3971
  10   2.0000      -0.432733       -11.7753
  11   2.0000      -0.342852        -9.3295
  12   2.0000      -0.289599        -7.8804
  13   0.0000       0.138749         3.7756
  14   0.0000       0.142965         3.8903
  15   0.0000       0.196158         5.3377
  16   0.0000       0.203686         5.5426
  17   0.0000       0.226654         6.1676

MULLIKEN ATOMIC CHARGES
-----------------------
   0 C :   -0.482458
   1 N :   -0.348089
   2 H :    0.330423
   3 O :   -0.563062
   4 H :    0.428892
   5 H :    0.206359
   6 H :    0.205338
   7 H :    0.222596
Sum of atomic charges:   -0.0000000

LOEWDIN ATOMIC CHARGES
----------------------
   0 C :   -0.283335
   1 N :   -0.219455
   2 H :    0.220884
   3 O :   -0.379075
   4 H :    0.307117
   5 H :    0.122267
   6 H :    0.107245
   7 H :    0.124352

  Mayer bond orders larger than 0.100000
B(  0-C ,  1-N ) :   0.9925 B(  0-C ,  5-H ) :   0.9203 B(  0-C ,  6-H ) :   0.9131
B(  0-C ,  7-H ) :   0.9202 B(  1-N ,  2-H ) :   0.8462 B(  1-N ,  3-O ) :   0.9682
B(  3-O ,  4-H ) :   0.7909

Dispersion correction           -0.002014136
FINAL SINGLE POINT ENERGY      -170.651150776785

DIPOLE MOMENT
-------------
                                X             Y             Z
Electronic contribution:      2.55600       0.51158      -0.09014
Nuclear contribution   :     -2.75954      -0.33260       0.03918
                        -----------------------------------------
Total Dipole Moment    :     -0.20353       0.17898      -0.05096
                        -----------------------------------------
Magnitude (a.u.)       :      0.27578
Magnitude (Debye)      :      0.70098

Rotational constants in cm-1:     1.316493     0.328111     0.288370
Rotational constants in MHz : 39467.465503  9836.522649  8645.102555

                             ****ORCA TERMINATED NORMALLY****
TOTAL RUN TIME: 0 days 0 hours 1 minutes 11 seconds 666 msec
