                         Program Version 5.0.3 -  RELEASE  -
|  1> ! PBEh-3c def2/J TightSCF DefGrid3
|  2>
|  3> %maxcore 60000
|  4>
|  5> %pal
|  6> nprocs 4
|  7> end
|  8>
|  9> *xyzfile 0 1 FMe.xyz
| 10>
| 11>                          ****END OF INPUT****

CARTESIAN COORDINATES (ANGSTROEM)
---------------------------------
  F      0.000000    0.000000    0.750748
  C      0.000000    0.000000   -0.633555
  H      0.000000    1.031390   -0.985135
  H     -0.893210   -0.515695   -0.985135
  H      0.893210   -0.515695   -0.985135

 Total Charge           Charge          ....    0
 Multiplicity           Mult            ....    1
 Number of Electrons    NEL             ....   18
 Basis Dimension        Dim             ....   36

ORBITAL ENERGIES
----------------

  NO   OCC          E(Eh)            E(eV)
   0   2.0000     -25.064742      -682.0463
   1   2.0000     -10.506702      -285.9019
   2   2.0000      -1.298945       -35.3461
   3   2.0000      -0.780403       -21.2358
   4   2.0000      -0.544724       -14.8227
   5   2.0000      -0.544724       -14.8227
   6   2.0000      -0.542033       -14.7495
   7   2.0000      -0.400120       -10.8878
   8   2.0000      -0.400119       -10.8878
   9   0.0000       0.143542         3.9060
  10   0.0000       0.185483         5.0473
  11   0.0000       0.218693         5.9509
  12   0.0000       0.218694         5.9510
  13   0.0000       0.492839        13.4108

MULLIKEN ATOMIC CHARGES
-----------------------
   0 F :   -0.365017
   1 C :   -0.212082
   2 H :    0.192363
   3 H :    0.192368
   4 H :    0.192368
Sum of atomic charges:    0.0000000

LOEWDIN ATOMIC CHARGES
----------------------
   0 F :   -0.258041
   1 C :   -0.073894
   2 H :    0.110644
   3 H :    0.110645
   4 H :    0.110645

  Mayer bond orders larger than 0.100000
B(  0-F ,  1-C ) :   0.9344 B(  1-C ,  2-H ) :   0.9209 B(  1-C ,  3-H ) :   0.9209
B(  1-C ,  4-H ) :   0.9209

Dispersion correction           -0.000733064
FINAL SINGLE POINT ENERGY      -139.455491675396

DIPOLE MOMENT
-------------
                                X             Y             Z
Electronic contribution:      0.00000      -0.00000       2.92950
Nuclear contribution   :      0.00000      -0.00000      -3.67210
                        -----------------------------------------
Total Dipole Moment    :      0.00000      -0.00000      -0.74261
                        -----------------------------------------
Magnitude (a.u.)       :      0.74261
Magnitude (Debye)      :      1.88755

Rotational constants in cm-1:     5.240459     0.856789     0.856789
Rotational constants in MHz : 157105.009237 25685.902164 25685.902086

                             ****ORCA TERMINATED NORMALLY****
TOTAL RUN TIME: 0 days 0 hours 1 minutes 13 seconds 764 msec
