                         Program Version 5.0.3 -  RELEASE  -
|  1> ! PBEh-3c def2/J TightSCF DefGrid3
|  2>
|  3> %maxcore 60000
|  4>
|  5> %pal
|  6> nprocs 4
|  7> end
|  8>
|  9> *xyzfile 0 1 so2.xyz
| 10>
| 11>                          ****END OF INPUT****

CARTESIAN COORDINATES (ANGSTROEM)
---------------------------------
  S      0.000000    0.361861    0.000000
  O     -1.239318   -0.362553    0.000000
  O      1.239318   -0.362553    0.000000

 Total Charge           Charge          ....    0
 Multiplicity           Mult            ....    1
 Number of Electrons    NEL             ....   32
 Basis Dimension        Dim             ....   48

ORBITAL ENERGIES
----------------

  NO   OCC          E(Eh)            E(eV)
   0   2.0000     -89.792000     -2443.3645
   1   2.0000     -19.552524      -532.0512
   2   2.0000     -19.552486      -532.0502
   3   2.0000      -8.410966      -228.8740
   4   2.0000      -6.301432      -171.4707
   5   2.0000      -6.301171      -171.4636
   6   2.0000      -6.294910      -171.2932
   7   2.0000      -1.264130       -34.3987
   8   2.0000      -1.165173       -31.7060
   9   2.0000      -0.711985       -19.3741
  10   2.0000      -0.562489       -15.3061
  11   2.0000      -0.559926       -15.2364
  12   2.0000      -0.558558       -15.1991
  13   2.0000      -0.423077       -11.5125
  14   2.0000      -0.417217       -11.3531
  15   2.0000      -0.382654       -10.4125
  16   0.0000      -0.097363        -2.6494
  17   0.0000       0.109038         2.9671
  18   0.0000       0.139173         3.7871
  19   0.0000       0.333356         9.0711
  20   0.0000       0.584227        15.8976

MULLIKEN ATOMIC CHARGES
-----------------------
   0 S :    1.008501
   1 O :   -0.504251
   2 O :   -0.504251
Sum of atomic charges:    0.0000000

LOEWDIN ATOMIC CHARGES
----------------------
   0 S :    0.862944
   1 O :   -0.431472
   2 O :   -0.431472

  Mayer bond orders larger than 0.100000
B(  0-S ,  1-O ) :   1.8440 B(  0-S ,  2-O ) :   1.8440 B(  1-O ,  2-O ) :   0.2143

Dispersion correction           -0.000668542
FINAL SINGLE POINT ENERGY      -547.828461325150

DIPOLE MOMENT
-------------
                                X             Y             Z
Electronic contribution:      0.00000       0.73802      -0.00000
Nuclear contribution   :      0.00000      -0.02120       0.00000
                        -----------------------------------------
Total Dipole Moment    :      0.00000       0.71682      -0.00000
                        -----------------------------------------
Magnitude (a.u.)       :      0.71682
Magnitude (Debye)      :      1.82202

Rotational constants in cm-1:     2.005905     0.343011     0.292922
Rotational constants in MHz : 60135.520886 10283.224683  8781.568994

                             ****ORCA TERMINATED NORMALLY****
TOTAL RUN TIME: 0 days 0 hours 0 minutes 31 seconds 648 msec
