                         Program Version 5.0.3 -  RELEASE  -
|  1> ! PBEh-3c def2/J TightSCF DefGrid3
|  2>
|  3> %maxcore 60000
|  4>
|  5> %pal
|  6> nprocs 4
|  7> end
|  8>
|  9> *xyzfile -1 1 OHmH2O4c4.xyz
| 10>
| 11>                          ****END OF INPUT****

CARTESIAN COORDINATES (ANGSTROEM)
---------------------------------
  H     -0.026792    1.581825    0.283425
  H      1.581825    0.026792    0.283425
  H      0.026792   -1.581825    0.283425
  H     -1.581825   -0.026792    0.283425
  O      0.000000    0.000000    0.957900
  H      0.000000    0.000000    1.917703
  O      0.031420    2.418566   -0.252991
  O      2.418566   -0.031420   -0.252991
  O     -0.031420   -2.418566   -0.252991
  O     -2.418566    0.031420   -0.252991
  H      0.843048    2.278522   -0.749335
  H      2.278522   -0.843048   -0.749335
  H     -0.843048   -2.278522   -0.749335
  H     -2.278522    0.843048   -0.749335

 Total Charge           Charge          ....   -1
 Multiplicity           Mult            ....    1
 Number of Electrons    NEL             ....   50
 Basis Dimension        Dim             ....   93

ORBITAL ENERGIES
----------------

  NO   OCC          E(Eh)            E(eV)
   0   2.0000     -19.281939      -524.6882
   1   2.0000     -19.281939      -524.6882
   2   2.0000     -19.281930      -524.6880
   3   2.0000     -19.281917      -524.6876
   4   2.0000     -19.248793      -523.7863
   5   2.0000      -0.911917       -24.8145
   6   2.0000      -0.905116       -24.6295
   7   2.0000      -0.905116       -24.6295
   8   2.0000      -0.902015       -24.5451
   9   2.0000      -0.827896       -22.5282
  10   2.0000      -0.388154       -10.5622
  11   2.0000      -0.386629       -10.5207
  12   2.0000      -0.386629       -10.5207
  13   2.0000      -0.378959       -10.3120
  14   2.0000      -0.296877        -8.0784
  15   2.0000      -0.263939        -7.1822
  16   2.0000      -0.263939        -7.1822
  17   2.0000      -0.252732        -6.8772
  18   2.0000      -0.232422        -6.3245
  19   2.0000      -0.171801        -4.6750
  20   2.0000      -0.171801        -4.6750
  21   2.0000      -0.171394        -4.6639
  22   2.0000      -0.171090        -4.6556
  23   2.0000      -0.133310        -3.6276
  24   2.0000      -0.133310        -3.6276
  25   0.0000       0.278086         7.5671
  26   0.0000       0.333867         9.0850
  27   0.0000       0.333867         9.0850
  28   0.0000       0.344380         9.3711
  29   0.0000       0.371925        10.1206

MULLIKEN ATOMIC CHARGES
-----------------------
   0 H :    0.428010
   1 H :    0.428010
   2 H :    0.428010
   3 H :    0.428010
   4 O :   -0.928293
   5 H :    0.353359
   6 O :   -0.920294
   7 O :   -0.920294
   8 O :   -0.920294
   9 O :   -0.920294
  10 H :    0.386018
  11 H :    0.386018
  12 H :    0.386018
  13 H :    0.386018
Sum of atomic charges:   -1.0000000

LOEWDIN ATOMIC CHARGES
----------------------
   0 H :    0.287897
   1 H :    0.287897
   2 H :    0.287897
   3 H :    0.287897
   4 O :   -0.803768
   5 H :    0.247617
   6 O :   -0.681737
   7 O :   -0.681737
   8 O :   -0.681737
   9 O :   -0.681737
  10 H :    0.282878
  11 H :    0.282878
  12 H :    0.282878
  13 H :    0.282878

  Mayer bond orders larger than 0.100000
B(  0-H ,  4-O ) :   0.1866 B(  0-H ,  6-O ) :   0.6586 B(  1-H ,  4-O ) :   0.1866
B(  1-H ,  7-O ) :   0.6586 B(  2-H ,  4-O ) :   0.1866 B(  2-H ,  8-O ) :   0.6586
B(  3-H ,  4-O ) :   0.1866 B(  3-H ,  9-O ) :   0.6586 B(  4-O ,  5-H ) :   0.8357
B(  6-O , 10-H ) :   0.8265 B(  7-O , 11-H ) :   0.8265 B(  8-O , 12-H ) :   0.8265
B(  9-O , 13-H ) :   0.8265

Dispersion correction           -0.004172084
FINAL SINGLE POINT ENERGY      -380.782547810679

DIPOLE MOMENT
-------------
                                X             Y             Z
Electronic contribution:      0.00000       0.00000      -0.25258
Nuclear contribution   :      0.00000       0.00000       0.12742
                        -----------------------------------------
Total Dipole Moment    :      0.00000       0.00000      -0.12516
                        -----------------------------------------
Magnitude (a.u.)       :      0.12516
Magnitude (Debye)      :      0.31813

Rotational constants in cm-1:     0.073546     0.073546     0.041288
Rotational constants in MHz :  2204.860687  2204.860687  1237.778592

                             ****ORCA TERMINATED NORMALLY****
TOTAL RUN TIME: 0 days 0 hours 1 minutes 15 seconds 123 msec
