                         Program Version 5.0.3 -  RELEASE  -
|  1> ! PBEh-3c def2/J TightSCF DefGrid3
|  2>
|  3> %maxcore 60000
|  4>
|  5> %pal
|  6> nprocs 4
|  7> end
|  8>
|  9> *xyzfile 0 1 ts9.xyz
| 10>
| 11>                          ****END OF INPUT****

CARTESIAN COORDINATES (ANGSTROEM)
---------------------------------
  C      0.468987    0.636874    0.053256
  H      0.585413    1.716908    0.037321
  C      1.515535   -0.285885   -0.030947
  H      1.542575   -1.062299    0.729004
  H      0.301002   -1.075601   -0.411970
  H      2.498769   -0.002264   -0.395534
  S     -1.052181   -0.105168   -0.005792

 Total Charge           Charge          ....    0
 Multiplicity           Mult            ....    1
 Number of Electrons    NEL             ....   32
 Basis Dimension        Dim             ....   56

ORBITAL ENERGIES
----------------

  NO   OCC          E(Eh)            E(eV)
   0   2.0000     -89.580513     -2437.6097
   1   2.0000     -10.526869      -286.4507
   2   2.0000     -10.451692      -284.4050
   3   2.0000      -8.220870      -223.7012
   4   2.0000      -6.110599      -166.2778
   5   2.0000      -6.108531      -166.2216
   6   2.0000      -6.104315      -166.1069
   7   2.0000      -0.937594       -25.5132
   8   2.0000      -0.769211       -20.9313
   9   2.0000      -0.659904       -17.9569
  10   2.0000      -0.551889       -15.0177
  11   2.0000      -0.493347       -13.4246
  12   2.0000      -0.433228       -11.7887
  13   2.0000      -0.411528       -11.1982
  14   2.0000      -0.323888        -8.8134
  15   2.0000      -0.258214        -7.0263
  16   0.0000      -0.057172        -1.5557
  17   0.0000       0.049632         1.3505
  18   0.0000       0.162532         4.4227
  19   0.0000       0.172451         4.6926
  20   0.0000       0.182035         4.9534

MULLIKEN ATOMIC CHARGES
-----------------------
   0 C :   -0.224462
   1 H :    0.269723
   2 C :   -0.709746
   3 H :    0.305723
   4 H :    0.249794
   5 H :    0.242459
   6 S :   -0.133492
Sum of atomic charges:    0.0000000

LOEWDIN ATOMIC CHARGES
----------------------
   0 C :   -0.180236
   1 H :    0.143260
   2 C :   -0.482952
   3 H :    0.176376
   4 H :    0.242444
   5 H :    0.140016
   6 S :   -0.038909

  Mayer bond orders larger than 0.100000
B(  0-C ,  1-H ) :   0.8865 B(  0-C ,  2-C ) :   1.3130 B(  0-C ,  6-S ) :   1.5012
B(  2-C ,  3-H ) :   0.8581 B(  2-C ,  4-H ) :   0.3854 B(  2-C ,  5-H ) :   0.9156
B(  2-C ,  6-S ) :   0.1275 B(  4-H ,  6-S ) :   0.4867

Dispersion correction           -0.002437929
FINAL SINGLE POINT ENERGY      -476.051712057438

DIPOLE MOMENT
-------------
                                X             Y             Z
Electronic contribution:     -4.28421       0.59799       0.11126
Nuclear contribution   :      4.95893      -0.41990      -0.04099
                        -----------------------------------------
Total Dipole Moment    :      0.67473       0.17809       0.07027
                        -----------------------------------------
Magnitude (a.u.)       :      0.70136
Magnitude (Debye)      :      1.78272

Rotational constants in cm-1:     1.362021     0.223669     0.196170
Rotational constants in MHz : 40832.352471  6705.418626  5881.013825

                             ****ORCA TERMINATED NORMALLY****
TOTAL RUN TIME: 0 days 0 hours 1 minutes 20 seconds 320 msec
