                         Program Version 5.0.3 -  RELEASE  -
|  1> ! PBEh-3c def2/J TightSCF DefGrid3
|  2>
|  3> %maxcore 60000
|  4>
|  5> %pal
|  6> nprocs 4
|  7> end
|  8>
|  9> *xyzfile 0 1 C9.xyz
| 10>
| 11>                          ****END OF INPUT****

CARTESIAN COORDINATES (ANGSTROEM)
---------------------------------
  C      2.793840   -0.434197   -0.626543
  C      1.570875    0.161379    0.079207
  C      0.247467   -0.331033   -0.508181
  C     -1.045164    0.284500    0.058033
  C     -2.066811   -0.812447   -0.258469
  O     -3.205749   -0.829095    0.588391
  C     -1.260790   -2.099911   -0.070178
  O      3.998248    0.066888   -0.062521
  O     -1.454874    1.501311   -0.544379
  O      1.642993   -0.115616    1.481704
  O      0.130541   -1.731391   -0.187590
  C     -1.075134    2.689429    0.144548
  H      2.798997   -0.146431   -1.683056
  H      2.756110   -1.532031   -0.569285
  H      1.623267    1.251672   -0.010830
  H      0.259064   -0.185500   -1.600375
  H     -0.962133    0.398964    1.147804
  H     -2.375397   -0.689786   -1.306595
  H     -3.744959   -0.052678    0.385677
  H     -1.493330   -2.863593   -0.819246
  H     -1.440162   -2.513097    0.928434
  H      3.912919   -0.015189    0.899309
  H      1.356359   -1.036859    1.592597
  H     -1.431066    2.675609    1.183750
  H      0.011525    2.840203    0.144461
  H     -1.546633    3.518904   -0.386676

 Total Charge           Charge          ....    0
 Multiplicity           Mult            ....    1
 Number of Electrons    NEL             ....   96
 Basis Dimension        Dim             ....  208

ORBITAL ENERGIES
----------------

  NO   OCC          E(Eh)            E(eV)
   0   2.0000     -19.513983      -531.0025
   1   2.0000     -19.512738      -530.9686
   2   2.0000     -19.502335      -530.6855
   3   2.0000     -19.500172      -530.6266
   4   2.0000     -19.478175      -530.0281
   5   2.0000     -10.503624      -285.8182
   6   2.0000     -10.503603      -285.8176
   7   2.0000     -10.500838      -285.7423
   8   2.0000     -10.497986      -285.6647
   9   2.0000     -10.495525      -285.5978
  10   2.0000     -10.491231      -285.4809
  11   2.0000     -10.479258      -285.1551
  12   2.0000      -1.169694       -31.8290
  13   2.0000      -1.149656       -31.2837
  14   2.0000      -1.137020       -30.9399
  15   2.0000      -1.130959       -30.7750
  16   2.0000      -1.107090       -30.1254
  17   2.0000      -0.878376       -23.9018
  18   2.0000      -0.863695       -23.5023
  19   2.0000      -0.802804       -21.8454
  20   2.0000      -0.766535       -20.8585
  21   2.0000      -0.708823       -19.2880
  22   2.0000      -0.677976       -18.4487
  23   2.0000      -0.661414       -17.9980
  24   2.0000      -0.619702       -16.8630
  25   2.0000      -0.588170       -16.0049
  26   2.0000      -0.573509       -15.6060
  27   2.0000      -0.554654       -15.0929
  28   2.0000      -0.547892       -14.9089
  29   2.0000      -0.535101       -14.5608
  30   2.0000      -0.528685       -14.3863
  31   2.0000      -0.512826       -13.9547
  32   2.0000      -0.494161       -13.4468
  33   2.0000      -0.490626       -13.3506
  34   2.0000      -0.482861       -13.1393
  35   2.0000      -0.471520       -12.8307
  36   2.0000      -0.454193       -12.3592
  37   2.0000      -0.435597       -11.8532
  38   2.0000      -0.423910       -11.5352
  39   2.0000      -0.398444       -10.8422
  40   2.0000      -0.392902       -10.6914
  41   2.0000      -0.389155       -10.5895
  42   2.0000      -0.381311       -10.3760
  43   2.0000      -0.354619        -9.6497
  44   2.0000      -0.347161        -9.4467
  45   2.0000      -0.332353        -9.0438
  46   2.0000      -0.319586        -8.6964
  47   2.0000      -0.300193        -8.1687
  48   0.0000       0.091689         2.4950
  49   0.0000       0.115744         3.1496
  50   0.0000       0.126844         3.4516
  51   0.0000       0.136955         3.7267
  52   0.0000       0.156659         4.2629

MULLIKEN ATOMIC CHARGES
-----------------------
   0 C :   -0.131057
   1 C :   -0.047383
   2 C :    0.003201
   3 C :    0.013276
   4 C :   -0.019321
   5 O :   -0.627823
   6 C :   -0.150481
   7 O :   -0.630503
   8 O :   -0.483737
   9 O :   -0.644587
  10 O :   -0.505412
  11 C :   -0.381017
  12 H :    0.200660
  13 H :    0.193274
  14 H :    0.230916
  15 H :    0.212926
  16 H :    0.221317
  17 H :    0.211947
  18 H :    0.424351
  19 H :    0.217146
  20 H :    0.222998
  21 H :    0.419741
  22 H :    0.423327
  23 H :    0.198951
  24 H :    0.200936
  25 H :    0.226353
Sum of atomic charges:   -0.0000000

LOEWDIN ATOMIC CHARGES
----------------------
   0 C :   -0.103850
   1 C :   -0.050774
   2 C :   -0.028512
   3 C :   -0.033625
   4 C :   -0.036354
   5 O :   -0.394265
   6 C :   -0.074546
   7 O :   -0.410999
   8 O :   -0.259111
   9 O :   -0.404401
  10 O :   -0.272574
  11 C :   -0.181183
  12 H :    0.120189
  13 H :    0.107463
  14 H :    0.127577
  15 H :    0.119906
  16 H :    0.126378
  17 H :    0.115900
  18 H :    0.318902
  19 H :    0.121774
  20 H :    0.126362
  21 H :    0.311087
  22 H :    0.313290
  23 H :    0.108874
  24 H :    0.106017
  25 H :    0.126474

  Mayer bond orders larger than 0.100000
B(  0-C ,  1-C ) :   0.9594 B(  0-C ,  7-O ) :   1.0302 B(  0-C , 12-H ) :   0.9071
B(  0-C , 13-H ) :   0.8974 B(  1-C ,  2-C ) :   0.9182 B(  1-C ,  9-O ) :   0.9931
B(  1-C , 14-H ) :   0.8922 B(  2-C ,  3-C ) :   0.9059 B(  2-C , 10-O ) :   0.9415
B(  2-C , 15-H ) :   0.8822 B(  3-C ,  4-C ) :   0.9464 B(  3-C ,  8-O ) :   0.9507
B(  3-C , 16-H ) :   0.8750 B(  4-C ,  5-O ) :   1.0359 B(  4-C ,  6-C ) :   0.9559
B(  4-C , 17-H ) :   0.8881 B(  5-O , 18-H ) :   0.7826 B(  6-C , 10-O ) :   0.9567
B(  6-C , 19-H ) :   0.9105 B(  6-C , 20-H ) :   0.9001 B(  7-O , 21-H ) :   0.7720
B(  8-O , 11-C ) :   0.9601 B(  9-O , 22-H ) :   0.7663 B( 11-C , 23-H ) :   0.9137
B( 11-C , 24-H ) :   0.9048 B( 11-C , 25-H ) :   0.9276

Dispersion correction           -0.014182331
FINAL SINGLE POINT ENERGY      -649.846583702968

DIPOLE MOMENT
-------------
                                X             Y             Z
Electronic contribution:     -0.24410      -2.91850       0.48448
Nuclear contribution   :     -0.79512       3.20524      -0.52314
                        -----------------------------------------
Total Dipole Moment    :     -1.03922       0.28674      -0.03865
                        -----------------------------------------
Magnitude (a.u.)       :      1.07875
Magnitude (Debye)      :      2.74196

Rotational constants in cm-1:     0.046367     0.019735     0.015651
Rotational constants in MHz :  1390.034378   591.633038   469.191333

                             ****ORCA TERMINATED NORMALLY****
TOTAL RUN TIME: 0 days 0 hours 2 minutes 6 seconds 595 msec
