                         Program Version 5.0.3 -  RELEASE  -
|  1> ! PBEh-3c def2/J TightSCF DefGrid3
|  2>
|  3> %maxcore 60000
|  4>
|  5> %pal
|  6> nprocs 4
|  7> end
|  8>
|  9> *xyzfile 0 1 H3OpH2O6OHm.xyz
| 10>
| 11>                          ****END OF INPUT****

CARTESIAN COORDINATES (ANGSTROEM)
---------------------------------
  O     -1.292452    1.943142    1.222650
  O      0.000000    0.000000    2.191018
  O      2.329037    0.147725    1.222650
  O     -1.036584   -2.090868    1.222650
  O     -0.117374   -2.366640   -1.181147
  O      0.000000    0.000000   -2.128150
  O      2.108257    1.081671   -1.181147
  O     -1.990883    1.284968   -1.181147
  H     -1.612133    1.710804    0.290226
  H     -2.032992    2.326809    1.697715
  H     -2.747184    0.696988   -1.244698
  H     -0.998579   -2.924027    1.697715
  H     -0.675533   -2.251550    0.290226
  H     -1.203647    0.774632   -1.609100
  H     -0.557543    0.790631    1.832942
  H     -0.405935   -0.878162    1.832942
  H      1.977201    2.030637   -1.244698
  H     -0.069027   -1.429704   -1.609100
  H      0.963478    0.087531    1.832942
  H      0.769983   -2.727625   -1.244698
  H      0.000000    0.000000   -3.088630
  H      1.272674    0.655073   -1.609100
  H      3.031572    0.597218    1.697715
  H      2.287666    0.540746    0.290226

 Total Charge           Charge          ....    0
 Multiplicity           Mult            ....    1
 Number of Electrons    NEL             ....   80
 Basis Dimension        Dim             ....  152

ORBITAL ENERGIES
----------------

  NO   OCC          E(Eh)            E(eV)
   0   2.0000     -19.533651      -531.5377
   1   2.0000     -19.489310      -530.3311
   2   2.0000     -19.489307      -530.3310
   3   2.0000     -19.489282      -530.3303
   4   2.0000     -19.451601      -529.3050
   5   2.0000     -19.451600      -529.3049
   6   2.0000     -19.451558      -529.3038
   7   2.0000     -19.407566      -528.1067
   8   2.0000      -1.175825       -31.9958
   9   2.0000      -1.113667       -30.3044
  10   2.0000      -1.113666       -30.3044
  11   2.0000      -1.106655       -30.1136
  12   2.0000      -1.073309       -29.2062
  13   2.0000      -1.067819       -29.0568
  14   2.0000      -1.067819       -29.0568
  15   2.0000      -0.991406       -26.9775
  16   2.0000      -0.639318       -17.3967
  17   2.0000      -0.639317       -17.3967
  18   2.0000      -0.600227       -16.3330
  19   2.0000      -0.598017       -16.2729
  20   2.0000      -0.598015       -16.2728
  21   2.0000      -0.555933       -15.1277
  22   2.0000      -0.555932       -15.1277
  23   2.0000      -0.554712       -15.0945
  24   2.0000      -0.504352       -13.7241
  25   2.0000      -0.464032       -12.6270
  26   2.0000      -0.464032       -12.6269
  27   2.0000      -0.452832       -12.3222
  28   2.0000      -0.437628       -11.9085
  29   2.0000      -0.417883       -11.3712
  30   2.0000      -0.417883       -11.3712
  31   2.0000      -0.392156       -10.6711
  32   2.0000      -0.382709       -10.4140
  33   2.0000      -0.376689       -10.2502
  34   2.0000      -0.376688       -10.2502
  35   2.0000      -0.339955        -9.2506
  36   2.0000      -0.339955        -9.2506
  37   2.0000      -0.339350        -9.2342
  38   2.0000      -0.294337        -8.0093
  39   2.0000      -0.294335        -8.0093
  40   0.0000       0.110839         3.0161
  41   0.0000       0.141549         3.8518
  42   0.0000       0.141550         3.8518
  43   0.0000       0.159628         4.3437
  44   0.0000       0.182106         4.9554

MULLIKEN ATOMIC CHARGES
-----------------------
   0 O :   -0.889624
   1 O :   -0.901333
   2 O :   -0.889632
   3 O :   -0.889640
   4 O :   -0.897049
   5 O :   -0.938862
   6 O :   -0.897052
   7 O :   -0.897041
   8 H :    0.475246
   9 H :    0.427527
  10 H :    0.409141
  11 H :    0.427534
  12 H :    0.475260
  13 H :    0.462224
  14 H :    0.496500
  15 H :    0.496471
  16 H :    0.409146
  17 H :    0.462222
  18 H :    0.496502
  19 H :    0.409146
  20 H :    0.388307
  21 H :    0.462229
  22 H :    0.427532
  23 H :    0.475247
Sum of atomic charges:   -0.0000000

LOEWDIN ATOMIC CHARGES
----------------------
   0 O :   -0.606315
   1 O :   -0.501425
   2 O :   -0.606320
   3 O :   -0.606323
   4 O :   -0.639332
   5 O :   -0.769823
   6 O :   -0.639333
   7 O :   -0.639327
   8 H :    0.316995
   9 H :    0.311283
  10 H :    0.298050
  11 H :    0.311286
  12 H :    0.316999
  13 H :    0.311733
  14 H :    0.340033
  15 H :    0.340028
  16 H :    0.298053
  17 H :    0.311734
  18 H :    0.340034
  19 H :    0.298053
  20 H :    0.273897
  21 H :    0.311736
  22 H :    0.311285
  23 H :    0.316996

  Mayer bond orders larger than 0.100000
B(  0-O ,  8-H ) :   0.5802 B(  0-O ,  9-H ) :   0.7952 B(  0-O , 14-H ) :   0.2418
B(  1-O , 14-H ) :   0.5374 B(  1-O , 15-H ) :   0.5374 B(  1-O , 18-H ) :   0.5374
B(  2-O , 18-H ) :   0.2418 B(  2-O , 22-H ) :   0.7952 B(  2-O , 23-H ) :   0.5802
B(  3-O , 11-H ) :   0.7952 B(  3-O , 12-H ) :   0.5802 B(  3-O , 15-H ) :   0.2418
B(  4-O , 12-H ) :   0.2187 B(  4-O , 17-H ) :   0.5574 B(  4-O , 19-H ) :   0.8094
B(  5-O , 13-H ) :   0.2538 B(  5-O , 17-H ) :   0.2538 B(  5-O , 20-H ) :   0.8144
B(  5-O , 21-H ) :   0.2538 B(  6-O , 16-H ) :   0.8094 B(  6-O , 21-H ) :   0.5574
B(  6-O , 23-H ) :   0.2186 B(  7-O ,  8-H ) :   0.2186 B(  7-O , 10-H ) :   0.8094
B(  7-O , 13-H ) :   0.5574

Dispersion correction           -0.008489947
FINAL SINGLE POINT ENERGY      -610.170031236600

DIPOLE MOMENT
-------------
                                X             Y             Z
Electronic contribution:     -0.00001      -0.00000       1.64478
Nuclear contribution   :     -0.00000      -0.00000      -0.46790
                        -----------------------------------------
Total Dipole Moment    :     -0.00001      -0.00000       1.17689
                        -----------------------------------------
Magnitude (a.u.)       :      1.17689
Magnitude (Debye)      :      2.99141

Rotational constants in cm-1:     0.027645     0.026586     0.026586
Rotational constants in MHz :   828.773229   797.032135   797.032133

                             ****ORCA TERMINATED NORMALLY****
TOTAL RUN TIME: 0 days 0 hours 1 minutes 49 seconds 883 msec
