                         Program Version 5.0.3 -  RELEASE  -
|  1> ! PBEh-3c def2/J TightSCF DefGrid3
|  2>
|  3> %maxcore 60000
|  4>
|  5> %pal
|  6> nprocs 4
|  7> end
|  8>
|  9> *xyzfile 0 1 29.xyz
| 10>
| 11>                          ****END OF INPUT****

CARTESIAN COORDINATES (ANGSTROEM)
---------------------------------
  N      1.153283   -0.071358   -1.505864
  C      0.554463   -1.258482   -1.682123
  H      1.194006   -2.129557   -1.616282
  C     -0.808786   -1.408683   -1.924409
  H     -1.227888   -2.396903   -2.048958
  C     -1.605339   -0.269974   -1.992042
  H     -2.668484   -0.345988   -2.174330
  C     -1.001094    0.970603   -1.815751
  H     -1.576286    1.884467   -1.847219
  C      0.370247    1.016075   -1.578226
  H      0.867223    1.968018   -1.438027
  N     -0.770640   -0.383983    1.461949
  H     -1.665528   -0.815846    1.277345
  C     -0.770385    1.013827    1.554960
  O     -1.810268    1.642027    1.440109
  C      0.549110    1.572908    1.782522
  H      0.650426    2.640130    1.878391
  C      1.618984    0.754216    1.854043
  H      2.622862    1.122881    2.002469
  N      1.500922   -0.603077    1.741488
  H      2.314358   -1.195264    1.733320
  C      0.300476   -1.250309    1.515106
  O      0.208338   -2.455728    1.381527

 Total Charge           Charge          ....    0
 Multiplicity           Mult            ....    1
 Number of Electrons    NEL             ....  100
 Basis Dimension        Dim             ....  228

ORBITAL ENERGIES
----------------

  NO   OCC          E(Eh)            E(eV)
   0   2.0000     -19.477344      -530.0055
   1   2.0000     -19.470883      -529.8296
   2   2.0000     -14.710107      -400.2824
   3   2.0000     -14.690601      -399.7516
   4   2.0000     -14.642650      -398.4468
   5   2.0000     -10.603021      -288.5229
   6   2.0000     -10.568085      -287.5722
   7   2.0000     -10.531121      -286.5664
   8   2.0000     -10.483213      -285.2627
   9   2.0000     -10.482857      -285.2530
  10   2.0000     -10.469426      -284.8876
  11   2.0000     -10.460205      -284.6367
  12   2.0000     -10.458075      -284.5787
  13   2.0000     -10.457152      -284.5536
  14   2.0000      -1.190424       -32.3931
  15   2.0000      -1.151957       -31.3463
  16   2.0000      -1.086907       -29.5762
  17   2.0000      -1.046887       -28.4873
  18   2.0000      -1.027970       -27.9725
  19   2.0000      -0.901030       -24.5183
  20   2.0000      -0.892693       -24.2914
  21   2.0000      -0.853828       -23.2338
  22   2.0000      -0.773367       -21.0444
  23   2.0000      -0.743870       -20.2417
  24   2.0000      -0.708813       -19.2878
  25   2.0000      -0.708542       -19.2804
  26   2.0000      -0.671282       -18.2665
  27   2.0000      -0.629988       -17.1428
  28   2.0000      -0.600112       -16.3299
  29   2.0000      -0.586623       -15.9628
  30   2.0000      -0.548819       -14.9341
  31   2.0000      -0.546256       -14.8644
  32   2.0000      -0.538096       -14.6423
  33   2.0000      -0.534867       -14.5545
  34   2.0000      -0.516697       -14.0600
  35   2.0000      -0.490762       -13.3543
  36   2.0000      -0.485086       -13.1999
  37   2.0000      -0.479912       -13.0591
  38   2.0000      -0.467484       -12.7209
  39   2.0000      -0.464129       -12.6296
  40   2.0000      -0.452545       -12.3144
  41   2.0000      -0.424265       -11.5448
  42   2.0000      -0.419525       -11.4158
  43   2.0000      -0.356075        -9.6893
  44   2.0000      -0.335915        -9.1407
  45   2.0000      -0.332780        -9.0554
  46   2.0000      -0.323354        -8.7989
  47   2.0000      -0.316500        -8.6124
  48   2.0000      -0.304062        -8.2739
  49   2.0000      -0.292674        -7.9641
  50   0.0000      -0.017761        -0.4833
  51   0.0000      -0.003094        -0.0842
  52   0.0000       0.009413         0.2561
  53   0.0000       0.045137         1.2282
  54   0.0000       0.103282         2.8104

MULLIKEN ATOMIC CHARGES
-----------------------
   0 N :   -0.366404
   1 C :   -0.059091
   2 H :    0.240143
   3 C :   -0.285329
   4 H :    0.237777
   5 C :   -0.154316
   6 H :    0.239089
   7 C :   -0.277987
   8 H :    0.243828
   9 C :   -0.058618
  10 H :    0.233423
  11 N :   -0.714887
  12 H :    0.394701
  13 C :    0.571008
  14 O :   -0.402716
  15 C :   -0.453244
  16 H :    0.260508
  17 C :    0.097669
  18 H :    0.271071
  19 N :   -0.670682
  20 H :    0.391550
  21 C :    0.686330
  22 O :   -0.423824
Sum of atomic charges:   -0.0000000

LOEWDIN ATOMIC CHARGES
----------------------
   0 N :   -0.150900
   1 C :   -0.059902
   2 H :    0.132575
   3 C :   -0.163019
   4 H :    0.144902
   5 C :   -0.106552
   6 H :    0.142417
   7 C :   -0.156250
   8 H :    0.148071
   9 C :   -0.063122
  10 H :    0.129698
  11 N :   -0.196040
  12 H :    0.284391
  13 C :    0.123060
  14 O :   -0.250892
  15 C :   -0.243853
  16 H :    0.160789
  17 C :   -0.005201
  18 H :    0.149568
  19 N :   -0.178270
  20 H :    0.282075
  21 C :    0.144614
  22 O :   -0.268156

  Mayer bond orders larger than 0.100000
B(  0-N ,  1-C ) :   1.4891 B(  0-N ,  9-C ) :   1.4835 B(  1-C ,  2-H ) :   0.9130
B(  1-C ,  3-C ) :   1.3889 B(  3-C ,  4-H ) :   0.9114 B(  3-C ,  5-C ) :   1.4126
B(  5-C ,  6-H ) :   0.9166 B(  5-C ,  7-C ) :   1.4118 B(  7-C ,  8-H ) :   0.9085
B(  7-C ,  9-C ) :   1.3916 B(  9-C , 10-H ) :   0.9153 B( 11-N , 12-H ) :   0.8007
B( 11-N , 13-C ) :   0.9806 B( 11-N , 21-C ) :   1.0655 B( 13-C , 14-O ) :   2.0262
B( 13-C , 15-C ) :   1.0639 B( 15-C , 16-H ) :   0.9089 B( 15-C , 17-C ) :   1.6373
B( 17-C , 18-H ) :   0.9000 B( 17-C , 19-N ) :   1.0821 B( 19-N , 20-H ) :   0.8099
B( 19-N , 21-C ) :   1.0271 B( 21-C , 22-O ) :   2.0329

Dispersion correction           -0.016558861
FINAL SINGLE POINT ENERGY      -661.677642509586

DIPOLE MOMENT
-------------
                                X             Y             Z
Electronic contribution:      0.03425      -1.10637       3.81386
Nuclear contribution   :      0.83204       1.26434      -3.78541
                        -----------------------------------------
Total Dipole Moment    :      0.86629       0.15796       0.02844
                        -----------------------------------------
Magnitude (a.u.)       :      0.88104
Magnitude (Debye)      :      2.23942

Rotational constants in cm-1:     0.032083     0.022900     0.019186
Rotational constants in MHz :   961.818070   686.517015   575.175843

                             ****ORCA TERMINATED NORMALLY****
TOTAL RUN TIME: 0 days 0 hours 3 minutes 0 seconds 761 msec
