                         Program Version 5.0.3 -  RELEASE  -
|  1> ! PBEh-3c def2/J TightSCF DefGrid3
|  2>
|  3> %maxcore 60000
|  4>
|  5> %pal
|  6> nprocs 4
|  7> end
|  8>
|  9> *xyzfile 0 1 P51.xyz
| 10>
| 11>                          ****END OF INPUT****

CARTESIAN COORDINATES (ANGSTROEM)
---------------------------------
  C      0.844542   -1.285632    0.000000
  C     -0.657980   -1.220787    0.000000
  C      1.257174    0.179579    0.000000
  C     -1.125312    0.025746    0.000000
  C      0.000000    1.032353    0.000000
  C      2.502139    0.633307    0.000000
  H      1.236418   -1.813974    0.875081
  H      1.236418   -1.813974   -0.875081
  H     -1.280383   -2.105749    0.000000
  H      3.350625   -0.038941    0.000000
  H      2.720423    1.693582    0.000000
  H     -0.047915    1.689792   -0.874475
  H     -0.047915    1.689792    0.874475
  C     -2.551924    0.459215    0.000000
  H     -2.774162    1.074581   -0.876537
  H     -3.231179   -0.392375    0.000000
  H     -2.774162    1.074581    0.876537

 Total Charge           Charge          ....    0
 Multiplicity           Mult            ....    1
 Number of Electrons    NEL             ....   52
 Basis Dimension        Dim             ....  125

ORBITAL ENERGIES
----------------

  NO   OCC          E(Eh)            E(eV)
   0   2.0000     -10.449707      -284.3510
   1   2.0000     -10.445729      -284.2427
   2   2.0000     -10.437462      -284.0178
   3   2.0000     -10.436732      -283.9979
   4   2.0000     -10.432450      -283.8814
   5   2.0000     -10.431703      -283.8611
   6   2.0000     -10.420719      -283.5622
   7   2.0000      -0.949196       -25.8289
   8   2.0000      -0.854274       -23.2460
   9   2.0000      -0.809214       -22.0198
  10   2.0000      -0.771124       -20.9834
  11   2.0000      -0.709417       -19.3042
  12   2.0000      -0.600012       -16.3272
  13   2.0000      -0.586053       -15.9473
  14   2.0000      -0.531896       -14.4736
  15   2.0000      -0.510409       -13.8889
  16   2.0000      -0.482912       -13.1407
  17   2.0000      -0.476726       -12.9724
  18   2.0000      -0.465954       -12.6793
  19   2.0000      -0.445579       -12.1248
  20   2.0000      -0.432192       -11.7605
  21   2.0000      -0.404363       -11.0033
  22   2.0000      -0.397833       -10.8256
  23   2.0000      -0.370398       -10.0790
  24   2.0000      -0.299057        -8.1377
  25   2.0000      -0.266197        -7.2436
  26   0.0000       0.045655         1.2423
  27   0.0000       0.058766         1.5991
  28   0.0000       0.150497         4.0952
  29   0.0000       0.169325         4.6076
  30   0.0000       0.180616         4.9148

MULLIKEN ATOMIC CHARGES
-----------------------
   0 C :   -0.486574
   1 C :   -0.262378
   2 C :    0.144370
   3 C :    0.126159
   4 C :   -0.499677
   5 C :   -0.557359
   6 H :    0.235926
   7 H :    0.235926
   8 H :    0.205339
   9 H :    0.209186
  10 H :    0.208581
  11 H :    0.235052
  12 H :    0.235052
  13 C :   -0.705384
  14 H :    0.223503
  15 H :    0.228776
  16 H :    0.223503
Sum of atomic charges:    0.0000000

LOEWDIN ATOMIC CHARGES
----------------------
   0 C :   -0.228878
   1 C :   -0.160964
   2 C :   -0.038540
   3 C :   -0.062660
   4 C :   -0.222931
   5 C :   -0.287650
   6 H :    0.138399
   7 H :    0.138399
   8 H :    0.128603
   9 H :    0.130340
  10 H :    0.130105
  11 H :    0.139206
  12 H :    0.139206
  13 C :   -0.349541
  14 H :    0.135444
  15 H :    0.136018
  16 H :    0.135444

  Mayer bond orders larger than 0.100000
B(  0-C ,  1-C ) :   1.0004 B(  0-C ,  2-C ) :   0.9784 B(  0-C ,  6-H ) :   0.9025
B(  0-C ,  7-H ) :   0.9025 B(  1-C ,  3-C ) :   1.8641 B(  1-C ,  8-H ) :   0.9270
B(  2-C ,  4-C ) :   0.9860 B(  2-C ,  5-C ) :   1.8917 B(  3-C ,  4-C ) :   0.9775
B(  3-C , 13-C ) :   0.9727 B(  4-C , 11-H ) :   0.9014 B(  4-C , 12-H ) :   0.9014
B(  5-C ,  9-H ) :   0.9339 B(  5-C , 10-H ) :   0.9343 B( 13-C , 14-H ) :   0.9175
B( 13-C , 15-H ) :   0.9323 B( 13-C , 16-H ) :   0.9175

Dispersion correction           -0.008436570
FINAL SINGLE POINT ENERGY      -272.126257053568

DIPOLE MOMENT
-------------
                                X             Y             Z
Electronic contribution:      1.43490      -1.06989       0.00000
Nuclear contribution   :     -1.67179       1.09665       0.00000
                        -----------------------------------------
Total Dipole Moment    :     -0.23689       0.02676       0.00000
                        -----------------------------------------
Magnitude (a.u.)       :      0.23840
Magnitude (Debye)      :      0.60597

Rotational constants in cm-1:     0.198002     0.065964     0.050864
Rotational constants in MHz :  5935.938664  1977.564915  1524.860642

                             ****ORCA TERMINATED NORMALLY****
TOTAL RUN TIME: 0 days 0 hours 1 minutes 3 seconds 249 msec
