                         Program Version 5.0.3 -  RELEASE  -
|  1> ! PBEh-3c def2/J TightSCF DefGrid3
|  2>
|  3> %maxcore 60000
|  4>
|  5> %pal
|  6> nprocs 4
|  7> end
|  8>
|  9> *xyzfile 0 1 B64.xyz
| 10>
| 11>                          ****END OF INPUT****

CARTESIAN COORDINATES (ANGSTROEM)
---------------------------------
  C     -1.359010   -0.177168   -0.454055
  H     -0.837316   -1.117270   -0.614478
  O     -2.574821   -0.513522    0.207633
  C     -0.498951    0.789038    0.355864
  H     -1.048900    1.728151    0.459792
  H     -0.376474    0.391416    1.367487
  C      0.870831    1.055143   -0.285902
  H      1.200376    2.070706   -0.053780
  H      0.788572    0.991181   -1.373826
  H     -3.080563    0.297145    0.310830
  H     -1.556234    0.254447   -1.441206
  C      1.966330    0.105421    0.187969
  H      2.896300    0.326786   -0.334090
  H      2.143367    0.255551    1.257718
  O      1.689517   -1.268065   -0.081611
  H      1.078109   -1.580011    0.590122

 Total Charge           Charge          ....    0
 Multiplicity           Mult            ....    1
 Number of Electrons    NEL             ....   50
 Basis Dimension        Dim             ....  110

ORBITAL ENERGIES
----------------

  NO   OCC          E(Eh)            E(eV)
   0   2.0000     -19.487354      -530.2779
   1   2.0000     -19.484930      -530.2119
   2   2.0000     -10.483397      -285.2677
   3   2.0000     -10.479377      -285.1583
   4   2.0000     -10.439843      -284.0826
   5   2.0000     -10.438588      -284.0484
   6   2.0000      -1.123586       -30.5743
   7   2.0000      -1.121094       -30.5065
   8   2.0000      -0.885081       -24.0843
   9   2.0000      -0.799326       -21.7508
  10   2.0000      -0.713034       -19.4026
  11   2.0000      -0.661023       -17.9874
  12   2.0000      -0.586020       -15.9464
  13   2.0000      -0.560895       -15.2627
  14   2.0000      -0.537241       -14.6191
  15   2.0000      -0.500940       -13.6313
  16   2.0000      -0.481037       -13.0897
  17   2.0000      -0.468535       -12.7495
  18   2.0000      -0.442414       -12.0387
  19   2.0000      -0.419462       -11.4141
  20   2.0000      -0.411161       -11.1883
  21   2.0000      -0.377800       -10.2805
  22   2.0000      -0.371572       -10.1110
  23   2.0000      -0.325787        -8.8651
  24   2.0000      -0.322454        -8.7744
  25   0.0000       0.108060         2.9405
  26   0.0000       0.130566         3.5529
  27   0.0000       0.157430         4.2839
  28   0.0000       0.180561         4.9133
  29   0.0000       0.185673         5.0524

MULLIKEN ATOMIC CHARGES
-----------------------
   0 C :   -0.144351
   1 H :    0.216112
   2 O :   -0.623449
   3 C :   -0.481954
   4 H :    0.209968
   5 H :    0.214134
   6 C :   -0.449454
   7 H :    0.216614
   8 H :    0.224199
   9 H :    0.407959
  10 H :    0.181119
  11 C :   -0.165419
  12 H :    0.218682
  13 H :    0.181965
  14 O :   -0.625374
  15 H :    0.419248
Sum of atomic charges:    0.0000000

LOEWDIN ATOMIC CHARGES
----------------------
   0 C :   -0.100946
   1 H :    0.120932
   2 O :   -0.411946
   3 C :   -0.271271
   4 H :    0.121108
   5 H :    0.122295
   6 C :   -0.263816
   7 H :    0.129360
   8 H :    0.129003
   9 H :    0.305385
  10 H :    0.098292
  11 C :   -0.093859
  12 H :    0.120679
  13 H :    0.099007
  14 O :   -0.413406
  15 H :    0.309181

  Mayer bond orders larger than 0.100000
B(  0-C ,  1-H ) :   0.9035 B(  0-C ,  2-O ) :   1.0154 B(  0-C ,  3-C ) :   0.9751
B(  0-C , 10-H ) :   0.9093 B(  2-O ,  9-H ) :   0.7957 B(  3-C ,  4-H ) :   0.9271
B(  3-C ,  5-H ) :   0.9175 B(  3-C ,  6-C ) :   0.9389 B(  6-C ,  7-H ) :   0.9170
B(  6-C ,  8-H ) :   0.9148 B(  6-C , 11-C ) :   0.9639 B( 11-C , 12-H ) :   0.9193
B( 11-C , 13-H ) :   0.9158 B( 11-C , 14-O ) :   1.0223 B( 14-O , 15-H ) :   0.7864

Dispersion correction           -0.006724489
FINAL SINGLE POINT ENERGY      -308.204765865889

DIPOLE MOMENT
-------------
                                X             Y             Z
Electronic contribution:     -1.31964      -2.74759       0.14247
Nuclear contribution   :      1.24335       3.74066       0.17771
                        -----------------------------------------
Total Dipole Moment    :     -0.07629       0.99307       0.32018
                        -----------------------------------------
Magnitude (a.u.)       :      1.04619
Magnitude (Debye)      :      2.65921

Rotational constants in cm-1:     0.214589     0.060731     0.051630
Rotational constants in MHz :  6433.214823  1820.675123  1547.819914

                             ****ORCA TERMINATED NORMALLY****
TOTAL RUN TIME: 0 days 0 hours 1 minutes 37 seconds 802 msec
