                         Program Version 5.0.3 -  RELEASE  -
|  1> ! PBEh-3c def2/J TightSCF DefGrid3
|  2>
|  3> %maxcore 60000
|  4>
|  5> %pal
|  6> nprocs 4
|  7> end
|  8>
|  9> *xyzfile 0 2 hco.xyz
| 10>
| 11>                          ****END OF INPUT****

CARTESIAN COORDINATES (ANGSTROEM)
---------------------------------
  H     -0.608611    0.821034    0.000000
  C      0.304305    0.177798    0.000000
  O      0.304305   -0.998833    0.000000

 Total Charge           Charge          ....    0
 Multiplicity           Mult            ....    2
 Number of Electrons    NEL             ....   15
 Basis Dimension        Dim             ....   32

ORBITAL ENERGIES
----------------
                 SPIN UP ORBITALS
  NO   OCC          E(Eh)            E(eV)
   0   1.0000     -19.563706      -532.3555
   1   1.0000     -10.553823      -287.1841
   2   1.0000      -1.222976       -33.2789
   3   1.0000      -0.697647       -18.9839
   4   1.0000      -0.572617       -15.5817
   5   1.0000      -0.509674       -13.8689
   6   1.0000      -0.489692       -13.3252
   7   1.0000      -0.270618        -7.3639
   8   0.0000      -0.009688        -0.2636
   9   0.0000       0.183639         4.9971
  10   0.0000       0.265732         7.2309
  11   0.0000       0.498431        13.5630
  12   0.0000       0.501477        13.6459

                 SPIN DOWN ORBITALS
  NO   OCC          E(Eh)            E(eV)
   0   1.0000     -19.553903      -532.0888
   1   1.0000     -10.542019      -286.8629
   2   1.0000      -1.202705       -32.7273
   3   1.0000      -0.662469       -18.0267
   4   1.0000      -0.542310       -14.7570
   5   1.0000      -0.481435       -13.1005
   6   1.0000      -0.438015       -11.9190
   7   0.0000      -0.034010        -0.9255
   8   0.0000       0.010541         0.2868
   9   0.0000       0.210183         5.7194
  10   0.0000       0.280317         7.6278
  11   0.0000       0.513895        13.9838

MULLIKEN ATOMIC CHARGES AND SPIN POPULATIONS
--------------------------------------------
   0 H :    0.194614    0.165726
   1 C :    0.019710    0.588175
   2 O :   -0.214323    0.246099
Sum of atomic charges         :    0.0000000

LOEWDIN ATOMIC CHARGES AND SPIN POPULATIONS
-------------------------------------------
   0 H :    0.109501    0.115253
   1 C :   -0.041512    0.611318
   2 O :   -0.067989    0.273428

  Mayer bond orders larger than 0.100000
B(  0-H ,  1-C ) :   0.8511 B(  1-C ,  2-O ) :   2.2963

Dispersion correction           -0.000375770
FINAL SINGLE POINT ENERGY      -113.602428940841

DIPOLE MOMENT
-------------
                                X             Y             Z
Electronic contribution:      0.44540      -0.61109       0.00000
Nuclear contribution   :     -0.82626       1.18299       0.00000
                        -----------------------------------------
Total Dipole Moment    :     -0.38085       0.57190       0.00000
                        -----------------------------------------
Magnitude (a.u.)       :      0.68711
Magnitude (Debye)      :      1.74650

Rotational constants in cm-1:    24.757609     1.490315     1.405697
Rotational constants in MHz : 742214.441302 44678.512502 42141.738638

                             ****ORCA TERMINATED NORMALLY****
TOTAL RUN TIME: 0 days 0 hours 0 minutes 13 seconds 628 msec
