                         Program Version 5.0.3 -  RELEASE  -
|  1> ! PBEh-3c def2/J TightSCF DefGrid3
|  2>
|  3> %maxcore 60000
|  4>
|  5> %pal
|  6> nprocs 4
|  7> end
|  8>
|  9> *xyzfile 0 1 13ts_3a.xyz
| 10>
| 11>                          ****END OF INPUT****

CARTESIAN COORDINATES (ANGSTROEM)
---------------------------------
  C     -1.036662    1.002267    0.000000
  C     -0.998028   -0.373240    0.000000
  C      1.151259   -0.897854    0.000000
  N      1.595812    0.379703    0.000000
  N      1.238987    1.475132    0.000000
  H     -1.169933    1.560071   -0.918252
  H     -1.169933    1.560071    0.918252
  H     -1.199572   -0.920335   -0.914029
  H     -1.199572   -0.920335    0.914029
  H      1.393822   -1.432739    0.914919
  H      1.393822   -1.432739   -0.914919

 Total Charge           Charge          ....    0
 Multiplicity           Mult            ....    1
 Number of Electrons    NEL             ....   38
 Basis Dimension        Dim             ....   87

ORBITAL ENERGIES
----------------

  NO   OCC          E(Eh)            E(eV)
   0   2.0000     -14.749147      -401.3447
   1   2.0000     -14.718477      -400.5101
   2   2.0000     -10.494410      -285.5674
   3   2.0000     -10.439995      -284.0867
   4   2.0000     -10.427482      -283.7462
   5   2.0000      -1.199022       -32.6271
   6   2.0000      -0.902361       -24.5545
   7   2.0000      -0.831801       -22.6344
   8   2.0000      -0.648804       -17.6549
   9   2.0000      -0.625227       -17.0133
  10   2.0000      -0.565176       -15.3792
  11   2.0000      -0.542927       -14.7738
  12   2.0000      -0.509018       -13.8511
  13   2.0000      -0.494963       -13.4686
  14   2.0000      -0.458332       -12.4718
  15   2.0000      -0.442364       -12.0373
  16   2.0000      -0.393980       -10.7207
  17   2.0000      -0.312668        -8.5081
  18   2.0000      -0.248465        -6.7611
  19   0.0000       0.000863         0.0235
  20   0.0000       0.011663         0.3174
  21   0.0000       0.088200         2.4001
  22   0.0000       0.147562         4.0154
  23   0.0000       0.193109         5.2548

MULLIKEN ATOMIC CHARGES
-----------------------
   0 C :   -0.481342
   1 C :   -0.462441
   2 C :   -0.416009
   3 N :    0.061721
   4 N :   -0.091409
   5 H :    0.222057
   6 H :    0.222057
   7 H :    0.222443
   8 H :    0.222443
   9 H :    0.250240
  10 H :    0.250240
Sum of atomic charges:   -0.0000000

LOEWDIN ATOMIC CHARGES
----------------------
   0 C :   -0.318429
   1 C :   -0.278150
   2 C :   -0.288834
   3 N :    0.087025
   4 N :   -0.017828
   5 H :    0.129849
   6 H :    0.129849
   7 H :    0.130394
   8 H :    0.130394
   9 H :    0.147864
  10 H :    0.147864

  Mayer bond orders larger than 0.100000
B(  0-C ,  1-C ) :   1.5877 B(  0-C ,  4-N ) :   0.3174 B(  0-C ,  5-H ) :   0.9274
B(  0-C ,  6-H ) :   0.9274 B(  1-C ,  2-C ) :   0.3557 B(  1-C ,  7-H ) :   0.9235
B(  1-C ,  8-H ) :   0.9235 B(  2-C ,  3-N ) :   1.2064 B(  2-C ,  4-N ) :   0.2199
B(  2-C ,  9-H ) :   0.8934 B(  2-C , 10-H ) :   0.8934 B(  3-N ,  4-N ) :   2.3109

Dispersion correction           -0.004849193
FINAL SINGLE POINT ENERGY      -226.788093846261

DIPOLE MOMENT
-------------
                                X             Y             Z
Electronic contribution:      4.23520       2.38119      -0.00000
Nuclear contribution   :     -3.99802      -3.17979       0.00000
                        -----------------------------------------
Total Dipole Moment    :      0.23718      -0.79859      -0.00000
                        -----------------------------------------
Magnitude (a.u.)       :      0.83307
Magnitude (Debye)      :      2.11750

Rotational constants in cm-1:     0.257917     0.165090     0.107149
Rotational constants in MHz :  7732.144154  4949.266334  3212.236112

                             ****ORCA TERMINATED NORMALLY****
TOTAL RUN TIME: 0 days 0 hours 1 minutes 32 seconds 32 msec
