                         Program Version 5.0.3 -  RELEASE  -
|  1> ! PBEh-3c def2/J TightSCF DefGrid3
|  2>
|  3> %maxcore 60000
|  4>
|  5> %pal
|  6> nprocs 4
|  7> end
|  8>
|  9> *xyzfile 0 1 reac5.xyz
| 10>
| 11>                          ****END OF INPUT****

CARTESIAN COORDINATES (ANGSTROEM)
---------------------------------
  C     -0.069675    0.426757   -0.000517
  H     -0.029832    1.509908   -0.008099
  C     -1.249182   -0.196033    0.013868
  H     -1.330339   -1.275694    0.016609
  H     -2.164964    0.373561    0.006734
  H      1.220598   -1.153069    0.137248
  N      1.181782   -0.169417   -0.079545
  H      1.945210    0.346868    0.324216

 Total Charge           Charge          ....    0
 Multiplicity           Mult            ....    1
 Number of Electrons    NEL             ....   24
 Basis Dimension        Dim             ....   55

ORBITAL ENERGIES
----------------

  NO   OCC          E(Eh)            E(eV)
   0   2.0000     -14.633610      -398.2008
   1   2.0000     -10.470510      -284.9170
   2   2.0000     -10.405802      -283.1563
   3   2.0000      -1.002132       -27.2694
   4   2.0000      -0.811819       -22.0907
   5   2.0000      -0.650811       -17.7095
   6   2.0000      -0.583115       -15.8674
   7   2.0000      -0.524019       -14.2593
   8   2.0000      -0.462774       -12.5927
   9   2.0000      -0.415472       -11.3056
  10   2.0000      -0.390957       -10.6385
  11   2.0000      -0.244483        -6.6527
  12   0.0000       0.078593         2.1386
  13   0.0000       0.136125         3.7041
  14   0.0000       0.175605         4.7784
  15   0.0000       0.203158         5.5282
  16   0.0000       0.230926         6.2838

MULLIKEN ATOMIC CHARGES
-----------------------
   0 C :    0.026700
   1 H :    0.218284
   2 C :   -0.566084
   3 H :    0.197810
   4 H :    0.209891
   5 H :    0.341553
   6 N :   -0.770019
   7 H :    0.341866
Sum of atomic charges:   -0.0000000

LOEWDIN ATOMIC CHARGES
----------------------
   0 C :   -0.072656
   1 H :    0.124747
   2 C :   -0.381856
   3 H :    0.123118
   4 H :    0.134048
   5 H :    0.239753
   6 N :   -0.407889
   7 H :    0.240735

  Mayer bond orders larger than 0.100000
B(  0-C ,  1-H ) :   0.9148 B(  0-C ,  2-C ) :   1.8425 B(  0-C ,  6-N ) :   1.1006
B(  2-C ,  3-H ) :   0.9341 B(  2-C ,  4-H ) :   0.9341 B(  5-H ,  6-N ) :   0.8495
B(  6-N ,  7-H ) :   0.8468

Dispersion correction           -0.002290018
FINAL SINGLE POINT ENERGY      -133.646003434533

DIPOLE MOMENT
-------------
                                X             Y             Z
Electronic contribution:      0.92281       0.21153      -0.08793
Nuclear contribution   :     -0.36879      -0.20870       0.49841
                        -----------------------------------------
Total Dipole Moment    :      0.55401       0.00282       0.41048
                        -----------------------------------------
Magnitude (a.u.)       :      0.68952
Magnitude (Debye)      :      1.75261

Rotational constants in cm-1:     1.917774     0.334501     0.286751
Rotational constants in MHz : 57493.407085 10028.091109  8596.568433

                             ****ORCA TERMINATED NORMALLY****
TOTAL RUN TIME: 0 days 0 hours 0 minutes 56 seconds 258 msec
