                         Program Version 5.0.3 -  RELEASE  -
|  1> ! PBEh-3c def2/J TightSCF DefGrid3
|  2>
|  3> %maxcore 60000
|  4>
|  5> %pal
|  6> nprocs 4
|  7> end
|  8>
|  9> *xyzfile 0 1 S8_1.xyz
| 10>
| 11>                          ****END OF INPUT****

CARTESIAN COORDINATES (ANGSTROEM)
---------------------------------
  S     -2.196767    0.909931   -0.492486
  S     -2.196767   -0.909931    0.492486
  S     -0.909931   -2.196767   -0.492486
  S      0.909931   -2.196767    0.492486
  S      2.196767   -0.909931   -0.492486
  S      2.196767    0.909931    0.492486
  S      0.909931    2.196767   -0.492486
  S     -0.909931    2.196767    0.492486

 Total Charge           Charge          ....    0
 Multiplicity           Mult            ....    1
 Number of Electrons    NEL             ....  128
 Basis Dimension        Dim             ....  144

ORBITAL ENERGIES
----------------

  NO   OCC          E(Eh)            E(eV)
   0   2.0000     -89.660079     -2439.7748
   1   2.0000     -89.660079     -2439.7748
   2   2.0000     -89.660064     -2439.7744
   3   2.0000     -89.660064     -2439.7744
   4   2.0000     -89.660005     -2439.7728
   5   2.0000     -89.659965     -2439.7717
   6   2.0000     -89.659965     -2439.7717
   7   2.0000     -89.659902     -2439.7700
   8   2.0000      -8.297920      -225.7979
   9   2.0000      -8.297920      -225.7979
  10   2.0000      -8.297904      -225.7975
  11   2.0000      -8.297904      -225.7975
  12   2.0000      -8.297881      -225.7968
  13   2.0000      -8.297856      -225.7961
  14   2.0000      -8.297856      -225.7961
  15   2.0000      -8.297807      -225.7948
  16   2.0000      -6.189234      -168.4176
  17   2.0000      -6.189187      -168.4163
  18   2.0000      -6.189187      -168.4163
  19   2.0000      -6.189074      -168.4133
  20   2.0000      -6.189074      -168.4133
  21   2.0000      -6.188991      -168.4110
  22   2.0000      -6.188991      -168.4110
  23   2.0000      -6.188963      -168.4102
  24   2.0000      -6.185462      -168.3150
  25   2.0000      -6.185453      -168.3147
  26   2.0000      -6.185453      -168.3147
  27   2.0000      -6.185414      -168.3137
  28   2.0000      -6.185414      -168.3137
  29   2.0000      -6.185351      -168.3120
  30   2.0000      -6.185351      -168.3120
  31   2.0000      -6.185313      -168.3109
  32   2.0000      -6.178874      -168.1357
  33   2.0000      -6.178874      -168.1357
  34   2.0000      -6.178857      -168.1352
  35   2.0000      -6.178857      -168.1352
  36   2.0000      -6.178856      -168.1352
  37   2.0000      -6.178856      -168.1352
  38   2.0000      -6.178844      -168.1349
  39   2.0000      -6.178843      -168.1349
  40   2.0000      -0.978976       -26.6393
  41   2.0000      -0.944407       -25.6986
  42   2.0000      -0.944407       -25.6986
  43   2.0000      -0.852724       -23.2038
  44   2.0000      -0.852723       -23.2038
  45   2.0000      -0.727115       -19.7858
  46   2.0000      -0.727115       -19.7858
  47   2.0000      -0.641962       -17.4687
  48   2.0000      -0.536065       -14.5871
  49   2.0000      -0.510819       -13.9001
  50   2.0000      -0.510819       -13.9001
  51   2.0000      -0.478115       -13.0102
  52   2.0000      -0.442294       -12.0354
  53   2.0000      -0.442294       -12.0354
  54   2.0000      -0.438941       -11.9442
  55   2.0000      -0.438941       -11.9442
  56   2.0000      -0.402826       -10.9615
  57   2.0000      -0.340653        -9.2696
  58   2.0000      -0.340653        -9.2696
  59   2.0000      -0.331693        -9.0258
  60   2.0000      -0.331692        -9.0258
  61   2.0000      -0.319842        -8.7034
  62   2.0000      -0.319842        -8.7034
  63   2.0000      -0.313621        -8.5341
  64   0.0000      -0.066040        -1.7970
  65   0.0000      -0.066040        -1.7970
  66   0.0000      -0.053369        -1.4522
  67   0.0000      -0.015406        -0.4192
  68   0.0000      -0.011324        -0.3082

MULLIKEN ATOMIC CHARGES
-----------------------
   0 S :   -0.000000
   1 S :    0.000000
   2 S :   -0.000000
   3 S :    0.000000
   4 S :   -0.000000
   5 S :    0.000000
   6 S :   -0.000000
   7 S :    0.000000
Sum of atomic charges:   -0.0000000

LOEWDIN ATOMIC CHARGES
----------------------
   0 S :    0.000000
   1 S :   -0.000000
   2 S :    0.000000
   3 S :    0.000000
   4 S :    0.000000
   5 S :    0.000000
   6 S :   -0.000000
   7 S :    0.000000

  Mayer bond orders larger than 0.100000
B(  0-S ,  1-S ) :   1.0301 B(  0-S ,  7-S ) :   1.0301 B(  1-S ,  2-S ) :   1.0301
B(  2-S ,  3-S ) :   1.0301 B(  3-S ,  4-S ) :   1.0301 B(  4-S ,  5-S ) :   1.0301
B(  5-S ,  6-S ) :   1.0301 B(  6-S ,  7-S ) :   1.0301

Dispersion correction           -0.009587590
FINAL SINGLE POINT ENERGY     -3181.987413556600

DIPOLE MOMENT
-------------
                                X             Y             Z
Electronic contribution:      0.00000      -0.00000       0.00000
Nuclear contribution   :      0.00000       0.00000       0.00000
                        -----------------------------------------
Total Dipole Moment    :      0.00000      -0.00000       0.00000
                        -----------------------------------------
Magnitude (a.u.)       :      0.00000
Magnitude (Debye)      :      0.00000

Rotational constants in cm-1:     0.021413     0.021413     0.011625
Rotational constants in MHz :   641.959447   641.959447   348.519298

                             ****ORCA TERMINATED NORMALLY****
TOTAL RUN TIME: 0 days 0 hours 1 minutes 50 seconds 651 msec
