                         Program Version 5.0.3 -  RELEASE  -
|  1> ! PBEh-3c def2/J TightSCF DefGrid3
|  2>
|  3> %maxcore 60000
|  4>
|  5> %pal
|  6> nprocs 4
|  7> end
|  8>
|  9> *xyzfile 0 1 NH3_FCl.xyz
| 10>
| 11>                          ****END OF INPUT****

CARTESIAN COORDINATES (ANGSTROEM)
---------------------------------
  N      0.000000    0.000000   -2.087128
  H      0.000000    0.948984   -2.433334
  H      0.821844   -0.474492   -2.433334
  H     -0.821844   -0.474492   -2.433334
  Cl     0.000000    0.000000    0.261044
  F      0.000000    0.000000    1.941351

 Total Charge           Charge          ....    0
 Multiplicity           Mult            ....    1
 Number of Electrons    NEL             ....   36
 Basis Dimension        Dim             ....   54

ORBITAL ENERGIES
----------------

  NO   OCC          E(Eh)            E(eV)
   0   2.0000    -102.332748     -2784.6156
   1   2.0000     -25.055329      -681.7902
   2   2.0000     -14.665389      -399.0655
   3   2.0000      -9.790028      -266.4002
   4   2.0000      -7.483310      -203.6312
   5   2.0000      -7.466559      -203.1754
   6   2.0000      -7.466559      -203.1754
   7   2.0000      -1.263459       -34.3805
   8   2.0000      -0.997705       -27.1489
   9   2.0000      -0.859714       -23.3940
  10   2.0000      -0.574609       -15.6359
  11   2.0000      -0.574609       -15.6359
  12   2.0000      -0.529177       -14.3996
  13   2.0000      -0.473573       -12.8866
  14   2.0000      -0.473573       -12.8866
  15   2.0000      -0.358726        -9.7614
  16   2.0000      -0.328761        -8.9461
  17   2.0000      -0.328761        -8.9460
  18   0.0000       0.009315         0.2535
  19   0.0000       0.111846         3.0435
  20   0.0000       0.184324         5.0157
  21   0.0000       0.184324         5.0157
  22   0.0000       0.492949        13.4138

MULLIKEN ATOMIC CHARGES
-----------------------
   0 N :   -0.945603
   1 H :    0.361125
   2 H :    0.361126
   3 H :    0.361126
   4 Cl:    0.288905
   5 F :   -0.426679
Sum of atomic charges:   -0.0000000

LOEWDIN ATOMIC CHARGES
----------------------
   0 N :   -0.580850
   1 H :    0.242036
   2 H :    0.242037
   3 H :    0.242037
   4 Cl:    0.288515
   5 F :   -0.433774

  Mayer bond orders larger than 0.100000
B(  0-N ,  1-H ) :   0.8492 B(  0-N ,  2-H ) :   0.8492 B(  0-N ,  3-H ) :   0.8492
B(  0-N ,  4-Cl) :   0.1968 B(  4-Cl,  5-F ) :   0.7851

Dispersion correction           -0.001370694
FINAL SINGLE POINT ENERGY      -615.717905704791

DIPOLE MOMENT
-------------
                                X             Y             Z
Electronic contribution:      0.00000      -0.00001       6.92461
Nuclear contribution   :      0.00000      -0.00000      -9.08289
                        -----------------------------------------
Total Dipole Moment    :      0.00000      -0.00001      -2.15828
                        -----------------------------------------
Magnitude (a.u.)       :      2.15828
Magnitude (Debye)      :      5.48591

Rotational constants in cm-1:     6.190098     0.110163     0.110163
Rotational constants in MHz : 185574.480338  3302.589533  3302.589512

                             ****ORCA TERMINATED NORMALLY****
TOTAL RUN TIME: 0 days 0 hours 1 minutes 8 seconds 146 msec
