                         Program Version 5.0.3 -  RELEASE  -
|  1> ! PBEh-3c def2/J TightSCF DefGrid3
|  2>
|  3> %maxcore 60000
|  4>
|  5> %pal
|  6> nprocs 4
|  7> end
|  8>
|  9> *xyzfile 0 1 48.xyz
| 10>
| 11>                          ****END OF INPUT****

CARTESIAN COORDINATES (ANGSTROEM)
---------------------------------
  N     -0.929720    2.637875    0.034819
  C      0.353167    2.174776   -0.174987
  C      0.342335    0.805247   -0.321554
  C     -1.031434    0.400449   -0.194403
  C     -1.668833   -0.847048   -0.249267
  C     -3.047793   -0.904296   -0.084020
  C     -3.801623    0.270501    0.136266
  C     -3.183655    1.515564    0.193678
  C     -1.799800    1.570310    0.027372
  H     -1.182897    3.599369    0.166766
  H      1.177259    2.868361   -0.204268
  H     -1.120787   -1.764881   -0.416044
  H     -4.871707    0.218972    0.263784
  H     -3.772285    2.407920    0.363191
  O     -3.601355   -2.157647   -0.150296
  C     -5.005617   -2.251305    0.015788
  H     -5.538709   -1.698986   -0.761221
  H     -5.318068   -1.888121    0.997342
  H     -5.244601   -3.307250   -0.067807
  C      1.504322   -0.109923   -0.561992
  C      2.841911    0.624388   -0.664616
  N      3.968115   -0.261374   -0.894387
  C      4.705274   -0.915450    0.057492
  C      4.502858   -0.473339    1.493664
  H      1.344319   -0.677730   -1.483784
  H      1.567421   -0.849831    0.241389
  H      3.024684    1.195251    0.244291
  H      2.803496    1.342365   -1.485588
  H      4.090505   -0.638267   -1.821433
  O      5.508313   -1.784789   -0.247505
  H      5.126835   -1.099037    2.123062
  H      3.462644   -0.571145    1.803016
  H      4.795426    0.569070    1.621242

 Total Charge           Charge          ....    0
 Multiplicity           Mult            ....    1
 Number of Electrons    NEL             ....  124
 Basis Dimension        Dim             ....  287

ORBITAL ENERGIES
----------------

  NO   OCC          E(Eh)            E(eV)
   0   2.0000     -19.519506      -531.1528
   1   2.0000     -19.447075      -529.1818
   2   2.0000     -14.686215      -399.6322
   3   2.0000     -14.654286      -398.7634
   4   2.0000     -10.542651      -286.8801
   5   2.0000     -10.501918      -285.7717
   6   2.0000     -10.487748      -285.3861
   7   2.0000     -10.485989      -285.3383
   8   2.0000     -10.484311      -285.2926
   9   2.0000     -10.479383      -285.1585
  10   2.0000     -10.455108      -284.4979
  11   2.0000     -10.450205      -284.3645
  12   2.0000     -10.447567      -284.2927
  13   2.0000     -10.447032      -284.2782
  14   2.0000     -10.446838      -284.2729
  15   2.0000     -10.439253      -284.0665
  16   2.0000     -10.437199      -284.0106
  17   2.0000      -1.167506       -31.7695
  18   2.0000      -1.133317       -30.8391
  19   2.0000      -1.089108       -29.6361
  20   2.0000      -1.019424       -27.7399
  21   2.0000      -0.939976       -25.5780
  22   2.0000      -0.903055       -24.5734
  23   2.0000      -0.847927       -23.0733
  24   2.0000      -0.837091       -22.7784
  25   2.0000      -0.823320       -22.4037
  26   2.0000      -0.803455       -21.8631
  27   2.0000      -0.773211       -21.0401
  28   2.0000      -0.736649       -20.0452
  29   2.0000      -0.706181       -19.2162
  30   2.0000      -0.664271       -18.0757
  31   2.0000      -0.647114       -17.6089
  32   2.0000      -0.633877       -17.2487
  33   2.0000      -0.616860       -16.7856
  34   2.0000      -0.580712       -15.8020
  35   2.0000      -0.564906       -15.3719
  36   2.0000      -0.550873       -14.9900
  37   2.0000      -0.546948       -14.8832
  38   2.0000      -0.529752       -14.4153
  39   2.0000      -0.526820       -14.3355
  40   2.0000      -0.515249       -14.0206
  41   2.0000      -0.506856       -13.7922
  42   2.0000      -0.497495       -13.5375
  43   2.0000      -0.489810       -13.3284
  44   2.0000      -0.480330       -13.0704
  45   2.0000      -0.471621       -12.8334
  46   2.0000      -0.461879       -12.5684
  47   2.0000      -0.453924       -12.3519
  48   2.0000      -0.451186       -12.2774
  49   2.0000      -0.446636       -12.1536
  50   2.0000      -0.430585       -11.7168
  51   2.0000      -0.419433       -11.4133
  52   2.0000      -0.416733       -11.3399
  53   2.0000      -0.413988       -11.2652
  54   2.0000      -0.402569       -10.9545
  55   2.0000      -0.380192       -10.3455
  56   2.0000      -0.353912        -9.6304
  57   2.0000      -0.319819        -8.7027
  58   2.0000      -0.300929        -8.1887
  59   2.0000      -0.293603        -7.9894
  60   2.0000      -0.252269        -6.8646
  61   2.0000      -0.235977        -6.4213
  62   0.0000       0.002205         0.0600
  63   0.0000       0.057417         1.5624
  64   0.0000       0.067381         1.8335
  65   0.0000       0.091183         2.4812
  66   0.0000       0.119329         3.2471

MULLIKEN ATOMIC CHARGES
-----------------------
   0 N :   -0.710533
   1 C :   -0.054650
   2 C :    0.001601
   3 C :    0.084826
   4 C :   -0.440515
   5 C :    0.402606
   6 C :   -0.363761
   7 C :   -0.257057
   8 C :    0.363650
   9 H :    0.357723
  10 H :    0.236856
  11 H :    0.221740
  12 H :    0.231413
  13 H :    0.214353
  14 O :   -0.468406
  15 C :   -0.404205
  16 H :    0.203631
  17 H :    0.203758
  18 H :    0.240319
  19 C :   -0.498344
  20 C :   -0.280366
  21 N :   -0.613046
  22 C :    0.493990
  23 C :   -0.783389
  24 H :    0.228729
  25 H :    0.229889
  26 H :    0.230167
  27 H :    0.237821
  28 H :    0.358663
  29 O :   -0.416864
  30 H :    0.273174
  31 H :    0.237534
  32 H :    0.238694
Sum of atomic charges:    0.0000000

LOEWDIN ATOMIC CHARGES
----------------------
   0 N :   -0.163376
   1 C :   -0.089140
   2 C :   -0.107260
   3 C :   -0.048069
   4 C :   -0.157440
   5 C :    0.059980
   6 C :   -0.191090
   7 C :   -0.149998
   8 C :    0.007893
   9 H :    0.261392
  10 H :    0.133734
  11 H :    0.146932
  12 H :    0.140404
  13 H :    0.136598
  14 O :   -0.193471
  15 C :   -0.180532
  16 H :    0.111930
  17 H :    0.112001
  18 H :    0.130512
  19 C :   -0.236607
  20 C :   -0.147758
  21 N :   -0.244988
  22 C :    0.107199
  23 C :   -0.398905
  24 H :    0.136148
  25 H :    0.135132
  26 H :    0.129551
  27 H :    0.128560
  28 H :    0.258680
  29 O :   -0.272804
  30 H :    0.156961
  31 H :    0.142626
  32 H :    0.145206

  Mayer bond orders larger than 0.100000
B(  0-N ,  1-C ) :   1.1243 B(  0-N ,  8-C ) :   1.0004 B(  0-N ,  9-H ) :   0.8345
B(  1-C ,  2-C ) :   1.5492 B(  1-C , 10-H ) :   0.9123 B(  2-C ,  3-C ) :   1.2421
B(  2-C , 19-C ) :   0.9624 B(  3-C ,  4-C ) :   1.2893 B(  3-C ,  8-C ) :   1.2262
B(  4-C ,  5-C ) :   1.4352 B(  4-C ,  7-C ) :   0.1028 B(  4-C , 11-H ) :   0.9257
B(  5-C ,  6-C ) :   1.2846 B(  5-C , 14-O ) :   1.0132 B(  6-C ,  7-C ) :   1.4717
B(  6-C , 12-H ) :   0.9053 B(  7-C ,  8-C ) :   1.3177 B(  7-C , 13-H ) :   0.9204
B( 14-O , 15-C ) :   0.9576 B( 15-C , 16-H ) :   0.9076 B( 15-C , 17-H ) :   0.9076
B( 15-C , 18-H ) :   0.9234 B( 19-C , 20-C ) :   0.9831 B( 19-C , 24-H ) :   0.9073
B( 19-C , 25-H ) :   0.9037 B( 20-C , 21-N ) :   0.9611 B( 20-C , 26-H ) :   0.9026
B( 20-C , 27-H ) :   0.9087 B( 21-N , 22-C ) :   1.1476 B( 21-N , 28-H ) :   0.8229
B( 22-C , 23-C ) :   0.9273 B( 22-C , 29-O ) :   2.0352 B( 23-C , 30-H ) :   0.9154
B( 23-C , 31-H ) :   0.9060 B( 23-C , 32-H ) :   0.9098

Dispersion correction           -0.020894876
FINAL SINGLE POINT ENERGY      -763.321428333252

DIPOLE MOMENT
-------------
                                X             Y             Z
Electronic contribution:     -1.40401       1.73331      -2.62495
Nuclear contribution   :     -0.27360       0.18085       2.81867
                        -----------------------------------------
Total Dipole Moment    :     -1.67761       1.91417       0.19373
                        -----------------------------------------
Magnitude (a.u.)       :      2.55263
Magnitude (Debye)      :      6.48827

Rotational constants in cm-1:     0.029571     0.006349     0.005466
Rotational constants in MHz :   886.517968   190.334498   163.867931

                             ****ORCA TERMINATED NORMALLY****
TOTAL RUN TIME: 0 days 0 hours 4 minutes 12 seconds 523 msec
