                         Program Version 5.0.3 -  RELEASE  -
|  1> ! PBEh-3c def2/J TightSCF DefGrid3
|  2>
|  3> %maxcore 60000
|  4>
|  5> %pal
|  6> nprocs 4
|  7> end
|  8>
|  9> *xyzfile -1 1 10A.xyz
| 10>
| 11>                          ****END OF INPUT****

CARTESIAN COORDINATES (ANGSTROEM)
---------------------------------
  O      1.235834   -0.091774   -0.067936
  H      1.547558    0.571928    0.556913

 Total Charge           Charge          ....   -1
 Multiplicity           Mult            ....    1
 Number of Electrons    NEL             ....   10
 Basis Dimension        Dim             ....   17

ORBITAL ENERGIES
----------------

  NO   OCC          E(Eh)            E(eV)
   0   2.0000     -18.993826      -516.8483
   1   2.0000      -0.580439       -15.7945
   2   2.0000      -0.043043        -1.1713
   3   2.0000       0.106327         2.8933
   4   2.0000       0.106328         2.8933
   5   0.0000       0.488078        13.2813
   6   0.0000       1.321675        35.9646
   7   0.0000       1.413863        38.4732
   8   0.0000       1.413867        38.4733
   9   0.0000       1.467449        39.9313

MULLIKEN ATOMIC CHARGES
-----------------------
   0 O :   -1.195496
   1 H :    0.195496
Sum of atomic charges:   -1.0000000

LOEWDIN ATOMIC CHARGES
----------------------
   0 O :   -1.140519
   1 H :    0.140519

  Mayer bond orders larger than 0.100000
B(  0-O ,  1-H ) :   0.9337

Dispersion correction           -0.000087272
FINAL SINGLE POINT ENERGY       -75.563043261377

DIPOLE MOMENT
-------------
                                X             Y             Z
Electronic contribution:     -0.12112      -0.25787      -0.24278
Nuclear contribution   :      0.27485       0.58518       0.55093
                        -----------------------------------------
Total Dipole Moment    :      0.15373       0.32731       0.30815
                        -----------------------------------------
Magnitude (a.u.)       :      0.47510
Magnitude (Debye)      :      1.20761

Rotational constants in cm-1:     0.000000    19.154555    19.154555
Rotational constants in MHz :     0.000000 574239.123358 574239.123358

                             ****ORCA TERMINATED NORMALLY****
TOTAL RUN TIME: 0 days 0 hours 0 minutes 44 seconds 663 msec
