                         Program Version 5.0.3 -  RELEASE  -
|  1> ! PBEh-3c def2/J TightSCF DefGrid3
|  2>
|  3> %maxcore 60000
|  4>
|  5> %pal
|  6> nprocs 4
|  7> end
|  8>
|  9> *xyzfile 0 1 C6H6.xyz
| 10>
| 11>                          ****END OF INPUT****

CARTESIAN COORDINATES (ANGSTROEM)
---------------------------------
  C     -1.198802    0.692129    0.000000
  C     -1.198802   -0.692129    0.000000
  C      0.000000   -1.384254    0.000000
  C      1.198802   -0.692129    0.000000
  C      1.198802    0.692129    0.000000
  C      0.000000    1.384254    0.000000
  H     -2.133155   -1.231578    0.000000
  H      0.000000   -2.463152    0.000000
  H      2.133155   -1.231578    0.000000
  H      2.133155    1.231578    0.000000
  H      0.000000    2.463152    0.000000
  H     -2.133155    1.231578    0.000000

 Total Charge           Charge          ....    0
 Multiplicity           Mult            ....    1
 Number of Electrons    NEL             ....   42
 Basis Dimension        Dim             ....  102

ORBITAL ENERGIES
----------------

  NO   OCC          E(Eh)            E(eV)
   0   2.0000     -10.445713      -284.2423
   1   2.0000     -10.445470      -284.2357
   2   2.0000     -10.445468      -284.2356
   3   2.0000     -10.444811      -284.2178
   4   2.0000     -10.444810      -284.2177
   5   2.0000     -10.444561      -284.2109
   6   2.0000      -0.957076       -26.0434
   7   2.0000      -0.837987       -22.8028
   8   2.0000      -0.837987       -22.8028
   9   2.0000      -0.680277       -18.5113
  10   2.0000      -0.680277       -18.5113
  11   2.0000      -0.594832       -16.1862
  12   2.0000      -0.524265       -14.2660
  13   2.0000      -0.511197       -13.9104
  14   2.0000      -0.482739       -13.1360
  15   2.0000      -0.482738       -13.1360
  16   2.0000      -0.424192       -11.5428
  17   2.0000      -0.397965       -10.8292
  18   2.0000      -0.397964       -10.8292
  19   2.0000      -0.293758        -7.9936
  20   2.0000      -0.293755        -7.9935
  21   0.0000       0.021444         0.5835
  22   0.0000       0.021445         0.5835
  23   0.0000       0.141304         3.8451
  24   0.0000       0.201260         5.4766
  25   0.0000       0.202489         5.5100

MULLIKEN ATOMIC CHARGES
-----------------------
   0 C :   -0.219008
   1 C :   -0.219007
   2 C :   -0.219019
   3 C :   -0.219007
   4 C :   -0.219008
   5 C :   -0.219019
   6 H :    0.219008
   7 H :    0.219019
   8 H :    0.219008
   9 H :    0.219008
  10 H :    0.219019
  11 H :    0.219008
Sum of atomic charges:   -0.0000000

LOEWDIN ATOMIC CHARGES
----------------------
   0 C :   -0.135281
   1 C :   -0.135281
   2 C :   -0.135287
   3 C :   -0.135281
   4 C :   -0.135281
   5 C :   -0.135287
   6 H :    0.135283
   7 H :    0.135282
   8 H :    0.135283
   9 H :    0.135283
  10 H :    0.135282
  11 H :    0.135283

  Mayer bond orders larger than 0.100000
B(  0-C ,  1-C ) :   1.4286 B(  0-C ,  5-C ) :   1.4286 B(  0-C , 11-H ) :   0.9202
B(  1-C ,  2-C ) :   1.4286 B(  1-C ,  6-H ) :   0.9202 B(  2-C ,  3-C ) :   1.4286
B(  2-C ,  7-H ) :   0.9202 B(  3-C ,  4-C ) :   1.4286 B(  3-C ,  8-H ) :   0.9202
B(  4-C ,  5-C ) :   1.4286 B(  4-C ,  9-H ) :   0.9202 B(  5-C , 10-H ) :   0.9202

Dispersion correction           -0.005898851
FINAL SINGLE POINT ENERGY      -231.725915549787

DIPOLE MOMENT
-------------
                                X             Y             Z
Electronic contribution:      0.00000       0.00000       0.00000
Nuclear contribution   :      0.00000       0.00000       0.00000
                        -----------------------------------------
Total Dipole Moment    :      0.00000       0.00000       0.00000
                        -----------------------------------------
Magnitude (a.u.)       :      0.00000
Magnitude (Debye)      :      0.00000

Rotational constants in cm-1:     0.192897     0.192896     0.096448
Rotational constants in MHz :  5782.900460  5782.880115  2891.445144

                             ****ORCA TERMINATED NORMALLY****
TOTAL RUN TIME: 0 days 0 hours 0 minutes 43 seconds 990 msec
