                         Program Version 5.0.3 -  RELEASE  -
|  1> ! PBEh-3c def2/J TightSCF DefGrid3
|  2>
|  3> %maxcore 60000
|  4>
|  5> %pal
|  6> nprocs 4
|  7> end
|  8>
|  9> *xyzfile 0 1 alme3.xyz
| 10>
| 11>                          ****END OF INPUT****

CARTESIAN COORDINATES (ANGSTROEM)
---------------------------------
  C      0.000000    1.972993    0.000000
  Al     0.000000    0.000000    0.000000
  C      1.708662   -0.986496    0.000000
  C     -1.708662   -0.986496    0.000000
  H      0.999872    2.408131    0.000000
  H     -0.530619    2.361904    0.873534
  H     -0.530619    2.361904   -0.873534
  H      2.310779   -0.721423   -0.873534
  H      2.310779   -0.721423    0.873534
  H      1.585567   -2.069980    0.000000
  H     -2.585439   -0.338151    0.000000
  H     -1.780160   -1.640482    0.873534
  H     -1.780160   -1.640482   -0.873534

 Total Charge           Charge          ....    0
 Multiplicity           Mult            ....    1
 Number of Electrons    NEL             ....   40
 Basis Dimension        Dim             ....   81

ORBITAL ENERGIES
----------------

  NO   OCC          E(Eh)            E(eV)
   0   2.0000     -56.579204     -1539.5984
   1   2.0000     -10.397435      -282.9286
   2   2.0000     -10.397432      -282.9285
   3   2.0000     -10.397431      -282.9285
   4   2.0000      -4.316802      -117.4662
   5   2.0000      -2.811085       -76.4935
   6   2.0000      -2.802314       -76.2548
   7   2.0000      -2.802314       -76.2548
   8   2.0000      -0.755145       -20.5485
   9   2.0000      -0.741354       -20.1733
  10   2.0000      -0.741353       -20.1732
  11   2.0000      -0.441339       -12.0094
  12   2.0000      -0.441338       -12.0094
  13   2.0000      -0.440654       -11.9908
  14   2.0000      -0.431090       -11.7306
  15   2.0000      -0.431088       -11.7305
  16   2.0000      -0.425323       -11.5736
  17   2.0000      -0.416385       -11.3304
  18   2.0000      -0.308819        -8.4034
  19   2.0000      -0.308819        -8.4034
  20   0.0000       0.004730         0.1287
  21   0.0000       0.049651         1.3511
  22   0.0000       0.121358         3.3023
  23   0.0000       0.121360         3.3024
  24   0.0000       0.193487         5.2650

MULLIKEN ATOMIC CHARGES
-----------------------
   0 C :   -1.049312
   1 Al:    1.062450
   2 C :   -1.049359
   3 C :   -1.049355
   4 H :    0.231876
   5 H :    0.231659
   6 H :    0.231659
   7 H :    0.231657
   8 H :    0.231657
   9 H :    0.231881
  10 H :    0.231870
  11 H :    0.231659
  12 H :    0.231659
Sum of atomic charges:   -0.0000000

LOEWDIN ATOMIC CHARGES
----------------------
   0 C :   -0.646803
   1 Al:    0.625237
   2 C :   -0.646816
   3 C :   -0.646811
   4 H :    0.143171
   5 H :    0.147613
   6 H :    0.147613
   7 H :    0.147612
   8 H :    0.147612
   9 H :    0.143174
  10 H :    0.143172
  11 H :    0.147613
  12 H :    0.147613

  Mayer bond orders larger than 0.100000
B(  0-C ,  1-Al) :   0.8667 B(  0-C ,  4-H ) :   0.9116 B(  0-C ,  5-H ) :   0.9089
B(  0-C ,  6-H ) :   0.9089 B(  1-Al,  2-C ) :   0.8667 B(  1-Al,  3-C ) :   0.8667
B(  2-C ,  7-H ) :   0.9089 B(  2-C ,  8-H ) :   0.9089 B(  2-C ,  9-H ) :   0.9116
B(  3-C , 10-H ) :   0.9116 B(  3-C , 11-H ) :   0.9089 B(  3-C , 12-H ) :   0.9089

Dispersion correction           -0.004093695
FINAL SINGLE POINT ENERGY      -361.596767489004

DIPOLE MOMENT
-------------
                                X             Y             Z
Electronic contribution:     -0.00004      -0.00003      -0.00000
Nuclear contribution   :     -0.00000      -0.00000       0.00000
                        -----------------------------------------
Total Dipole Moment    :     -0.00004      -0.00004      -0.00000
                        -----------------------------------------
Magnitude (a.u.)       :      0.00006
Magnitude (Debye)      :      0.00015

Rotational constants in cm-1:     0.164067     0.164067     0.085891
Rotational constants in MHz :  4918.595083  4918.593690  2574.952047

                             ****ORCA TERMINATED NORMALLY****
TOTAL RUN TIME: 0 days 0 hours 1 minutes 9 seconds 352 msec
