                         Program Version 5.0.3 -  RELEASE  -
|  1> ! PBEh-3c def2/J TightSCF DefGrid3
|  2>
|  3> %maxcore 60000
|  4>
|  5> %pal
|  6> nprocs 4
|  7> end
|  8>
|  9> *xyzfile 0 1 15.xyz
| 10>
| 11>                          ****END OF INPUT****

CARTESIAN COORDINATES (ANGSTROEM)
---------------------------------
  C     -1.944685    0.374674    1.997887
  H     -2.426478    1.060950    2.689877
  H     -0.893620    0.634980    1.898836
  H     -2.037239   -0.626303    2.415042
  C     -2.691728    0.420425    0.682818
  O     -3.903632    0.236823    0.625349
  N     -1.913238    0.671219   -0.399220
  H     -0.916507    0.787866   -0.267404
  C     -2.470236    0.755096   -1.728964
  H     -3.535206    0.558801   -1.649874
  H     -2.320984    1.745242   -2.157540
  H     -2.019810    0.017303   -2.392370
  C      0.798593   -1.686396    0.277401
  H      1.356818   -2.596399    0.071493
  H     -0.130099   -1.692925   -0.286925
  H      0.539374   -1.662949    1.334342
  C      1.566229   -0.431984   -0.058836
  O      1.021042    0.669453   -0.115808
  N      2.892987   -0.600798   -0.272584
  H      3.269308   -1.528043   -0.195827
  C      3.780225    0.505668   -0.561532
  H      3.166033    1.396478   -0.641356
  H      4.507639    0.645134    0.235871
  H      4.305215    0.345687   -1.500675

 Total Charge           Charge          ....    0
 Multiplicity           Mult            ....    1
 Number of Electrons    NEL             ....   80
 Basis Dimension        Dim             ....  178

ORBITAL ENERGIES
----------------

  NO   OCC          E(Eh)            E(eV)
   0   2.0000     -19.478852      -530.0465
   1   2.0000     -19.425533      -528.5956
   2   2.0000     -14.684449      -399.5842
   3   2.0000     -14.630809      -398.1246
   4   2.0000     -10.569773      -287.6182
   5   2.0000     -10.520813      -286.2859
   6   2.0000     -10.480862      -285.1988
   7   2.0000     -10.456712      -284.5416
   8   2.0000     -10.444354      -284.2053
   9   2.0000     -10.420448      -283.5548
  10   2.0000      -1.162579       -31.6354
  11   2.0000      -1.111196       -30.2372
  12   2.0000      -1.042285       -28.3620
  13   2.0000      -0.992286       -27.0015
  14   2.0000      -0.860510       -23.4157
  15   2.0000      -0.819857       -22.3094
  16   2.0000      -0.787642       -21.4328
  17   2.0000      -0.747380       -20.3372
  18   2.0000      -0.678822       -18.4717
  19   2.0000      -0.626309       -17.0427
  20   2.0000      -0.589122       -16.0308
  21   2.0000      -0.554555       -15.0902
  22   2.0000      -0.548167       -14.9164
  23   2.0000      -0.540982       -14.7209
  24   2.0000      -0.510404       -13.8888
  25   2.0000      -0.501367       -13.6429
  26   2.0000      -0.499401       -13.5894
  27   2.0000      -0.485880       -13.2215
  28   2.0000      -0.471768       -12.8374
  29   2.0000      -0.463956       -12.6249
  30   2.0000      -0.461048       -12.5458
  31   2.0000      -0.441469       -12.0130
  32   2.0000      -0.430778       -11.7221
  33   2.0000      -0.426916       -11.6170
  34   2.0000      -0.419088       -11.4040
  35   2.0000      -0.384478       -10.4622
  36   2.0000      -0.332972        -9.0606
  37   2.0000      -0.324063        -8.8182
  38   2.0000      -0.281519        -7.6605
  39   2.0000      -0.274767        -7.4768
  40   0.0000       0.043696         1.1890
  41   0.0000       0.090563         2.4644
  42   0.0000       0.100353         2.7307
  43   0.0000       0.148342         4.0366
  44   0.0000       0.168656         4.5894

MULLIKEN ATOMIC CHARGES
-----------------------
   0 C :   -0.761863
   1 H :    0.253732
   2 H :    0.225147
   3 H :    0.236495
   4 C :    0.506434
   5 O :   -0.445913
   6 N :   -0.664563
   7 H :    0.412148
   8 C :   -0.492593
   9 H :    0.260236
  10 H :    0.214864
  11 H :    0.203397
  12 C :   -0.759502
  13 H :    0.219109
  14 H :    0.272371
  15 H :    0.262641
  16 C :    0.548713
  17 O :   -0.461053
  18 N :   -0.617556
  19 H :    0.361132
  20 C :   -0.498022
  21 H :    0.272121
  22 H :    0.226433
  23 H :    0.226091
Sum of atomic charges:    0.0000000

LOEWDIN ATOMIC CHARGES
----------------------
   0 C :   -0.395607
   1 H :    0.152316
   2 H :    0.131282
   3 H :    0.145746
   4 C :    0.097829
   5 O :   -0.302114
   6 N :   -0.262327
   7 H :    0.259178
   8 C :   -0.259773
   9 H :    0.150663
  10 H :    0.119020
  11 H :    0.114069
  12 C :   -0.391197
  13 H :    0.130527
  14 H :    0.162153
  15 H :    0.159848
  16 C :    0.117184
  17 O :   -0.297976
  18 N :   -0.236644
  19 H :    0.255430
  20 C :   -0.258826
  21 H :    0.157590
  22 H :    0.125487
  23 H :    0.126142

  Mayer bond orders larger than 0.100000
B(  0-C ,  1-H ) :   0.9142 B(  0-C ,  2-H ) :   0.9103 B(  0-C ,  3-H ) :   0.9171
B(  0-C ,  4-C ) :   0.9246 B(  4-C ,  5-O ) :   1.9821 B(  4-C ,  6-N ) :   1.1700
B(  5-O ,  6-N ) :   0.1014 B(  6-N ,  7-H ) :   0.7178 B(  6-N ,  8-C ) :   0.9678
B(  8-C ,  9-H ) :   0.8990 B(  8-C , 10-H ) :   0.9231 B(  8-C , 11-H ) :   0.9265
B( 12-C , 13-H ) :   0.9175 B( 12-C , 14-H ) :   0.9003 B( 12-C , 15-H ) :   0.9019
B( 12-C , 16-C ) :   0.9370 B( 16-C , 17-O ) :   1.8674 B( 16-C , 18-N ) :   1.1780
B( 18-N , 19-H ) :   0.8256 B( 18-N , 20-C ) :   0.9413 B( 20-C , 21-H ) :   0.8956
B( 20-C , 22-H ) :   0.9190 B( 20-C , 23-H ) :   0.9201

Dispersion correction           -0.011308757
FINAL SINGLE POINT ENERGY      -495.991197904989

DIPOLE MOMENT
-------------
                                X             Y             Z
Electronic contribution:     -3.39064       1.11574       0.60911
Nuclear contribution   :      6.35035      -2.08878      -0.92012
                        -----------------------------------------
Total Dipole Moment    :      2.95971      -0.97304      -0.31102
                        -----------------------------------------
Magnitude (a.u.)       :      3.13105
Magnitude (Debye)      :      7.95849

Rotational constants in cm-1:     0.080165     0.016596     0.015464
Rotational constants in MHz :  2403.271630   497.533755   463.606286

                             ****ORCA TERMINATED NORMALLY****
TOTAL RUN TIME: 0 days 0 hours 2 minutes 16 seconds 990 msec
