                         Program Version 5.0.3 -  RELEASE  -
|  1> ! PBEh-3c def2/J TightSCF DefGrid3
|  2>
|  3> %maxcore 60000
|  4>
|  5> %pal
|  6> nprocs 4
|  7> end
|  8>
|  9> *xyzfile 0 2 t-hooo.xyz
| 10>
| 11>                          ****END OF INPUT****

CARTESIAN COORDINATES (ANGSTROEM)
---------------------------------
  O      1.113767   -0.301280    0.000000
  O      0.195202    0.513719    0.000000
  O     -1.197906   -0.246425    0.000000
  H     -1.763033    0.539486    0.000000

 Total Charge           Charge          ....    0
 Multiplicity           Mult            ....    2
 Number of Electrons    NEL             ....   25
 Basis Dimension        Dim             ....   47

ORBITAL ENERGIES
----------------
                 SPIN UP ORBITALS
  NO   OCC          E(Eh)            E(eV)
   0   1.0000     -19.706153      -536.2317
   1   1.0000     -19.618949      -533.8588
   2   1.0000     -19.556375      -532.1560
   3   1.0000      -1.418231       -38.5920
   4   1.0000      -1.127334       -30.6763
   5   1.0000      -0.917335       -24.9620
   6   1.0000      -0.645047       -17.5526
   7   1.0000      -0.644232       -17.5304
   8   1.0000      -0.616567       -16.7776
   9   1.0000      -0.506546       -13.7838
  10   1.0000      -0.423487       -11.5237
  11   1.0000      -0.375977       -10.2308
  12   1.0000      -0.351898        -9.5756
  13   0.0000      -0.029478        -0.8021
  14   0.0000       0.132233         3.5982
  15   0.0000       0.244562         6.6549
  16   0.0000       0.786620        21.4050
  17   0.0000       0.838144        22.8071

                 SPIN DOWN ORBITALS
  NO   OCC          E(Eh)            E(eV)
   0   1.0000     -19.689085      -535.7673
   1   1.0000     -19.595140      -533.2109
   2   1.0000     -19.561483      -532.2950
   3   1.0000      -1.377932       -37.4954
   4   1.0000      -1.132308       -30.8117
   5   1.0000      -0.861893       -23.4533
   6   1.0000      -0.626241       -17.0409
   7   1.0000      -0.592664       -16.1272
   8   1.0000      -0.536445       -14.5974
   9   1.0000      -0.501297       -13.6410
  10   1.0000      -0.388173       -10.5627
  11   1.0000      -0.359465        -9.7815
  12   0.0000      -0.068947        -1.8761
  13   0.0000      -0.025105        -0.6831
  14   0.0000       0.130631         3.5546
  15   0.0000       0.274681         7.4745
  16   0.0000       0.796405        21.6713

MULLIKEN ATOMIC CHARGES AND SPIN POPULATIONS
--------------------------------------------
   0 O :   -0.052646    0.721343
   1 O :    0.069528    0.450464
   2 O :   -0.448721   -0.174887
   3 H :    0.431838    0.003080
Sum of atomic charges         :   -0.0000000

LOEWDIN ATOMIC CHARGES AND SPIN POPULATIONS
-------------------------------------------
   0 O :   -0.062432    0.704048
   1 O :    0.095771    0.449986
   2 O :   -0.334262   -0.156077
   3 H :    0.300923    0.002043

  Mayer bond orders larger than 0.100000
B(  0-O ,  1-O ) :   1.5969 B(  0-O ,  2-O ) :   0.1854 B(  1-O ,  2-O ) :   0.8016
B(  2-O ,  3-H ) :   0.7818

Dispersion correction           -0.000585278
FINAL SINGLE POINT ENERGY      -225.574608628103

DIPOLE MOMENT
-------------
                                X             Y             Z
Electronic contribution:      1.16359       0.15830      -0.00000
Nuclear contribution   :     -1.65239       0.50563       0.00000
                        -----------------------------------------
Total Dipole Moment    :     -0.48880       0.66393      -0.00000
                        -----------------------------------------
Magnitude (a.u.)       :      0.82445
Magnitude (Debye)      :      2.09559

Rotational constants in cm-1:     2.429270     0.362161     0.315174
Rotational constants in MHz : 72827.676651 10857.310637  9448.680510

                             ****ORCA TERMINATED NORMALLY****
TOTAL RUN TIME: 0 days 0 hours 1 minutes 33 seconds 123 msec
