                         Program Version 5.0.3 -  RELEASE  -
|  1> ! PBEh-3c def2/J TightSCF DefGrid3
|  2>
|  3> %maxcore 60000
|  4>
|  5> %pal
|  6> nprocs 4
|  7> end
|  8>
|  9> *xyzfile 1 1 c2h2p.xyz
| 10>
| 11>                          ****END OF INPUT****

CARTESIAN COORDINATES (ANGSTROEM)
---------------------------------
  C      0.609408    0.000000    0.222687
  H      1.688661    0.000000    0.233552
  C     -0.609408    0.000000    0.222687
  H     -1.688661    0.000000    0.233552
  H      0.000000    0.000000   -0.912477

 Total Charge           Charge          ....    1
 Multiplicity           Mult            ....    1
 Number of Electrons    NEL             ....   14
 Basis Dimension        Dim             ....   36

ORBITAL ENERGIES
----------------

  NO   OCC          E(Eh)            E(eV)
   0   2.0000     -10.817723      -294.3652
   1   2.0000     -10.815427      -294.3027
   2   2.0000      -1.252712       -34.0880
   3   2.0000      -0.945297       -25.7228
   4   2.0000      -0.877118       -23.8676
   5   2.0000      -0.794157       -21.6101
   6   2.0000      -0.676359       -18.4047
   7   0.0000      -0.269283        -7.3276
   8   0.0000      -0.241287        -6.5657
   9   0.0000      -0.183793        -5.0013
  10   0.0000      -0.114642        -3.1196
  11   0.0000      -0.040749        -1.1088

MULLIKEN ATOMIC CHARGES
-----------------------
   0 C :   -0.053364
   1 H :    0.362159
   2 C :   -0.053364
   3 H :    0.362159
   4 H :    0.382409
Sum of atomic charges:    1.0000000

LOEWDIN ATOMIC CHARGES
----------------------
   0 C :    0.063189
   1 H :    0.256063
   2 C :    0.063189
   3 H :    0.256063
   4 H :    0.361496

  Mayer bond orders larger than 0.100000
B(  0-C ,  1-H ) :   0.8796 B(  0-C ,  2-C ) :   2.1157 B(  0-C ,  4-H ) :   0.4122
B(  2-C ,  3-H ) :   0.8796 B(  2-C ,  4-H ) :   0.4122

Dispersion correction           -0.000956785
FINAL SINGLE POINT ENERGY       -77.391684960545

DIPOLE MOMENT
-------------
                                X             Y             Z
Electronic contribution:     -0.00000       0.00000       0.41035
Nuclear contribution   :      0.00000       0.00000      -0.92780
                        -----------------------------------------
Total Dipole Moment    :     -0.00000       0.00000      -0.51745
                        -----------------------------------------
Magnitude (a.u.)       :      0.51745
Magnitude (Debye)      :      1.31525

Rotational constants in cm-1:    13.458450     1.149121     1.058724
Rotational constants in MHz : 403474.174218 34449.772737 31739.743176

                             ****ORCA TERMINATED NORMALLY****
TOTAL RUN TIME: 0 days 0 hours 0 minutes 51 seconds 459 msec
