                         Program Version 5.0.3 -  RELEASE  -
|  1> ! PBEh-3c def2/J TightSCF DefGrid3
|  2>
|  3> %maxcore 60000
|  4>
|  5> %pal
|  6> nprocs 4
|  7> end
|  8>
|  9> *xyzfile 0 1 B40.xyz
| 10>
| 11>                          ****END OF INPUT****

CARTESIAN COORDINATES (ANGSTROEM)
---------------------------------
  C      1.875584    0.130736   -0.320560
  H      2.887453    0.457043   -0.062802
  O      1.653218   -1.200371    0.149911
  C      0.864089    1.055568    0.334537
  H      0.908299    0.900587    1.415373
  H      1.190796    2.081398    0.148883
  C     -0.575347    0.908472   -0.164542
  H     -0.605995    1.026631   -1.250400
  H     -1.180538    1.714275    0.255569
  H      2.296367   -1.773225   -0.275450
  H      1.770789    0.178953   -1.409930
  C     -1.249973   -0.401478    0.206657
  H     -0.779210   -1.238776   -0.307475
  H     -1.152855   -0.573277    1.283700
  O     -2.625204   -0.275695   -0.165482
  H     -3.045336   -1.124863   -0.009459

 Total Charge           Charge          ....    0
 Multiplicity           Mult            ....    1
 Number of Electrons    NEL             ....   50
 Basis Dimension        Dim             ....  110

ORBITAL ENERGIES
----------------

  NO   OCC          E(Eh)            E(eV)
   0   2.0000     -19.487548      -530.2831
   1   2.0000     -19.471190      -529.8380
   2   2.0000     -10.482206      -285.2353
   3   2.0000     -10.463787      -284.7341
   4   2.0000     -10.431989      -283.8689
   5   2.0000     -10.422905      -283.6217
   6   2.0000      -1.122964       -30.5574
   7   2.0000      -1.106686       -30.1145
   8   2.0000      -0.877550       -23.8794
   9   2.0000      -0.791654       -21.5420
  10   2.0000      -0.700180       -19.0529
  11   2.0000      -0.638524       -17.3751
  12   2.0000      -0.583021       -15.8648
  13   2.0000      -0.561310       -15.2740
  14   2.0000      -0.529554       -14.4099
  15   2.0000      -0.503043       -13.6885
  16   2.0000      -0.472233       -12.8501
  17   2.0000      -0.457838       -12.4584
  18   2.0000      -0.421502       -11.4696
  19   2.0000      -0.410165       -11.1612
  20   2.0000      -0.392222       -10.6729
  21   2.0000      -0.372450       -10.1349
  22   2.0000      -0.360008        -9.7963
  23   2.0000      -0.328958        -8.9514
  24   2.0000      -0.309394        -8.4190
  25   0.0000       0.123598         3.3633
  26   0.0000       0.141303         3.8450
  27   0.0000       0.158776         4.3205
  28   0.0000       0.190577         5.1859
  29   0.0000       0.204454         5.5635

MULLIKEN ATOMIC CHARGES
-----------------------
   0 C :   -0.151902
   1 H :    0.189510
   2 O :   -0.632018
   3 C :   -0.455573
   4 H :    0.225323
   5 H :    0.218835
   6 C :   -0.443571
   7 H :    0.212612
   8 H :    0.230311
   9 H :    0.417453
  10 H :    0.178255
  11 C :   -0.138425
  12 H :    0.198873
  13 H :    0.174546
  14 O :   -0.636780
  15 H :    0.412551
Sum of atomic charges:   -0.0000000

LOEWDIN ATOMIC CHARGES
----------------------
   0 C :   -0.092105
   1 H :    0.100905
   2 O :   -0.419167
   3 C :   -0.253353
   4 H :    0.130966
   5 H :    0.130017
   6 C :   -0.249799
   7 H :    0.124728
   8 H :    0.132708
   9 H :    0.308337
  10 H :    0.097358
  11 C :   -0.096350
  12 H :    0.107044
  13 H :    0.096723
  14 O :   -0.423681
  15 H :    0.305669

  Mayer bond orders larger than 0.100000
B(  0-C ,  1-H ) :   0.9112 B(  0-C ,  2-O ) :   1.0028 B(  0-C ,  3-C ) :   0.9788
B(  0-C , 10-H ) :   0.9056 B(  2-O ,  9-H ) :   0.7926 B(  3-C ,  4-H ) :   0.9086
B(  3-C ,  5-H ) :   0.9213 B(  3-C ,  6-C ) :   0.9808 B(  6-C ,  7-H ) :   0.9165
B(  6-C ,  8-H ) :   0.9140 B(  6-C , 11-C ) :   0.9891 B( 11-C , 12-H ) :   0.8982
B( 11-C , 13-H ) :   0.9091 B( 11-C , 14-O ) :   1.0043 B( 14-O , 15-H ) :   0.7969

Dispersion correction           -0.006577022
FINAL SINGLE POINT ENERGY      -308.204877220533

DIPOLE MOMENT
-------------
                                X             Y             Z
Electronic contribution:     -1.57859      -2.11034       0.02812
Nuclear contribution   :      2.36989       1.69368      -0.22114
                        -----------------------------------------
Total Dipole Moment    :      0.79130      -0.41666      -0.19302
                        -----------------------------------------
Magnitude (a.u.)       :      0.91488
Magnitude (Debye)      :      2.32545

Rotational constants in cm-1:     0.218623     0.062000     0.051775
Rotational constants in MHz :  6554.166574  1858.715444  1552.173936

                             ****ORCA TERMINATED NORMALLY****
TOTAL RUN TIME: 0 days 0 hours 1 minutes 30 seconds 943 msec
