                         Program Version 5.0.3 -  RELEASE  -
|  1> ! PBEh-3c def2/J TightSCF DefGrid3
|  2>
|  3> %maxcore 60000
|  4>
|  5> %pal
|  6> nprocs 4
|  7> end
|  8>
|  9> *xyzfile 0 1 bifuran_TS.xyz
| 10>
| 11>                          ****END OF INPUT****

CARTESIAN COORDINATES (ANGSTROEM)
---------------------------------
  O      1.297484    1.007403   -0.749826
  C      0.722512    0.039569    0.017277
  C     -0.722512   -0.039569    0.017277
  O     -1.297484   -1.007403   -0.749826
  C     -2.629948   -0.869160   -0.618232
  C     -2.932387    0.165340    0.195864
  C     -1.687518    0.709434    0.614540
  H     -1.521557    1.543723    1.268582
  H     -3.915859    0.497327    0.467519
  H     -3.225020   -1.575341   -1.162741
  C      2.629948    0.869160   -0.618232
  C      2.932387   -0.165340    0.195864
  C      1.687518   -0.709434    0.614540
  H      3.225020    1.575341   -1.162741
  H      3.915859   -0.497327    0.467519
  H      1.521557   -1.543723    1.268582

 Total Charge           Charge          ....    0
 Multiplicity           Mult            ....    1
 Number of Electrons    NEL             ....   70
 Basis Dimension        Dim             ....  162

ORBITAL ENERGIES
----------------

  NO   OCC          E(Eh)            E(eV)
   0   2.0000     -19.569707      -532.5188
   1   2.0000     -19.569704      -532.5187
   2   2.0000     -10.504546      -285.8432
   3   2.0000     -10.504204      -285.8339
   4   2.0000     -10.496868      -285.6343
   5   2.0000     -10.496848      -285.6338
   6   2.0000     -10.447763      -284.2981
   7   2.0000     -10.447722      -284.2970
   8   2.0000     -10.444114      -284.1988
   9   2.0000     -10.444111      -284.1987
  10   2.0000      -1.239023       -33.7155
  11   2.0000      -1.230891       -33.4942
  12   2.0000      -0.905323       -24.6351
  13   2.0000      -0.901696       -24.5364
  14   2.0000      -0.881165       -23.9777
  15   2.0000      -0.809832       -22.0367
  16   2.0000      -0.686070       -18.6689
  17   2.0000      -0.684474       -18.6255
  18   2.0000      -0.672203       -18.2916
  19   2.0000      -0.628902       -17.1133
  20   2.0000      -0.622344       -16.9348
  21   2.0000      -0.572697       -15.5839
  22   2.0000      -0.530270       -14.4294
  23   2.0000      -0.522619       -14.2212
  24   2.0000      -0.507219       -13.8021
  25   2.0000      -0.484350       -13.1798
  26   2.0000      -0.469434       -12.7739
  27   2.0000      -0.465215       -12.6592
  28   2.0000      -0.460040       -12.5183
  29   2.0000      -0.443592       -12.0708
  30   2.0000      -0.433312       -11.7910
  31   2.0000      -0.334706        -9.1078
  32   2.0000      -0.330025        -8.9804
  33   2.0000      -0.284483        -7.7412
  34   2.0000      -0.265885        -7.2351
  35   0.0000       0.022482         0.6118
  36   0.0000       0.038226         1.0402
  37   0.0000       0.090375         2.4592
  38   0.0000       0.100245         2.7278
  39   0.0000       0.174637         4.7521

MULLIKEN ATOMIC CHARGES
-----------------------
   0 O :   -0.385709
   1 C :    0.291739
   2 C :    0.291739
   3 O :   -0.385709
   4 C :    0.023836
   5 C :   -0.292388
   6 C :   -0.327812
   7 H :    0.228647
   8 H :    0.226931
   9 H :    0.234756
  10 C :    0.023836
  11 C :   -0.292388
  12 C :   -0.327812
  13 H :    0.234756
  14 H :    0.226931
  15 H :    0.228647
Sum of atomic charges:   -0.0000000

LOEWDIN ATOMIC CHARGES
----------------------
   0 O :   -0.060423
   1 C :    0.024974
   2 C :    0.024974
   3 O :   -0.060423
   4 C :   -0.034933
   5 C :   -0.195626
   6 C :   -0.164448
   7 H :    0.148141
   8 H :    0.144398
   9 H :    0.137917
  10 C :   -0.034933
  11 C :   -0.195626
  12 C :   -0.164448
  13 H :    0.137917
  14 H :    0.144398
  15 H :    0.148141

  Mayer bond orders larger than 0.100000
B(  0-O ,  1-C ) :   1.0713 B(  0-O , 10-C ) :   1.1249 B(  1-C ,  2-C ) :   0.9623
B(  1-C , 12-C ) :   1.5673 B(  2-C ,  3-O ) :   1.0713 B(  2-C ,  6-C ) :   1.5673
B(  3-O ,  4-C ) :   1.1249 B(  4-C ,  5-C ) :   1.6178 B(  4-C ,  9-H ) :   0.9163
B(  5-C ,  6-C ) :   1.2864 B(  5-C ,  8-H ) :   0.9209 B(  6-C ,  7-H ) :   0.9279
B( 10-C , 11-C ) :   1.6178 B( 10-C , 13-H ) :   0.9163 B( 11-C , 12-C ) :   1.2864
B( 11-C , 14-H ) :   0.9209 B( 12-C , 15-H ) :   0.9279

Dispersion correction           -0.008288994
FINAL SINGLE POINT ENERGY      -457.861358574636

DIPOLE MOMENT
-------------
                                X             Y             Z
Electronic contribution:     -0.00000       0.00000      -1.55321
Nuclear contribution   :     -0.00000       0.00000       1.80480
                        -----------------------------------------
Total Dipole Moment    :     -0.00000       0.00000       0.25159
                        -----------------------------------------
Magnitude (a.u.)       :      0.25159
Magnitude (Debye)      :      0.63949

Rotational constants in cm-1:     0.156052     0.027536     0.026431
Rotational constants in MHz :  4678.309526   825.510603   792.393109

                             ****ORCA TERMINATED NORMALLY****
TOTAL RUN TIME: 0 days 0 hours 2 minutes 3 seconds 548 msec
