                         Program Version 5.0.3 -  RELEASE  -
|  1> ! PBEh-3c def2/J TightSCF DefGrid3
|  2>
|  3> %maxcore 60000
|  4>
|  5> %pal
|  6> nprocs 4
|  7> end
|  8>
|  9> *xyzfile 0 1 OS_C2H5_2.xyz
| 10>
| 11>                          ****END OF INPUT****

CARTESIAN COORDINATES (ANGSTROEM)
---------------------------------
  C      1.391767   -0.407240    0.115853
  H      1.600022    0.205305   -0.774514
  H      1.682559    0.154152    1.017760
  C      2.073051   -1.768672    0.037543
  H      1.711299   -2.329766   -0.834438
  H      3.160702   -1.645913   -0.060838
  H      1.878874   -2.368263    0.938107
  C     -0.847388    1.176943    0.131296
  H     -0.329905    1.588595   -0.748472
  H     -0.427089    1.628470    1.043494
  C     -2.357540    1.361927    0.036937
  H     -2.867696    0.968070    0.927514
  H     -2.606601    2.428440   -0.053911
  H     -2.753234    0.841010   -0.845098
  S     -0.438968   -0.620593    0.191948
  O     -0.869854   -1.212466   -1.123182

 Total Charge           Charge          ....    0
 Multiplicity           Mult            ....    1
 Number of Electrons    NEL             ....   58
 Basis Dimension        Dim             ....  113

ORBITAL ENERGIES
----------------

  NO   OCC          E(Eh)            E(eV)
   0   2.0000     -89.684409     -2440.4368
   1   2.0000     -19.435873      -528.8770
   2   2.0000     -10.473915      -285.0097
   3   2.0000     -10.473780      -285.0060
   4   2.0000     -10.443470      -284.1813
   5   2.0000     -10.443140      -284.1723
   6   2.0000      -8.309911      -226.1242
   7   2.0000      -6.200351      -168.7201
   8   2.0000      -6.199451      -168.6956
   9   2.0000      -6.194006      -168.5475
  10   2.0000      -1.099495       -29.9188
  11   2.0000      -0.896779       -24.4026
  12   2.0000      -0.865026       -23.5386
  13   2.0000      -0.771863       -21.0035
  14   2.0000      -0.697718       -18.9859
  15   2.0000      -0.652550       -17.7568
  16   2.0000      -0.541728       -14.7412
  17   2.0000      -0.536948       -14.6111
  18   2.0000      -0.517873       -14.0920
  19   2.0000      -0.480273       -13.0689
  20   2.0000      -0.477928       -13.0051
  21   2.0000      -0.439096       -11.9484
  22   2.0000      -0.433045       -11.7838
  23   2.0000      -0.426616       -11.6088
  24   2.0000      -0.415500       -11.3063
  25   2.0000      -0.411715       -11.2033
  26   2.0000      -0.395914       -10.7734
  27   2.0000      -0.305611        -8.3161
  28   2.0000      -0.265372        -7.2211
  29   0.0000       0.070735         1.9248
  30   0.0000       0.089988         2.4487
  31   0.0000       0.120636         3.2827
  32   0.0000       0.136220         3.7067
  33   0.0000       0.161673         4.3993

MULLIKEN ATOMIC CHARGES
-----------------------
   0 C :   -0.569155
   1 H :    0.257682
   2 H :    0.233114
   3 C :   -0.646197
   4 H :    0.256696
   5 H :    0.232383
   6 H :    0.225390
   7 C :   -0.569071
   8 H :    0.256978
   9 H :    0.233349
  10 C :   -0.646483
  11 H :    0.225252
  12 H :    0.232201
  13 H :    0.257521
  14 S :    0.722508
  15 O :   -0.702168
Sum of atomic charges:    0.0000000

LOEWDIN ATOMIC CHARGES
----------------------
   0 C :   -0.368442
   1 H :    0.137425
   2 H :    0.130963
   3 C :   -0.378721
   4 H :    0.147269
   5 H :    0.136809
   6 H :    0.132296
   7 C :   -0.368392
   8 H :    0.137171
   9 H :    0.130920
  10 C :   -0.378860
  11 H :    0.132266
  12 H :    0.136690
  13 H :    0.147663
  14 S :    0.786228
  15 O :   -0.661285

  Mayer bond orders larger than 0.100000
B(  0-C ,  1-H ) :   0.8871 B(  0-C ,  2-H ) :   0.8889 B(  0-C ,  3-C ) :   0.9704
B(  0-C , 14-S ) :   0.8830 B(  3-C ,  4-H ) :   0.9064 B(  3-C ,  5-H ) :   0.9231
B(  3-C ,  6-H ) :   0.9243 B(  7-C ,  8-H ) :   0.8875 B(  7-C ,  9-H ) :   0.8890
B(  7-C , 10-C ) :   0.9702 B(  7-C , 14-S ) :   0.8829 B( 10-C , 11-H ) :   0.9242
B( 10-C , 12-H ) :   0.9231 B( 10-C , 13-H ) :   0.9058 B( 14-S , 15-O ) :   1.5107

Dispersion correction           -0.007461874
FINAL SINGLE POINT ENERGY      -630.867091768370

DIPOLE MOMENT
-------------
                                X             Y             Z
Electronic contribution:     -2.35917      -3.32087      -0.32436
Nuclear contribution   :      3.08458       4.33053       1.19715
                        -----------------------------------------
Total Dipole Moment    :      0.72541       1.00966       0.87278
                        -----------------------------------------
Magnitude (a.u.)       :      1.51901
Magnitude (Debye)      :      3.86101

Rotational constants in cm-1:     0.207404     0.055934     0.048091
Rotational constants in MHz :  6217.805950  1676.864249  1441.743470

                             ****ORCA TERMINATED NORMALLY****
TOTAL RUN TIME: 0 days 0 hours 1 minutes 36 seconds 903 msec
