                         Program Version 5.0.3 -  RELEASE  -
|  1> ! PBEh-3c def2/J TightSCF DefGrid3
|  2>
|  3> %maxcore 60000
|  4>
|  5> %pal
|  6> nprocs 4
|  7> end
|  8>
|  9> *xyzfile 0 1 3b.xyz
| 10>
| 11>                          ****END OF INPUT****

CARTESIAN COORDINATES (ANGSTROEM)
---------------------------------
  P     -0.131244   -1.839958   -0.000008
  F     -1.171061   -1.803348    1.188638
  F     -1.171132   -1.803321   -1.188591
  F      0.131244   -3.396533   -0.000034

 Total Charge           Charge          ....    0
 Multiplicity           Mult            ....    1
 Number of Electrons    NEL             ....   42
 Basis Dimension        Dim             ....   63

ORBITAL ENERGIES
----------------

  NO   OCC          E(Eh)            E(eV)
   0   2.0000     -77.925295     -2120.4551
   1   2.0000     -25.131561      -683.8645
   2   2.0000     -25.131185      -683.8543
   3   2.0000     -25.131155      -683.8535
   4   2.0000      -6.973354      -189.7546
   5   2.0000      -5.065159      -137.8300
   6   2.0000      -5.065149      -137.8297
   7   2.0000      -5.060977      -137.7162
   8   2.0000      -1.399105       -38.0716
   9   2.0000      -1.345745       -36.6196
  10   2.0000      -1.345347       -36.6088
  11   2.0000      -0.749001       -20.3814
  12   2.0000      -0.629446       -17.1281
  13   2.0000      -0.629314       -17.1245
  14   2.0000      -0.598563       -16.2877
  15   2.0000      -0.555557       -15.1175
  16   2.0000      -0.555488       -15.1156
  17   2.0000      -0.515345       -14.0232
  18   2.0000      -0.515150       -14.0180
  19   2.0000      -0.501809       -13.6549
  20   2.0000      -0.370121       -10.0715
  21   0.0000       0.040100         1.0912
  22   0.0000       0.040182         1.0934
  23   0.0000       0.175348         4.7715
  24   0.0000       0.275964         7.5094
  25   0.0000       0.474668        12.9164

MULLIKEN ATOMIC CHARGES
-----------------------
   0 P :    1.267167
   1 F :   -0.422549
   2 F :   -0.422549
   3 F :   -0.422069
Sum of atomic charges:    0.0000000

LOEWDIN ATOMIC CHARGES
----------------------
   0 P :    0.844810
   1 F :   -0.281862
   2 F :   -0.281862
   3 F :   -0.281085

  Mayer bond orders larger than 0.100000
B(  0-P ,  1-F ) :   0.9145 B(  0-P ,  2-F ) :   0.9145 B(  0-P ,  3-F ) :   0.9153

Dispersion correction           -0.000872881
FINAL SINGLE POINT ENERGY      -640.007944288314

DIPOLE MOMENT
-------------
                                X             Y             Z
Electronic contribution:      0.08489       0.06666      -0.00000
Nuclear contribution   :      0.24219       0.19769      -0.00000
                        -----------------------------------------
Total Dipole Moment    :      0.32708       0.26435      -0.00001
                        -----------------------------------------
Magnitude (a.u.)       :      0.42055
Magnitude (Debye)      :      1.06895

Rotational constants in cm-1:     0.255810     0.255611     0.157092
Rotational constants in MHz :  7668.988033  7663.037368  4709.499273

                             ****ORCA TERMINATED NORMALLY****
TOTAL RUN TIME: 0 days 0 hours 0 minutes 57 seconds 282 msec
