                         Program Version 5.0.3 -  RELEASE  -
|  1> ! PBEh-3c def2/J TightSCF DefGrid3
|  2>
|  3> %maxcore 60000
|  4>
|  5> %pal
|  6> nprocs 4
|  7> end
|  8>
|  9> *xyzfile 0 1 62.xyz
| 10>
| 11>                          ****END OF INPUT****

CARTESIAN COORDINATES (ANGSTROEM)
---------------------------------
  C     -2.495848   -0.142611   -1.369069
  H     -2.518461   -0.695871   -2.308146
  H     -2.567816   -0.871391   -0.560813
  H     -3.384107    0.486120   -1.329566
  C     -1.217631    0.677889   -1.253464
  H     -1.225322    1.263757   -0.332186
  H     -1.170448    1.396069   -2.075303
  C      0.035098   -0.187765   -1.280087
  H      0.005753   -0.892864   -0.442652
  H      0.038119   -0.796348   -2.190001
  C      1.323524    0.620561   -1.206495
  H      1.305211    1.234057   -0.303934
  H      1.358225    1.311872   -2.051633
  C      2.564503   -0.262649   -1.219306
  H      2.612647   -0.854768   -2.133424
  H      3.479662    0.324585   -1.154618
  H      2.551225   -0.958869   -0.379909
  C      0.134090    0.381737    2.277981
  O      0.161003    1.566811    1.986140
  N      1.266671   -0.370140    2.380801
  H      2.137611    0.052440    2.112139
  H      1.227733   -1.362027    2.512224
  C     -1.156130   -0.357200    2.542435
  H     -1.008881   -1.317921    3.029559
  H     -1.662358   -0.515509    1.591621
  H     -1.794074    0.270036    3.157707

 Total Charge           Charge          ....    0
 Multiplicity           Mult            ....    1
 Number of Electrons    NEL             ....   74
 Basis Dimension        Dim             ....  169

ORBITAL ENERGIES
----------------

  NO   OCC          E(Eh)            E(eV)
   0   2.0000     -19.456396      -529.4355
   1   2.0000     -14.659439      -398.9036
   2   2.0000     -10.553137      -287.1655
   3   2.0000     -10.443543      -284.1833
   4   2.0000     -10.421299      -283.5780
   5   2.0000     -10.418957      -283.5142
   6   2.0000     -10.418780      -283.5094
   7   2.0000     -10.418535      -283.5027
   8   2.0000     -10.417388      -283.4715
   9   2.0000      -1.142027       -31.0761
  10   2.0000      -1.006372       -27.3848
  11   2.0000      -0.888222       -24.1697
  12   2.0000      -0.833908       -22.6918
  13   2.0000      -0.829904       -22.5828
  14   2.0000      -0.752382       -20.4734
  15   2.0000      -0.666654       -18.1406
  16   2.0000      -0.664226       -18.0745
  17   2.0000      -0.638873       -17.3846
  18   2.0000      -0.610514       -16.6129
  19   2.0000      -0.538987       -14.6666
  20   2.0000      -0.537174       -14.6172
  21   2.0000      -0.504907       -13.7392
  22   2.0000      -0.491329       -13.3697
  23   2.0000      -0.485610       -13.2141
  24   2.0000      -0.465957       -12.6793
  25   2.0000      -0.459676       -12.5084
  26   2.0000      -0.453980       -12.3534
  27   2.0000      -0.445839       -12.1319
  28   2.0000      -0.429136       -11.6774
  29   2.0000      -0.421552       -11.4710
  30   2.0000      -0.398301       -10.8383
  31   2.0000      -0.377706       -10.2779
  32   2.0000      -0.367794       -10.0082
  33   2.0000      -0.361630        -9.8404
  34   2.0000      -0.357301        -9.7227
  35   2.0000      -0.321292        -8.7428
  36   2.0000      -0.309237        -8.4148
  37   0.0000       0.059551         1.6205
  38   0.0000       0.099801         2.7157
  39   0.0000       0.130494         3.5509
  40   0.0000       0.148877         4.0511
  41   0.0000       0.170263         4.6331

MULLIKEN ATOMIC CHARGES
-----------------------
   0 C :   -0.643282
   1 H :    0.209738
   2 H :    0.196475
   3 H :    0.221114
   4 C :   -0.431620
   5 H :    0.236941
   6 H :    0.207344
   7 C :   -0.389318
   8 H :    0.179384
   9 H :    0.198970
  10 C :   -0.428463
  11 H :    0.239592
  12 H :    0.205391
  13 C :   -0.642583
  14 H :    0.210297
  15 H :    0.217593
  16 H :    0.188689
  17 C :    0.515436
  18 O :   -0.422477
  19 N :   -0.794340
  20 H :    0.376954
  21 H :    0.362121
  22 C :   -0.758370
  23 H :    0.212903
  24 H :    0.265465
  25 H :    0.266048
Sum of atomic charges:   -0.0000000

LOEWDIN ATOMIC CHARGES
----------------------
   0 C :   -0.361700
   1 H :    0.122531
   2 H :    0.114422
   3 H :    0.126830
   4 C :   -0.252298
   5 H :    0.132331
   6 H :    0.120544
   7 C :   -0.239035
   8 H :    0.108670
   9 H :    0.115604
  10 C :   -0.251938
  11 H :    0.132926
  12 H :    0.119594
  13 C :   -0.363612
  14 H :    0.122860
  15 H :    0.124686
  16 H :    0.112982
  17 C :    0.102112
  18 O :   -0.274905
  19 N :   -0.373669
  20 H :    0.259849
  21 H :    0.251781
  22 C :   -0.393623
  23 H :    0.127989
  24 H :    0.156296
  25 H :    0.158774

  Mayer bond orders larger than 0.100000
B(  0-C ,  1-H ) :   0.9291 B(  0-C ,  2-H ) :   0.9280 B(  0-C ,  3-H ) :   0.9321
B(  0-C ,  4-C ) :   0.9927 B(  4-C ,  5-H ) :   0.9006 B(  4-C ,  6-H ) :   0.9206
B(  4-C ,  7-C ) :   0.9903 B(  7-C ,  8-H ) :   0.9191 B(  7-C ,  9-H ) :   0.9199
B(  7-C , 10-C ) :   0.9908 B( 10-C , 11-H ) :   0.8963 B( 10-C , 12-H ) :   0.9205
B( 10-C , 13-C ) :   0.9933 B( 13-C , 14-H ) :   0.9298 B( 13-C , 15-H ) :   0.9331
B( 13-C , 16-H ) :   0.9324 B( 17-C , 18-O ) :   1.9911 B( 17-C , 19-N ) :   1.1417
B( 17-C , 22-C ) :   0.9283 B( 19-N , 20-H ) :   0.8213 B( 19-N , 21-H ) :   0.8309
B( 22-C , 23-H ) :   0.9207 B( 22-C , 24-H ) :   0.8933 B( 22-C , 25-H ) :   0.9105

Dispersion correction           -0.012991763
FINAL SINGLE POINT ENERGY      -406.106965278293

DIPOLE MOMENT
-------------
                                X             Y             Z
Electronic contribution:      2.02801       3.70236       8.29650
Nuclear contribution   :     -1.77761      -5.03679      -8.01026
                        -----------------------------------------
Total Dipole Moment    :      0.25040      -1.33443       0.28624
                        -----------------------------------------
Magnitude (a.u.)       :      1.38756
Magnitude (Debye)      :      3.52690

Rotational constants in cm-1:     0.046075     0.034314     0.023239
Rotational constants in MHz :  1381.301845  1028.708595   696.680402

                             ****ORCA TERMINATED NORMALLY****
TOTAL RUN TIME: 0 days 0 hours 2 minutes 12 seconds 899 msec
