                         Program Version 5.0.3 -  RELEASE  -
|  1> ! PBEh-3c def2/J TightSCF DefGrid3
|  2>
|  3> %maxcore 60000
|  4>
|  5> %pal
|  6> nprocs 4
|  7> end
|  8>
|  9> *xyzfile 0 1 h6.xyz
| 10>
| 11>                          ****END OF INPUT****

CARTESIAN COORDINATES (ANGSTROEM)
---------------------------------
  C      0.000000   -3.804561   -0.336890
  C      0.000000   -2.543292    0.516985
  C      0.000000   -1.271010   -0.320061
  C      0.000000    0.000000    0.518549
  C      0.000000    1.271010   -0.320061
  C      0.000000    2.543292    0.516985
  C      0.000000    3.804561   -0.336890
  H      0.879648   -3.836482   -0.979549
  H      0.000000   -4.705431    0.274712
  H     -0.879648   -3.836482   -0.979549
  H      0.874533   -2.540699    1.171437
  H     -0.874533   -2.540699    1.171437
  H      0.875324   -1.271323   -0.976040
  H     -0.875324   -1.271323   -0.976040
  H      0.875452    0.000000    1.174285
  H     -0.875452    0.000000    1.174285
  H      0.875324    1.271323   -0.976040
  H     -0.875324    1.271323   -0.976040
  H      0.874533    2.540699    1.171437
  H     -0.874533    2.540699    1.171437
  H      0.879648    3.836482   -0.979549
  H      0.000000    4.705431    0.274712
  H     -0.879648    3.836482   -0.979549

 Total Charge           Charge          ....    0
 Multiplicity           Mult            ....    1
 Number of Electrons    NEL             ....   58
 Basis Dimension        Dim             ....  137

ORBITAL ENERGIES
----------------

  NO   OCC          E(Eh)            E(eV)
   0   2.0000     -10.426544      -283.7207
   1   2.0000     -10.426535      -283.7205
   2   2.0000     -10.424835      -283.6742
   3   2.0000     -10.424649      -283.6691
   4   2.0000     -10.424496      -283.6650
   5   2.0000     -10.418616      -283.5050
   6   2.0000     -10.418610      -283.5048
   7   2.0000      -0.901350       -24.5270
   8   2.0000      -0.868801       -23.6413
   9   2.0000      -0.817015       -22.2321
  10   2.0000      -0.751770       -20.4567
  11   2.0000      -0.684335       -18.6217
  12   2.0000      -0.645045       -17.5526
  13   2.0000      -0.643763       -17.5177
  14   2.0000      -0.543513       -14.7898
  15   2.0000      -0.514568       -14.0021
  16   2.0000      -0.490091       -13.3360
  17   2.0000      -0.482505       -13.1296
  18   2.0000      -0.472011       -12.8441
  19   2.0000      -0.453877       -12.3506
  20   2.0000      -0.425822       -11.5872
  21   2.0000      -0.421178       -11.4608
  22   2.0000      -0.408498       -11.1158
  23   2.0000      -0.388675       -10.5764
  24   2.0000      -0.383273       -10.4294
  25   2.0000      -0.369530       -10.0554
  26   2.0000      -0.369062       -10.0427
  27   2.0000      -0.365028        -9.9329
  28   2.0000      -0.349337        -9.5059
  29   0.0000       0.133246         3.6258
  30   0.0000       0.146640         3.9903
  31   0.0000       0.163572         4.4510
  32   0.0000       0.176135         4.7929
  33   0.0000       0.184931         5.0322

MULLIKEN ATOMIC CHARGES
-----------------------
   0 C :   -0.639331
   1 C :   -0.410334
   2 C :   -0.395520
   3 C :   -0.400331
   4 C :   -0.395520
   5 C :   -0.410334
   6 C :   -0.639330
   7 H :    0.208764
   8 H :    0.218448
   9 H :    0.208764
  10 H :    0.204613
  11 H :    0.204613
  12 H :    0.199964
  13 H :    0.199964
  14 H :    0.200221
  15 H :    0.200221
  16 H :    0.199964
  17 H :    0.199964
  18 H :    0.204613
  19 H :    0.204613
  20 H :    0.208764
  21 H :    0.218447
  22 H :    0.208764
Sum of atomic charges:   -0.0000000

LOEWDIN ATOMIC CHARGES
----------------------
   0 C :   -0.362072
   1 C :   -0.245802
   2 C :   -0.239530
   3 C :   -0.238630
   4 C :   -0.239530
   5 C :   -0.245802
   6 C :   -0.362072
   7 H :    0.123283
   8 H :    0.125752
   9 H :    0.123283
  10 H :    0.119263
  11 H :    0.119263
  12 H :    0.118507
  13 H :    0.118507
  14 H :    0.118860
  15 H :    0.118860
  16 H :    0.118507
  17 H :    0.118507
  18 H :    0.119263
  19 H :    0.119263
  20 H :    0.123283
  21 H :    0.125752
  22 H :    0.123283

  Mayer bond orders larger than 0.100000
B(  0-C ,  1-C ) :   0.9988 B(  0-C ,  7-H ) :   0.9297 B(  0-C ,  8-H ) :   0.9324
B(  0-C ,  9-H ) :   0.9297 B(  1-C ,  2-C ) :   0.9917 B(  1-C , 10-H ) :   0.9206
B(  1-C , 11-H ) :   0.9206 B(  2-C ,  3-C ) :   0.9964 B(  2-C , 12-H ) :   0.9184
B(  2-C , 13-H ) :   0.9184 B(  3-C ,  4-C ) :   0.9964 B(  3-C , 14-H ) :   0.9183
B(  3-C , 15-H ) :   0.9183 B(  4-C ,  5-C ) :   0.9917 B(  4-C , 16-H ) :   0.9184
B(  4-C , 17-H ) :   0.9184 B(  5-C ,  6-C ) :   0.9988 B(  5-C , 18-H ) :   0.9206
B(  5-C , 19-H ) :   0.9206 B(  6-C , 20-H ) :   0.9297 B(  6-C , 21-H ) :   0.9324
B(  6-C , 22-H ) :   0.9297

Dispersion correction           -0.010246187
FINAL SINGLE POINT ENERGY      -275.789223535239

DIPOLE MOMENT
-------------
                                X             Y             Z
Electronic contribution:      0.00000       0.00000       0.63694
Nuclear contribution   :      0.00000      -0.00000      -0.61717
                        -----------------------------------------
Total Dipole Moment    :      0.00000       0.00000       0.01977
                        -----------------------------------------
Magnitude (a.u.)       :      0.01977
Magnitude (Debye)      :      0.05025

Rotational constants in cm-1:     0.403473     0.024457     0.023764
Rotational constants in MHz : 12095.805416   733.216636   712.435270

                             ****ORCA TERMINATED NORMALLY****
TOTAL RUN TIME: 0 days 0 hours 1 minutes 11 seconds 248 msec
