                         Program Version 5.0.3 -  RELEASE  -
|  1> ! PBEh-3c def2/J TightSCF DefGrid3
|  2>
|  3> %maxcore 60000
|  4>
|  5> %pal
|  6> nprocs 4
|  7> end
|  8>
|  9> *xyzfile 0 1 ketene.xyz
| 10>
| 11>                          ****END OF INPUT****

CARTESIAN COORDINATES (ANGSTROEM)
---------------------------------
  C      1.294544    0.000000    0.000000
  H      1.817644   -0.941658    0.000000
  H      1.817644    0.941658    0.000000
  C     -0.021491    0.000000    0.000000
  O     -1.184710    0.000000    0.000000

 Total Charge           Charge          ....    0
 Multiplicity           Mult            ....    1
 Number of Electrons    NEL             ....   22
 Basis Dimension        Dim             ....   49

ORBITAL ENERGIES
----------------

  NO   OCC          E(Eh)            E(eV)
   0   2.0000     -19.569812      -532.5217
   1   2.0000     -10.583790      -287.9996
   2   2.0000     -10.451878      -284.4100
   3   2.0000      -1.235692       -33.6249
   4   2.0000      -0.869322       -23.6554
   5   2.0000      -0.615182       -16.7400
   6   2.0000      -0.555426       -15.1139
   7   2.0000      -0.551857       -15.0168
   8   2.0000      -0.520960       -14.1760
   9   2.0000      -0.466276       -12.6880
  10   2.0000      -0.291827        -7.9410
  11   0.0000      -0.004918        -0.1338
  12   0.0000       0.091751         2.4967
  13   0.0000       0.158476         4.3123
  14   0.0000       0.242779         6.6064
  15   0.0000       0.273166         7.4332

MULLIKEN ATOMIC CHARGES
-----------------------
   0 C :   -0.726876
   1 H :    0.281715
   2 H :    0.281715
   3 C :    0.400343
   4 O :   -0.236898
Sum of atomic charges:   -0.0000000

LOEWDIN ATOMIC CHARGES
----------------------
   0 C :   -0.496542
   1 H :    0.179943
   2 H :    0.179943
   3 C :    0.206348
   4 O :   -0.069693

  Mayer bond orders larger than 0.100000
B(  0-C ,  1-H ) :   0.8905 B(  0-C ,  2-H ) :   0.8905 B(  0-C ,  3-C ) :   1.7054
B(  0-C ,  4-O ) :   0.1314 B(  3-C ,  4-O ) :   2.2764

Dispersion correction           -0.001134895
FINAL SINGLE POINT ENERGY      -152.267575569335

DIPOLE MOMENT
-------------
                                X             Y             Z
Electronic contribution:     -2.81547      -0.00000      -0.00000
Nuclear contribution   :      3.39298       0.00000       0.00000
                        -----------------------------------------
Total Dipole Moment    :      0.57751      -0.00000      -0.00000
                        -----------------------------------------
Magnitude (a.u.)       :      0.57751
Magnitude (Debye)      :      1.46792

Rotational constants in cm-1:     9.430182     0.342288     0.330300
Rotational constants in MHz : 282709.737712 10261.548728  9902.129948

                             ****ORCA TERMINATED NORMALLY****
TOTAL RUN TIME: 0 days 0 hours 0 minutes 52 seconds 244 msec
