                         Program Version 5.0.3 -  RELEASE  -
|  1> ! PBEh-3c def2/J TightSCF DefGrid3
|  2>
|  3> %maxcore 60000
|  4>
|  5> %pal
|  6> nprocs 4
|  7> end
|  8>
|  9> *xyzfile 0 1 06B.xyz
| 10>
| 11>                          ****END OF INPUT****

CARTESIAN COORDINATES (ANGSTROEM)
---------------------------------
  N     -0.422153    0.814514    0.000000
  H     -0.051472    1.300747    0.806431
  H     -0.051472    1.300747   -0.806431
  C      0.055599   -0.572026    0.000000
  H     -0.336353   -1.082639   -0.876206
  H      1.142310   -0.678804    0.000000
  H     -0.336353   -1.082639    0.876206

 Total Charge           Charge          ....    0
 Multiplicity           Mult            ....    1
 Number of Electrons    NEL             ....   18
 Basis Dimension        Dim             ....   40

ORBITAL ENERGIES
----------------

  NO   OCC          E(Eh)            E(eV)
   0   2.0000     -14.603694      -397.3867
   1   2.0000     -10.445624      -284.2399
   2   2.0000      -0.964045       -26.2330
   3   2.0000      -0.734949       -19.9990
   4   2.0000      -0.545102       -14.8330
   5   2.0000      -0.492862       -13.4115
   6   2.0000      -0.452888       -12.3237
   7   2.0000      -0.417057       -11.3487
   8   2.0000      -0.283044        -7.7020
   9   0.0000       0.137992         3.7550
  10   0.0000       0.201521         5.4837
  11   0.0000       0.213273         5.8034
  12   0.0000       0.228585         6.2201
  13   0.0000       0.233966         6.3665

MULLIKEN ATOMIC CHARGES
-----------------------
   0 N :   -0.737872
   1 H :    0.312745
   2 H :    0.312745
   3 C :   -0.502025
   4 H :    0.216522
   5 H :    0.181363
   6 H :    0.216522
Sum of atomic charges:   -0.0000000

LOEWDIN ATOMIC CHARGES
----------------------
   0 N :   -0.487967
   1 H :    0.217513
   2 H :    0.217513
   3 C :   -0.279169
   4 H :    0.120366
   5 H :    0.091377
   6 H :    0.120366

  Mayer bond orders larger than 0.100000
B(  0-N ,  1-H ) :   0.8680 B(  0-N ,  2-H ) :   0.8680 B(  0-N ,  3-C ) :   1.0329
B(  3-C ,  4-H ) :   0.9267 B(  3-C ,  5-H ) :   0.9183 B(  3-C ,  6-H ) :   0.9267

Dispersion correction           -0.001525582
FINAL SINGLE POINT ENERGY       -95.642645936136

DIPOLE MOMENT
-------------
                                X             Y             Z
Electronic contribution:     -0.48161       0.91944      -0.00000
Nuclear contribution   :      1.07894      -0.87238       0.00000
                        -----------------------------------------
Total Dipole Moment    :      0.59733       0.04706      -0.00000
                        -----------------------------------------
Magnitude (a.u.)       :      0.59918
Magnitude (Debye)      :      1.52300

Rotational constants in cm-1:     3.467289     0.759891     0.731668
Rotational constants in MHz : 103946.698418 22780.955139 21934.840347

                             ****ORCA TERMINATED NORMALLY****
TOTAL RUN TIME: 0 days 0 hours 1 minutes 0 seconds 991 msec
