                         Program Version 5.0.3 -  RELEASE  -
|  1> ! PBEh-3c def2/J TightSCF DefGrid3
|  2>
|  3> %maxcore 60000
|  4>
|  5> %pal
|  6> nprocs 4
|  7> end
|  8>
|  9> *xyzfile 0 1 C2H4OH_2.xyz
| 10>
| 11>                          ****END OF INPUT****

CARTESIAN COORDINATES (ANGSTROEM)
---------------------------------
  C     -1.445284   -0.643100   -1.249193
  H     -1.042978   -0.189339   -2.175501
  H     -2.547005   -0.545117   -1.275128
  C     -0.895559    0.091818   -0.034731
  H     -1.305571    1.116225   -0.043831
  H     -1.289393   -0.397711    0.871925
  C      0.635105    0.136855    0.012354
  H      1.022200    0.660942   -0.877313
  H      1.038577   -0.885668   -0.017415
  C      1.158423    0.840127    1.254653
  H      0.809756    0.307866    2.160848
  H      0.760038    1.873067    1.301067
  O     -1.064558   -2.023946   -1.154448
  H     -1.348525   -2.471386   -1.968396
  O      2.591972    0.853485    1.192574
  H      2.922799    1.275882    2.002535

 Total Charge           Charge          ....    0
 Multiplicity           Mult            ....    1
 Number of Electrons    NEL             ....   50
 Basis Dimension        Dim             ....  110

ORBITAL ENERGIES
----------------

  NO   OCC          E(Eh)            E(eV)
   0   2.0000     -19.483946      -530.1851
   1   2.0000     -19.479679      -530.0690
   2   2.0000     -10.484404      -285.2951
   3   2.0000     -10.478945      -285.1466
   4   2.0000     -10.435494      -283.9642
   5   2.0000     -10.425360      -283.6885
   6   2.0000      -1.113967       -30.3126
   7   2.0000      -1.109476       -30.1904
   8   2.0000      -0.877262       -23.8715
   9   2.0000      -0.793300       -21.5868
  10   2.0000      -0.690860       -18.7992
  11   2.0000      -0.644729       -17.5440
  12   2.0000      -0.577945       -15.7267
  13   2.0000      -0.561606       -15.2821
  14   2.0000      -0.526705       -14.3324
  15   2.0000      -0.509664       -13.8687
  16   2.0000      -0.470766       -12.8102
  17   2.0000      -0.449860       -12.2413
  18   2.0000      -0.430386       -11.7114
  19   2.0000      -0.400263       -10.8917
  20   2.0000      -0.388226       -10.5642
  21   2.0000      -0.376386       -10.2420
  22   2.0000      -0.366113        -9.9624
  23   2.0000      -0.323159        -8.7936
  24   2.0000      -0.317829        -8.6486
  25   0.0000       0.126483         3.4418
  26   0.0000       0.130729         3.5573
  27   0.0000       0.153362         4.1732
  28   0.0000       0.179353         4.8804
  29   0.0000       0.193372         5.2619

MULLIKEN ATOMIC CHARGES
-----------------------
   0 C :   -0.144911
   1 H :    0.175941
   2 H :    0.186165
   3 C :   -0.443860
   4 H :    0.202738
   5 H :    0.220476
   6 C :   -0.435210
   7 H :    0.211580
   8 H :    0.247493
   9 C :   -0.129457
  10 H :    0.173828
  11 H :    0.167611
  12 O :   -0.631370
  13 H :    0.415895
  14 O :   -0.629580
  15 H :    0.412661
Sum of atomic charges:    0.0000000

LOEWDIN ATOMIC CHARGES
----------------------
   0 C :   -0.086224
   1 H :    0.096958
   2 H :    0.099157
   3 C :   -0.252557
   4 H :    0.122920
   5 H :    0.129017
   6 C :   -0.251379
   7 H :    0.126203
   8 H :    0.141330
   9 C :   -0.087266
  10 H :    0.095877
  11 H :    0.092622
  12 O :   -0.423195
  13 H :    0.309584
  14 O :   -0.421197
  15 H :    0.308150

  Mayer bond orders larger than 0.100000
B(  0-C ,  1-H ) :   0.9060 B(  0-C ,  2-H ) :   0.9093 B(  0-C ,  3-C ) :   0.9892
B(  0-C , 12-O ) :   1.0063 B(  3-C ,  4-H ) :   0.9189 B(  3-C ,  5-H ) :   0.9098
B(  3-C ,  6-C ) :   0.9633 B(  6-C ,  7-H ) :   0.9147 B(  6-C ,  8-H ) :   0.9012
B(  6-C ,  9-C ) :   0.9940 B(  9-C , 10-H ) :   0.9043 B(  9-C , 11-H ) :   0.9051
B(  9-C , 14-O ) :   1.0188 B( 12-O , 13-H ) :   0.7938 B( 14-O , 15-H ) :   0.7951

Dispersion correction           -0.006316286
FINAL SINGLE POINT ENERGY      -308.204463369404

DIPOLE MOMENT
-------------
                                X             Y             Z
Electronic contribution:      2.02878      -1.61101       0.01524
Nuclear contribution   :     -2.65919       2.02461      -0.05958
                        -----------------------------------------
Total Dipole Moment    :     -0.63042       0.41360      -0.04434
                        -----------------------------------------
Magnitude (a.u.)       :      0.75529
Magnitude (Debye)      :      1.91979

Rotational constants in cm-1:     0.322795     0.045396     0.042396
Rotational constants in MHz :  9677.144239  1360.936282  1271.008097

                             ****ORCA TERMINATED NORMALLY****
TOTAL RUN TIME: 0 days 0 hours 1 minutes 17 seconds 396 msec
