                         Program Version 5.0.3 -  RELEASE  -
|  1> ! PBEh-3c def2/J TightSCF DefGrid3
|  2>
|  3> %maxcore 60000
|  4>
|  5> %pal
|  6> nprocs 4
|  7> end
|  8>
|  9> *xyzfile 0 1 ch4.xyz
| 10>
| 11>                          ****END OF INPUT****

CARTESIAN COORDINATES (ANGSTROEM)
---------------------------------
  H     -0.281193   -0.049572   -1.049761
  C      0.000000    0.000000    0.000000
  H      1.060837   -0.218523    0.101967
  H     -0.203187    0.997727    0.383119
  H     -0.576458   -0.729633    0.564675

 Total Charge           Charge          ....    0
 Multiplicity           Mult            ....    1
 Number of Electrons    NEL             ....   10
 Basis Dimension        Dim             ....   23

ORBITAL ENERGIES
----------------

  NO   OCC          E(Eh)            E(eV)
   0   2.0000     -10.414232      -283.3857
   1   2.0000      -0.774859       -21.0850
   2   2.0000      -0.445145       -12.1130
   3   2.0000      -0.445144       -12.1130
   4   2.0000      -0.445144       -12.1130
   5   0.0000       0.174629         4.7519
   6   0.0000       0.218864         5.9556
   7   0.0000       0.218865         5.9556
   8   0.0000       0.218868         5.9557
   9   0.0000       0.507776        13.8173

MULLIKEN ATOMIC CHARGES
-----------------------
   0 H :    0.220063
   1 C :   -0.880277
   2 H :    0.220068
   3 H :    0.220073
   4 H :    0.220073
Sum of atomic charges:   -0.0000000

LOEWDIN ATOMIC CHARGES
----------------------
   0 H :    0.130613
   1 C :   -0.522462
   2 H :    0.130615
   3 H :    0.130617
   4 H :    0.130617

  Mayer bond orders larger than 0.100000
B(  0-H ,  1-C ) :   0.9369 B(  1-C ,  2-H ) :   0.9369 B(  1-C ,  3-H ) :   0.9369
B(  1-C ,  4-H ) :   0.9369

Dispersion correction           -0.000682742
FINAL SINGLE POINT ENERGY       -40.426623517886

DIPOLE MOMENT
-------------
                                X             Y             Z
Electronic contribution:     -0.00000       0.00000       0.00002
Nuclear contribution   :      0.00000       0.00000       0.00000
                        -----------------------------------------
Total Dipole Moment    :     -0.00000       0.00000       0.00002
                        -----------------------------------------
Magnitude (a.u.)       :      0.00002
Magnitude (Debye)      :      0.00004

Rotational constants in cm-1:     5.298955     5.298955     5.298955
Rotational constants in MHz : 158858.687242 158858.682321 158858.676609

                             ****ORCA TERMINATED NORMALLY****
TOTAL RUN TIME: 0 days 0 hours 0 minutes 37 seconds 222 msec
