                         Program Version 5.0.3 -  RELEASE  -
|  1> ! PBEh-3c def2/J TightSCF DefGrid3
|  2>
|  3> %maxcore 60000
|  4>
|  5> %pal
|  6> nprocs 4
|  7> end
|  8>
|  9> *xyzfile 0 1 NCH_PhBr.xyz
| 10>
| 11>                          ****END OF INPUT****

CARTESIAN COORDINATES (ANGSTROEM)
---------------------------------
  N      0.000000    0.000000    4.109307
  C      0.000000    0.000000    5.251883
  H      0.000000    0.000000    6.319183
  Br     0.000000    0.000000    0.919924
  C      0.000000    0.000000   -0.970035
  C      0.000000    1.204962   -1.654689
  C      0.000000    1.198994   -3.041574
  C      0.000000    0.000000   -3.738000
  C      0.000000   -1.198994   -3.041574
  C      0.000000   -1.204962   -1.654689
  H      0.000000    2.137739   -1.107101
  H      0.000000    2.139531   -3.577587
  H      0.000000    0.000000   -4.820247
  H      0.000000   -2.139531   -3.577587
  H      0.000000   -2.137739   -1.107101

 Total Charge           Charge          ....    0
 Multiplicity           Mult            ....    1
 Number of Electrons    NEL             ....   90
 Basis Dimension        Dim             ....  164

ORBITAL ENERGIES
----------------

  NO   OCC          E(Eh)            E(eV)
   0   2.0000    -484.512438    -13184.2537
   1   2.0000     -63.175213     -1719.0849
   2   2.0000     -56.879341     -1547.7656
   3   2.0000     -56.877329     -1547.7108
   4   2.0000     -56.877280     -1547.7095
   5   2.0000     -14.671369      -399.2283
   6   2.0000     -10.505505      -285.8693
   7   2.0000     -10.497212      -285.6437
   8   2.0000     -10.453572      -284.4562
   9   2.0000     -10.453525      -284.4549
  10   2.0000     -10.452938      -284.4389
  11   2.0000     -10.452852      -284.4366
  12   2.0000     -10.450053      -284.3604
  13   2.0000      -9.004268      -245.0186
  14   2.0000      -6.778724      -184.4585
  15   2.0000      -6.766176      -184.1170
  16   2.0000      -6.766025      -184.1129
  17   2.0000      -2.792448       -75.9864
  18   2.0000      -2.788544       -75.8801
  19   2.0000      -2.788381       -75.8757
  20   2.0000      -2.777629       -75.5831
  21   2.0000      -2.777623       -75.5830
  22   2.0000      -1.032788       -28.1036
  23   2.0000      -0.971430       -26.4340
  24   2.0000      -0.887083       -24.1388
  25   2.0000      -0.845274       -23.0011
  26   2.0000      -0.802021       -21.8241
  27   2.0000      -0.690991       -18.8028
  28   2.0000      -0.680479       -18.5168
  29   2.0000      -0.669052       -18.2058
  30   2.0000      -0.587034       -15.9740
  31   2.0000      -0.525749       -14.3064
  32   2.0000      -0.519684       -14.1413
  33   2.0000      -0.488922       -13.3043
  34   2.0000      -0.475366       -12.9354
  35   2.0000      -0.449926       -12.2431
  36   2.0000      -0.440325       -11.9818
  37   2.0000      -0.421904       -11.4806
  38   2.0000      -0.421856       -11.4793
  39   2.0000      -0.408037       -11.1032
  40   2.0000      -0.394887       -10.7454
  41   2.0000      -0.353911        -9.6304
  42   2.0000      -0.323226        -8.7954
  43   2.0000      -0.299792        -8.1578
  44   2.0000      -0.274461        -7.4685
  45   0.0000       0.014466         0.3936
  46   0.0000       0.014532         0.3954
  47   0.0000       0.052682         1.4336
  48   0.0000       0.052940         1.4406
  49   0.0000       0.058985         1.6051

MULLIKEN ATOMIC CHARGES
-----------------------
   0 N :   -0.165191
   1 C :   -0.126272
   2 H :    0.303777
   3 Br:   -0.015428
   4 C :   -0.081947
   5 C :   -0.209702
   6 C :   -0.215178
   7 C :   -0.224080
   8 C :   -0.215178
   9 C :   -0.209702
  10 H :    0.242850
  11 H :    0.225271
  12 H :    0.222659
  13 H :    0.225271
  14 H :    0.242851
Sum of atomic charges:    0.0000000

LOEWDIN ATOMIC CHARGES
----------------------
   0 N :   -0.049035
   1 C :   -0.101923
   2 H :    0.160763
   3 Br:    0.088392
   4 C :   -0.127944
   5 C :   -0.142570
   6 C :   -0.128333
   7 C :   -0.138625
   8 C :   -0.128333
   9 C :   -0.142570
  10 H :    0.146926
  11 H :    0.139273
  12 H :    0.137777
  13 H :    0.139273
  14 H :    0.146926

  Mayer bond orders larger than 0.100000
B(  0-N ,  1-C ) :   3.1360 B(  1-C ,  2-H ) :   0.8587 B(  3-Br,  4-C ) :   1.0339
B(  4-C ,  5-C ) :   1.3720 B(  4-C ,  9-C ) :   1.3720 B(  5-C ,  6-C ) :   1.4294
B(  5-C , 10-H ) :   0.9109 B(  6-C ,  7-C ) :   1.4223 B(  6-C , 11-H ) :   0.9176
B(  7-C ,  8-C ) :   1.4223 B(  7-C , 12-H ) :   0.9194 B(  8-C ,  9-C ) :   1.4294
B(  8-C , 13-H ) :   0.9176 B(  9-C , 14-H ) :   0.9109

Dispersion correction           -0.007933603
FINAL SINGLE POINT ENERGY     -2897.347710434807

DIPOLE MOMENT
-------------
                                X             Y             Z
Electronic contribution:      0.00000       0.00000      16.36287
Nuclear contribution   :      0.00000       0.00000     -15.56857
                        -----------------------------------------
Total Dipole Moment    :      0.00000       0.00000       0.79430
                        -----------------------------------------
Magnitude (a.u.)       :      0.79430
Magnitude (Debye)      :      2.01896

Rotational constants in cm-1:     0.191884     0.014131     0.013162
Rotational constants in MHz :  5752.529376   423.631384   394.573923

                             ****ORCA TERMINATED NORMALLY****
TOTAL RUN TIME: 0 days 0 hours 2 minutes 24 seconds 828 msec
