                         Program Version 5.0.3 -  RELEASE  -
|  1> ! PBEh-3c def2/J TightSCF DefGrid3
|  2>
|  3> %maxcore 60000
|  4>
|  5> %pal
|  6> nprocs 4
|  7> end
|  8>
|  9> *xyzfile 0 1 E19.xyz
| 10>
| 11>                          ****END OF INPUT****

CARTESIAN COORDINATES (ANGSTROEM)
---------------------------------
  C     -1.475510    0.124476    0.000000
  C     -0.114069   -0.530333    0.000000
  C      1.031075    0.090590    0.754873
  C      1.031075    0.090590   -0.754873
  H     -2.053494   -0.159659   -0.884046
  H     -2.053494   -0.159659    0.884046
  H     -1.385023    1.214135    0.000000
  H     -0.137718   -1.615632    0.000000
  H      0.849204    1.032387    1.259339
  H      1.729375   -0.559640    1.266976
  H      0.849204    1.032387   -1.259339
  H      1.729375   -0.559640   -1.266976

 Total Charge           Charge          ....    0
 Multiplicity           Mult            ....    1
 Number of Electrons    NEL             ....   32
 Basis Dimension        Dim             ....   76

ORBITAL ENERGIES
----------------

  NO   OCC          E(Eh)            E(eV)
   0   2.0000     -10.443146      -284.1724
   1   2.0000     -10.432565      -283.8845
   2   2.0000     -10.432335      -283.8783
   3   2.0000     -10.425347      -283.6881
   4   2.0000      -0.947948       -25.7950
   5   2.0000      -0.790465       -21.5097
   6   2.0000      -0.669191       -18.2096
   7   2.0000      -0.635065       -17.2810
   8   2.0000      -0.552161       -15.0251
   9   2.0000      -0.509247       -13.8573
  10   2.0000      -0.462286       -12.5794
  11   2.0000      -0.442123       -12.0308
  12   2.0000      -0.411356       -11.1936
  13   2.0000      -0.398980       -10.8568
  14   2.0000      -0.332494        -9.0476
  15   2.0000      -0.322854        -8.7853
  16   0.0000       0.149698         4.0735
  17   0.0000       0.163967         4.4618
  18   0.0000       0.178780         4.8649
  19   0.0000       0.187351         5.0981
  20   0.0000       0.198629         5.4050

MULLIKEN ATOMIC CHARGES
-----------------------
   0 C :   -0.640788
   1 C :   -0.224409
   2 C :   -0.457504
   3 C :   -0.457504
   4 H :    0.218775
   5 H :    0.218775
   6 H :    0.205799
   7 H :    0.228052
   8 H :    0.224392
   9 H :    0.230010
  10 H :    0.224392
  11 H :    0.230010
Sum of atomic charges:   -0.0000000

LOEWDIN ATOMIC CHARGES
----------------------
   0 C :   -0.350542
   1 C :   -0.165173
   2 C :   -0.262120
   3 C :   -0.262120
   4 H :    0.128087
   5 H :    0.128087
   6 H :    0.125395
   7 H :    0.129880
   8 H :    0.131404
   9 H :    0.132848
  10 H :    0.131404
  11 H :    0.132848

  Mayer bond orders larger than 0.100000
B(  0-C ,  1-C ) :   0.9969 B(  0-C ,  4-H ) :   0.9262 B(  0-C ,  5-H ) :   0.9262
B(  0-C ,  6-H ) :   0.9326 B(  1-C ,  2-C ) :   0.9381 B(  1-C ,  3-C ) :   0.9381
B(  1-C ,  7-H ) :   0.9174 B(  2-C ,  3-C ) :   0.9380 B(  2-C ,  8-H ) :   0.9275
B(  2-C ,  9-H ) :   0.9258 B(  3-C , 10-H ) :   0.9275 B(  3-C , 11-H ) :   0.9258

Dispersion correction           -0.004260110
FINAL SINGLE POINT ENERGY      -156.865395915781

DIPOLE MOMENT
-------------
                                X             Y             Z
Electronic contribution:      1.09512      -0.56877      -0.00000
Nuclear contribution   :     -1.13890       0.54148      -0.00000
                        -----------------------------------------
Total Dipole Moment    :     -0.04378      -0.02729      -0.00000
                        -----------------------------------------
Magnitude (a.u.)       :      0.05159
Magnitude (Debye)      :      0.13114

Rotational constants in cm-1:     0.521933     0.210984     0.185256
Rotational constants in MHz : 15647.149413  6325.139077  5553.827225

                             ****ORCA TERMINATED NORMALLY****
TOTAL RUN TIME: 0 days 0 hours 1 minutes 3 seconds 592 msec
