                         Program Version 5.0.3 -  RELEASE  -
|  1> ! PBEh-3c def2/J TightSCF DefGrid3
|  2>
|  3> %maxcore 60000
|  4>
|  5> %pal
|  6> nprocs 4
|  7> end
|  8>
|  9> *xyzfile 0 1 E21.xyz
| 10>
| 11>                          ****END OF INPUT****

CARTESIAN COORDINATES (ANGSTROEM)
---------------------------------
  N      0.119641    1.303185    0.000000
  C     -1.212568    1.346351    0.000000
  C     -2.021876    0.214627    0.000000
  C     -1.402226   -1.028456    0.000000
  C     -0.013997   -1.085099    0.000000
  C      0.719508    0.104125    0.000000
  C      2.224074    0.107274    0.000000
  H     -1.655238    2.338087    0.000000
  H     -3.100302    0.310338    0.000000
  H     -1.988880   -1.939755    0.000000
  H      0.499597   -2.038779    0.000000
  H      2.631147   -0.904521    0.000000
  H      2.600560    0.636312   -0.878420
  H      2.600560    0.636312    0.878420

 Total Charge           Charge          ....    0
 Multiplicity           Mult            ....    1
 Number of Electrons    NEL             ....   50
 Basis Dimension        Dim             ....  119

ORBITAL ENERGIES
----------------

  NO   OCC          E(Eh)            E(eV)
   0   2.0000     -14.631885      -398.1538
   1   2.0000     -10.489830      -285.4428
   2   2.0000     -10.479354      -285.1577
   3   2.0000     -10.466203      -284.7999
   4   2.0000     -10.452836      -284.4361
   5   2.0000     -10.452709      -284.4327
   6   2.0000     -10.432300      -283.8773
   7   2.0000      -1.045878       -28.4598
   8   2.0000      -0.897278       -24.4162
   9   2.0000      -0.873433       -23.7673
  10   2.0000      -0.784988       -21.3606
  11   2.0000      -0.708163       -19.2701
  12   2.0000      -0.679779       -18.4977
  13   2.0000      -0.583040       -15.8653
  14   2.0000      -0.552836       -15.0434
  15   2.0000      -0.523784       -14.2529
  16   2.0000      -0.487442       -13.2640
  17   2.0000      -0.479374       -13.0444
  18   2.0000      -0.465574       -12.6689
  19   2.0000      -0.437393       -11.9021
  20   2.0000      -0.430610       -11.7175
  21   2.0000      -0.414304       -11.2738
  22   2.0000      -0.328306        -8.9337
  23   2.0000      -0.307379        -8.3642
  24   2.0000      -0.294031        -8.0010
  25   0.0000      -0.000891        -0.0242
  26   0.0000       0.015628         0.4252
  27   0.0000       0.144437         3.9303
  28   0.0000       0.176195         4.7945
  29   0.0000       0.179284         4.8786

MULLIKEN ATOMIC CHARGES
-----------------------
   0 N :   -0.383511
   1 C :   -0.048018
   2 C :   -0.304758
   3 C :   -0.123932
   4 C :   -0.315002
   5 C :    0.245318
   6 C :   -0.685565
   7 H :    0.228745
   8 H :    0.227574
   9 H :    0.230230
  10 H :    0.223894
  11 H :    0.216133
  12 H :    0.244445
  13 H :    0.244445
Sum of atomic charges:    0.0000000

LOEWDIN ATOMIC CHARGES
----------------------
   0 N :   -0.144229
   1 C :   -0.053520
   2 C :   -0.173699
   3 C :   -0.100634
   4 C :   -0.165625
   5 C :    0.017540
   6 C :   -0.353468
   7 H :    0.128497
   8 H :    0.140842
   9 H :    0.139738
  10 H :    0.139113
  11 H :    0.129364
  12 H :    0.148041
  13 H :    0.148041

  Mayer bond orders larger than 0.100000
B(  0-N ,  1-C ) :   1.5280 B(  0-N ,  5-C ) :   1.4493 B(  1-C ,  2-C ) :   1.3779
B(  1-C ,  7-H ) :   0.9174 B(  2-C ,  3-C ) :   1.4150 B(  2-C ,  8-H ) :   0.9139
B(  3-C ,  4-C ) :   1.4271 B(  3-C ,  9-H ) :   0.9187 B(  4-C ,  5-C ) :   1.3677
B(  4-C , 10-H ) :   0.9140 B(  5-C ,  6-C ) :   0.9765 B(  6-C , 11-H ) :   0.9303
B(  6-C , 12-H ) :   0.9135 B(  6-C , 13-H ) :   0.9135

Dispersion correction           -0.007077808
FINAL SINGLE POINT ENERGY      -286.966433409348

DIPOLE MOMENT
-------------
                                X             Y             Z
Electronic contribution:     -2.97353       1.17370      -0.00000
Nuclear contribution   :      2.70584      -1.82599       0.00000
                        -----------------------------------------
Total Dipole Moment    :     -0.26768      -0.65229      -0.00000
                        -----------------------------------------
Magnitude (a.u.)       :      0.70508
Magnitude (Debye)      :      1.79216

Rotational constants in cm-1:     0.191243     0.087855     0.060876
Rotational constants in MHz :  5733.325500  2633.817582  1825.018230

                             ****ORCA TERMINATED NORMALLY****
TOTAL RUN TIME: 0 days 0 hours 1 minutes 13 seconds 182 msec
