                         Program Version 5.0.3 -  RELEASE  -
|  1> ! PBEh-3c def2/J TightSCF DefGrid3
|  2>
|  3> %maxcore 60000
|  4>
|  5> %pal
|  6> nprocs 4
|  7> end
|  8>
|  9> *xyzfile 0 1 MeI_OCH2.xyz
| 10>
| 11>                          ****END OF INPUT****

CARTESIAN COORDINATES (ANGSTROEM)
---------------------------------
  C      1.132713    2.266100    0.000000
  I      0.000000    0.461816    0.000000
  H      1.749184    2.283461    0.891542
  H      0.439256    3.099395    0.000000
  H      1.749184    2.283461   -0.891542
  O     -1.219786   -2.471129    0.000000
  C     -0.239853   -3.163074    0.000000
  H      0.774926   -2.727378    0.000000
  H     -0.311418   -4.264298    0.000000

 Total Charge           Charge          ....    0
 Multiplicity           Mult            ....    1
 Number of Electrons    NEL             ....   50
 Basis Dimension        Dim             ....   81

ORBITAL ENERGIES
----------------

  NO   OCC          E(Eh)            E(eV)
   0   2.0000     -19.521555      -531.2085
   1   2.0000     -10.544880      -286.9408
   2   2.0000     -10.476628      -285.0835
   3   2.0000      -7.078864      -192.6257
   4   2.0000      -5.062114      -137.7471
   5   2.0000      -5.045857      -137.3048
   6   2.0000      -5.045671      -137.2997
   7   2.0000      -2.015936       -54.8564
   8   2.0000      -2.010906       -54.7195
   9   2.0000      -2.010735       -54.7149
  10   2.0000      -1.996623       -54.3309
  11   2.0000      -1.996622       -54.3308
  12   2.0000      -1.180482       -32.1226
  13   2.0000      -0.832099       -22.6426
  14   2.0000      -0.715097       -19.4588
  15   2.0000      -0.705798       -19.2057
  16   2.0000      -0.570649       -15.5282
  17   2.0000      -0.524541       -14.2735
  18   2.0000      -0.492114       -13.3911
  19   2.0000      -0.491876       -13.3846
  20   2.0000      -0.460310       -12.5257
  21   2.0000      -0.396020       -10.7763
  22   2.0000      -0.330302        -8.9880
  23   2.0000      -0.290780        -7.9125
  24   2.0000      -0.289927        -7.8893
  25   0.0000      -0.008761        -0.2384
  26   0.0000       0.016413         0.4466
  27   0.0000       0.149598         4.0708
  28   0.0000       0.164361         4.4725
  29   0.0000       0.188610         5.1323

MULLIKEN ATOMIC CHARGES
-----------------------
   0 C :   -0.823888
   1 I :    0.008036
   2 H :    0.264117
   3 H :    0.267047
   4 H :    0.264117
   5 O :   -0.293280
   6 C :   -0.031967
   7 H :    0.171824
   8 H :    0.173993
Sum of atomic charges:   -0.0000000

LOEWDIN ATOMIC CHARGES
----------------------
   0 C :   -0.498380
   1 I :    0.048625
   2 H :    0.144289
   3 H :    0.145843
   4 H :    0.144289
   5 O :   -0.163556
   6 C :   -0.001874
   7 H :    0.090442
   8 H :    0.090322

  Mayer bond orders larger than 0.100000
B(  0-C ,  1-I ) :   1.0075 B(  0-C ,  2-H ) :   0.8984 B(  0-C ,  3-H ) :   0.8976
B(  0-C ,  4-H ) :   0.8984 B(  5-O ,  6-C ) :   2.0983 B(  6-C ,  7-H ) :   0.8594
B(  6-C ,  8-H ) :   0.8646

Dispersion correction           -0.002725368
FINAL SINGLE POINT ENERGY      -451.817515066030

DIPOLE MOMENT
-------------
                                X             Y             Z
Electronic contribution:     -1.38616      29.18286       0.00000
Nuclear contribution   :      2.39285     -29.36736       0.00000
                        -----------------------------------------
Total Dipole Moment    :      1.00669      -0.18450       0.00000
                        -----------------------------------------
Magnitude (a.u.)       :      1.02346
Magnitude (Debye)      :      2.60143

Rotational constants in cm-1:     0.832987     0.044131     0.042247
Rotational constants in MHz : 24972.333740  1323.001562  1266.528350

                             ****ORCA TERMINATED NORMALLY****
TOTAL RUN TIME: 0 days 0 hours 1 minutes 46 seconds 170 msec
