                         Program Version 5.0.3 -  RELEASE  -
|  1> ! PBEh-3c def2/J TightSCF DefGrid3
|  2>
|  3> %maxcore 60000
|  4>
|  5> %pal
|  6> nprocs 4
|  7> end
|  8>
|  9> *xyzfile 0 1 h2o_2.xyz
| 10>
| 11>                          ****END OF INPUT****

CARTESIAN COORDINATES (ANGSTROEM)
---------------------------------
  O      0.000756    1.523252    0.000000
  H     -0.086365    0.557493    0.000000
  H     -0.898788    1.860643    0.000000
  O      0.000756   -1.396126    0.000000
  H      0.486527   -1.717573    0.766199
  H      0.486527   -1.717573   -0.766199

 Total Charge           Charge          ....    0
 Multiplicity           Mult            ....    1
 Number of Electrons    NEL             ....   20
 Basis Dimension        Dim             ....   38

ORBITAL ENERGIES
----------------

  NO   OCC          E(Eh)            E(eV)
   0   2.0000     -19.509758      -530.8875
   1   2.0000     -19.437791      -528.9292
   2   2.0000      -1.134659       -30.8756
   3   2.0000      -1.064644       -28.9704
   4   2.0000      -0.614333       -16.7169
   5   2.0000      -0.552574       -15.0363
   6   2.0000      -0.469753       -12.7826
   7   2.0000      -0.405420       -11.0320
   8   2.0000      -0.382831       -10.4174
   9   2.0000      -0.323742        -8.8095
  10   0.0000       0.104303         2.8382
  11   0.0000       0.179312         4.8793
  12   0.0000       0.188554         5.1308
  13   0.0000       0.302082         8.2201
  14   0.0000       0.845118        22.9968

MULLIKEN ATOMIC CHARGES
-----------------------
   0 O :   -0.865315
   1 H :    0.423259
   2 H :    0.396510
   3 O :   -0.812013
   4 H :    0.428780
   5 H :    0.428780
Sum of atomic charges:    0.0000000

LOEWDIN ATOMIC CHARGES
----------------------
   0 O :   -0.629553
   1 H :    0.287011
   2 H :    0.292179
   3 O :   -0.572772
   4 H :    0.311568
   5 H :    0.311568

  Mayer bond orders larger than 0.100000
B(  0-O ,  1-H ) :   0.7464 B(  0-O ,  2-H ) :   0.8253 B(  3-O ,  4-H ) :   0.7970
B(  3-O ,  5-H ) :   0.7970

Dispersion correction           -0.000822963
FINAL SINGLE POINT ENERGY      -152.525432385610

DIPOLE MOMENT
-------------
                                X             Y             Z
Electronic contribution:      0.03810      -0.11518      -0.00000
Nuclear contribution   :     -0.01259      -1.05815       0.00000
                        -----------------------------------------
Total Dipole Moment    :      0.02551      -1.17333      -0.00000
                        -----------------------------------------
Magnitude (a.u.)       :      1.17360
Magnitude (Debye)      :      2.98306

Rotational constants in cm-1:     7.233163     0.212505     0.212407
Rotational constants in MHz : 216844.778845  6370.740432  6367.816599

                             ****ORCA TERMINATED NORMALLY****
TOTAL RUN TIME: 0 days 0 hours 0 minutes 53 seconds 307 msec
