                         Program Version 5.0.3 -  RELEASE  -
|  1> ! PBEh-3c def2/J TightSCF DefGrid3
|  2>
|  3> %maxcore 60000
|  4>
|  5> %pal
|  6> nprocs 4
|  7> end
|  8>
|  9> *xyzfile 0 1 4N_B.xyz
| 10>
| 11>                          ****END OF INPUT****

CARTESIAN COORDINATES (ANGSTROEM)
---------------------------------
  N     -0.000000    0.000000   -0.277730
  H     -0.472716   -0.818767    0.092577
  H     -0.472716    0.818767    0.092577
  H      0.945431    0.000000    0.092577

 Total Charge           Charge          ....    0
 Multiplicity           Mult            ....    1
 Number of Electrons    NEL             ....   10
 Basis Dimension        Dim             ....   21

ORBITAL ENERGIES
----------------

  NO   OCC          E(Eh)            E(eV)
   0   2.0000     -14.596423      -397.1889
   1   2.0000      -0.932099       -25.3637
   2   2.0000      -0.510604       -13.8942
   3   2.0000      -0.510602       -13.8942
   4   2.0000      -0.303971        -8.2715
   5   0.0000       0.141355         3.8465
   6   0.0000       0.225224         6.1287
   7   0.0000       0.225224         6.1287
   8   0.0000       0.765158        20.8210
   9   0.0000       0.765160        20.8211

MULLIKEN ATOMIC CHARGES
-----------------------
   0 N :   -0.944890
   1 H :    0.314962
   2 H :    0.314962
   3 H :    0.314965
Sum of atomic charges:   -0.0000000

LOEWDIN ATOMIC CHARGES
----------------------
   0 N :   -0.650590
   1 H :    0.216863
   2 H :    0.216863
   3 H :    0.216864

  Mayer bond orders larger than 0.100000
B(  0-N ,  1-H ) :   0.8795 B(  0-N ,  2-H ) :   0.8795 B(  0-N ,  3-H ) :   0.8795

Dispersion correction           -0.000444434
FINAL SINGLE POINT ENERGY       -56.428013982423

DIPOLE MOMENT
-------------
                                X             Y             Z
Electronic contribution:      0.00001      -0.00000      -0.12228
Nuclear contribution   :     -0.00000       0.00000       0.85682
                        -----------------------------------------
Total Dipole Moment    :      0.00001      -0.00000       0.73453
                        -----------------------------------------
Magnitude (a.u.)       :      0.73453
Magnitude (Debye)      :      1.86704

Rotational constants in cm-1:     9.960039     9.960039     6.236709
Rotational constants in MHz : 298594.452428 298594.449055 186971.841146

                             ****ORCA TERMINATED NORMALLY****
TOTAL RUN TIME: 0 days 0 hours 0 minutes 21 seconds 278 msec
