                         Program Version 5.0.3 -  RELEASE  -
|  1> ! PBEh-3c def2/J TightSCF DefGrid3
|  2>
|  3> %maxcore 60000
|  4>
|  5> %pal
|  6> nprocs 4
|  7> end
|  8>
|  9> *xyzfile 0 1 pme3.xyz
| 10>
| 11>                          ****END OF INPUT****

CARTESIAN COORDINATES (ANGSTROEM)
---------------------------------
  P      0.000000    0.000000    0.611340
  C      0.000000    1.615521   -0.282401
  C     -1.399082   -0.807761   -0.282401
  C      1.399082   -0.807761   -0.282401
  H      0.000000    1.470671   -1.364852
  H     -0.882011    2.189405    0.001277
  H      0.882011    2.189405    0.001277
  H      1.273639   -0.735336   -1.364852
  H      2.337086   -0.330859    0.001277
  H      1.455075   -1.858547    0.001277
  H     -1.273639   -0.735336   -1.364852
  H     -1.455075   -1.858547    0.001277
  H     -2.337086   -0.330859    0.001277

 Total Charge           Charge          ....    0
 Multiplicity           Mult            ....    1
 Number of Electrons    NEL             ....   42
 Basis Dimension        Dim             ....   81

ORBITAL ENERGIES
----------------

  NO   OCC          E(Eh)            E(eV)
   0   2.0000     -77.723451     -2114.9626
   1   2.0000     -10.429813      -283.8096
   2   2.0000     -10.429813      -283.8096
   3   2.0000     -10.429770      -283.8085
   4   2.0000      -6.796187      -184.9336
   5   2.0000      -4.887042      -132.9832
   6   2.0000      -4.887041      -132.9831
   7   2.0000      -4.884759      -132.9211
   8   2.0000      -0.847606       -23.0645
   9   2.0000      -0.769059       -20.9271
  10   2.0000      -0.769058       -20.9271
  11   2.0000      -0.590221       -16.0607
  12   2.0000      -0.496832       -13.5195
  13   2.0000      -0.481659       -13.1066
  14   2.0000      -0.481658       -13.1066
  15   2.0000      -0.451687       -12.2910
  16   2.0000      -0.451686       -12.2910
  17   2.0000      -0.438378       -11.9289
  18   2.0000      -0.370678       -10.0867
  19   2.0000      -0.370678       -10.0867
  20   2.0000      -0.262796        -7.1510
  21   0.0000       0.103446         2.8149
  22   0.0000       0.103448         2.8150
  23   0.0000       0.129576         3.5260
  24   0.0000       0.165500         4.5035
  25   0.0000       0.176813         4.8113

MULLIKEN ATOMIC CHARGES
-----------------------
   0 P :    0.416097
   1 C :   -0.846006
   2 C :   -0.846057
   3 C :   -0.846057
   4 H :    0.225690
   5 H :    0.240823
   6 H :    0.240823
   7 H :    0.225695
   8 H :    0.240823
   9 H :    0.240826
  10 H :    0.225695
  11 H :    0.240826
  12 H :    0.240822
Sum of atomic charges:    0.0000000

LOEWDIN ATOMIC CHARGES
----------------------
   0 P :    0.367836
   1 C :   -0.525335
   2 C :   -0.525350
   3 C :   -0.525350
   4 H :    0.125777
   5 H :    0.138478
   6 H :    0.138478
   7 H :    0.125778
   8 H :    0.138478
   9 H :    0.138477
  10 H :    0.125778
  11 H :    0.138477
  12 H :    0.138478

  Mayer bond orders larger than 0.100000
B(  0-P ,  1-C ) :   0.9711 B(  0-P ,  2-C ) :   0.9711 B(  0-P ,  3-C ) :   0.9711
B(  1-C ,  4-H ) :   0.9046 B(  1-C ,  5-H ) :   0.9148 B(  1-C ,  6-H ) :   0.9148
B(  2-C , 10-H ) :   0.9046 B(  2-C , 11-H ) :   0.9148 B(  2-C , 12-H ) :   0.9148
B(  3-C ,  7-H ) :   0.9046 B(  3-C ,  8-H ) :   0.9148 B(  3-C ,  9-H ) :   0.9148

Dispersion correction           -0.005568395
FINAL SINGLE POINT ENERGY      -460.436872804635

DIPOLE MOMENT
-------------
                                X             Y             Z
Electronic contribution:     -0.00000       0.00003       4.32836
Nuclear contribution   :     -0.00000      -0.00000      -4.84096
                        -----------------------------------------
Total Dipole Moment    :     -0.00000       0.00003      -0.51260
                        -----------------------------------------
Magnitude (a.u.)       :      0.51260
Magnitude (Debye)      :      1.30293

Rotational constants in cm-1:     0.193901     0.193901     0.125542
Rotational constants in MHz :  5812.995586  5812.993248  3763.641271

                             ****ORCA TERMINATED NORMALLY****
TOTAL RUN TIME: 0 days 0 hours 0 minutes 48 seconds 994 msec
