                         Program Version 5.0.3 -  RELEASE  -
|  1> ! PBEh-3c def2/J TightSCF DefGrid3
|  2>
|  3> %maxcore 60000
|  4>
|  5> %pal
|  6> nprocs 4
|  7> end
|  8>
|  9> *xyzfile 0 1 BN_Corannulene.xyz
| 10>
| 11>                          ****END OF INPUT****

CARTESIAN COORDINATES (ANGSTROEM)
---------------------------------
  B      1.109574    0.363853    0.523973
  N     -0.010100    1.235200    0.630112
  B      0.002221    2.532369    0.053423
  N      1.329412    3.020796   -0.264219
  B      2.503105    2.181530   -0.267241
  N      2.407878    0.775968    0.100898
  B     -1.149720    0.389696    0.526760
  N     -2.438363    0.826913    0.110635
  B     -2.507786    2.235604   -0.251003
  N     -1.315852    3.050061   -0.253383
  N      0.671910   -0.996159    0.576858
  N     -0.743152   -0.984635    0.566391
  B      1.452565   -2.044281    0.033610
  N      2.831469   -1.659771   -0.217914
  B      3.312699   -0.304179   -0.242132
  B     -1.534866   -2.036589    0.043644
  B     -0.637229   -3.441978   -0.337039
  N      0.782768   -3.286950   -0.298929
  B     -3.364610   -0.239913   -0.229470
  N     -2.902874   -1.601007   -0.207594
  H     -4.475541    0.012592   -0.578190
  H     -3.564642   -2.296357   -0.512812
  H     -1.052024   -4.509792   -0.681520
  H      1.346294   -4.066542   -0.607082
  H      3.485302   -2.365063   -0.518032
  H      4.427738   -0.078212   -0.593945
  H      3.539412    2.637375   -0.637934
  H      1.456386    3.950107   -0.632204
  H     -1.425391    3.982919   -0.618056
  H     -3.536586    2.716449   -0.610633

 Total Charge           Charge          ....    0
 Multiplicity           Mult            ....    1
 Number of Electrons    NEL             ....  130
 Basis Dimension        Dim             ....  320

ORBITAL ENERGIES
----------------

  NO   OCC          E(Eh)            E(eV)
   0   2.0000     -14.651543      -398.6888
   1   2.0000     -14.649132      -398.6232
   2   2.0000     -14.637735      -398.3130
   3   2.0000     -14.629755      -398.0959
   4   2.0000     -14.629158      -398.0796
   5   2.0000     -14.628714      -398.0676
   6   2.0000     -14.620860      -397.8538
   7   2.0000     -14.618055      -397.7775
   8   2.0000     -14.616019      -397.7221
   9   2.0000     -14.600159      -397.2905
  10   2.0000      -6.990074      -190.2096
  11   2.0000      -6.989942      -190.2060
  12   2.0000      -6.979589      -189.9243
  13   2.0000      -6.978363      -189.8909
  14   2.0000      -6.976612      -189.8433
  15   2.0000      -6.973483      -189.7581
  16   2.0000      -6.971833      -189.7132
  17   2.0000      -6.970058      -189.6649
  18   2.0000      -6.951524      -189.1606
  19   2.0000      -6.948755      -189.0852
  20   2.0000      -1.093891       -29.7663
  21   2.0000      -1.004420       -27.3317
  22   2.0000      -0.989944       -26.9377
  23   2.0000      -0.971101       -26.4250
  24   2.0000      -0.959875       -26.1195
  25   2.0000      -0.951446       -25.8902
  26   2.0000      -0.935276       -25.4502
  27   2.0000      -0.924064       -25.1451
  28   2.0000      -0.919484       -25.0204
  29   2.0000      -0.841856       -22.9081
  30   2.0000      -0.679616       -18.4933
  31   2.0000      -0.640665       -17.4334
  32   2.0000      -0.636100       -17.3092
  33   2.0000      -0.613696       -16.6995
  34   2.0000      -0.607816       -16.5395
  35   2.0000      -0.595887       -16.2149
  36   2.0000      -0.578600       -15.7445
  37   2.0000      -0.569829       -15.5058
  38   2.0000      -0.554754       -15.0956
  39   2.0000      -0.549234       -14.9454
  40   2.0000      -0.537739       -14.6326
  41   2.0000      -0.527884       -14.3645
  42   2.0000      -0.512662       -13.9502
  43   2.0000      -0.496835       -13.5196
  44   2.0000      -0.487839       -13.2748
  45   2.0000      -0.482761       -13.1366
  46   2.0000      -0.476385       -12.9631
  47   2.0000      -0.470451       -12.8016
  48   2.0000      -0.450407       -12.2562
  49   2.0000      -0.434104       -11.8126
  50   2.0000      -0.427351       -11.6288
  51   2.0000      -0.421956       -11.4820
  52   2.0000      -0.419553       -11.4166
  53   2.0000      -0.403294       -10.9742
  54   2.0000      -0.397232       -10.8092
  55   2.0000      -0.384050       -10.4505
  56   2.0000      -0.380228       -10.3465
  57   2.0000      -0.371264       -10.1026
  58   2.0000      -0.366388        -9.9699
  59   2.0000      -0.355530        -9.6745
  60   2.0000      -0.332893        -9.0585
  61   2.0000      -0.324372        -8.8266
  62   2.0000      -0.316524        -8.6130
  63   2.0000      -0.310744        -8.4558
  64   2.0000      -0.269438        -7.3318
  65   0.0000      -0.017802        -0.4844
  66   0.0000       0.018464         0.5024
  67   0.0000       0.048743         1.3264
  68   0.0000       0.051503         1.4015
  69   0.0000       0.057201         1.5565

MULLIKEN ATOMIC CHARGES
-----------------------
   0 B :    0.529942
   1 N :   -0.515125
   2 B :    0.516010
   3 N :   -0.661398
   4 B :    0.259530
   5 N :   -0.511917
   6 B :    0.519180
   7 N :   -0.506753
   8 B :    0.260145
   9 N :   -0.661659
  10 N :   -0.321325
  11 N :   -0.310458
  12 B :    0.530974
  13 N :   -0.667255
  14 B :    0.246764
  15 B :    0.352504
  16 B :   -0.014726
  17 N :   -0.615244
  18 B :    0.231240
  19 N :   -0.655982
  20 H :    0.040129
  21 H :    0.363560
  22 H :    0.032364
  23 H :    0.358981
  24 H :    0.360297
  25 H :    0.041049
  26 H :    0.039218
  27 H :    0.360226
  28 H :    0.360138
  29 H :    0.039591
Sum of atomic charges:    0.0000000

LOEWDIN ATOMIC CHARGES
----------------------
   0 B :    0.117043
   1 N :   -0.163133
   2 B :    0.119851
   3 N :   -0.295180
   4 B :    0.074939
   5 N :   -0.187533
   6 B :    0.117773
   7 N :   -0.184476
   8 B :    0.076056
   9 N :   -0.294866
  10 N :   -0.056472
  11 N :   -0.035044
  12 B :    0.093177
  13 N :   -0.294055
  14 B :    0.062385
  15 B :   -0.002450
  16 B :   -0.050145
  17 N :   -0.251367
  18 B :    0.056811
  19 N :   -0.272891
  20 H :    0.004263
  21 H :    0.271415
  22 H :    0.005273
  23 H :    0.265084
  24 H :    0.269711
  25 H :    0.005121
  26 H :    0.005038
  27 H :    0.269278
  28 H :    0.269191
  29 H :    0.005204

  Mayer bond orders larger than 0.100000
B(  0-B ,  1-N ) :   1.0792 B(  0-B ,  5-N ) :   1.0647 B(  0-B , 10-N ) :   1.0682
B(  1-N ,  2-B ) :   1.0839 B(  1-N ,  6-B ) :   1.0772 B(  2-B ,  3-N ) :   1.0969
B(  2-B ,  9-N ) :   1.1003 B(  3-N ,  4-B ) :   1.1980 B(  3-N , 27-H ) :   0.8258
B(  4-B ,  5-N ) :   1.0987 B(  4-B , 26-H ) :   0.9662 B(  5-N , 14-B ) :   1.1047
B(  6-B ,  7-N ) :   1.0806 B(  6-B , 11-N ) :   1.0605 B(  7-N ,  8-B ) :   1.1001
B(  7-N , 18-B ) :   1.0954 B(  8-B ,  9-N ) :   1.1948 B(  8-B , 29-H ) :   0.9660
B(  9-N , 28-H ) :   0.8259 B( 10-N , 11-N ) :   1.0177 B( 10-N , 12-B ) :   1.1225
B( 11-N , 15-B ) :   1.1702 B( 12-B , 13-N ) :   1.0801 B( 12-B , 17-N ) :   1.0690
B( 13-N , 14-B ) :   1.2080 B( 13-N , 24-H ) :   0.8268 B( 14-B , 25-H ) :   0.9641
B( 15-B , 16-B ) :   0.9955 B( 15-B , 19-N ) :   1.1030 B( 16-B , 17-N ) :   1.3208
B( 16-B , 22-H ) :   0.9672 B( 17-N , 23-H ) :   0.8191 B( 18-B , 19-N ) :   1.2252
B( 18-B , 20-H ) :   0.9634 B( 19-N , 21-H ) :   0.8300

Dispersion correction           -0.022946710
FINAL SINGLE POINT ENERGY      -801.149787173041

DIPOLE MOMENT
-------------
                                X             Y             Z
Electronic contribution:     -0.33051      -0.22716       4.78413
Nuclear contribution   :      0.80738       0.25167      -5.52630
                        -----------------------------------------
Total Dipole Moment    :      0.47687       0.02451      -0.74218
                        -----------------------------------------
Magnitude (a.u.)       :      0.88251
Magnitude (Debye)      :      2.24317

Rotational constants in cm-1:     0.016157     0.015523     0.008169
Rotational constants in MHz :   484.363557   465.367182   244.910977

                             ****ORCA TERMINATED NORMALLY****
TOTAL RUN TIME: 0 days 0 hours 5 minutes 0 seconds 208 msec
