                         Program Version 5.0.3 -  RELEASE  -
|  1> ! PBEh-3c def2/J TightSCF DefGrid3
|  2>
|  3> %maxcore 60000
|  4>
|  5> %pal
|  6> nprocs 4
|  7> end
|  8>
|  9> *xyzfile 1 1 22.xyz
| 10>
| 11>                          ****END OF INPUT****

CARTESIAN COORDINATES (ANGSTROEM)
---------------------------------
  Li    -0.409015   -1.914038    0.081292
  O      0.390251   -0.236496   -0.021767
  H      1.331962   -0.037908   -0.095098
  H     -0.047089    0.623908   -0.013480

 Total Charge           Charge          ....    1
 Multiplicity           Mult            ....    1
 Number of Electrons    NEL             ....   12
 Basis Dimension        Dim             ....   28

ORBITAL ENERGIES
----------------

  NO   OCC          E(Eh)            E(eV)
   0   2.0000     -19.741843      -537.2028
   1   2.0000      -2.374737       -64.6199
   2   2.0000      -1.362308       -37.0703
   3   2.0000      -0.837906       -22.8006
   4   2.0000      -0.733335       -19.9550
   5   2.0000      -0.624620       -16.9968
   6   0.0000      -0.187982        -5.1153
   7   0.0000      -0.115794        -3.1509
   8   0.0000      -0.106636        -2.9017
   9   0.0000      -0.104966        -2.8563
  10   0.0000      -0.037692        -1.0257

MULLIKEN ATOMIC CHARGES
-----------------------
   0 Li:    0.872241
   1 O :   -0.867383
   2 H :    0.497574
   3 H :    0.497569
Sum of atomic charges:    1.0000000

LOEWDIN ATOMIC CHARGES
----------------------
   0 Li:    0.744508
   1 O :   -0.476436
   2 H :    0.365965
   3 H :    0.365963

  Mayer bond orders larger than 0.100000
B(  0-Li,  1-O ) :   0.2474 B(  1-O ,  2-H ) :   0.7358 B(  1-O ,  3-H ) :   0.7358

Dispersion correction           -0.000532165
FINAL SINGLE POINT ENERGY       -83.577019996689

DIPOLE MOMENT
-------------
                                X             Y             Z
Electronic contribution:     -1.95002      -4.09290       0.25144
Nuclear contribution   :      1.38258       2.90218      -0.17828
                        -----------------------------------------
Total Dipole Moment    :     -0.56744      -1.19072       0.07316
                        -----------------------------------------
Magnitude (a.u.)       :      1.32104
Magnitude (Debye)      :      3.35782

Rotational constants in cm-1:    14.254637     0.877106     0.826265
Rotational constants in MHz : 427343.254699 26294.986199 24770.806276

                             ****ORCA TERMINATED NORMALLY****
TOTAL RUN TIME: 0 days 0 hours 0 minutes 28 seconds 119 msec
