                         Program Version 5.0.3 -  RELEASE  -
|  1> ! PBEh-3c def2/J TightSCF DefGrid3
|  2>
|  3> %maxcore 60000
|  4>
|  5> %pal
|  6> nprocs 4
|  7> end
|  8>
|  9> *xyzfile 1 2 9e.xyz
| 10>
| 11>                          ****END OF INPUT****

CARTESIAN COORDINATES (ANGSTROEM)
---------------------------------
  O     -2.415719   -0.155629    0.000000
  C     -1.119086   -0.065928    0.000000
  C     -0.436516    1.184189    0.000000
  C      0.924331    1.183374    0.000000
  C      1.632413   -0.042612    0.000000
  C      0.955376   -1.278626    0.000000
  C     -0.406606   -1.303698    0.000000
  H     -2.861752    0.706429    0.000000
  H     -1.004792    2.108385    0.000000
  H      1.472941    2.117036    0.000000
  H      2.716180   -0.027171    0.000000
  H      1.521182   -2.201701    0.000000
  H     -0.977952   -2.224048    0.000000

 Total Charge           Charge          ....    1
 Multiplicity           Mult            ....    2
 Number of Electrons    NEL             ....   49
 Basis Dimension        Dim             ....  117

ORBITAL ENERGIES
----------------
                 SPIN UP ORBITALS
  NO   OCC          E(Eh)            E(eV)
   0   1.0000     -19.787581      -538.4474
   1   1.0000     -10.772559      -293.1362
   2   1.0000     -10.690649      -290.9073
   3   1.0000     -10.677233      -290.5423
   4   1.0000     -10.674475      -290.4672
   5   1.0000     -10.670735      -290.3655
   6   1.0000     -10.662702      -290.1469
   7   1.0000      -1.446374       -39.3578
   8   1.0000      -1.183030       -32.1919
   9   1.0000      -1.071580       -29.1592
  10   1.0000      -1.059433       -28.8286
  11   1.0000      -0.941261       -25.6130
  12   1.0000      -0.908845       -24.7309
  13   1.0000      -0.846383       -23.0313
  14   1.0000      -0.788129       -21.4461
  15   1.0000      -0.765557       -20.8319
  16   1.0000      -0.739274       -20.1167
  17   1.0000      -0.712652       -19.3923
  18   1.0000      -0.706340       -19.2205
  19   1.0000      -0.680550       -18.5187
  20   1.0000      -0.639556       -17.4032
  21   1.0000      -0.630007       -17.1434
  22   1.0000      -0.610102       -16.6017
  23   1.0000      -0.522173       -14.2090
  24   1.0000      -0.504701       -13.7336
  25   0.0000      -0.209203        -5.6927
  26   0.0000      -0.194187        -5.2841
  27   0.0000      -0.077811        -2.1174
  28   0.0000      -0.045771        -1.2455
  29   0.0000      -0.025345        -0.6897

                 SPIN DOWN ORBITALS
  NO   OCC          E(Eh)            E(eV)
   0   1.0000     -19.780642      -538.2586
   1   1.0000     -10.769190      -293.0446
   2   1.0000     -10.682952      -290.6979
   3   1.0000     -10.674957      -290.4803
   4   1.0000     -10.672019      -290.4004
   5   1.0000     -10.671201      -290.3781
   6   1.0000     -10.664921      -290.2073
   7   1.0000      -1.431783       -38.9608
   8   1.0000      -1.171593       -31.8807
   9   1.0000      -1.067919       -29.0596
  10   1.0000      -1.039233       -28.2790
  11   1.0000      -0.934550       -25.4304
  12   1.0000      -0.901308       -24.5258
  13   1.0000      -0.842290       -22.9199
  14   1.0000      -0.782845       -21.3023
  15   1.0000      -0.760376       -20.6909
  16   1.0000      -0.708915       -19.2906
  17   1.0000      -0.705247       -19.1907
  18   1.0000      -0.695064       -18.9136
  19   1.0000      -0.674326       -18.3494
  20   1.0000      -0.636591       -17.3225
  21   1.0000      -0.606625       -16.5071
  22   1.0000      -0.587319       -15.9817
  23   1.0000      -0.515197       -14.0192
  24   0.0000      -0.349665        -9.5149
  25   0.0000      -0.176405        -4.8002
  26   0.0000      -0.162327        -4.4171
  27   0.0000      -0.075362        -2.0507
  28   0.0000      -0.043532        -1.1846

MULLIKEN ATOMIC CHARGES AND SPIN POPULATIONS
--------------------------------------------
   0 O :   -0.463997    0.190776
   1 C :    0.448783    0.223085
   2 C :   -0.303675    0.151844
   3 C :   -0.176586   -0.098165
   4 C :   -0.165646    0.527633
   5 C :   -0.184864   -0.164236
   6 C :   -0.244511    0.218460
   7 H :    0.493766   -0.007514
   8 H :    0.309533   -0.010120
   9 H :    0.316776    0.002817
  10 H :    0.322665   -0.027477
  11 H :    0.314565    0.005945
  12 H :    0.333191   -0.013048
Sum of atomic charges         :    1.0000000

LOEWDIN ATOMIC CHARGES AND SPIN POPULATIONS
-------------------------------------------
   0 O :   -0.130003    0.196793
   1 C :    0.162796    0.202006
   2 C :   -0.119684    0.139274
   3 C :   -0.066314   -0.043712
   4 C :    0.016470    0.435218
   5 C :   -0.083627   -0.094050
   6 C :   -0.069782    0.191366
   7 H :    0.372187   -0.005728
   8 H :    0.177231   -0.005085
   9 H :    0.182943    0.001249
  10 H :    0.183483   -0.013482
  11 H :    0.182928    0.002749
  12 H :    0.191370   -0.006598

  Mayer bond orders larger than 0.100000
B(  0-O ,  1-C ) :   1.3112 B(  0-O ,  7-H ) :   0.7219 B(  1-C ,  2-C ) :   1.1635
B(  1-C ,  6-C ) :   1.1674 B(  2-C ,  3-C ) :   1.5706 B(  2-C ,  8-H ) :   0.8828
B(  3-C ,  4-C ) :   1.2397 B(  3-C ,  9-H ) :   0.8808 B(  4-C ,  5-C ) :   1.2617
B(  4-C , 10-H ) :   0.8765 B(  5-C ,  6-C ) :   1.5435 B(  5-C , 11-H ) :   0.8837
B(  6-C , 12-H ) :   0.8701

Dispersion correction           -0.006572082
FINAL SINGLE POINT ENERGY      -306.488588992320

DIPOLE MOMENT
-------------
                                X             Y             Z
Electronic contribution:     -1.89732      -0.18948      -0.00000
Nuclear contribution   :      1.92558       0.80025       0.00000
                        -----------------------------------------
Total Dipole Moment    :      0.02826       0.61077      -0.00000
                        -----------------------------------------
Magnitude (a.u.)       :      0.61142
Magnitude (Debye)      :      1.55412

Rotational constants in cm-1:     0.180943     0.091508     0.060773
Rotational constants in MHz :  5424.543815  2743.328445  1821.931695

                             ****ORCA TERMINATED NORMALLY****
TOTAL RUN TIME: 0 days 0 hours 3 minutes 2 seconds 534 msec
