                         Program Version 5.0.3 -  RELEASE  -
|  1> ! PBEh-3c def2/J TightSCF DefGrid3
|  2>
|  3> %maxcore 60000
|  4>
|  5> %pal
|  6> nprocs 4
|  7> end
|  8>
|  9> *xyzfile 0 2 RKT05.xyz
| 10>
| 11>                          ****END OF INPUT****

CARTESIAN COORDINATES (ANGSTROEM)
---------------------------------
  C     -0.014731   -0.441776   -0.051484
  O      1.285714    0.007334   -0.209556
  H      1.548297    0.493591    0.572417
  H     -0.237755   -0.876740    0.922145
  H     -0.285048   -1.084876   -0.881619
  H     -0.855104    0.566527   -0.144588
  H     -1.441374    1.335940   -0.207315

 Total Charge           Charge          ....    0
 Multiplicity           Mult            ....    2
 Number of Electrons    NEL             ....   19
 Basis Dimension        Dim             ....   40

ORBITAL ENERGIES
----------------
                 SPIN UP ORBITALS
  NO   OCC          E(Eh)            E(eV)
   0   1.0000     -19.512990      -530.9754
   1   1.0000     -10.498191      -285.6703
   2   1.0000      -1.155527       -31.4435
   3   1.0000      -0.776800       -21.1378
   4   1.0000      -0.599471       -16.3124
   5   1.0000      -0.534296       -14.5389
   6   1.0000      -0.510593       -13.8939
   7   1.0000      -0.423573       -11.5260
   8   1.0000      -0.386986       -10.5304
   9   1.0000      -0.238177        -6.4811
  10   0.0000       0.121690         3.3113
  11   0.0000       0.190257         5.1771
  12   0.0000       0.213339         5.8052
  13   0.0000       0.238024         6.4769
  14   0.0000       0.260206         7.0806

                 SPIN DOWN ORBITALS
  NO   OCC          E(Eh)            E(eV)
   0   1.0000     -19.510054      -530.8956
   1   1.0000     -10.487046      -285.3670
   2   1.0000      -1.147365       -31.2214
   3   1.0000      -0.753043       -20.4913
   4   1.0000      -0.589428       -16.0391
   5   1.0000      -0.506084       -13.7712
   6   1.0000      -0.490853       -13.3568
   7   1.0000      -0.407682       -11.0936
   8   1.0000      -0.354234        -9.6392
   9   0.0000      -0.025612        -0.6969
  10   0.0000       0.125414         3.4127
  11   0.0000       0.197905         5.3853
  12   0.0000       0.221429         6.0254
  13   0.0000       0.247742         6.7414

MULLIKEN ATOMIC CHARGES AND SPIN POPULATIONS
--------------------------------------------
   0 C :   -0.272462    0.517239
   1 O :   -0.578856    0.068991
   2 H :    0.428715   -0.002671
   3 H :    0.201768   -0.003550
   4 H :    0.233934   -0.013894
   5 H :    0.027553   -0.185952
   6 H :   -0.040652    0.619837
Sum of atomic charges         :    0.0000000

LOEWDIN ATOMIC CHARGES AND SPIN POPULATIONS
-------------------------------------------
   0 C :   -0.185661    0.457640
   1 O :   -0.369324    0.081207
   2 H :    0.317026   -0.001769
   3 H :    0.105629   -0.002388
   4 H :    0.128329   -0.008276
   5 H :    0.080652   -0.079783
   6 H :   -0.076650    0.553369

  Mayer bond orders larger than 0.100000
B(  0-C ,  1-O ) :   1.0878 B(  0-C ,  3-H ) :   0.9062 B(  0-C ,  4-H ) :   0.9106
B(  0-C ,  5-H ) :   0.4689 B(  1-O ,  2-H ) :   0.7837 B(  5-H ,  6-H ) :   0.4648

Dispersion correction           -0.001531143
FINAL SINGLE POINT ENERGY      -115.954421282854

DIPOLE MOMENT
-------------
                                X             Y             Z
Electronic contribution:      3.94671      -1.24456      -0.15910
Nuclear contribution   :     -3.89457       1.08413       0.76974
                        -----------------------------------------
Total Dipole Moment    :      0.05214      -0.16043       0.61064
                        -----------------------------------------
Magnitude (a.u.)       :      0.63351
Magnitude (Debye)      :      1.61025

Rotational constants in cm-1:     2.085471     0.721656     0.628644
Rotational constants in MHz : 62520.835369 21634.691705 18846.266409

                             ****ORCA TERMINATED NORMALLY****
TOTAL RUN TIME: 0 days 0 hours 1 minutes 22 seconds 626 msec
