                         Program Version 5.0.3 -  RELEASE  -
|  1> ! PBEh-3c def2/J TightSCF DefGrid3
|  2>
|  3> %maxcore 60000
|  4>
|  5> %pal
|  6> nprocs 4
|  7> end
|  8>
|  9> *xyzfile 0 1 22b.xyz
| 10>
| 11>                          ****END OF INPUT****

CARTESIAN COORDINATES (ANGSTROEM)
---------------------------------
  P      0.185983   -0.636312   -0.203578
  H     -0.041253   -1.026698    1.131205
  C     -0.385882    1.050814   -0.015178
  C      1.937219   -0.269817    0.046196
  N     -0.814712    2.116016    0.011744
  N      3.076359   -0.136116    0.115170

 Total Charge           Charge          ....    0
 Multiplicity           Mult            ....    1
 Number of Electrons    NEL             ....   42
 Basis Dimension        Dim             ....   80

ORBITAL ENERGIES
----------------

  NO   OCC          E(Eh)            E(eV)
   0   2.0000     -77.849470     -2118.3918
   1   2.0000     -14.685874      -399.6229
   2   2.0000     -14.684087      -399.5743
   3   2.0000     -10.520989      -286.2907
   4   2.0000     -10.520322      -286.2725
   5   2.0000      -6.922775      -188.3783
   6   2.0000      -5.013635      -136.4279
   7   2.0000      -5.012894      -136.4078
   8   2.0000      -5.010904      -136.3536
   9   2.0000      -1.047594       -28.5065
  10   2.0000      -1.042377       -28.3645
  11   2.0000      -0.850785       -23.1510
  12   2.0000      -0.629132       -17.1195
  13   2.0000      -0.567335       -15.4380
  14   2.0000      -0.481268       -13.0960
  15   2.0000      -0.462240       -12.5782
  16   2.0000      -0.459193       -12.4953
  17   2.0000      -0.434532       -11.8242
  18   2.0000      -0.431379       -11.7384
  19   2.0000      -0.419616       -11.4183
  20   2.0000      -0.372077       -10.1247
  21   0.0000      -0.037503        -1.0205
  22   0.0000      -0.028917        -0.7869
  23   0.0000       0.007405         0.2015
  24   0.0000       0.028916         0.7868
  25   0.0000       0.072929         1.9845

MULLIKEN ATOMIC CHARGES
-----------------------
   0 P :    0.380549
   1 H :    0.161280
   2 C :   -0.140087
   3 C :   -0.139563
   4 N :   -0.129458
   5 N :   -0.132721
Sum of atomic charges:    0.0000000

LOEWDIN ATOMIC CHARGES
----------------------
   0 P :    0.350126
   1 H :    0.084292
   2 C :   -0.187561
   3 C :   -0.186539
   4 N :   -0.028628
   5 N :   -0.031691

  Mayer bond orders larger than 0.100000
B(  0-P ,  1-H ) :   0.9342 B(  0-P ,  2-C ) :   0.9350 B(  0-P ,  3-C ) :   0.9300
B(  2-C ,  4-N ) :   3.0678 B(  3-C ,  5-N ) :   3.0701

Dispersion correction           -0.002732574
FINAL SINGLE POINT ENERGY      -526.782686005258

DIPOLE MOMENT
-------------
                                X             Y             Z
Electronic contribution:     -0.50875      -0.82624      -1.10946
Nuclear contribution   :     -0.22957      -0.39463       1.24586
                        -----------------------------------------
Total Dipole Moment    :     -0.73832      -1.22087       0.13640
                        -----------------------------------------
Magnitude (a.u.)       :      1.43327
Magnitude (Debye)      :      3.64307

Rotational constants in cm-1:     0.290167     0.090430     0.070017
Rotational constants in MHz :  8699.002678  2711.017356  2099.066919

                             ****ORCA TERMINATED NORMALLY****
TOTAL RUN TIME: 0 days 0 hours 1 minutes 13 seconds 420 msec
