                         Program Version 5.0.3 -  RELEASE  -
|  1> ! PBEh-3c def2/J TightSCF DefGrid3
|  2>
|  3> %maxcore 60000
|  4>
|  5> %pal
|  6> nprocs 4
|  7> end
|  8>
|  9> *xyzfile 1 1 Tp.xyz
| 10>
| 11>                          ****END OF INPUT****

CARTESIAN COORDINATES (ANGSTROEM)
---------------------------------
  N     -0.505121    1.849892    0.000000
  N      1.487469    0.709619    0.000000
  C     -0.547999   -0.523456    0.000000
  C      0.857521   -0.469547    0.000000
  C     -1.174119    0.684466    0.000000
  C      0.859854    1.949981    0.000000
  C     -1.272589   -1.831531    0.000000
  O      1.518461   -1.577533    0.000000
  O      1.471714    2.983735    0.000000
  H     -1.026720    2.718735    0.000000
  H      2.504441    0.741712    0.000000
  H     -2.252707    0.767581    0.000000
  H     -1.027775   -2.424107   -0.882045
  H     -1.027775   -2.424107    0.882045
  H     -2.348099   -1.663934    0.000000
  H      2.483445   -1.491509    0.000000

 Total Charge           Charge          ....    1
 Multiplicity           Mult            ....    1
 Number of Electrons    NEL             ....   66
 Basis Dimension        Dim             ....  149

ORBITAL ENERGIES
----------------

  NO   OCC          E(Eh)            E(eV)
   0   2.0000     -19.774394      -538.0886
   1   2.0000     -19.657717      -534.9137
   2   2.0000     -14.919430      -405.9783
   3   2.0000     -14.902731      -405.5239
   4   2.0000     -10.804843      -294.0147
   5   2.0000     -10.788616      -293.5732
   6   2.0000     -10.719765      -291.6996
   7   2.0000     -10.659424      -290.0577
   8   2.0000     -10.599417      -288.4248
   9   2.0000      -1.451880       -39.5077
  10   2.0000      -1.382335       -37.6152
  11   2.0000      -1.293020       -35.1849
  12   2.0000      -1.256579       -34.1932
  13   2.0000      -1.115449       -30.3529
  14   2.0000      -0.995442       -27.0874
  15   2.0000      -0.985314       -26.8118
  16   2.0000      -0.948832       -25.8190
  17   2.0000      -0.905311       -24.6348
  18   2.0000      -0.836087       -22.7511
  19   2.0000      -0.825001       -22.4494
  20   2.0000      -0.790533       -21.5115
  21   2.0000      -0.763589       -20.7783
  22   2.0000      -0.704190       -19.1620
  23   2.0000      -0.698418       -19.0049
  24   2.0000      -0.691669       -18.8213
  25   2.0000      -0.673719       -18.3328
  26   2.0000      -0.641977       -17.4691
  27   2.0000      -0.636188       -17.3116
  28   2.0000      -0.605873       -16.4866
  29   2.0000      -0.603364       -16.4184
  30   2.0000      -0.571577       -15.5534
  31   2.0000      -0.528588       -14.3836
  32   2.0000      -0.472477       -12.8568
  33   0.0000      -0.229663        -6.2494
  34   0.0000      -0.149958        -4.0806
  35   0.0000      -0.093755        -2.5512
  36   0.0000      -0.064538        -1.7562
  37   0.0000      -0.031030        -0.8444

MULLIKEN ATOMIC CHARGES
-----------------------
   0 N :   -0.659190
   1 N :   -0.716407
   2 C :   -0.143668
   3 C :    0.687918
   4 C :    0.116468
   5 C :    0.707236
   6 C :   -0.678513
   7 O :   -0.495575
   8 O :   -0.330333
   9 H :    0.443140
  10 H :    0.432391
  11 H :    0.332102
  12 H :    0.277981
  13 H :    0.277981
  14 H :    0.262308
  15 H :    0.486160
Sum of atomic charges:    1.0000000

LOEWDIN ATOMIC CHARGES
----------------------
   0 N :   -0.126193
   1 N :   -0.141232
   2 C :   -0.136882
   3 C :    0.212082
   4 C :    0.061204
   5 C :    0.154940
   6 C :   -0.332397
   7 O :   -0.174803
   8 O :   -0.177887
   9 H :    0.314656
  10 H :    0.308538
  11 H :    0.181827
  12 H :    0.164763
  13 H :    0.164763
  14 H :    0.158470
  15 H :    0.368150

  Mayer bond orders larger than 0.100000
B(  0-N ,  4-C ) :   1.1660 B(  0-N ,  5-C ) :   1.0300 B(  0-N ,  9-H ) :   0.7727
B(  1-N ,  3-C ) :   1.1807 B(  1-N ,  5-C ) :   0.9605 B(  1-N , 10-H ) :   0.7744
B(  2-C ,  3-C ) :   1.2092 B(  2-C ,  4-C ) :   1.4958 B(  2-C ,  6-C ) :   0.9578
B(  3-C ,  7-O ) :   1.3086 B(  4-C , 11-H ) :   0.8703 B(  5-C ,  8-O ) :   2.1178
B(  6-C , 12-H ) :   0.8970 B(  6-C , 13-H ) :   0.8970 B(  6-C , 14-H ) :   0.9088
B(  7-O , 15-H ) :   0.7190

Dispersion correction           -0.008596264
FINAL SINGLE POINT ENERGY      -453.508665387015

DIPOLE MOMENT
-------------
                                X             Y             Z
Electronic contribution:      4.53634       5.23558      -0.00000
Nuclear contribution   :     -4.74217      -6.22377       0.00000
                        -----------------------------------------
Total Dipole Moment    :     -0.20583      -0.98819      -0.00000
                        -----------------------------------------
Magnitude (a.u.)       :      1.00940
Magnitude (Debye)      :      2.56570

Rotational constants in cm-1:     0.105662     0.047183     0.032817
Rotational constants in MHz :  3167.671943  1414.516719   983.828374

                             ****ORCA TERMINATED NORMALLY****
TOTAL RUN TIME: 0 days 0 hours 1 minutes 50 seconds 408 msec
