                         Program Version 5.0.3 -  RELEASE  -
|  1> ! PBEh-3c def2/J TightSCF DefGrid3
|  2>
|  3> %maxcore 60000
|  4>
|  5> %pal
|  6> nprocs 4
|  7> end
|  8>
|  9> *xyzfile 0 1 c2h2.xyz
| 10>
| 11>                          ****END OF INPUT****

CARTESIAN COORDINATES (ANGSTROEM)
---------------------------------
  C      0.000000    0.000000    0.598724
  H      0.000000    0.000000    1.661747
  C      0.000000    0.000000   -0.598724
  H      0.000000    0.000000   -1.661747

 Total Charge           Charge          ....    0
 Multiplicity           Mult            ....    1
 Number of Electrons    NEL             ....   14
 Basis Dimension        Dim             ....   34

ORBITAL ENERGIES
----------------

  NO   OCC          E(Eh)            E(eV)
   0   2.0000     -10.455334      -284.5041
   1   2.0000     -10.452677      -284.4318
   2   2.0000      -0.842941       -22.9376
   3   2.0000      -0.637289       -17.3415
   4   2.0000      -0.560001       -15.2384
   5   2.0000      -0.340214        -9.2577
   6   2.0000      -0.340214        -9.2577
   7   0.0000       0.072716         1.9787
   8   0.0000       0.072716         1.9787
   9   0.0000       0.163773         4.4565
  10   0.0000       0.208876         5.6838
  11   0.0000       0.421128        11.4595

MULLIKEN ATOMIC CHARGES
-----------------------
   0 C :   -0.235354
   1 H :    0.235354
   2 C :   -0.235354
   3 H :    0.235354
Sum of atomic charges:    0.0000000

LOEWDIN ATOMIC CHARGES
----------------------
   0 C :   -0.162313
   1 H :    0.162313
   2 C :   -0.162313
   3 H :    0.162313

  Mayer bond orders larger than 0.100000
B(  0-C ,  1-H ) :   0.9299 B(  0-C ,  2-C ) :   2.8301 B(  2-C ,  3-H ) :   0.9299

Dispersion correction           -0.000698884
FINAL SINGLE POINT ENERGY       -77.142553173082

DIPOLE MOMENT
-------------
                                X             Y             Z
Electronic contribution:      0.00000      -0.00000      -0.00000
Nuclear contribution   :      0.00000       0.00000       0.00000
                        -----------------------------------------
Total Dipole Moment    :      0.00000      -0.00000      -0.00000
                        -----------------------------------------
Magnitude (a.u.)       :      0.00000
Magnitude (Debye)      :      0.00000

Rotational constants in cm-1:     0.000000     1.188985     1.188985
Rotational constants in MHz :     0.000000 35644.884957 35644.884957

                             ****ORCA TERMINATED NORMALLY****
TOTAL RUN TIME: 0 days 0 hours 0 minutes 54 seconds 491 msec
