                         Program Version 5.0.3 -  RELEASE  -
|  1> ! PBEh-3c def2/J TightSCF DefGrid3
|  2>
|  3> %maxcore 60000
|  4>
|  5> %pal
|  6> nprocs 4
|  7> end
|  8>
|  9> *xyzfile 0 1 B35.xyz
| 10>
| 11>                          ****END OF INPUT****

CARTESIAN COORDINATES (ANGSTROEM)
---------------------------------
  C      2.045636    0.350480    0.331751
  H      2.038520    0.223654    1.420018
  O      2.471188   -0.846733   -0.312727
  C      0.679577    0.830499   -0.143847
  H      0.481790    1.806515    0.309616
  H      0.719376    0.977159   -1.225509
  C     -0.452507   -0.134272    0.205020
  H     -0.470318   -0.302118    1.287676
  H     -0.292735   -1.103384   -0.272110
  H      1.900875   -1.558436   -0.012200
  H      2.804636    1.093018    0.091379
  C     -1.811544    0.388454   -0.241131
  H     -2.011914    1.356909    0.229571
  H     -1.813023    0.541887   -1.319757
  O     -2.870075   -0.529306    0.014413
  H     -2.933077   -0.637858    0.967073

 Total Charge           Charge          ....    0
 Multiplicity           Mult            ....    1
 Number of Electrons    NEL             ....   50
 Basis Dimension        Dim             ....  110

ORBITAL ENERGIES
----------------

  NO   OCC          E(Eh)            E(eV)
   0   2.0000     -19.487548      -530.2831
   1   2.0000     -19.485911      -530.2386
   2   2.0000     -10.484350      -285.2937
   3   2.0000     -10.483393      -285.2676
   4   2.0000     -10.441994      -284.1411
   5   2.0000     -10.439590      -284.0757
   6   2.0000      -1.124467       -30.5983
   7   2.0000      -1.122629       -30.5483
   8   2.0000      -0.889323       -24.1997
   9   2.0000      -0.800877       -21.7930
  10   2.0000      -0.713973       -19.4282
  11   2.0000      -0.664741       -18.0885
  12   2.0000      -0.578100       -15.7309
  13   2.0000      -0.574860       -15.6427
  14   2.0000      -0.520678       -14.1684
  15   2.0000      -0.512568       -13.9477
  16   2.0000      -0.498881       -13.5752
  17   2.0000      -0.466830       -12.7031
  18   2.0000      -0.443554       -12.0697
  19   2.0000      -0.412387       -11.2216
  20   2.0000      -0.408699       -11.1213
  21   2.0000      -0.385925       -10.5015
  22   2.0000      -0.371485       -10.1086
  23   2.0000      -0.331927        -9.0322
  24   2.0000      -0.321970        -8.7612
  25   0.0000       0.117834         3.2064
  26   0.0000       0.122181         3.3247
  27   0.0000       0.155324         4.2266
  28   0.0000       0.168788         4.5930
  29   0.0000       0.180171         4.9027

MULLIKEN ATOMIC CHARGES
-----------------------
   0 C :   -0.153379
   1 H :    0.175711
   2 O :   -0.624352
   3 C :   -0.445911
   4 H :    0.204053
   5 H :    0.227655
   6 C :   -0.474924
   7 H :    0.193758
   8 H :    0.217389
   9 H :    0.414294
  10 H :    0.220036
  11 C :   -0.130845
  12 H :    0.177089
  13 H :    0.212464
  14 O :   -0.621088
  15 H :    0.408048
Sum of atomic charges:    0.0000000

LOEWDIN ATOMIC CHARGES
----------------------
   0 C :   -0.091877
   1 H :    0.096513
   2 O :   -0.412106
   3 C :   -0.265061
   4 H :    0.125106
   5 H :    0.131679
   6 C :   -0.272722
   7 H :    0.114458
   8 H :    0.124779
   9 H :    0.305710
  10 H :    0.122043
  11 C :   -0.093630
  12 H :    0.097346
  13 H :    0.121442
  14 O :   -0.409347
  15 H :    0.305668

  Mayer bond orders larger than 0.100000
B(  0-C ,  1-H ) :   0.9130 B(  0-C ,  2-O ) :   1.0220 B(  0-C ,  3-C ) :   0.9664
B(  0-C , 10-H ) :   0.9197 B(  2-O ,  9-H ) :   0.7895 B(  3-C ,  4-H ) :   0.9102
B(  3-C ,  5-H ) :   0.9092 B(  3-C ,  6-C ) :   0.9667 B(  6-C ,  7-H ) :   0.9183
B(  6-C ,  8-H ) :   0.9064 B(  6-C , 11-C ) :   0.9883 B( 11-C , 12-H ) :   0.9102
B( 11-C , 13-H ) :   0.9117 B( 11-C , 14-O ) :   1.0258 B( 14-O , 15-H ) :   0.7956

Dispersion correction           -0.006512816
FINAL SINGLE POINT ENERGY      -308.207040501787

DIPOLE MOMENT
-------------
                                X             Y             Z
Electronic contribution:     -0.57696      -2.16506      -0.66695
Nuclear contribution   :      0.43537       2.47534       1.53278
                        -----------------------------------------
Total Dipole Moment    :     -0.14158       0.31028       0.86583
                        -----------------------------------------
Magnitude (a.u.)       :      0.93058
Magnitude (Debye)      :      2.36535

Rotational constants in cm-1:     0.324318     0.045259     0.042182
Rotational constants in MHz :  9722.820695  1356.816617  1264.584134

                             ****ORCA TERMINATED NORMALLY****
TOTAL RUN TIME: 0 days 0 hours 1 minutes 42 seconds 611 msec
