                         Program Version 5.0.3 -  RELEASE  -
|  1> ! PBEh-3c def2/J TightSCF DefGrid3
|  2>
|  3> %maxcore 60000
|  4>
|  5> %pal
|  6> nprocs 4
|  7> end
|  8>
|  9> *xyzfile 0 1 31.xyz
| 10>
| 11>                          ****END OF INPUT****

CARTESIAN COORDINATES (ANGSTROEM)
---------------------------------
  H      1.477859    2.026739   -1.477923
  H     -0.759091    0.229762    2.930871
  C     -1.726538   -1.326351   -0.828856
  B      1.135343   -0.469899   -1.188492
  H     -2.276696   -2.083008   -0.258930
  P      0.032320   -2.023933   -1.176537
  O      0.217855    0.307481    2.946748
  Cl     2.335597    2.077104    1.365075
  Al     0.707551    0.741877    1.045284
  P      1.631679    0.912937   -2.342488
  B     -1.599951    0.023486   -0.146244
  H      0.590077   -0.516569    3.309807
  F      0.327767    1.153096   -3.287671
  P     -1.415505    1.588462    0.555841
  H     -2.186460   -1.239475   -1.822254
  P      1.508193   -1.401710    0.375773

 Total Charge           Charge          ....    0
 Multiplicity           Mult            ....    1
 Number of Electrons    NEL             ....  128
 Basis Dimension        Dim             ....  193

ORBITAL ENERGIES
----------------

  NO   OCC          E(Eh)            E(eV)
   0   2.0000    -102.277220     -2783.1047
   1   2.0000     -77.797353     -2116.9736
   2   2.0000     -77.762670     -2116.0298
   3   2.0000     -77.744986     -2115.5486
   4   2.0000     -77.713885     -2114.7023
   5   2.0000     -56.668972     -1542.0411
   6   2.0000     -25.086550      -682.6397
   7   2.0000     -19.614731      -533.7440
   8   2.0000     -10.467922      -284.8466
   9   2.0000      -9.743826      -265.1430
  10   2.0000      -7.428646      -202.1437
  11   2.0000      -7.424897      -202.0417
  12   2.0000      -7.424855      -202.0406
  13   2.0000      -7.018023      -190.9701
  14   2.0000      -7.003549      -190.5762
  15   2.0000      -6.864627      -186.7960
  16   2.0000      -6.835000      -185.9898
  17   2.0000      -6.820987      -185.6085
  18   2.0000      -6.791747      -184.8128
  19   2.0000      -4.956778      -134.8808
  20   2.0000      -4.954285      -134.8129
  21   2.0000      -4.953523      -134.7922
  22   2.0000      -4.925769      -134.0370
  23   2.0000      -4.924320      -133.9976
  24   2.0000      -4.923499      -133.9752
  25   2.0000      -4.911236      -133.6415
  26   2.0000      -4.910322      -133.6167
  27   2.0000      -4.910021      -133.6085
  28   2.0000      -4.881825      -132.8412
  29   2.0000      -4.881244      -132.8254
  30   2.0000      -4.881072      -132.8207
  31   2.0000      -4.397805      -119.6704
  32   2.0000      -2.888875       -78.6103
  33   2.0000      -2.886422       -78.5435
  34   2.0000      -2.885657       -78.5227
  35   2.0000      -1.305581       -35.5267
  36   2.0000      -1.233573       -33.5672
  37   2.0000      -0.882634       -24.0177
  38   2.0000      -0.849053       -23.1039
  39   2.0000      -0.777022       -21.1438
  40   2.0000      -0.721401       -19.6303
  41   2.0000      -0.717090       -19.5130
  42   2.0000      -0.692390       -18.8409
  43   2.0000      -0.608790       -16.5660
  44   2.0000      -0.594485       -16.1768
  45   2.0000      -0.550405       -14.9773
  46   2.0000      -0.533287       -14.5115
  47   2.0000      -0.516842       -14.0640
  48   2.0000      -0.514562       -14.0020
  49   2.0000      -0.506377       -13.7792
  50   2.0000      -0.503306       -13.6957
  51   2.0000      -0.463291       -12.6068
  52   2.0000      -0.450242       -12.2517
  53   2.0000      -0.421923       -11.4811
  54   2.0000      -0.402433       -10.9508
  55   2.0000      -0.383626       -10.4390
  56   2.0000      -0.366986        -9.9862
  57   2.0000      -0.361841        -9.8462
  58   2.0000      -0.334743        -9.1088
  59   2.0000      -0.314821        -8.5667
  60   2.0000      -0.312071        -8.4919
  61   2.0000      -0.302345        -8.2272
  62   2.0000      -0.292737        -7.9658
  63   2.0000      -0.277405        -7.5486
  64   0.0000      -0.068211        -1.8561
  65   0.0000      -0.041899        -1.1401
  66   0.0000      -0.017417        -0.4739
  67   0.0000      -0.002096        -0.0570
  68   0.0000       0.007101         0.1932

MULLIKEN ATOMIC CHARGES
-----------------------
   0 H :    0.094830
   1 H :    0.496135
   2 C :   -0.842575
   3 B :   -0.202273
   4 H :    0.276365
   5 P :    0.155477
   6 O :   -0.762430
   7 Cl:   -0.313204
   8 Al:    0.667021
   9 P :    0.421287
  10 B :    0.179418
  11 H :    0.495306
  12 F :   -0.447365
  13 P :   -0.289652
  14 H :    0.292803
  15 P :   -0.221142
Sum of atomic charges:   -0.0000000

LOEWDIN ATOMIC CHARGES
----------------------
   0 H :    0.063063
   1 H :    0.361896
   2 C :   -0.495912
   3 B :   -0.489317
   4 H :    0.172619
   5 P :    0.273807
   6 O :   -0.394058
   7 Cl:   -0.099520
   8 Al:    0.037888
   9 P :    0.477400
  10 B :   -0.150007
  11 H :    0.361234
  12 F :   -0.336180
  13 P :   -0.009906
  14 H :    0.188813
  15 P :    0.038177

  Mayer bond orders larger than 0.100000
B(  0-H ,  9-P ) :   0.8946 B(  1-H ,  6-O ) :   0.6979 B(  2-C ,  4-H ) :   0.8807
B(  2-C ,  5-P ) :   0.8693 B(  2-C , 10-B ) :   1.0432 B(  2-C , 14-H ) :   0.8676
B(  3-B ,  5-P ) :   0.9383 B(  3-B ,  8-Al) :   0.1586 B(  3-B ,  9-P ) :   1.1509
B(  3-B , 15-P ) :   1.0919 B(  5-P , 15-P ) :   0.9496 B(  6-O ,  8-Al) :   0.4148
B(  6-O , 11-H ) :   0.7229 B(  7-Cl,  8-Al) :   1.0813 B(  8-Al, 10-B ) :   0.1917
B(  8-Al, 13-P ) :   0.7993 B(  8-Al, 15-P ) :   0.6578 B(  9-P , 12-F ) :   0.8055
B( 10-B , 13-P ) :   2.0094

Dispersion correction           -0.014374033
FINAL SINGLE POINT ENERGY     -2331.112167201371

DIPOLE MOMENT
-------------
                                X             Y             Z
Electronic contribution:      5.36378       2.64471      -3.89742
Nuclear contribution   :     -6.37943      -3.89426       5.59465
                        -----------------------------------------
Total Dipole Moment    :     -1.01565      -1.24955       1.69724
                        -----------------------------------------
Magnitude (a.u.)       :      2.33956
Magnitude (Debye)      :      5.94669

Rotational constants in cm-1:     0.019075     0.014880     0.013054
Rotational constants in MHz :   571.860424   446.104072   391.353562

                             ****ORCA TERMINATED NORMALLY****
TOTAL RUN TIME: 0 days 0 hours 3 minutes 35 seconds 129 msec
