                         Program Version 5.0.3 -  RELEASE  -
|  1> ! PBEh-3c def2/J TightSCF DefGrid3
|  2>
|  3> %maxcore 60000
|  4>
|  5> %pal
|  6> nprocs 4
|  7> end
|  8>
|  9> *xyzfile 0 2 29.xyz
| 10>
| 11>                          ****END OF INPUT****

CARTESIAN COORDINATES (ANGSTROEM)
---------------------------------
  S      1.342382    2.114102    0.824009
  Si    -1.628476    0.174410   -0.154050
  F     -0.478511   -0.757850    2.807163
  H      0.738506   -0.513843   -0.477664
  H      0.191439    1.344910   -2.902291
  H     -0.683701   -2.843067    2.036424
  H     -1.181748   -1.292505    0.812398
  B      0.443227    1.191915   -1.747096
  H     -0.130127   -0.889666   -1.841835
  F     -2.503006   -0.754540   -1.186467
  F      0.952075   -1.546409    1.239237
  C      1.022908    2.230795   -0.845265
  N      0.047241   -0.159972   -1.149272
  Li     0.986963    0.214090    2.091764
  H      1.274312    3.207977   -1.258112
  B     -0.393486   -1.720348    1.751057

 Total Charge           Charge          ....    0
 Multiplicity           Mult            ....    2
 Number of Electrons    NEL             ....   89
 Basis Dimension        Dim             ....  162

ORBITAL ENERGIES
----------------
                 SPIN UP ORBITALS
  NO   OCC          E(Eh)            E(eV)
   0   1.0000     -89.563723     -2437.1528
   1   1.0000     -66.822483     -1818.3322
   2   1.0000     -25.114543      -683.4015
   3   1.0000     -25.106750      -683.1894
   4   1.0000     -25.092258      -682.7950
   5   1.0000     -14.704656      -400.1340
   6   1.0000     -10.463011      -284.7130
   7   1.0000      -8.201690      -223.1793
   8   1.0000      -7.050166      -191.8448
   9   1.0000      -6.977012      -189.8541
  10   1.0000      -6.093219      -165.8049
  11   1.0000      -6.090799      -165.7391
  12   1.0000      -6.085589      -165.5973
  13   1.0000      -5.585652      -151.9933
  14   1.0000      -3.876328      -105.4802
  15   1.0000      -3.875883      -105.4681
  16   1.0000      -3.872189      -105.3676
  17   1.0000      -2.123347       -57.7792
  18   1.0000      -1.345532       -36.6138
  19   1.0000      -1.309768       -35.6406
  20   1.0000      -1.305403       -35.5218
  21   1.0000      -1.032679       -28.1006
  22   1.0000      -0.848730       -23.0951
  23   1.0000      -0.679737       -18.4966
  24   1.0000      -0.673820       -18.3356
  25   1.0000      -0.632957       -17.2236
  26   1.0000      -0.625279       -17.0147
  27   1.0000      -0.604329       -16.4446
  28   1.0000      -0.583134       -15.8679
  29   1.0000      -0.577710       -15.7203
  30   1.0000      -0.564511       -15.3611
  31   1.0000      -0.533803       -14.5255
  32   1.0000      -0.515568       -14.0293
  33   1.0000      -0.509340       -13.8598
  34   1.0000      -0.495596       -13.4858
  35   1.0000      -0.489909       -13.3311
  36   1.0000      -0.472690       -12.8625
  37   1.0000      -0.456243       -12.4150
  38   1.0000      -0.453648       -12.3444
  39   1.0000      -0.398972       -10.8566
  40   1.0000      -0.388170       -10.5627
  41   1.0000      -0.363935        -9.9032
  42   1.0000      -0.306212        -8.3325
  43   1.0000      -0.279536        -7.6066
  44   1.0000      -0.232812        -6.3351
  45   0.0000      -0.033268        -0.9053
  46   0.0000       0.001399         0.0381
  47   0.0000       0.013969         0.3801
  48   0.0000       0.033828         0.9205
  49   0.0000       0.063291         1.7222

                 SPIN DOWN ORBITALS
  NO   OCC          E(Eh)            E(eV)
   0   1.0000     -89.561226     -2437.0849
   1   1.0000     -66.822425     -1818.3306
   2   1.0000     -25.114510      -683.4006
   3   1.0000     -25.106745      -683.1893
   4   1.0000     -25.092241      -682.7946
   5   1.0000     -14.704531      -400.1306
   6   1.0000     -10.458843      -284.5996
   7   1.0000      -8.199166      -223.1106
   8   1.0000      -7.050111      -191.8433
   9   1.0000      -6.973643      -189.7625
  10   1.0000      -6.089497      -165.7036
  11   1.0000      -6.084127      -165.5575
  12   1.0000      -6.083874      -165.5506
  13   1.0000      -5.585577      -151.9913
  14   1.0000      -3.876172      -105.4760
  15   1.0000      -3.875818      -105.4664
  16   1.0000      -3.872104      -105.3653
  17   1.0000      -2.123377       -57.7800
  18   1.0000      -1.345484       -36.6125
  19   1.0000      -1.309725       -35.6394
  20   1.0000      -1.305366       -35.5208
  21   1.0000      -1.031143       -28.0588
  22   1.0000      -0.834430       -22.7060
  23   1.0000      -0.673967       -18.3396
  24   1.0000      -0.656852       -17.8739
  25   1.0000      -0.632060       -17.1992
  26   1.0000      -0.623786       -16.9741
  27   1.0000      -0.598621       -16.2893
  28   1.0000      -0.583052       -15.8657
  29   1.0000      -0.577426       -15.7126
  30   1.0000      -0.563586       -15.3360
  31   1.0000      -0.531420       -14.4607
  32   1.0000      -0.515359       -14.0236
  33   1.0000      -0.508773       -13.8444
  34   1.0000      -0.494164       -13.4469
  35   1.0000      -0.488969       -13.3055
  36   1.0000      -0.469807       -12.7841
  37   1.0000      -0.450615       -12.2618
  38   1.0000      -0.448546       -12.2056
  39   1.0000      -0.395620       -10.7654
  40   1.0000      -0.385059       -10.4780
  41   1.0000      -0.320838        -8.7304
  42   1.0000      -0.299420        -8.1476
  43   1.0000      -0.272957        -7.4275
  44   0.0000      -0.089625        -2.4388
  45   0.0000      -0.021907        -0.5961
  46   0.0000       0.003049         0.0830
  47   0.0000       0.015537         0.4228
  48   0.0000       0.055942         1.5223

MULLIKEN ATOMIC CHARGES AND SPIN POPULATIONS
--------------------------------------------
   0 S :   -0.311767    0.387629
   1 Si:    0.745492    0.008227
   2 F :   -0.406928   -0.000051
   3 H :    0.436667    0.004425
   4 H :    0.062757   -0.027151
   5 H :   -0.000536    0.000696
   6 H :   -0.171058    0.000652
   7 B :    0.170533    0.374968
   8 H :    0.409705    0.000041
   9 F :   -0.462562    0.000313
  10 F :   -0.424416    0.000298
  11 C :   -0.468089    0.261460
  12 N :   -0.913447   -0.008760
  13 Li:    0.588408    0.013464
  14 H :    0.247003   -0.018644
  15 B :    0.498237    0.002434
Sum of atomic charges         :   -0.0000000

LOEWDIN ATOMIC CHARGES AND SPIN POPULATIONS
-------------------------------------------
   0 S :    0.056169    0.386932
   1 Si:    0.506972    0.016431
   2 F :   -0.197531    0.000460
   3 H :    0.296536    0.004963
   4 H :    0.016679   -0.011523
   5 H :   -0.000527    0.000573
   6 H :   -0.018783    0.001141
   7 B :   -0.118873    0.319887
   8 H :    0.285490    0.000288
   9 F :   -0.284826    0.000577
  10 F :   -0.223355    0.000574
  11 C :   -0.357091    0.256431
  12 N :   -0.372198    0.008694
  13 Li:    0.146781    0.020225
  14 H :    0.151444   -0.008742
  15 B :    0.113112    0.003089

  Mayer bond orders larger than 0.100000
B(  0-S , 11-C ) :   1.4576 B(  0-S , 13-Li) :   0.3659 B(  1-Si,  6-H ) :   0.3036
B(  1-Si,  9-F ) :   0.9109 B(  1-Si, 12-N ) :   0.5760 B(  1-Si, 15-B ) :   0.1252
B(  2-F , 13-Li) :   0.1967 B(  2-F , 15-B ) :   0.7726 B(  3-H , 12-N ) :   0.7240
B(  4-H ,  7-B ) :   0.9783 B(  5-H , 15-B ) :   0.9444 B(  6-H , 15-B ) :   0.6281
B(  7-B , 11-C ) :   1.3394 B(  7-B , 12-N ) :   0.8326 B(  8-H , 12-N ) :   0.7962
B( 10-F , 13-Li) :   0.1676 B( 10-F , 15-B ) :   0.7255 B( 11-C , 14-H ) :   0.9044

Dispersion correction           -0.009912696
FINAL SINGLE POINT ENERGY     -1139.397408878989

DIPOLE MOMENT
-------------
                                X             Y             Z
Electronic contribution:     -0.79020      -2.78118       8.03009
Nuclear contribution   :      1.26464       1.97595      -8.05657
                        -----------------------------------------
Total Dipole Moment    :      0.47445      -0.80523      -0.02647
                        -----------------------------------------
Magnitude (a.u.)       :      0.93498
Magnitude (Debye)      :      2.37654

Rotational constants in cm-1:     0.033170     0.029550     0.019012
Rotational constants in MHz :   994.415558   885.871732   569.965124

                             ****ORCA TERMINATED NORMALLY****
TOTAL RUN TIME: 0 days 0 hours 4 minutes 47 seconds 71 msec
