                         Program Version 5.0.3 -  RELEASE  -
|  1> ! PBEh-3c def2/J TightSCF DefGrid3
|  2>
|  3> %maxcore 60000
|  4>
|  5> %pal
|  6> nprocs 4
|  7> end
|  8>
|  9> *xyzfile 0 1 21b.xyz
| 10>
| 11>                          ****END OF INPUT****

CARTESIAN COORDINATES (ANGSTROEM)
---------------------------------
  C      1.207401    0.697093    0.000000
  C      1.207401   -0.697093    0.000000
  C      0.000000   -1.394187    0.000000
  C     -1.207401   -0.697093    0.000000
  C     -1.207401    0.697093    0.000000
  C      0.000000    1.394187    0.000000
  H      2.143881    1.237770    0.000000
  H      2.143881   -1.237770    0.000000
  H      0.000000   -2.475541    0.000000
  H     -2.143881   -1.237770    0.000000
  H     -2.143881    1.237770    0.000000
  H      0.000000    2.475541    0.000000

 Total Charge           Charge          ....    0
 Multiplicity           Mult            ....    1
 Number of Electrons    NEL             ....   42
 Basis Dimension        Dim             ....  102

ORBITAL ENERGIES
----------------

  NO   OCC          E(Eh)            E(eV)
   0   2.0000     -10.448813      -284.3266
   1   2.0000     -10.448595      -284.3207
   2   2.0000     -10.448593      -284.3207
   3   2.0000     -10.447983      -284.3041
   4   2.0000     -10.447980      -284.3040
   5   2.0000     -10.447753      -284.2978
   6   2.0000      -0.951930       -25.9033
   7   2.0000      -0.835406       -22.7325
   8   2.0000      -0.835405       -22.7325
   9   2.0000      -0.678982       -18.4760
  10   2.0000      -0.678982       -18.4760
  11   2.0000      -0.591961       -16.1081
  12   2.0000      -0.526075       -14.3152
  13   2.0000      -0.508352       -13.8330
  14   2.0000      -0.481785       -13.1100
  15   2.0000      -0.481783       -13.1100
  16   2.0000      -0.420747       -11.4491
  17   2.0000      -0.398354       -10.8398
  18   2.0000      -0.398353       -10.8397
  19   2.0000      -0.292423        -7.9572
  20   2.0000      -0.292420        -7.9571
  21   0.0000       0.019107         0.5199
  22   0.0000       0.019108         0.5200
  23   0.0000       0.140870         3.8333
  24   0.0000       0.196071         5.3354
  25   0.0000       0.201864         5.4930

MULLIKEN ATOMIC CHARGES
-----------------------
   0 C :   -0.219888
   1 C :   -0.219888
   2 C :   -0.219901
   3 C :   -0.219888
   4 C :   -0.219888
   5 C :   -0.219901
   6 H :    0.219888
   7 H :    0.219888
   8 H :    0.219901
   9 H :    0.219888
  10 H :    0.219888
  11 H :    0.219901
Sum of atomic charges:    0.0000000

LOEWDIN ATOMIC CHARGES
----------------------
   0 C :   -0.135685
   1 C :   -0.135685
   2 C :   -0.135691
   3 C :   -0.135685
   4 C :   -0.135685
   5 C :   -0.135691
   6 H :    0.135687
   7 H :    0.135687
   8 H :    0.135686
   9 H :    0.135687
  10 H :    0.135687
  11 H :    0.135686

  Mayer bond orders larger than 0.100000
B(  0-C ,  1-C ) :   1.4265 B(  0-C ,  5-C ) :   1.4265 B(  0-C ,  6-H ) :   0.9200
B(  1-C ,  2-C ) :   1.4265 B(  1-C ,  7-H ) :   0.9200 B(  2-C ,  3-C ) :   1.4265
B(  2-C ,  8-H ) :   0.9200 B(  3-C ,  4-C ) :   1.4265 B(  3-C ,  9-H ) :   0.9200
B(  4-C ,  5-C ) :   1.4265 B(  4-C , 10-H ) :   0.9200 B(  5-C , 11-H ) :   0.9200

Dispersion correction           -0.005880242
FINAL SINGLE POINT ENERGY      -231.725773722014

DIPOLE MOMENT
-------------
                                X             Y             Z
Electronic contribution:     -0.00000       0.00000       0.00000
Nuclear contribution   :      0.00000       0.00000       0.00000
                        -----------------------------------------
Total Dipole Moment    :     -0.00000       0.00000       0.00000
                        -----------------------------------------
Magnitude (a.u.)       :      0.00000
Magnitude (Debye)      :      0.00000

Rotational constants in cm-1:     0.190328     0.190328     0.095164
Rotational constants in MHz :  5705.902156  5705.902034  2852.951047

                             ****ORCA TERMINATED NORMALLY****
TOTAL RUN TIME: 0 days 0 hours 1 minutes 1 seconds 680 msec
