                         Program Version 5.0.3 -  RELEASE  -
|  1> ! PBEh-3c def2/J TightSCF DefGrid3
|  2>
|  3> %maxcore 60000
|  4>
|  5> %pal
|  6> nprocs 4
|  7> end
|  8>
|  9> *xyzfile 0 2 b.xyz
| 10>
| 11>                          ****END OF INPUT****

CARTESIAN COORDINATES (ANGSTROEM)
---------------------------------
  B      0.000000    0.000000    0.000000

 Total Charge           Charge          ....    0
 Multiplicity           Mult            ....    2
 Number of Electrons    NEL             ....    5
 Basis Dimension        Dim             ....   15

ORBITAL ENERGIES
----------------
                 SPIN UP ORBITALS
  NO   OCC          E(Eh)            E(eV)
   0   1.0000      -7.073970      -192.4925
   1   1.0000      -0.444794       -12.1035
   2   1.0000      -0.226876        -6.1736
   3   0.0000      -0.062859        -1.7105
   4   0.0000      -0.062859        -1.7105
   5   0.0000       0.313715         8.5366
   6   0.0000       0.345386         9.3984
   7   0.0000       0.345386         9.3984

                 SPIN DOWN ORBITALS
  NO   OCC          E(Eh)            E(eV)
   0   1.0000      -7.063342      -192.2033
   1   1.0000      -0.389369       -10.5953
   2   0.0000      -0.048738        -1.3262
   3   0.0000      -0.048738        -1.3262
   4   0.0000      -0.011304        -0.3076
   5   0.0000       0.354867         9.6564
   6   0.0000       0.354867         9.6564

MULLIKEN ATOMIC CHARGES AND SPIN POPULATIONS
--------------------------------------------
   0 B :   -0.000000    1.000000
Sum of atomic charges         :   -0.0000000

LOEWDIN ATOMIC CHARGES AND SPIN POPULATIONS
-------------------------------------------
   0 B :   -0.000000    1.000000

Dispersion correction            0.000000000
FINAL SINGLE POINT ENERGY       -24.583849477744

DIPOLE MOMENT
-------------
                                X             Y             Z
Electronic contribution:      0.00012       0.00004       0.00001
Nuclear contribution   :      0.00000       0.00000       0.00000
                        -----------------------------------------
Total Dipole Moment    :      0.00012       0.00004       0.00001
                        -----------------------------------------
Magnitude (a.u.)       :      0.00012
Magnitude (Debye)      :      0.00031

Rotational constants in cm-1:     0.000000     0.000000     0.000000
Rotational constants in MHz :     0.000000     0.000000     0.000000

                             ****ORCA TERMINATED NORMALLY****
TOTAL RUN TIME: 0 days 0 hours 0 minutes 5 seconds 250 msec
