                         Program Version 5.0.3 -  RELEASE  -
|  1> ! PBEh-3c def2/J TightSCF DefGrid3
|  2>
|  3> %maxcore 60000
|  4>
|  5> %pal
|  6> nprocs 4
|  7> end
|  8>
|  9> *xyzfile 0 1 30_CF3I-benB.xyz
| 10>
| 11>                          ****END OF INPUT****

CARTESIAN COORDINATES (ANGSTROEM)
---------------------------------
  I      0.003414   -3.215656    1.728463
  C      0.106167   -5.333397    1.850723
  F      0.135278   -5.877101    0.636074
  F      1.202219   -5.716997    2.501577
  F     -0.950096   -5.821924    2.496892

 Total Charge           Charge          ....    0
 Multiplicity           Mult            ....    1
 Number of Electrons    NEL             ....   58
 Basis Dimension        Dim             ....   86

ORBITAL ENERGIES
----------------

  NO   OCC          E(Eh)            E(eV)
   0   2.0000     -25.158886      -684.6081
   1   2.0000     -25.158794      -684.6056
   2   2.0000     -25.158759      -684.6046
   3   2.0000     -10.752228      -292.5830
   4   2.0000      -7.123279      -193.8343
   5   2.0000      -5.107993      -138.9955
   6   2.0000      -5.089586      -138.4947
   7   2.0000      -5.089586      -138.4947
   8   2.0000      -2.062099       -56.1126
   9   2.0000      -2.056173       -55.9513
  10   2.0000      -2.056173       -55.9513
  11   2.0000      -2.040164       -55.5157
  12   2.0000      -2.040163       -55.5157
  13   2.0000      -1.474580       -40.1254
  14   2.0000      -1.379223       -37.5306
  15   2.0000      -1.379167       -37.5290
  16   2.0000      -0.853193       -23.2166
  17   2.0000      -0.775146       -21.0928
  18   2.0000      -0.694793       -18.9063
  19   2.0000      -0.694771       -18.9057
  20   2.0000      -0.645448       -17.5635
  21   2.0000      -0.568299       -15.4642
  22   2.0000      -0.568290       -15.4640
  23   2.0000      -0.529564       -14.4102
  24   2.0000      -0.529540       -14.4095
  25   2.0000      -0.506385       -13.7794
  26   2.0000      -0.427756       -11.6398
  27   2.0000      -0.336396        -9.1538
  28   2.0000      -0.336391        -9.1537
  29   0.0000      -0.040409        -1.0996
  30   0.0000       0.161171         4.3857
  31   0.0000       0.161211         4.3868
  32   0.0000       0.234175         6.3722
  33   0.0000       0.281646         7.6640

MULLIKEN ATOMIC CHARGES
-----------------------
   0 I :    0.050741
   1 C :    0.755573
   2 F :   -0.268711
   3 F :   -0.268841
   4 F :   -0.268762
Sum of atomic charges:    0.0000000

LOEWDIN ATOMIC CHARGES
----------------------
   0 I :    0.111252
   1 C :    0.235204
   2 F :   -0.115419
   3 F :   -0.115561
   4 F :   -0.115476

  Mayer bond orders larger than 0.100000
B(  0-I ,  1-C ) :   0.9929 B(  1-C ,  2-F ) :   1.0230 B(  1-C ,  3-F ) :   1.0229
B(  1-C ,  4-F ) :   1.0230

Dispersion correction           -0.001542940
FINAL SINGLE POINT ENERGY      -634.717342290467

DIPOLE MOMENT
-------------
                                X             Y             Z
Electronic contribution:     -2.89693      59.67662      -3.44954
Nuclear contribution   :      2.88030     -59.33657       3.42965
                        -----------------------------------------
Total Dipole Moment    :     -0.01663       0.34005      -0.01989
                        -----------------------------------------
Magnitude (a.u.)       :      0.34104
Magnitude (Debye)      :      0.86686

Rotational constants in cm-1:     0.191081     0.051241     0.051240
Rotational constants in MHz :  5728.473217  1536.169680  1536.138441

                             ****ORCA TERMINATED NORMALLY****
TOTAL RUN TIME: 0 days 0 hours 1 minutes 9 seconds 647 msec
