                         Program Version 5.0.3 -  RELEASE  -
|  1> ! PBEh-3c def2/J TightSCF DefGrid3
|  2>
|  3> %maxcore 60000
|  4>
|  5> %pal
|  6> nprocs 4
|  7> end
|  8>
|  9> *xyzfile 0 1 16B.xyz
| 10>
| 11>                          ****END OF INPUT****

CARTESIAN COORDINATES (ANGSTROEM)
---------------------------------
  O      0.000000    0.000000   -0.393299
  H     -0.756720    0.000000    0.196642
  H      0.756720    0.000000    0.196642

 Total Charge           Charge          ....    0
 Multiplicity           Mult            ....    1
 Number of Electrons    NEL             ....   10
 Basis Dimension        Dim             ....   19

ORBITAL ENERGIES
----------------

  NO   OCC          E(Eh)            E(eV)
   0   2.0000     -19.474283      -529.9222
   1   2.0000      -1.103209       -30.0199
   2   2.0000      -0.581611       -15.8264
   3   2.0000      -0.435223       -11.8430
   4   2.0000      -0.356675        -9.7056
   5   0.0000       0.131671         3.5830
   6   0.0000       0.209630         5.7043
   7   0.0000       0.872812        23.7504
   8   0.0000       0.982486        26.7348
   9   0.0000       0.991540        26.9812

MULLIKEN ATOMIC CHARGES
-----------------------
   0 O :   -0.816510
   1 H :    0.408255
   2 H :    0.408255
Sum of atomic charges:   -0.0000000

LOEWDIN ATOMIC CHARGES
----------------------
   0 O :   -0.596950
   1 H :    0.298475
   2 H :    0.298475

  Mayer bond orders larger than 0.100000
B(  0-O ,  1-H ) :   0.8159 B(  0-O ,  2-H ) :   0.8159

Dispersion correction           -0.000209580
FINAL SINGLE POINT ENERGY       -76.258027598989

DIPOLE MOMENT
-------------
                                X             Y             Z
Electronic contribution:      0.00000      -0.00000      -0.13058
Nuclear contribution   :      0.00000       0.00000       0.98209
                        -----------------------------------------
Total Dipole Moment    :      0.00000      -0.00000       0.85151
                        -----------------------------------------
Magnitude (a.u.)       :      0.85151
Magnitude (Debye)      :      2.16436

Rotational constants in cm-1:    27.053947    14.602786     9.483773
Rotational constants in MHz : 811056.938873 437780.508820 284316.361619

                             ****ORCA TERMINATED NORMALLY****
TOTAL RUN TIME: 0 days 0 hours 1 minutes 3 seconds 225 msec
