                         Program Version 5.0.3 -  RELEASE  -
|  1> ! PBEh-3c def2/J TightSCF DefGrid3
|  2>
|  3> %maxcore 60000
|  4>
|  5> %pal
|  6> nprocs 4
|  7> end
|  8>
|  9> *xyzfile 0 1 GLN_xan.xyz
| 10>
| 11>                          ****END OF INPUT****

CARTESIAN COORDINATES (ANGSTROEM)
---------------------------------
  N      1.746658    0.403619    0.099450
  C      0.314673    0.251659    0.093971
  C     -0.293174    1.648656    0.051027
  O      0.357106    2.626411    0.420525
  C     -0.145924   -0.530131    1.334032
  C     -1.587221   -1.039081    1.235593
  C     -1.863491   -1.599078   -0.142716
  O     -2.646435   -1.054013   -0.920259
  H      2.093963    1.330039    0.298692
  H      0.035994   -0.305057   -0.802220
  H      0.538161   -1.371456    1.437870
  H     -0.027019    0.100136    2.216233
  H     -1.755246   -1.808602    1.989050
  H     -2.302910   -0.238941    1.401491
  C      2.551153   -0.650298   -0.165260
  O      2.100944   -1.772160   -0.404933
  N     -1.569570    1.695951   -0.377042
  H     -2.018560    0.840930   -0.688335
  C     -2.313702    2.937804   -0.417542
  H     -3.296163    2.799480    0.027619
  H     -1.758511    3.680243    0.146724
  H     -2.435840    3.291534   -1.440166
  C      4.031728   -0.366548   -0.154008
  H      4.509476   -1.039345    0.553925
  H      4.265843    0.661899    0.108091
  H      4.433125   -0.587090   -1.140481
  N     -1.171663   -2.719979   -0.473078
  H     -1.202032   -2.980318   -1.445443
  H     -0.308884   -2.919848    0.007113

 Total Charge           Charge          ....    0
 Multiplicity           Mult            ....    1
 Number of Electrons    NEL             ....  108
 Basis Dimension        Dim             ....  240

ORBITAL ENERGIES
----------------

  NO   OCC          E(Eh)            E(eV)
   0   2.0000     -19.475410      -529.9528
   1   2.0000     -19.464584      -529.6583
   2   2.0000     -19.460334      -529.5426
   3   2.0000     -14.663817      -399.0227
   4   2.0000     -14.661291      -398.9540
   5   2.0000     -14.660783      -398.9402
   6   2.0000     -10.563344      -287.4432
   7   2.0000     -10.553291      -287.1696
   8   2.0000     -10.551561      -287.1226
   9   2.0000     -10.494401      -285.5672
  10   2.0000     -10.464431      -284.7516
  11   2.0000     -10.458789      -284.5981
  12   2.0000     -10.457399      -284.5603
  13   2.0000     -10.444299      -284.2038
  14   2.0000      -1.156826       -31.4788
  15   2.0000      -1.151767       -31.3412
  16   2.0000      -1.141641       -31.0656
  17   2.0000      -1.029856       -28.0238
  18   2.0000      -1.023846       -27.8603
  19   2.0000      -1.013772       -27.5861
  20   2.0000      -0.906345       -24.6629
  21   2.0000      -0.847787       -23.0695
  22   2.0000      -0.814076       -22.1521
  23   2.0000      -0.776996       -21.1431
  24   2.0000      -0.722948       -19.6724
  25   2.0000      -0.672222       -18.2921
  26   2.0000      -0.656563       -17.8660
  27   2.0000      -0.652130       -17.7454
  28   2.0000      -0.612968       -16.6797
  29   2.0000      -0.604292       -16.4436
  30   2.0000      -0.565816       -15.3966
  31   2.0000      -0.556459       -15.1420
  32   2.0000      -0.542136       -14.7523
  33   2.0000      -0.522174       -14.2091
  34   2.0000      -0.518504       -14.1092
  35   2.0000      -0.512544       -13.9470
  36   2.0000      -0.502037       -13.6611
  37   2.0000      -0.498842       -13.5742
  38   2.0000      -0.487820       -13.2743
  39   2.0000      -0.470238       -12.7958
  40   2.0000      -0.459433       -12.5018
  41   2.0000      -0.456317       -12.4170
  42   2.0000      -0.453358       -12.3365
  43   2.0000      -0.441230       -12.0065
  44   2.0000      -0.432113       -11.7584
  45   2.0000      -0.426091       -11.5945
  46   2.0000      -0.413027       -11.2390
  47   2.0000      -0.399255       -10.8643
  48   2.0000      -0.338916        -9.2224
  49   2.0000      -0.321818        -8.7571
  50   2.0000      -0.321390        -8.7455
  51   2.0000      -0.312973        -8.5164
  52   2.0000      -0.309987        -8.4352
  53   2.0000      -0.298803        -8.1309
  54   0.0000       0.039516         1.0753
  55   0.0000       0.049460         1.3459
  56   0.0000       0.064848         1.7646
  57   0.0000       0.117226         3.1899
  58   0.0000       0.135913         3.6984

MULLIKEN ATOMIC CHARGES
-----------------------
   0 N :   -0.643119
   1 C :   -0.174651
   2 C :    0.541212
   3 O :   -0.452620
   4 C :   -0.459364
   5 C :   -0.553126
   6 C :    0.479142
   7 O :   -0.440146
   8 H :    0.385687
   9 H :    0.269986
  10 H :    0.254105
  11 H :    0.253468
  12 H :    0.262298
  13 H :    0.261844
  14 C :    0.533375
  15 O :   -0.470712
  16 N :   -0.661339
  17 H :    0.410893
  18 C :   -0.494880
  19 H :    0.223680
  20 H :    0.258625
  21 H :    0.226426
  22 C :   -0.745192
  23 H :    0.255129
  24 H :    0.222107
  25 H :    0.258109
  26 N :   -0.764842
  27 H :    0.373222
  28 H :    0.390685
Sum of atomic charges:    0.0000000

LOEWDIN ATOMIC CHARGES
----------------------
   0 N :   -0.214938
   1 C :   -0.095748
   2 C :    0.109782
   3 O :   -0.299984
   4 C :   -0.232685
   5 C :   -0.275911
   6 C :    0.103781
   7 O :   -0.292558
   8 H :    0.270831
   9 H :    0.145457
  10 H :    0.140751
  11 H :    0.141789
  12 H :    0.150916
  13 H :    0.148248
  14 C :    0.109439
  15 O :   -0.314561
  16 N :   -0.239001
  17 H :    0.267317
  18 C :   -0.254113
  19 H :    0.126221
  20 H :    0.149695
  21 H :    0.124913
  22 C :   -0.385018
  23 H :    0.155570
  24 H :    0.132141
  25 H :    0.157567
  26 N :   -0.356688
  27 H :    0.261307
  28 H :    0.265480

  Mayer bond orders larger than 0.100000
B(  0-N ,  1-C ) :   0.9322 B(  0-N ,  8-H ) :   0.7760 B(  0-N , 14-C ) :   1.1787
B(  1-C ,  2-C ) :   0.9057 B(  1-C ,  4-C ) :   0.9418 B(  1-C ,  9-H ) :   0.8708
B(  2-C ,  3-O ) :   1.9452 B(  2-C , 16-N ) :   1.1873 B(  3-O , 16-N ) :   0.1030
B(  4-C ,  5-C ) :   0.9531 B(  4-C , 10-H ) :   0.8958 B(  4-C , 11-H ) :   0.9069
B(  5-C ,  6-C ) :   0.9303 B(  5-C , 12-H ) :   0.8983 B(  5-C , 13-H ) :   0.9034
B(  6-C ,  7-O ) :   1.9208 B(  6-C , 26-N ) :   1.1860 B( 14-C , 15-O ) :   1.9114
B( 14-C , 22-C ) :   0.9312 B( 16-N , 17-H ) :   0.7207 B( 16-N , 18-C ) :   0.9568
B( 18-C , 19-H ) :   0.9223 B( 18-C , 20-H ) :   0.9037 B( 18-C , 21-H ) :   0.9185
B( 22-C , 23-H ) :   0.9111 B( 22-C , 24-H ) :   0.9200 B( 22-C , 25-H ) :   0.9090
B( 26-N , 27-H ) :   0.8271 B( 26-N , 28-H ) :   0.8015

Dispersion correction           -0.018306220
FINAL SINGLE POINT ENERGY      -702.375124875948

DIPOLE MOMENT
-------------
                                X             Y             Z
Electronic contribution:     -0.96011      -1.76444      -2.07973
Nuclear contribution   :      1.26549       1.53842       2.50552
                        -----------------------------------------
Total Dipole Moment    :      0.30538      -0.22602       0.42579
                        -----------------------------------------
Magnitude (a.u.)       :      0.57064
Magnitude (Debye)      :      1.45046

Rotational constants in cm-1:     0.026298     0.018782     0.012332
Rotational constants in MHz :   788.401931   563.060945   369.690905

                             ****ORCA TERMINATED NORMALLY****
TOTAL RUN TIME: 0 days 0 hours 3 minutes 57 seconds 78 msec
