                         Program Version 5.0.3 -  RELEASE  -
|  1> ! PBEh-3c def2/J TightSCF DefGrid3
|  2>
|  3> %maxcore 60000
|  4>
|  5> %pal
|  6> nprocs 4
|  7> end
|  8>
|  9> *xyzfile 0 1 11B.xyz
| 10>
| 11>                          ****END OF INPUT****

CARTESIAN COORDINATES (ANGSTROEM)
---------------------------------
  C     -1.025076    1.531108   -0.456171
  H     -0.900457    1.942284   -1.455215
  H     -0.518504    2.172100    0.261614
  H     -2.091487    1.504578   -0.237749
  C     -0.513084    0.113310   -0.453877
  O     -0.973064   -0.752426   -1.193051
  N      0.473399   -0.159722    0.438454
  H      0.873160    0.595211    0.963807
  C      1.061844   -1.479313    0.515953
  H      0.273668   -2.220643    0.422933
  H      1.783104   -1.651308   -0.282591
  H      1.556498   -1.595181    1.475893

 Total Charge           Charge          ....    0
 Multiplicity           Mult            ....    1
 Number of Electrons    NEL             ....   40
 Basis Dimension        Dim             ....   89

ORBITAL ENERGIES
----------------

  NO   OCC          E(Eh)            E(eV)
   0   2.0000     -19.445477      -529.1383
   1   2.0000     -14.660312      -398.9274
   2   2.0000     -10.540946      -286.8337
   3   2.0000     -10.464942      -284.7655
   4   2.0000     -10.440206      -284.0925
   5   2.0000      -1.132078       -30.8054
   6   2.0000      -1.016609       -27.6633
   7   2.0000      -0.840689       -22.8763
   8   2.0000      -0.768969       -20.9247
   9   2.0000      -0.654449       -17.8085
  10   2.0000      -0.568656       -15.4739
  11   2.0000      -0.528844       -14.3906
  12   2.0000      -0.520546       -14.1648
  13   2.0000      -0.480831       -13.0841
  14   2.0000      -0.463151       -12.6030
  15   2.0000      -0.451761       -12.2930
  16   2.0000      -0.443061       -12.0563
  17   2.0000      -0.400332       -10.8936
  18   2.0000      -0.302862        -8.2413
  19   2.0000      -0.296730        -8.0744
  20   0.0000       0.068196         1.8557
  21   0.0000       0.117689         3.2025
  22   0.0000       0.175930         4.7873
  23   0.0000       0.181087         4.9276
  24   0.0000       0.205375         5.5885

MULLIKEN ATOMIC CHARGES
-----------------------
   0 C :   -0.746119
   1 H :    0.257376
   2 H :    0.205840
   3 H :    0.259740
   4 C :    0.520091
   5 O :   -0.434199
   6 N :   -0.623978
   7 H :    0.352372
   8 C :   -0.486102
   9 H :    0.255878
  10 H :    0.226672
  11 H :    0.212429
Sum of atomic charges:    0.0000000

LOEWDIN ATOMIC CHARGES
----------------------
   0 C :   -0.389326
   1 H :    0.156046
   2 H :    0.124065
   3 H :    0.158114
   4 C :    0.102563
   5 O :   -0.286634
   6 N :   -0.252337
   7 H :    0.250316
   8 C :   -0.255087
   9 H :    0.145528
  10 H :    0.123552
  11 H :    0.123201

  Mayer bond orders larger than 0.100000
B(  0-C ,  1-H ) :   0.9106 B(  0-C ,  2-H ) :   0.9230 B(  0-C ,  3-H ) :   0.9099
B(  0-C ,  4-C ) :   0.9296 B(  4-C ,  5-O ) :   1.9877 B(  4-C ,  6-N ) :   1.1376
B(  6-N ,  7-H ) :   0.8302 B(  6-N ,  8-C ) :   0.9517 B(  8-C ,  9-H ) :   0.9070
B(  8-C , 10-H ) :   0.9167 B(  8-C , 11-H ) :   0.9270

Dispersion correction           -0.004443286
FINAL SINGLE POINT ENERGY      -247.989066971055

DIPOLE MOMENT
-------------
                                X             Y             Z
Electronic contribution:     -1.32229      -0.93367      -1.54886
Nuclear contribution   :      2.13623       1.72880       2.55144
                        -----------------------------------------
Total Dipole Moment    :      0.81394       0.79512       1.00257
                        -----------------------------------------
Magnitude (a.u.)       :      1.51653
Magnitude (Debye)      :      3.85472

Rotational constants in cm-1:     0.336668     0.130344     0.097367
Rotational constants in MHz : 10093.038364  3907.599865  2918.981913

                             ****ORCA TERMINATED NORMALLY****
TOTAL RUN TIME: 0 days 0 hours 1 minutes 19 seconds 473 msec
