                         Program Version 5.0.3 -  RELEASE  -
|  1> ! PBEh-3c def2/J TightSCF DefGrid3
|  2>
|  3> %maxcore 60000
|  4>
|  5> %pal
|  6> nprocs 4
|  7> end
|  8>
|  9> *xyzfile 0 1 19.xyz
| 10>
| 11>                          ****END OF INPUT****

CARTESIAN COORDINATES (ANGSTROEM)
---------------------------------
  H     -1.133138   -0.711229   -1.230297
  F      2.363683   -1.083756    0.235073
  P     -2.604677   -0.919362    0.512722
  Al    -0.693043   -0.280344    1.822769
  H     -2.297734   -2.277951    0.211075
  H      0.326970    1.389006   -1.736913
  Al     2.241398   -0.893459   -1.872358
  B      1.180753    1.024380   -0.954554
  Li    -1.229202    1.537810   -0.739180
  P      1.241227    1.513840    0.967480
  O     -1.939071   -0.227071   -0.962877
  H     -0.184830   -0.931289    3.164572
  H      0.156111   -1.059551    0.280588
  B      1.113650   -0.300263    0.163916
  S     -0.843272    1.953596    1.523386
  H      2.301173    1.265641   -1.385402

 Total Charge           Charge          ....    0
 Multiplicity           Mult            ....    1
 Number of Electrons    NEL             ....  108
 Basis Dimension        Dim             ....  171

ORBITAL ENERGIES
----------------

  NO   OCC          E(Eh)            E(eV)
   0   2.0000     -89.585020     -2437.7323
   1   2.0000     -77.768446     -2116.1870
   2   2.0000     -77.755660     -2115.8391
   3   2.0000     -56.645371     -1541.3989
   4   2.0000     -56.630985     -1541.0075
   5   2.0000     -25.125130      -683.6895
   6   2.0000     -19.551753      -532.0303
   7   2.0000      -8.223598      -223.7755
   8   2.0000      -7.020048      -191.0252
   9   2.0000      -6.950044      -189.1203
  10   2.0000      -6.839278      -186.1062
  11   2.0000      -6.827882      -185.7961
  12   2.0000      -6.114321      -166.3791
  13   2.0000      -6.109991      -166.2613
  14   2.0000      -6.108032      -166.2080
  15   2.0000      -4.931451      -134.1916
  16   2.0000      -4.928708      -134.1170
  17   2.0000      -4.926891      -134.0675
  18   2.0000      -4.918777      -133.8467
  19   2.0000      -4.916960      -133.7973
  20   2.0000      -4.916102      -133.7739
  21   2.0000      -4.377349      -119.1137
  22   2.0000      -4.367003      -118.8322
  23   2.0000      -2.864196       -77.9387
  24   2.0000      -2.864069       -77.9353
  25   2.0000      -2.861762       -77.8725
  26   2.0000      -2.858337       -77.7793
  27   2.0000      -2.855861       -77.7119
  28   2.0000      -2.852464       -77.6195
  29   2.0000      -2.125076       -57.8263
  30   2.0000      -1.334378       -36.3103
  31   2.0000      -1.151085       -31.3226
  32   2.0000      -0.827866       -22.5274
  33   2.0000      -0.726918       -19.7804
  34   2.0000      -0.705750       -19.2044
  35   2.0000      -0.628451       -17.1010
  36   2.0000      -0.600563       -16.3421
  37   2.0000      -0.597156       -16.2494
  38   2.0000      -0.563723       -15.3397
  39   2.0000      -0.545070       -14.8321
  40   2.0000      -0.524751       -14.2792
  41   2.0000      -0.473891       -12.8952
  42   2.0000      -0.466246       -12.6872
  43   2.0000      -0.447817       -12.1857
  44   2.0000      -0.437522       -11.9056
  45   2.0000      -0.420722       -11.4484
  46   2.0000      -0.378745       -10.3062
  47   2.0000      -0.368951       -10.0397
  48   2.0000      -0.354203        -9.6384
  49   2.0000      -0.348258        -9.4766
  50   2.0000      -0.305395        -8.3102
  51   2.0000      -0.293985        -7.9998
  52   2.0000      -0.272292        -7.4094
  53   2.0000      -0.248644        -6.7659
  54   0.0000      -0.048906        -1.3308
  55   0.0000      -0.030856        -0.8396
  56   0.0000      -0.019572        -0.5326
  57   0.0000      -0.006185        -0.1683
  58   0.0000       0.004984         0.1356

MULLIKEN ATOMIC CHARGES
-----------------------
   0 H :    0.463394
   1 F :   -0.362939
   2 P :    0.021753
   3 Al:    0.562140
   4 H :    0.058090
   5 H :   -0.005933
   6 Al:    0.397878
   7 B :   -0.604010
   8 Li:    0.706739
   9 P :    0.011978
  10 O :   -0.794497
  11 H :   -0.048763
  12 H :   -0.034815
  13 B :    0.055878
  14 S :   -0.510047
  15 H :    0.083153
Sum of atomic charges:    0.0000000

LOEWDIN ATOMIC CHARGES
----------------------
   0 H :    0.341763
   1 F :   -0.200986
   2 P :    0.176842
   3 Al:    0.099286
   4 H :    0.023547
   5 H :    0.063115
   6 Al:    0.355957
   7 B :   -0.560657
   8 Li:    0.146359
   9 P :    0.253473
  10 O :   -0.479660
  11 H :   -0.058666
  12 H :    0.064777
  13 B :   -0.259952
  14 S :   -0.047945
  15 H :    0.082746

  Mayer bond orders larger than 0.100000
B(  0-H , 10-O ) :   0.7186 B(  1-F ,  6-Al) :   0.2553 B(  1-F , 13-B ) :   0.7688
B(  2-P ,  3-Al) :   0.8083 B(  2-P ,  4-H ) :   0.9331 B(  2-P , 10-O ) :   0.7503
B(  3-Al,  9-P ) :   0.1448 B(  3-Al, 11-H ) :   0.9357 B(  3-Al, 12-H ) :   0.2016
B(  3-Al, 13-B ) :   0.2233 B(  3-Al, 14-S ) :   0.7669 B(  5-H ,  7-B ) :   0.8875
B(  6-Al,  7-B ) :   0.3106 B(  6-Al, 13-B ) :   0.1564 B(  7-B ,  9-P ) :   0.8562
B(  7-B , 13-B ) :   0.7267 B(  7-B , 15-H ) :   0.8820 B(  8-Li, 10-O ) :   0.2365
B(  8-Li, 14-S ) :   0.2290 B(  9-P , 13-B ) :   0.7825 B(  9-P , 14-S ) :   0.9032
B( 12-H , 13-B ) :   0.7027

Dispersion correction           -0.013148087
FINAL SINGLE POINT ENERGY     -1799.456026144280

DIPOLE MOMENT
-------------
                                X             Y             Z
Electronic contribution:      3.30951       2.11176      -0.62399
Nuclear contribution   :     -3.79469      -2.36498      -0.54935
                        -----------------------------------------
Total Dipole Moment    :     -0.48518      -0.25322      -1.17335
                        -----------------------------------------
Magnitude (a.u.)       :      1.29470
Magnitude (Debye)      :      3.29088

Rotational constants in cm-1:     0.030773     0.019051     0.015332
Rotational constants in MHz :   922.543867   571.129312   459.645582

                             ****ORCA TERMINATED NORMALLY****
TOTAL RUN TIME: 0 days 0 hours 2 minutes 55 seconds 202 msec
