                         Program Version 5.0.3 -  RELEASE  -
|  1> ! PBEh-3c def2/J TightSCF DefGrid3
|  2>
|  3> %maxcore 60000
|  4>
|  5> %pal
|  6> nprocs 4
|  7> end
|  8>
|  9> *xyzfile 0 1 c20cage.xyz
| 10>
| 11>                          ****END OF INPUT****

CARTESIAN COORDINATES (ANGSTROEM)
---------------------------------
  C      1.966567    0.000000   -0.699865
  C      1.178022    1.180099   -1.119582
  C      0.000000    0.719862   -1.811086
  C      0.000000   -0.719862   -1.811086
  C      1.178022   -1.180099   -1.119582
  C     -1.178022    1.180099   -1.119582
  C     -1.966567    0.000000   -0.699865
  C     -1.178022   -1.180099   -1.119582
  C     -0.763726    1.951490    0.000000
  C     -1.178022    1.180099    1.119582
  C     -1.966567    0.000000    0.699865
  C     -0.763726   -1.951490    0.000000
  C     -1.178022   -1.180099    1.119582
  C      0.000000   -0.719862    1.811086
  C      0.000000    0.719862    1.811086
  C      0.763726    1.951490    0.000000
  C      1.178022    1.180099    1.119582
  C      0.763726   -1.951490    0.000000
  C      1.178022   -1.180099    1.119582
  C      1.966567    0.000000    0.699865

 Total Charge           Charge          ....    0
 Multiplicity           Mult            ....    1
 Number of Electrons    NEL             ....  120
 Basis Dimension        Dim             ....  300

ORBITAL ENERGIES
----------------

  NO   OCC          E(Eh)            E(eV)
   0   2.0000     -10.540824      -286.8304
   1   2.0000     -10.540790      -286.8295
   2   2.0000     -10.540408      -286.8191
   3   2.0000     -10.540400      -286.8189
   4   2.0000     -10.537877      -286.7502
   5   2.0000     -10.537792      -286.7479
   6   2.0000     -10.537777      -286.7475
   7   2.0000     -10.537741      -286.7465
   8   2.0000     -10.537728      -286.7462
   9   2.0000     -10.537714      -286.7458
  10   2.0000     -10.537669      -286.7446
  11   2.0000     -10.537635      -286.7436
  12   2.0000     -10.517395      -286.1929
  13   2.0000     -10.517377      -286.1924
  14   2.0000     -10.517236      -286.1886
  15   2.0000     -10.517179      -286.1870
  16   2.0000     -10.517087      -286.1845
  17   2.0000     -10.517050      -286.1835
  18   2.0000     -10.516477      -286.1679
  19   2.0000     -10.516469      -286.1677
  20   2.0000      -1.149467       -31.2786
  21   2.0000      -1.057996       -28.7895
  22   2.0000      -1.057961       -28.7886
  23   2.0000      -1.057713       -28.7818
  24   2.0000      -0.919360       -25.0171
  25   2.0000      -0.916135       -24.9293
  26   2.0000      -0.910452       -24.7747
  27   2.0000      -0.904379       -24.6094
  28   2.0000      -0.898357       -24.4455
  29   2.0000      -0.767958       -20.8972
  30   2.0000      -0.741775       -20.1847
  31   2.0000      -0.738595       -20.0982
  32   2.0000      -0.734158       -19.9774
  33   2.0000      -0.715179       -19.4610
  34   2.0000      -0.711507       -19.3611
  35   2.0000      -0.703592       -19.1457
  36   2.0000      -0.581593       -15.8260
  37   2.0000      -0.579373       -15.7656
  38   2.0000      -0.574588       -15.6353
  39   2.0000      -0.568496       -15.4696
  40   2.0000      -0.561125       -15.2690
  41   2.0000      -0.535818       -14.5803
  42   2.0000      -0.530670       -14.4403
  43   2.0000      -0.524492       -14.2721
  44   2.0000      -0.512882       -13.9562
  45   2.0000      -0.506196       -13.7743
  46   2.0000      -0.480142       -13.0653
  47   2.0000      -0.480100       -13.0642
  48   2.0000      -0.478683       -13.0256
  49   2.0000      -0.451671       -12.2906
  50   2.0000      -0.448075       -12.1927
  51   2.0000      -0.443106       -12.0575
  52   2.0000      -0.436366       -11.8741
  53   2.0000      -0.435235       -11.8433
  54   2.0000      -0.345147        -9.3919
  55   2.0000      -0.337705        -9.1894
  56   2.0000      -0.317319        -8.6347
  57   2.0000      -0.311159        -8.4671
  58   2.0000      -0.295805        -8.0493
  59   2.0000      -0.234856        -6.3908
  60   0.0000      -0.118820        -3.2333
  61   0.0000      -0.118641        -3.2284
  62   0.0000      -0.116257        -3.1635
  63   0.0000      -0.060557        -1.6479
  64   0.0000      -0.056566        -1.5392

MULLIKEN ATOMIC CHARGES
-----------------------
   0 C :   -0.016049
   1 C :    0.011685
   2 C :    0.014871
   3 C :    0.014871
   4 C :    0.011685
   5 C :    0.011686
   6 C :   -0.016049
   7 C :    0.011685
   8 C :   -0.022193
   9 C :    0.011686
  10 C :   -0.016048
  11 C :   -0.022193
  12 C :    0.011685
  13 C :    0.014871
  14 C :    0.014872
  15 C :   -0.022193
  16 C :    0.011685
  17 C :   -0.022194
  18 C :    0.011685
  19 C :   -0.016049
Sum of atomic charges:   -0.0000000

LOEWDIN ATOMIC CHARGES
----------------------
   0 C :   -0.035112
   1 C :    0.028425
   2 C :    0.014066
   3 C :    0.014066
   4 C :    0.028425
   5 C :    0.028425
   6 C :   -0.035111
   7 C :    0.028425
   8 C :   -0.035805
   9 C :    0.028426
  10 C :   -0.035111
  11 C :   -0.035805
  12 C :    0.028425
  13 C :    0.014066
  14 C :    0.014066
  15 C :   -0.035804
  16 C :    0.028425
  17 C :   -0.035805
  18 C :    0.028425
  19 C :   -0.035112

  Mayer bond orders larger than 0.100000
B(  0-C ,  1-C ) :   1.1056 B(  0-C ,  4-C ) :   1.1056 B(  0-C , 19-C ) :   1.4559
B(  1-C ,  2-C ) :   1.2011 B(  1-C , 15-C ) :   1.3166 B(  2-C ,  3-C ) :   1.1984
B(  2-C ,  5-C ) :   1.2011 B(  3-C ,  4-C ) :   1.2011 B(  3-C ,  7-C ) :   1.2011
B(  4-C , 17-C ) :   1.3166 B(  5-C ,  6-C ) :   1.1056 B(  5-C ,  8-C ) :   1.3166
B(  6-C ,  7-C ) :   1.1056 B(  6-C , 10-C ) :   1.4559 B(  7-C , 11-C ) :   1.3166
B(  8-C ,  9-C ) :   1.3166 B(  8-C , 15-C ) :   1.0205 B(  9-C , 10-C ) :   1.1056
B(  9-C , 14-C ) :   1.2011 B( 10-C , 12-C ) :   1.1056 B( 11-C , 12-C ) :   1.3166
B( 11-C , 17-C ) :   1.0205 B( 12-C , 13-C ) :   1.2011 B( 13-C , 14-C ) :   1.1984
B( 13-C , 18-C ) :   1.2011 B( 14-C , 16-C ) :   1.2011 B( 15-C , 16-C ) :   1.3166
B( 16-C , 19-C ) :   1.1056 B( 17-C , 18-C ) :   1.3166 B( 18-C , 19-C ) :   1.1056

Dispersion correction           -0.023698487
FINAL SINGLE POINT ENERGY      -759.758454686235

DIPOLE MOMENT
-------------
                                X             Y             Z
Electronic contribution:     -0.00000       0.00001       0.00000
Nuclear contribution   :      0.00000       0.00000       0.00000
                        -----------------------------------------
Total Dipole Moment    :     -0.00000       0.00001       0.00000
                        -----------------------------------------
Magnitude (a.u.)       :      0.00001
Magnitude (Debye)      :      0.00002

Rotational constants in cm-1:     0.026207     0.025985     0.024472
Rotational constants in MHz :   785.678161   779.024712   733.655781

                             ****ORCA TERMINATED NORMALLY****
TOTAL RUN TIME: 0 days 0 hours 4 minutes 11 seconds 356 msec
