                         Program Version 5.0.3 -  RELEASE  -
|  1> ! PBEh-3c def2/J TightSCF DefGrid3
|  2>
|  3> %maxcore 60000
|  4>
|  5> %pal
|  6> nprocs 4
|  7> end
|  8>
|  9> *xyzfile 0 1 ts6.xyz
| 10>
| 11>                          ****END OF INPUT****

CARTESIAN COORDINATES (ANGSTROEM)
---------------------------------
  C      0.057227   -0.404548    0.000000
  H      0.094881   -1.490374    0.000000
  C      0.057227    0.193471    1.290465
  H      0.016071    1.265997    1.410672
  H     -1.068272   -0.071437    0.000000
  H     -0.044418   -0.432272    2.160920
  C      0.057227    0.193471   -1.290465
  H     -0.044418   -0.432272   -2.160920
  H      0.016071    1.265997   -1.410672

 Total Charge           Charge          ....    0
 Multiplicity           Mult            ....    1
 Number of Electrons    NEL             ....   24
 Basis Dimension        Dim             ....   57

ORBITAL ENERGIES
----------------

  NO   OCC          E(Eh)            E(eV)
   0   2.0000     -10.481036      -285.2035
   1   2.0000     -10.434525      -283.9379
   2   2.0000     -10.434496      -283.9371
   3   2.0000      -0.920582       -25.0503
   4   2.0000      -0.754191       -20.5226
   5   2.0000      -0.631984       -17.1972
   6   2.0000      -0.555504       -15.1160
   7   2.0000      -0.491489       -13.3741
   8   2.0000      -0.472880       -12.8677
   9   2.0000      -0.440985       -11.9998
  10   2.0000      -0.410542       -11.1714
  11   2.0000      -0.198682        -5.4064
  12   0.0000      -0.005659        -0.1540
  13   0.0000       0.106171         2.8891
  14   0.0000       0.153722         4.1830
  15   0.0000       0.199152         5.4192
  16   0.0000       0.202130         5.5002

MULLIKEN ATOMIC CHARGES
-----------------------
   0 C :   -0.376930
   1 H :    0.272187
   2 C :   -0.574073
   3 H :    0.222123
   4 H :    0.356849
   5 H :    0.225898
   6 C :   -0.574073
   7 H :    0.225898
   8 H :    0.222123
Sum of atomic charges:   -0.0000000

LOEWDIN ATOMIC CHARGES
----------------------
   0 C :   -0.195313
   1 H :    0.149758
   2 C :   -0.418612
   3 H :    0.134579
   4 H :    0.336728
   5 H :    0.138447
   6 C :   -0.418613
   7 H :    0.138447
   8 H :    0.134579

  Mayer bond orders larger than 0.100000
B(  0-C ,  1-H ) :   0.8997 B(  0-C ,  2-C ) :   1.1702 B(  0-C ,  4-H ) :   0.6086
B(  0-C ,  6-C ) :   1.1702 B(  2-C ,  3-H ) :   0.9266 B(  2-C ,  4-H ) :   0.1163
B(  2-C ,  5-H ) :   0.9245 B(  2-C ,  6-C ) :   0.5340 B(  4-H ,  6-C ) :   0.1163
B(  6-C ,  7-H ) :   0.9245 B(  6-C ,  8-H ) :   0.9266

Dispersion correction           -0.002724521
FINAL SINGLE POINT ENERGY      -117.494404760059

DIPOLE MOMENT
-------------
                                X             Y             Z
Electronic contribution:      0.56373      -0.33947       0.00000
Nuclear contribution   :     -1.10334       0.11315      -0.00000
                        -----------------------------------------
Total Dipole Moment    :     -0.53961      -0.22632       0.00000
                        -----------------------------------------
Magnitude (a.u.)       :      0.58515
Magnitude (Debye)      :      1.48733

Rotational constants in cm-1:     1.690227     0.308260     0.271258
Rotational constants in MHz : 50671.719525  9241.387993  8132.115762

                             ****ORCA TERMINATED NORMALLY****
TOTAL RUN TIME: 0 days 0 hours 1 minutes 1 seconds 424 msec
