                         Program Version 5.0.3 -  RELEASE  -
|  1> ! PBEh-3c def2/J TightSCF DefGrid3
|  2>
|  3> %maxcore 60000
|  4>
|  5> %pal
|  6> nprocs 4
|  7> end
|  8>
|  9> *xyzfile 0 1 23_benBr-Nm3A.xyz
| 10>
| 11>                          ****END OF INPUT****

CARTESIAN COORDINATES (ANGSTROEM)
---------------------------------
  C     -0.223913    0.002109    0.127404
  C     -0.229554    0.001265    1.520572
  C      0.966066   -0.002100    2.235729
  C      2.176417   -0.004636    1.545888
  C      2.194095   -0.003818    0.152623
  C      0.992179   -0.000449   -0.552274
  Br    -1.869237    0.004669    2.446186
  H      0.946534   -0.002734    3.316252
  H      3.104760   -0.007248    2.100804
  H      3.135463   -0.005789   -0.378706
  H      0.996880    0.000205   -1.633817
  H     -1.159029    0.004715   -0.414303

 Total Charge           Charge          ....    0
 Multiplicity           Mult            ....    1
 Number of Electrons    NEL             ....   76
 Basis Dimension        Dim             ....  132

ORBITAL ENERGIES
----------------

  NO   OCC          E(Eh)            E(eV)
   0   2.0000    -484.529091    -13184.7069
   1   2.0000     -63.192319     -1719.5504
   2   2.0000     -56.896318     -1548.2275
   3   2.0000     -56.894502     -1548.1781
   4   2.0000     -56.894455     -1548.1768
   5   2.0000     -10.512166      -286.0506
   6   2.0000     -10.465692      -284.7859
   7   2.0000     -10.465655      -284.7850
   8   2.0000     -10.463923      -284.7378
   9   2.0000     -10.463855      -284.7360
  10   2.0000     -10.460958      -284.6571
  11   2.0000      -9.021595      -245.4901
  12   2.0000      -6.795933      -184.9267
  13   2.0000      -6.783635      -184.5921
  14   2.0000      -6.783524      -184.5891
  15   2.0000      -2.809658       -76.4547
  16   2.0000      -2.805835       -76.3506
  17   2.0000      -2.805707       -76.3472
  18   2.0000      -2.795163       -76.0602
  19   2.0000      -2.795157       -76.0601
  20   2.0000      -0.979321       -26.6487
  21   2.0000      -0.900525       -24.5045
  22   2.0000      -0.853404       -23.2223
  23   2.0000      -0.813738       -22.1429
  24   2.0000      -0.700333       -19.0570
  25   2.0000      -0.678687       -18.4680
  26   2.0000      -0.595852       -16.2140
  27   2.0000      -0.534170       -14.5355
  28   2.0000      -0.530929       -14.4473
  29   2.0000      -0.498025       -13.5520
  30   2.0000      -0.482384       -13.1263
  31   2.0000      -0.449054       -12.2194
  32   2.0000      -0.418056       -11.3759
  33   2.0000      -0.411449       -11.1961
  34   2.0000      -0.367460        -9.9991
  35   2.0000      -0.339975        -9.2512
  36   2.0000      -0.308223        -8.3872
  37   2.0000      -0.286133        -7.7861
  38   0.0000       0.002493         0.0678
  39   0.0000       0.003776         0.1028
  40   0.0000       0.041716         1.1351
  41   0.0000       0.153171         4.1680
  42   0.0000       0.177951         4.8423

MULLIKEN ATOMIC CHARGES
-----------------------
   0 C :   -0.208044
   1 C :   -0.082861
   2 C :   -0.208032
   3 C :   -0.215307
   4 C :   -0.222843
   5 C :   -0.215330
   6 Br:   -0.027313
   7 H :    0.245628
   8 H :    0.230324
   9 H :    0.227824
  10 H :    0.230342
  11 H :    0.245614
Sum of atomic charges:    0.0000000

LOEWDIN ATOMIC CHARGES
----------------------
   0 C :   -0.140615
   1 C :   -0.127004
   2 C :   -0.140619
   3 C :   -0.126378
   4 C :   -0.134535
   5 C :   -0.126385
   6 Br:    0.075816
   7 H :    0.148223
   8 H :    0.141620
   9 H :    0.140035
  10 H :    0.141620
  11 H :    0.148223

  Mayer bond orders larger than 0.100000
B(  0-C ,  1-C ) :   1.3709 B(  0-C ,  5-C ) :   1.4285 B(  0-C , 11-H ) :   0.9100
B(  1-C ,  2-C ) :   1.3708 B(  1-C ,  6-Br) :   1.0370 B(  2-C ,  3-C ) :   1.4285
B(  2-C ,  7-H ) :   0.9100 B(  3-C ,  4-C ) :   1.4207 B(  3-C ,  8-H ) :   0.9159
B(  4-C ,  5-C ) :   1.4207 B(  4-C ,  9-H ) :   0.9177 B(  5-C , 10-H ) :   0.9159

Dispersion correction           -0.006904594
FINAL SINGLE POINT ENERGY     -2804.138685303053

DIPOLE MOMENT
-------------
                                X             Y             Z
Electronic contribution:    -21.24345       0.04434      11.99119
Nuclear contribution   :     21.84810      -0.04562     -12.33247
                        -----------------------------------------
Total Dipole Moment    :      0.60465      -0.00127      -0.34129
                        -----------------------------------------
Magnitude (a.u.)       :      0.69432
Magnitude (Debye)      :      1.76483

Rotational constants in cm-1:     0.190317     0.033043     0.028155
Rotational constants in MHz :  5705.563315   990.609396   844.061955

                             ****ORCA TERMINATED NORMALLY****
TOTAL RUN TIME: 0 days 0 hours 1 minutes 44 seconds 792 msec
