                         Program Version 5.0.3 -  RELEASE  -
|  1> ! PBEh-3c def2/J TightSCF DefGrid3
|  2>
|  3> %maxcore 60000
|  4>
|  5> %pal
|  6> nprocs 4
|  7> end
|  8>
|  9> *xyzfile 0 1 21.xyz
| 10>
| 11>                          ****END OF INPUT****

CARTESIAN COORDINATES (ANGSTROEM)
---------------------------------
  C      2.400268    1.586538    0.000000
  C      2.601378    0.919376   -1.208292
  C      3.006151   -0.415221   -1.208365
  C      3.209754   -1.082209    0.000000
  C      3.006151   -0.415221    1.208365
  C      2.601378    0.919376    1.208292
  C     -0.627744   -2.127800    0.000000
  C     -2.001508   -2.219928    0.000000
  C     -2.504864   -0.885561    0.000000
  C     -1.375698   -0.018889    0.000000
  C     -1.501233    1.373290    0.000000
  C     -2.784283    1.898168    0.000000
  C     -3.917084    1.059002    0.000000
  C     -3.791450   -0.320199    0.000000
  H      2.090772    2.622659    0.000000
  H      2.439545    1.435214   -2.144591
  H      3.158669   -0.933619   -2.144838
  H      3.525183   -2.116630    0.000000
  H      3.158669   -0.933619    2.144838
  H      2.439545    1.435214    2.144591
  H      0.694893   -0.474364    0.000000
  H      0.119370   -2.903796    0.000000
  H     -2.570209   -3.134084    0.000000
  H     -0.630506    2.015475    0.000000
  H     -2.919390    2.971309    0.000000
  H     -4.902233    1.505460    0.000000
  H     -4.669652   -0.952770    0.000000
  N     -0.255873   -0.807171    0.000000

 Total Charge           Charge          ....    0
 Multiplicity           Mult            ....    1
 Number of Electrons    NEL             ....  104
 Basis Dimension        Dim             ....  251

ORBITAL ENERGIES
----------------

  NO   OCC          E(Eh)            E(eV)
   0   2.0000     -14.669676      -399.1822
   1   2.0000     -10.469892      -284.9003
   2   2.0000     -10.469404      -284.8870
   3   2.0000     -10.469113      -284.8790
   4   2.0000     -10.468839      -284.8716
   5   2.0000     -10.468514      -284.8628
   6   2.0000     -10.468400      -284.8596
   7   2.0000     -10.468282      -284.8564
   8   2.0000     -10.466433      -284.8061
   9   2.0000     -10.436494      -283.9914
  10   2.0000     -10.432720      -283.8887
  11   2.0000     -10.432020      -283.8697
  12   2.0000     -10.431957      -283.8680
  13   2.0000     -10.426738      -283.7260
  14   2.0000     -10.421409      -283.5810
  15   2.0000      -1.076238       -29.2859
  16   2.0000      -0.974479       -26.5169
  17   2.0000      -0.925723       -25.1902
  18   2.0000      -0.863297       -23.4915
  19   2.0000      -0.856377       -23.3032
  20   2.0000      -0.855869       -23.2894
  21   2.0000      -0.813283       -22.1306
  22   2.0000      -0.793127       -21.5821
  23   2.0000      -0.698656       -19.0114
  24   2.0000      -0.698265       -19.0008
  25   2.0000      -0.691143       -18.8069
  26   2.0000      -0.657928       -17.9031
  27   2.0000      -0.645409       -17.5625
  28   2.0000      -0.611724       -16.6459
  29   2.0000      -0.598656       -16.2903
  30   2.0000      -0.543992       -14.8028
  31   2.0000      -0.538313       -14.6482
  32   2.0000      -0.528413       -14.3789
  33   2.0000      -0.526337       -14.3224
  34   2.0000      -0.501431       -13.6446
  35   2.0000      -0.500802       -13.6275
  36   2.0000      -0.489459       -13.3189
  37   2.0000      -0.481420       -13.1001
  38   2.0000      -0.472659       -12.8617
  39   2.0000      -0.460387       -12.5278
  40   2.0000      -0.441388       -12.0108
  41   2.0000      -0.438449       -11.9308
  42   2.0000      -0.417439       -11.3591
  43   2.0000      -0.417046       -11.3484
  44   2.0000      -0.401876       -10.9356
  45   2.0000      -0.379351       -10.3227
  46   2.0000      -0.377204       -10.2642
  47   2.0000      -0.318160        -8.6576
  48   2.0000      -0.315470        -8.5844
  49   2.0000      -0.311122        -8.4661
  50   2.0000      -0.249910        -6.8004
  51   2.0000      -0.231834        -6.3085
  52   0.0000      -0.003477        -0.0946
  53   0.0000      -0.002058        -0.0560
  54   0.0000       0.019142         0.5209
  55   0.0000       0.060764         1.6535
  56   0.0000       0.107168         2.9162

MULLIKEN ATOMIC CHARGES
-----------------------
   0 C :   -0.236638
   1 C :   -0.228844
   2 C :   -0.230918
   3 C :   -0.243965
   4 C :   -0.230919
   5 C :   -0.228844
   6 C :   -0.004804
   7 C :   -0.375976
   8 C :    0.092307
   9 C :    0.359619
  10 C :   -0.269632
  11 C :   -0.242538
  12 C :   -0.230039
  13 C :   -0.309292
  14 H :    0.234200
  15 H :    0.236046
  16 H :    0.234603
  17 H :    0.232359
  18 H :    0.234602
  19 H :    0.236046
  20 H :    0.400953
  21 H :    0.228587
  22 H :    0.207306
  23 H :    0.207808
  24 H :    0.207934
  25 H :    0.207776
  26 H :    0.205114
  27 N :   -0.692852
Sum of atomic charges:   -0.0000000

LOEWDIN ATOMIC CHARGES
----------------------
   0 C :   -0.142920
   1 C :   -0.137858
   2 C :   -0.139853
   3 C :   -0.146032
   4 C :   -0.139853
   5 C :   -0.137858
   6 C :   -0.079098
   7 C :   -0.207750
   8 C :   -0.064257
   9 C :    0.017557
  10 C :   -0.162679
  11 C :   -0.148308
  12 C :   -0.160710
  13 C :   -0.130692
  14 H :    0.141259
  15 H :    0.143312
  16 H :    0.142545
  17 H :    0.140900
  18 H :    0.142545
  19 H :    0.143312
  20 H :    0.272782
  21 H :    0.132039
  22 H :    0.136664
  23 H :    0.132893
  24 H :    0.131301
  25 H :    0.131142
  26 H :    0.134206
  27 N :   -0.144592

  Mayer bond orders larger than 0.100000
B(  0-C ,  1-C ) :   1.4199 B(  0-C ,  5-C ) :   1.4199 B(  0-C , 14-H ) :   0.9155
B(  1-C ,  2-C ) :   1.4201 B(  1-C , 15-H ) :   0.9159 B(  2-C ,  3-C ) :   1.4181
B(  2-C , 16-H ) :   0.9166 B(  3-C ,  4-C ) :   1.4181 B(  3-C , 17-H ) :   0.9174
B(  4-C ,  5-C ) :   1.4201 B(  4-C , 18-H ) :   0.9166 B(  5-C , 19-H ) :   0.9159
B(  6-C ,  7-C ) :   1.5714 B(  6-C , 21-H ) :   0.9148 B(  6-C , 27-N ) :   1.1693
B(  7-C ,  8-C ) :   1.2544 B(  7-C , 22-H ) :   0.9362 B(  8-C ,  9-C ) :   1.2330
B(  8-C , 13-C ) :   1.2837 B(  9-C , 10-C ) :   1.2952 B(  9-C , 27-N ) :   1.0490
B( 10-C , 11-C ) :   1.4946 B( 10-C , 23-H ) :   0.9179 B( 11-C , 12-C ) :   1.3566
B( 11-C , 24-H ) :   0.9228 B( 12-C , 13-C ) :   1.5027 B( 12-C , 25-H ) :   0.9225
B( 13-C , 26-H ) :   0.9321 B( 20-H , 27-N ) :   0.7826

Dispersion correction           -0.018813050
FINAL SINGLE POINT ENERGY      -594.749630152216

DIPOLE MOMENT
-------------
                                X             Y             Z
Electronic contribution:     -1.93317      -1.01699      -0.00000
Nuclear contribution   :      3.17575       0.96836       0.00000
                        -----------------------------------------
Total Dipole Moment    :      1.24258      -0.04864      -0.00000
                        -----------------------------------------
Magnitude (a.u.)       :      1.24353
Magnitude (Debye)      :      3.16081

Rotational constants in cm-1:     0.039939     0.012048     0.010254
Rotational constants in MHz :  1197.352146   361.181323   307.420706

                             ****ORCA TERMINATED NORMALLY****
TOTAL RUN TIME: 0 days 0 hours 3 minutes 17 seconds 377 msec
