                         Program Version 5.0.3 -  RELEASE  -
|  1> ! PBEh-3c def2/J TightSCF DefGrid3
|  2>
|  3> %maxcore 60000
|  4>
|  5> %pal
|  6> nprocs 4
|  7> end
|  8>
|  9> *xyzfile 1 1 3p3.xyz
| 10>
| 11>                          ****END OF INPUT****

CARTESIAN COORDINATES (ANGSTROEM)
---------------------------------
  C     -1.442100   -0.694479    0.000000
  C     -1.442100    0.694479    0.000000
  C     -0.356169    1.560479    0.000000
  C      0.997964    1.251407    0.000000
  C      1.600610    0.000000    0.000000
  C      0.997964   -1.251407    0.000000
  C     -0.356169   -1.560479    0.000000
  H     -2.420130    1.165473    0.000000
  H     -2.420130   -1.165473    0.000000
  H     -0.597723   -2.618794    0.000000
  H      1.674782   -2.100110    0.000000
  H      2.686142    0.000000    0.000000
  H      1.674782    2.100110    0.000000
  H     -0.597723    2.618794    0.000000

 Total Charge           Charge          ....    1
 Multiplicity           Mult            ....    1
 Number of Electrons    NEL             ....   48
 Basis Dimension        Dim             ....  119

ORBITAL ENERGIES
----------------

  NO   OCC          E(Eh)            E(eV)
   0   2.0000     -10.679255      -290.5973
   1   2.0000     -10.679116      -290.5935
   2   2.0000     -10.679116      -290.5935
   3   2.0000     -10.678578      -290.5789
   4   2.0000     -10.678578      -290.5789
   5   2.0000     -10.678189      -290.5683
   6   2.0000     -10.678185      -290.5682
   7   2.0000      -1.165257       -31.7083
   8   2.0000      -1.087559       -29.5940
   9   2.0000      -1.087559       -29.5940
  10   2.0000      -0.954549       -25.9746
  11   2.0000      -0.954549       -25.9746
  12   2.0000      -0.808842       -22.0097
  13   2.0000      -0.808840       -22.0097
  14   2.0000      -0.802306       -21.8319
  15   2.0000      -0.720440       -19.6042
  16   2.0000      -0.720439       -19.6041
  17   2.0000      -0.657909       -17.9026
  18   2.0000      -0.657908       -17.9026
  19   2.0000      -0.632708       -17.2169
  20   2.0000      -0.609945       -16.5974
  21   2.0000      -0.609944       -16.5974
  22   2.0000      -0.536076       -14.5874
  23   2.0000      -0.536075       -14.5873
  24   0.0000      -0.266348        -7.2477
  25   0.0000      -0.266348        -7.2477
  26   0.0000      -0.064901        -1.7661
  27   0.0000      -0.046277        -1.2593
  28   0.0000      -0.046276        -1.2592

MULLIKEN ATOMIC CHARGES
-----------------------
   0 C :   -0.177345
   1 C :   -0.177345
   2 C :   -0.177336
   3 C :   -0.177343
   4 C :   -0.177291
   5 C :   -0.177343
   6 C :   -0.177336
   7 H :    0.320194
   8 H :    0.320194
   9 H :    0.320201
  10 H :    0.320187
  11 H :    0.320175
  12 H :    0.320187
  13 H :    0.320201
Sum of atomic charges:    1.0000000

LOEWDIN ATOMIC CHARGES
----------------------
   0 C :   -0.040580
   1 C :   -0.040580
   2 C :   -0.040583
   3 C :   -0.040578
   4 C :   -0.040586
   5 C :   -0.040578
   6 C :   -0.040583
   7 H :    0.183441
   8 H :    0.183441
   9 H :    0.183439
  10 H :    0.183437
  11 H :    0.183433
  12 H :    0.183437
  13 H :    0.183439

  Mayer bond orders larger than 0.100000
B(  0-C ,  1-C ) :   1.3769 B(  0-C ,  6-C ) :   1.3769 B(  0-C ,  8-H ) :   0.8774
B(  1-C ,  2-C ) :   1.3769 B(  1-C ,  7-H ) :   0.8774 B(  2-C ,  3-C ) :   1.3769
B(  2-C , 13-H ) :   0.8774 B(  3-C ,  4-C ) :   1.3769 B(  3-C , 12-H ) :   0.8775
B(  4-C ,  5-C ) :   1.3769 B(  4-C , 11-H ) :   0.8775 B(  5-C ,  6-C ) :   1.3769
B(  5-C , 10-H ) :   0.8775 B(  6-C ,  9-H ) :   0.8774

Dispersion correction           -0.007448255
FINAL SINGLE POINT ENERGY      -270.051535406489

DIPOLE MOMENT
-------------
                                X             Y             Z
Electronic contribution:     -0.00009       0.00000       0.00000
Nuclear contribution   :      0.00000       0.00000       0.00000
                        -----------------------------------------
Total Dipole Moment    :     -0.00009       0.00000       0.00000
                        -----------------------------------------
Magnitude (a.u.)       :      0.00009
Magnitude (Debye)      :      0.00022

Rotational constants in cm-1:     0.126600     0.126600     0.063300
Rotational constants in MHz :  3795.382618  3795.382530  1897.691287

                             ****ORCA TERMINATED NORMALLY****
TOTAL RUN TIME: 0 days 0 hours 1 minutes 58 seconds 147 msec
