                         Program Version 5.0.3 -  RELEASE  -
|  1> ! PBEh-3c def2/J TightSCF DefGrid3
|  2>
|  3> %maxcore 60000
|  4>
|  5> %pal
|  6> nprocs 4
|  7> end
|  8>
|  9> *xyzfile 1 1 202A.xyz
| 10>
| 11>                          ****END OF INPUT****

CARTESIAN COORDINATES (ANGSTROEM)
---------------------------------
  C      1.398690    0.004600   -0.359860
  N     -0.040920   -0.169680    0.016570
  C     -0.946910    0.945730   -0.459190
  C     -1.092810    1.056360   -1.976150
  C     -0.547280   -1.545680   -0.291920
  H     -0.060250   -0.104900    1.043000
  H     -0.456440   -1.761950   -1.360930
  H      0.042870   -2.253410    0.296790
  H      1.706320    1.019470   -0.092980
  H      1.982950   -0.705130    0.232720
  H     -0.534200    1.861700   -0.020180
  H     -1.910680    0.766040    0.032220
  H      1.544460   -0.174030   -1.429870
  H     -1.591230   -1.610450    0.027230
  H     -1.765880    1.891430   -2.207310
  H     -0.134900    1.259420   -2.469700
  H     -1.527800    0.151200   -2.416520

 Total Charge           Charge          ....    1
 Multiplicity           Mult            ....    1
 Number of Electrons    NEL             ....   42
 Basis Dimension        Dim             ....   99

ORBITAL ENERGIES
----------------

  NO   OCC          E(Eh)            E(eV)
   0   2.0000     -14.953110      -406.8948
   1   2.0000     -10.677265      -290.5431
   2   2.0000     -10.670927      -290.3707
   3   2.0000     -10.670862      -290.3689
   4   2.0000     -10.604421      -288.5610
   5   2.0000      -1.301099       -35.4047
   6   2.0000      -1.042653       -28.3720
   7   2.0000      -1.013353       -27.5747
   8   2.0000      -0.960346       -26.1323
   9   2.0000      -0.872357       -23.7381
  10   2.0000      -0.817759       -22.2523
  11   2.0000      -0.754771       -20.5384
  12   2.0000      -0.746737       -20.3197
  13   2.0000      -0.682736       -18.5782
  14   2.0000      -0.658718       -17.9246
  15   2.0000      -0.650549       -17.7023
  16   2.0000      -0.645292       -17.5593
  17   2.0000      -0.636694       -17.3253
  18   2.0000      -0.612730       -16.6732
  19   2.0000      -0.598067       -16.2742
  20   2.0000      -0.582072       -15.8390
  21   0.0000      -0.104063        -2.8317
  22   0.0000      -0.037069        -1.0087
  23   0.0000      -0.031102        -0.8463
  24   0.0000      -0.019396        -0.5278
  25   0.0000      -0.012156        -0.3308

MULLIKEN ATOMIC CHARGES
-----------------------
   0 C :   -0.534521
   1 N :   -0.512290
   2 C :   -0.337726
   3 C :   -0.669708
   4 C :   -0.534974
   5 H :    0.437847
   6 H :    0.297383
   7 H :    0.293251
   8 H :    0.292444
   9 H :    0.293236
  10 H :    0.290737
  11 H :    0.290583
  12 H :    0.297310
  13 H :    0.292429
  14 H :    0.297881
  15 H :    0.253084
  16 H :    0.253034
Sum of atomic charges:    1.0000000

LOEWDIN ATOMIC CHARGES
----------------------
   0 C :   -0.244849
   1 N :   -0.058410
   2 C :   -0.144098
   3 C :   -0.368789
   4 C :   -0.244880
   5 H :    0.299578
   6 H :    0.166037
   7 H :    0.162931
   8 H :    0.162700
   9 H :    0.162984
  10 H :    0.154201
  11 H :    0.154170
  12 H :    0.166096
  13 H :    0.162675
  14 H :    0.174936
  15 H :    0.147372
  16 H :    0.147349

  Mayer bond orders larger than 0.100000
B(  0-C ,  1-N ) :   0.8632 B(  0-C ,  8-H ) :   0.8945 B(  0-C ,  9-H ) :   0.8943
B(  0-C , 12-H ) :   0.8918 B(  1-N ,  2-C ) :   0.8272 B(  1-N ,  4-C ) :   0.8635
B(  1-N ,  5-H ) :   0.7801 B(  2-C ,  3-C ) :   0.9812 B(  2-C , 10-H ) :   0.8890
B(  2-C , 11-H ) :   0.8891 B(  3-C , 14-H ) :   0.8913 B(  3-C , 15-H ) :   0.9087
B(  3-C , 16-H ) :   0.9087 B(  4-C ,  6-H ) :   0.8919 B(  4-C ,  7-H ) :   0.8942
B(  4-C , 13-H ) :   0.8944

Dispersion correction           -0.007585930
FINAL SINGLE POINT ENERGY      -213.691717212932

DIPOLE MOMENT
-------------
                                X             Y             Z
Electronic contribution:      0.12250      -0.07105       1.71924
Nuclear contribution   :      0.13162      -0.21460      -0.96983
                        -----------------------------------------
Total Dipole Moment    :      0.25412      -0.28565       0.74941
                        -----------------------------------------
Magnitude (a.u.)       :      0.84130
Magnitude (Debye)      :      2.13841

Rotational constants in cm-1:     0.208515     0.124664     0.101646
Rotational constants in MHz :  6251.132594  3737.334191  3047.265044

                             ****ORCA TERMINATED NORMALLY****
TOTAL RUN TIME: 0 days 0 hours 1 minutes 6 seconds 554 msec
