                         Program Version 5.0.3 -  RELEASE  -
|  1> ! PBEh-3c def2/J TightSCF DefGrid3
|  2>
|  3> %maxcore 60000
|  4>
|  5> %pal
|  6> nprocs 4
|  7> end
|  8>
|  9> *xyzfile 0 1 ts4h2o.xyz
| 10>
| 11>                          ****END OF INPUT****

CARTESIAN COORDINATES (ANGSTROEM)
---------------------------------
  C      0.003984    1.128204    0.000000
  H      0.003757    2.214376    0.000000
  N      0.003984    0.466972    1.134022
  H     -0.009479   -0.657363    0.936814
  H      0.006918    0.973679    2.001139
  H     -0.009479   -0.657363   -0.936814
  O      0.067291   -1.720005    0.000000
  H     -0.616638   -2.393809    0.000000
  N      0.003984    0.466972   -1.134022
  H      0.006918    0.973679   -2.001139

 Total Charge           Charge          ....    0
 Multiplicity           Mult            ....    1
 Number of Electrons    NEL             ....   34
 Basis Dimension        Dim             ....   72

ORBITAL ENERGIES
----------------

  NO   OCC          E(Eh)            E(eV)
   0   2.0000     -19.379245      -527.3361
   1   2.0000     -14.637812      -398.3151
   2   2.0000     -14.637801      -398.3148
   3   2.0000     -10.542788      -286.8839
   4   2.0000      -1.072965       -29.1969
   5   2.0000      -0.970710       -26.4144
   6   2.0000      -0.960192       -26.1282
   7   2.0000      -0.699116       -19.0239
   8   2.0000      -0.655525       -17.8377
   9   2.0000      -0.559562       -15.2265
  10   2.0000      -0.537586       -14.6285
  11   2.0000      -0.503893       -13.7116
  12   2.0000      -0.452488       -12.3128
  13   2.0000      -0.381160       -10.3719
  14   2.0000      -0.300260        -8.1705
  15   2.0000      -0.279167        -7.5965
  16   2.0000      -0.265520        -7.2252
  17   0.0000       0.043921         1.1952
  18   0.0000       0.123214         3.3528
  19   0.0000       0.167463         4.5569
  20   0.0000       0.189408         5.1540
  21   0.0000       0.219946         5.9850

MULLIKEN ATOMIC CHARGES
-----------------------
   0 C :    0.253529
   1 H :    0.229798
   2 N :   -0.758974
   3 H :    0.439789
   4 H :    0.350360
   5 H :    0.439789
   6 O :   -0.918824
   7 H :    0.373149
   8 N :   -0.758974
   9 H :    0.350360
Sum of atomic charges:   -0.0000000

LOEWDIN ATOMIC CHARGES
----------------------
   0 C :    0.055742
   1 H :    0.119413
   2 N :   -0.382237
   3 H :    0.317547
   4 H :    0.245638
   5 H :    0.317547
   6 O :   -0.801767
   7 H :    0.264715
   8 N :   -0.382237
   9 H :    0.245638

  Mayer bond orders larger than 0.100000
B(  0-C ,  1-H ) :   0.9055 B(  0-C ,  2-N ) :   1.4635 B(  0-C ,  8-N ) :   1.4635
B(  2-N ,  3-H ) :   0.4573 B(  2-N ,  4-H ) :   0.8378 B(  2-N ,  8-N ) :   0.1404
B(  3-H ,  6-O ) :   0.3537 B(  5-H ,  6-O ) :   0.3537 B(  5-H ,  8-N ) :   0.4573
B(  6-O ,  7-H ) :   0.8269 B(  8-N ,  9-H ) :   0.8378

Dispersion correction           -0.003309012
FINAL SINGLE POINT ENERGY      -225.915342757649

DIPOLE MOMENT
-------------
                                X             Y             Z
Electronic contribution:      0.10588       1.23929      -0.00000
Nuclear contribution   :     -0.63461       0.44396      -0.00000
                        -----------------------------------------
Total Dipole Moment    :     -0.52873       1.68325      -0.00000
                        -----------------------------------------
Magnitude (a.u.)       :      1.76434
Magnitude (Debye)      :      4.48459

Rotational constants in cm-1:     0.363949     0.203896     0.131601
Rotational constants in MHz : 10910.927625  6112.653889  3945.311628

                             ****ORCA TERMINATED NORMALLY****
TOTAL RUN TIME: 0 days 0 hours 1 minutes 3 seconds 854 msec
