                         Program Version 5.0.3 -  RELEASE  -
|  1> ! PBEh-3c def2/J TightSCF DefGrid3
|  2>
|  3> %maxcore 60000
|  4>
|  5> %pal
|  6> nprocs 4
|  7> end
|  8>
|  9> *xyzfile 0 1 bef2.xyz
| 10>
| 11>                          ****END OF INPUT****

CARTESIAN COORDINATES (ANGSTROEM)
---------------------------------
  Be     0.000000    0.000000    0.000000
  F      1.379590    0.000000    0.000000
  F     -1.379590    0.000000    0.000000

 Total Charge           Charge          ....    0
 Multiplicity           Mult            ....    1
 Number of Electrons    NEL             ....   22
 Basis Dimension        Dim             ....   39

ORBITAL ENERGIES
----------------

  NO   OCC          E(Eh)            E(eV)
   0   2.0000     -25.072398      -682.2546
   1   2.0000     -25.072110      -682.2468
   2   2.0000      -4.246659      -115.5575
   3   2.0000      -1.283793       -34.9338
   4   2.0000      -1.275939       -34.7201
   5   2.0000      -0.542400       -14.7594
   6   2.0000      -0.532336       -14.4856
   7   2.0000      -0.500483       -13.6188
   8   2.0000      -0.500483       -13.6188
   9   2.0000      -0.474457       -12.9106
  10   2.0000      -0.474457       -12.9106
  11   0.0000       0.006247         0.1700
  12   0.0000       0.065802         1.7906
  13   0.0000       0.065802         1.7906
  14   0.0000       0.149442         4.0665
  15   0.0000       0.242942         6.6108

MULLIKEN ATOMIC CHARGES
-----------------------
   0 Be:    1.072527
   1 F :   -0.536264
   2 F :   -0.536264
Sum of atomic charges:   -0.0000000

LOEWDIN ATOMIC CHARGES
----------------------
   0 Be:    0.713564
   1 F :   -0.356782
   2 F :   -0.356782

  Mayer bond orders larger than 0.100000
B(  0-Be,  1-F ) :   0.8397 B(  0-Be,  2-F ) :   0.8397

Dispersion correction           -0.000341537
FINAL SINGLE POINT ENERGY      -214.163463485754

DIPOLE MOMENT
-------------
                                X             Y             Z
Electronic contribution:      0.00000       0.00000       0.00000
Nuclear contribution   :      0.00000       0.00000       0.00000
                        -----------------------------------------
Total Dipole Moment    :      0.00000       0.00000       0.00000
                        -----------------------------------------
Magnitude (a.u.)       :      0.00000
Magnitude (Debye)      :      0.00000

Rotational constants in cm-1:     0.000000     0.233109     0.233109
Rotational constants in MHz :     0.000000  6988.431498  6988.431498

                             ****ORCA TERMINATED NORMALLY****
TOTAL RUN TIME: 0 days 0 hours 0 minutes 15 seconds 992 msec
