                         Program Version 5.0.3 -  RELEASE  -
|  1> ! PBEh-3c def2/J TightSCF DefGrid3
|  2>
|  3> %maxcore 60000
|  4>
|  5> %pal
|  6> nprocs 4
|  7> end
|  8>
|  9> *xyzfile 0 2 P29.xyz
| 10>
| 11>                          ****END OF INPUT****

CARTESIAN COORDINATES (ANGSTROEM)
---------------------------------
  C     -1.329376    0.021656    0.000000
  O     -0.188227    0.758146    0.000000
  C      1.043767    0.026377    0.000000
  H     -1.811358   -0.183730    0.950653
  H     -1.811358   -0.183730   -0.950653
  H      1.843282    0.765625    0.000000
  H      1.126635   -0.602172   -0.892896
  H      1.126635   -0.602172    0.892896

 Total Charge           Charge          ....    0
 Multiplicity           Mult            ....    2
 Number of Electrons    NEL             ....   25
 Basis Dimension        Dim             ....   55

ORBITAL ENERGIES
----------------
                 SPIN UP ORBITALS
  NO   OCC          E(Eh)            E(eV)
   0   1.0000     -19.507705      -530.8316
   1   1.0000     -10.485783      -285.3327
   2   1.0000     -10.485315      -285.3199
   3   1.0000      -1.154841       -31.4248
   4   1.0000      -0.810413       -22.0525
   5   1.0000      -0.702817       -19.1246
   6   1.0000      -0.547757       -14.9052
   7   1.0000      -0.547210       -14.8903
   8   1.0000      -0.520525       -14.1642
   9   1.0000      -0.471188       -12.8217
  10   1.0000      -0.413515       -11.2523
  11   1.0000      -0.322293        -8.7700
  12   1.0000      -0.248495        -6.7619
  13   0.0000       0.148200         4.0327
  14   0.0000       0.166448         4.5293
  15   0.0000       0.200025         5.4429
  16   0.0000       0.213672         5.8143
  17   0.0000       0.215993         5.8775

                 SPIN DOWN ORBITALS
  NO   OCC          E(Eh)            E(eV)
   0   1.0000     -19.505955      -530.7840
   1   1.0000     -10.484058      -285.2857
   2   1.0000     -10.468896      -284.8731
   3   1.0000      -1.145978       -31.1837
   4   1.0000      -0.794488       -21.6191
   5   1.0000      -0.672459       -18.2985
   6   1.0000      -0.540192       -14.6994
   7   1.0000      -0.539595       -14.6831
   8   1.0000      -0.501658       -13.6508
   9   1.0000      -0.465927       -12.6785
  10   1.0000      -0.396273       -10.7831
  11   1.0000      -0.320459        -8.7201
  12   0.0000       0.001322         0.0360
  13   0.0000       0.152921         4.1612
  14   0.0000       0.183171         4.9843
  15   0.0000       0.208232         5.6663
  16   0.0000       0.215216         5.8563

MULLIKEN ATOMIC CHARGES AND SPIN POPULATIONS
--------------------------------------------
   0 C :   -0.215485    1.076540
   1 O :   -0.426601    0.014687
   2 C :   -0.352188    0.033488
   3 H :    0.188760   -0.062645
   4 H :    0.188760   -0.062645
   5 H :    0.221625    0.000564
   6 H :    0.197564    0.000005
   7 H :    0.197564    0.000005
Sum of atomic charges         :   -0.0000000

LOEWDIN ATOMIC CHARGES AND SPIN POPULATIONS
-------------------------------------------
   0 C :   -0.148853    0.957233
   1 O :   -0.236046    0.064348
   2 C :   -0.175217    0.042184
   3 H :    0.108506   -0.031405
   4 H :    0.108506   -0.031405
   5 H :    0.125045    0.000586
   6 H :    0.109029   -0.000770
   7 H :    0.109029   -0.000770

  Mayer bond orders larger than 0.100000
B(  0-C ,  1-O ) :   1.0972 B(  0-C ,  3-H ) :   0.8988 B(  0-C ,  4-H ) :   0.8988
B(  1-O ,  2-C ) :   0.9264 B(  2-C ,  5-H ) :   0.9260 B(  2-C ,  6-H ) :   0.9159
B(  2-C ,  7-H ) :   0.9159

Dispersion correction           -0.002009102
FINAL SINGLE POINT ENERGY      -154.014288416988

DIPOLE MOMENT
-------------
                                X             Y             Z
Electronic contribution:     -0.82595       1.49222      -0.00000
Nuclear contribution   :      1.06460      -1.98719       0.00000
                        -----------------------------------------
Total Dipole Moment    :      0.23864      -0.49497      -0.00000
                        -----------------------------------------
Magnitude (a.u.)       :      0.54950
Magnitude (Debye)      :      1.39671

Rotational constants in cm-1:     1.548027     0.336368     0.311325
Rotational constants in MHz : 46408.685884 10084.059990  9333.302592

                             ****ORCA TERMINATED NORMALLY****
TOTAL RUN TIME: 0 days 0 hours 2 minutes 41 seconds 63 msec
