                         Program Version 5.0.3 -  RELEASE  -
|  1> ! PBEh-3c def2/J TightSCF DefGrid3
|  2>
|  3> %maxcore 60000
|  4>
|  5> %pal
|  6> nprocs 4
|  7> end
|  8>
|  9> *xyzfile 1 2 4e.xyz
| 10>
| 11>                          ****END OF INPUT****

CARTESIAN COORDINATES (ANGSTROEM)
---------------------------------
  C     -1.174948   -1.406877    0.317566
  C     -0.765903   -0.322754   -0.462673
  C     -0.196789    0.880924    0.083680
  C      1.356405    0.557429   -0.054961
  H     -1.752291   -2.217252   -0.116440
  H     -0.946716   -1.449135    1.378960
  H     -0.822538   -0.419095   -1.546271
  H     -0.430777    1.049267    1.133973
  H     -0.400583    1.762085   -0.524141
  H      1.649548   -0.304203    0.541883
  H      1.839439    1.454358    0.343121
  H      1.645153    0.415252   -1.094697

 Total Charge           Charge          ....    1
 Multiplicity           Mult            ....    2
 Number of Electrons    NEL             ....   31
 Basis Dimension        Dim             ....   76

ORBITAL ENERGIES
----------------
                 SPIN UP ORBITALS
  NO   OCC          E(Eh)            E(eV)
   0   1.0000     -10.753598      -292.6203
   1   1.0000     -10.737576      -292.1843
   2   1.0000     -10.669123      -290.3216
   3   1.0000     -10.646492      -289.7058
   4   1.0000      -1.171033       -31.8654
   5   1.0000      -1.058536       -28.8042
   6   1.0000      -0.941123       -25.6093
   7   1.0000      -0.875682       -23.8285
   8   1.0000      -0.794427       -21.6174
   9   1.0000      -0.755017       -20.5451
  10   1.0000      -0.700916       -19.0729
  11   1.0000      -0.679099       -18.4792
  12   1.0000      -0.665024       -18.0962
  13   1.0000      -0.631918       -17.1954
  14   1.0000      -0.615699       -16.7540
  15   1.0000      -0.565582       -15.3903
  16   0.0000      -0.252970        -6.8837
  17   0.0000      -0.061385        -1.6704
  18   0.0000      -0.031339        -0.8528
  19   0.0000      -0.020161        -0.5486
  20   0.0000      -0.012725        -0.3463

                 SPIN DOWN ORBITALS
  NO   OCC          E(Eh)            E(eV)
   0   1.0000     -10.749755      -292.5157
   1   1.0000     -10.727653      -291.9143
   2   1.0000     -10.668200      -290.2965
   3   1.0000     -10.644191      -289.6432
   4   1.0000      -1.148294       -31.2467
   5   1.0000      -1.034963       -28.1628
   6   1.0000      -0.929488       -25.2926
   7   1.0000      -0.866300       -23.5732
   8   1.0000      -0.786192       -21.3934
   9   1.0000      -0.746634       -20.3169
  10   1.0000      -0.693045       -18.8587
  11   1.0000      -0.674458       -18.3529
  12   1.0000      -0.635853       -17.3024
  13   1.0000      -0.622584       -16.9414
  14   1.0000      -0.613777       -16.7017
  15   0.0000      -0.379153       -10.3173
  16   0.0000      -0.188860        -5.1391
  17   0.0000      -0.057389        -1.5616
  18   0.0000      -0.025600        -0.6966
  19   0.0000      -0.014127        -0.3844

MULLIKEN ATOMIC CHARGES AND SPIN POPULATIONS
--------------------------------------------
   0 C :   -0.324065    0.667347
   1 C :   -0.016702    0.269923
   2 C :   -0.549261    0.023332
   3 C :   -0.667889    0.092693
   4 H :    0.344826   -0.031871
   5 H :    0.331484   -0.031300
   6 H :    0.352467   -0.011638
   7 H :    0.313440    0.000122
   8 H :    0.335020    0.002900
   9 H :    0.274070   -0.004364
  10 H :    0.322250    0.027153
  11 H :    0.284359   -0.004297
Sum of atomic charges         :    1.0000000

LOEWDIN ATOMIC CHARGES AND SPIN POPULATIONS
-------------------------------------------
   0 C :   -0.000674    0.618311
   1 C :    0.086263    0.255839
   2 C :   -0.231733    0.046156
   3 C :   -0.304900    0.092775
   4 H :    0.197293   -0.014357
   5 H :    0.189922   -0.014571
   6 H :    0.193173   -0.004512
   7 H :    0.174162    0.001181
   8 H :    0.189271    0.002992
   9 H :    0.155344   -0.002680
  10 H :    0.189927    0.021889
  11 H :    0.161951   -0.003024

  Mayer bond orders larger than 0.100000
B(  0-C ,  1-C ) :   1.3601 B(  0-C ,  4-H ) :   0.8713 B(  0-C ,  5-H ) :   0.8805
B(  1-C ,  2-C ) :   1.0732 B(  1-C ,  6-H ) :   0.8551 B(  2-C ,  3-C ) :   0.8174
B(  2-C ,  7-H ) :   0.8830 B(  2-C ,  8-H ) :   0.8635 B(  3-C ,  9-H ) :   0.8983
B(  3-C , 10-H ) :   0.8629 B(  3-C , 11-H ) :   0.8931

Dispersion correction           -0.004446860
FINAL SINGLE POINT ENERGY      -156.520946333731

DIPOLE MOMENT
-------------
                                X             Y             Z
Electronic contribution:     -2.40299      -1.26266      -0.31151
Nuclear contribution   :      1.88279       0.70199       0.28050
                        -----------------------------------------
Total Dipole Moment    :     -0.52020      -0.56068      -0.03102
                        -----------------------------------------
Magnitude (a.u.)       :      0.76546
Magnitude (Debye)      :      1.94565

Rotational constants in cm-1:     0.569078     0.163422     0.151630
Rotational constants in MHz : 17060.536029  4899.261864  4545.738480

                             ****ORCA TERMINATED NORMALLY****
TOTAL RUN TIME: 0 days 0 hours 3 minutes 0 seconds 609 msec
