                         Program Version 5.0.3 -  RELEASE  -
|  1> ! PBEh-3c def2/J TightSCF DefGrid3
|  2>
|  3> %maxcore 60000
|  4>
|  5> %pal
|  6> nprocs 4
|  7> end
|  8>
|  9> *xyzfile 0 1 63B.xyz
| 10>
| 11>                          ****END OF INPUT****

CARTESIAN COORDINATES (ANGSTROEM)
---------------------------------
  C      0.509494   -0.255997    0.108916
  O      1.704987   -0.092046    0.185431
  O     -0.070007   -1.467401    0.308354
  H      0.664443   -2.068510    0.501392
  C     -0.512390    0.787935   -0.211765
  H     -0.034096    1.758881   -0.258588
  H     -0.965190    0.554739   -1.174473
  H     -1.297241    0.782398    0.540734

 Total Charge           Charge          ....    0
 Multiplicity           Mult            ....    1
 Number of Electrons    NEL             ....   32
 Basis Dimension        Dim             ....   68

ORBITAL ENERGIES
----------------

  NO   OCC          E(Eh)            E(eV)
   0   2.0000     -19.542304      -531.7731
   1   2.0000     -19.487039      -530.2693
   2   2.0000     -10.586012      -288.0600
   3   2.0000     -10.450270      -284.3663
   4   2.0000      -1.220620       -33.2148
   5   2.0000      -1.124233       -30.5919
   6   2.0000      -0.851849       -23.1800
   7   2.0000      -0.682956       -18.5842
   8   2.0000      -0.561698       -15.2846
   9   2.0000      -0.548918       -14.9368
  10   2.0000      -0.535221       -14.5641
  11   2.0000      -0.471354       -12.8262
  12   2.0000      -0.459602       -12.5064
  13   2.0000      -0.452677       -12.3180
  14   2.0000      -0.377593       -10.2748
  15   2.0000      -0.337720        -9.1898
  16   0.0000       0.043771         1.1911
  17   0.0000       0.130036         3.5385
  18   0.0000       0.166069         4.5190
  19   0.0000       0.205375         5.5885
  20   0.0000       0.218861         5.9555

MULLIKEN ATOMIC CHARGES
-----------------------
   0 C :    0.506673
   1 O :   -0.390573
   2 O :   -0.587012
   3 H :    0.441489
   4 C :   -0.739628
   5 H :    0.258887
   6 H :    0.255951
   7 H :    0.254214
Sum of atomic charges:    0.0000000

LOEWDIN ATOMIC CHARGES
----------------------
   0 C :    0.132116
   1 O :   -0.231294
   2 O :   -0.310789
   3 H :    0.331556
   4 C :   -0.390379
   5 H :    0.153209
   6 H :    0.159228
   7 H :    0.156354

  Mayer bond orders larger than 0.100000
B(  0-C ,  1-O ) :   2.0715 B(  0-C ,  2-O ) :   1.1354 B(  0-C ,  4-C ) :   0.9386
B(  2-O ,  3-H ) :   0.7622 B(  4-C ,  5-H ) :   0.9169 B(  4-C ,  6-H ) :   0.9040
B(  4-C ,  7-H ) :   0.9053

Dispersion correction           -0.002316246
FINAL SINGLE POINT ENERGY      -228.601839676174

DIPOLE MOMENT
-------------
                                X             Y             Z
Electronic contribution:      2.42052      -2.18669       0.71125
Nuclear contribution   :     -3.04872       2.04469      -0.75441
                        -----------------------------------------
Total Dipole Moment    :     -0.62820      -0.14200      -0.04317
                        -----------------------------------------
Magnitude (a.u.)       :      0.64550
Magnitude (Debye)      :      1.64072

Rotational constants in cm-1:     0.377730     0.317623     0.178242
Rotational constants in MHz : 11324.072956  9522.107142  5343.569186

                             ****ORCA TERMINATED NORMALLY****
TOTAL RUN TIME: 0 days 0 hours 1 minutes 9 seconds 796 msec
