                         Program Version 5.0.3 -  RELEASE  -
|  1> ! PBEh-3c def2/J TightSCF DefGrid3
|  2>
|  3> %maxcore 60000
|  4>
|  5> %pal
|  6> nprocs 4
|  7> end
|  8>
|  9> *xyzfile 0 1 li4_me4.xyz
| 10>
| 11>                          ****END OF INPUT****

CARTESIAN COORDINATES (ANGSTROEM)
---------------------------------
  Li     0.840048   -0.840048    0.840048
  Li    -0.840048    0.840048    0.840048
  Li    -0.840048   -0.840048   -0.840048
  Li     0.840048    0.840048   -0.840048
  C     -1.262088   -1.262088    1.262088
  C      1.262088   -1.262088   -1.262088
  C     -1.262088    1.262088   -1.262088
  C      1.262088    1.262088    1.262088
  H     -2.346834   -1.129916    1.129916
  H     -1.129916   -2.346834    1.129916
  H     -1.129916   -1.129916    2.346834
  H      1.129916    2.346834    1.129916
  H      1.129916    1.129916    2.346834
  H      2.346834    1.129916    1.129916
  H      1.129916   -1.129916   -2.346834
  H      2.346834   -1.129916   -1.129916
  H      1.129916   -2.346834   -1.129916
  H     -1.129916    1.129916   -2.346834
  H     -2.346834    1.129916   -1.129916
  H     -1.129916    2.346834   -1.129916

 Total Charge           Charge          ....    0
 Multiplicity           Mult            ....    1
 Number of Electrons    NEL             ....   48
 Basis Dimension        Dim             ....  120

ORBITAL ENERGIES
----------------

  NO   OCC          E(Eh)            E(eV)
   0   2.0000     -10.369012      -282.1552
   1   2.0000     -10.368994      -282.1547
   2   2.0000     -10.368994      -282.1547
   3   2.0000     -10.368994      -282.1547
   4   2.0000      -2.045619       -55.6641
   5   2.0000      -2.042452       -55.5779
   6   2.0000      -2.042452       -55.5779
   7   2.0000      -2.042452       -55.5779
   8   2.0000      -0.721191       -19.6246
   9   2.0000      -0.716099       -19.4860
  10   2.0000      -0.716099       -19.4860
  11   2.0000      -0.716098       -19.4860
  12   2.0000      -0.416143       -11.3238
  13   2.0000      -0.416143       -11.3238
  14   2.0000      -0.409139       -11.1332
  15   2.0000      -0.409139       -11.1332
  16   2.0000      -0.409139       -11.1332
  17   2.0000      -0.397567       -10.8183
  18   2.0000      -0.397567       -10.8183
  19   2.0000      -0.397567       -10.8183
  20   2.0000      -0.311528        -8.4771
  21   2.0000      -0.252067        -6.8591
  22   2.0000      -0.252067        -6.8591
  23   2.0000      -0.252067        -6.8591
  24   0.0000      -0.002347        -0.0639
  25   0.0000       0.018214         0.4956
  26   0.0000       0.018214         0.4956
  27   0.0000       0.018215         0.4956
  28   0.0000       0.090784         2.4704

MULLIKEN ATOMIC CHARGES
-----------------------
   0 Li:    0.678758
   1 Li:    0.678759
   2 Li:    0.678759
   3 Li:    0.678759
   4 C :   -1.337002
   5 C :   -1.337002
   6 C :   -1.337002
   7 C :   -1.337002
   8 H :    0.219414
   9 H :    0.219414
  10 H :    0.219414
  11 H :    0.219414
  12 H :    0.219414
  13 H :    0.219414
  14 H :    0.219414
  15 H :    0.219414
  16 H :    0.219414
  17 H :    0.219414
  18 H :    0.219414
  19 H :    0.219414
Sum of atomic charges:   -0.0000000

LOEWDIN ATOMIC CHARGES
----------------------
   0 Li:    0.237667
   1 Li:    0.237667
   2 Li:    0.237667
   3 Li:    0.237667
   4 C :   -0.692453
   5 C :   -0.692453
   6 C :   -0.692453
   7 C :   -0.692453
   8 H :    0.151596
   9 H :    0.151596
  10 H :    0.151596
  11 H :    0.151596
  12 H :    0.151596
  13 H :    0.151596
  14 H :    0.151596
  15 H :    0.151596
  16 H :    0.151596
  17 H :    0.151596
  18 H :    0.151596
  19 H :    0.151596

  Mayer bond orders larger than 0.100000
B(  0-Li,  4-C ) :   0.1670 B(  0-Li,  5-C ) :   0.1670 B(  0-Li,  7-C ) :   0.1670
B(  1-Li,  4-C ) :   0.1670 B(  1-Li,  6-C ) :   0.1670 B(  1-Li,  7-C ) :   0.1670
B(  2-Li,  4-C ) :   0.1670 B(  2-Li,  5-C ) :   0.1670 B(  2-Li,  6-C ) :   0.1670
B(  3-Li,  5-C ) :   0.1670 B(  3-Li,  6-C ) :   0.1670 B(  3-Li,  7-C ) :   0.1670
B(  4-C ,  8-H ) :   0.9087 B(  4-C ,  9-H ) :   0.9087 B(  4-C , 10-H ) :   0.9087
B(  5-C , 14-H ) :   0.9087 B(  5-C , 15-H ) :   0.9087 B(  5-C , 16-H ) :   0.9087
B(  6-C , 17-H ) :   0.9087 B(  6-C , 18-H ) :   0.9087 B(  6-C , 19-H ) :   0.9087
B(  7-C , 11-H ) :   0.9087 B(  7-C , 12-H ) :   0.9087 B(  7-C , 13-H ) :   0.9087

Dispersion correction           -0.010520851
FINAL SINGLE POINT ENERGY      -189.316849104501

DIPOLE MOMENT
-------------
                                X             Y             Z
Electronic contribution:     -0.00000      -0.00000       0.00000
Nuclear contribution   :      0.00000       0.00000      -0.00000
                        -----------------------------------------
Total Dipole Moment    :     -0.00000      -0.00000       0.00000
                        -----------------------------------------
Magnitude (a.u.)       :      0.00000
Magnitude (Debye)      :      0.00000

Rotational constants in cm-1:     0.065532     0.065532     0.065532
Rotational constants in MHz :  1964.586881  1964.586881  1964.586881

                             ****ORCA TERMINATED NORMALLY****
TOTAL RUN TIME: 0 days 0 hours 1 minutes 35 seconds 794 msec
