                         Program Version 5.0.3 -  RELEASE  -
|  1> ! PBEh-3c def2/J TightSCF DefGrid3
|  2>
|  3> %maxcore 60000
|  4>
|  5> %pal
|  6> nprocs 4
|  7> end
|  8>
|  9> *xyzfile 0 1 E12.xyz
| 10>
| 11>                          ****END OF INPUT****

CARTESIAN COORDINATES (ANGSTROEM)
---------------------------------
  C     -0.006183    0.719258    0.000000
  C      1.195982    0.004180    0.000000
  C      1.202749   -1.385797    0.000000
  C      0.002150   -2.092101    0.000000
  C     -1.200322   -1.394427    0.000000
  C     -1.201349   -0.001538    0.000000
  C     -0.002507    2.227983    0.000000
  H      2.137297    0.543998    0.000000
  H      2.145980   -1.919791    0.000000
  H      0.005983   -3.175559    0.000000
  H     -2.140835   -1.933095    0.000000
  H     -2.145268    0.532779    0.000000
  H     -1.017697    2.627301    0.000000
  H      0.512010    2.623404    0.880162
  H      0.512010    2.623404   -0.880162

 Total Charge           Charge          ....    0
 Multiplicity           Mult            ....    1
 Number of Electrons    NEL             ....   50
 Basis Dimension        Dim             ....  121

ORBITAL ENERGIES
----------------

  NO   OCC          E(Eh)            E(eV)
   0   2.0000     -10.456218      -284.5281
   1   2.0000     -10.445457      -284.2353
   2   2.0000     -10.445100      -284.2256
   3   2.0000     -10.443014      -284.1689
   4   2.0000     -10.442814      -284.1634
   5   2.0000     -10.442648      -284.1589
   6   2.0000     -10.434711      -283.9429
   7   2.0000      -0.953851       -25.9556
   8   2.0000      -0.861484       -23.4422
   9   2.0000      -0.832257       -22.6469
  10   2.0000      -0.767530       -20.8855
  11   2.0000      -0.679340       -18.4858
  12   2.0000      -0.656678       -17.8691
  13   2.0000      -0.576615       -15.6905
  14   2.0000      -0.521624       -14.1941
  15   2.0000      -0.514945       -14.0124
  16   2.0000      -0.477115       -12.9829
  17   2.0000      -0.476553       -12.9677
  18   2.0000      -0.465201       -12.6588
  19   2.0000      -0.439710       -11.9651
  20   2.0000      -0.407214       -11.0809
  21   2.0000      -0.393324       -10.7029
  22   2.0000      -0.389936       -10.6107
  23   2.0000      -0.289782        -7.8854
  24   2.0000      -0.280162        -7.6236
  25   0.0000       0.019846         0.5400
  26   0.0000       0.025063         0.6820
  27   0.0000       0.142214         3.8698
  28   0.0000       0.171954         4.6791
  29   0.0000       0.186010         5.0616

MULLIKEN ATOMIC CHARGES
-----------------------
   0 C :    0.121211
   1 C :   -0.264251
   2 C :   -0.203920
   3 C :   -0.237730
   4 C :   -0.203043
   5 C :   -0.270433
   6 C :   -0.705789
   7 H :    0.210596
   8 H :    0.216612
   9 H :    0.217232
  10 H :    0.216680
  11 H :    0.209602
  12 H :    0.227139
  13 H :    0.233046
  14 H :    0.233046
Sum of atomic charges:   -0.0000000

LOEWDIN ATOMIC CHARGES
----------------------
   0 C :   -0.050775
   1 C :   -0.136674
   2 C :   -0.131699
   3 C :   -0.143630
   4 C :   -0.132121
   5 C :   -0.139954
   6 C :   -0.348313
   7 H :    0.133494
   8 H :    0.135032
   9 H :    0.134809
  10 H :    0.135150
  11 H :    0.132722
  12 H :    0.133572
  13 H :    0.139193
  14 H :    0.139193

  Mayer bond orders larger than 0.100000
B(  0-C ,  1-C ) :   1.3801 B(  0-C ,  5-C ) :   1.4253 B(  0-C ,  6-C ) :   0.9580
B(  1-C ,  2-C ) :   1.4401 B(  1-C ,  7-H ) :   0.9263 B(  2-C ,  3-C ) :   1.4147
B(  2-C ,  8-H ) :   0.9206 B(  3-C ,  4-C ) :   1.4332 B(  3-C ,  9-H ) :   0.9201
B(  4-C ,  5-C ) :   1.4240 B(  4-C , 10-H ) :   0.9202 B(  5-C , 11-H ) :   0.9207
B(  6-C , 12-H ) :   0.9321 B(  6-C , 13-H ) :   0.9185 B(  6-C , 14-H ) :   0.9185

Dispersion correction           -0.007721239
FINAL SINGLE POINT ENERGY      -270.959251404245

DIPOLE MOMENT
-------------
                                X             Y             Z
Electronic contribution:      0.00298      -3.38132       0.00000
Nuclear contribution   :      0.01739       3.52659       0.00000
                        -----------------------------------------
Total Dipole Moment    :      0.02037       0.14527       0.00000
                        -----------------------------------------
Magnitude (a.u.)       :      0.14669
Magnitude (Debye)      :      0.37286

Rotational constants in cm-1:     0.185584     0.084038     0.058471
Rotational constants in MHz :  5563.676982  2519.383753  1752.912444

                             ****ORCA TERMINATED NORMALLY****
TOTAL RUN TIME: 0 days 0 hours 1 minutes 12 seconds 670 msec
