                         Program Version 5.0.3 -  RELEASE  -
|  1> ! PBEh-3c def2/J TightSCF DefGrid3
|  2>
|  3> %maxcore 60000
|  4>
|  5> %pal
|  6> nprocs 4
|  7> end
|  8>
|  9> *xyzfile 0 1 19_benCl-acetoneB.xyz
| 10>
| 11>                          ****END OF INPUT****

CARTESIAN COORDINATES (ANGSTROEM)
---------------------------------
  O     -3.696573    0.000153   -3.618618
  C     -4.843990    0.001944   -3.211415
  C     -6.003098   -0.000552   -4.185877
  C     -5.132206    0.006671   -1.725264
  H     -5.917763    0.873303   -4.829394
  H     -5.918846   -0.878699   -4.823653
  H     -6.973225    0.001638   -3.699033
  H     -6.193070    0.008055   -1.495293
  H     -4.662540   -0.867116   -1.276801
  H     -4.661408    0.882569   -1.282157

 Total Charge           Charge          ....    0
 Multiplicity           Mult            ....    1
 Number of Electrons    NEL             ....   32
 Basis Dimension        Dim             ....   72

ORBITAL ENERGIES
----------------

  NO   OCC          E(Eh)            E(eV)
   0   2.0000     -19.480100      -530.0805
   1   2.0000     -10.539173      -286.7855
   2   2.0000     -10.440523      -284.1011
   3   2.0000     -10.440399      -284.0977
   4   2.0000      -1.145731       -31.1769
   5   2.0000      -0.856425       -23.3045
   6   2.0000      -0.800145       -21.7731
   7   2.0000      -0.603006       -16.4086
   8   2.0000      -0.522580       -14.2201
   9   2.0000      -0.517514       -14.0823
  10   2.0000      -0.517176       -14.0731
  11   2.0000      -0.465311       -12.6617
  12   2.0000      -0.456577       -12.4241
  13   2.0000      -0.433994       -11.8096
  14   2.0000      -0.391336       -10.6488
  15   2.0000      -0.303042        -8.2462
  16   0.0000       0.013070         0.3557
  17   0.0000       0.142786         3.8854
  18   0.0000       0.170383         4.6364
  19   0.0000       0.195153         5.3104
  20   0.0000       0.213873         5.8198

MULLIKEN ATOMIC CHARGES
-----------------------
   0 O :   -0.349787
   1 C :    0.351206
   2 C :   -0.739747
   3 C :   -0.739993
   4 H :    0.259916
   5 H :    0.259914
   6 H :    0.219159
   7 H :    0.219290
   8 H :    0.260019
   9 H :    0.260024
Sum of atomic charges:    0.0000000

LOEWDIN ATOMIC CHARGES
----------------------
   0 O :   -0.206124
   1 C :    0.103765
   2 C :   -0.399490
   3 C :   -0.399465
   4 H :    0.159698
   5 H :    0.159699
   6 H :    0.131104
   7 H :    0.131289
   8 H :    0.159763
   9 H :    0.159761

  Mayer bond orders larger than 0.100000
B(  0-O ,  1-C ) :   2.1111 B(  1-C ,  2-C ) :   0.9320 B(  1-C ,  3-C ) :   0.9318
B(  2-C ,  4-H ) :   0.9102 B(  2-C ,  5-H ) :   0.9102 B(  2-C ,  6-H ) :   0.9207
B(  3-C ,  7-H ) :   0.9208 B(  3-C ,  8-H ) :   0.9101 B(  3-C ,  9-H ) :   0.9101

Dispersion correction           -0.003282773
FINAL SINGLE POINT ENERGY      -192.734651634313

DIPOLE MOMENT
-------------
                                X             Y             Z
Electronic contribution:      3.47928      -0.00539      -1.23111
Nuclear contribution   :     -4.49968       0.00695       1.59446
                        -----------------------------------------
Total Dipole Moment    :     -1.02041       0.00156       0.36335
                        -----------------------------------------
Magnitude (a.u.)       :      1.08317
Magnitude (Debye)      :      2.75320

Rotational constants in cm-1:     0.348593     0.276201     0.163329
Rotational constants in MHz : 10450.567994  8280.301421  4896.472607

                             ****ORCA TERMINATED NORMALLY****
TOTAL RUN TIME: 0 days 0 hours 1 minutes 9 seconds 494 msec
