                         Program Version 5.0.3 -  RELEASE  -
|  1> ! PBEh-3c def2/J TightSCF DefGrid3
|  2>
|  3> %maxcore 60000
|  4>
|  5> %pal
|  6> nprocs 4
|  7> end
|  8>
|  9> *xyzfile 1 2 IP_70.xyz
| 10>
| 11>                          ****END OF INPUT****

CARTESIAN COORDINATES (ANGSTROEM)
---------------------------------
  Cl     0.000000    0.000000    0.663207
  H      0.000000    0.000000   -0.663207

 Total Charge           Charge          ....    1
 Multiplicity           Mult            ....    2
 Number of Electrons    NEL             ....   17
 Basis Dimension        Dim             ....   20

ORBITAL ENERGIES
----------------
                 SPIN UP ORBITALS
  NO   OCC          E(Eh)            E(eV)
   0   1.0000    -102.771367     -2796.5511
   1   1.0000     -10.235473      -278.5214
   2   1.0000      -7.933719      -215.8875
   3   1.0000      -7.916927      -215.4305
   4   1.0000      -7.908024      -215.1883
   5   1.0000      -1.361653       -37.0525
   6   1.0000      -0.906785       -24.6749
   7   1.0000      -0.838614       -22.8198
   8   1.0000      -0.776213       -21.1218
   9   0.0000      -0.282367        -7.6836
  10   0.0000       0.148368         4.0373
  11   0.0000       0.291303         7.9268
  12   0.0000       0.347730         9.4622
  13   0.0000       0.381498        10.3811

                 SPIN DOWN ORBITALS
  NO   OCC          E(Eh)            E(eV)
   0   1.0000    -102.762638     -2796.3135
   1   1.0000     -10.227032      -278.2917
   2   1.0000      -7.911692      -215.2881
   3   1.0000      -7.903080      -215.0537
   4   1.0000      -7.902741      -215.0445
   5   1.0000      -1.294093       -35.2141
   6   1.0000      -0.889016       -24.1913
   7   1.0000      -0.755775       -20.5657
   8   0.0000      -0.558351       -15.1935
   9   0.0000      -0.270688        -7.3658
  10   0.0000       0.169222         4.6048
  11   0.0000       0.311024         8.4634
  12   0.0000       0.406276        11.0553

MULLIKEN ATOMIC CHARGES AND SPIN POPULATIONS
--------------------------------------------
   0 Cl:    0.545448    1.028176
   1 H :    0.454552   -0.028176
Sum of atomic charges         :    1.0000000

LOEWDIN ATOMIC CHARGES AND SPIN POPULATIONS
-------------------------------------------
   0 Cl:    0.688106    1.021240
   1 H :    0.311894   -0.021240

  Mayer bond orders larger than 0.100000
B(  0-Cl,  1-H ) :   0.7783

Dispersion correction           -0.000168117
FINAL SINGLE POINT ENERGY      -459.826811260252

DIPOLE MOMENT
-------------
                                X             Y             Z
Electronic contribution:      0.00000       0.00000       0.42992
Nuclear contribution   :      0.00000       0.00000      -1.25923
                        -----------------------------------------
Total Dipole Moment    :      0.00000       0.00000      -0.82931
                        -----------------------------------------
Magnitude (a.u.)       :      0.82931
Magnitude (Debye)      :      2.10793

Rotational constants in cm-1:     0.000000     9.775818     9.775818
Rotational constants in MHz :     0.000000 293071.648906 293071.648906

                             ****ORCA TERMINATED NORMALLY****
TOTAL RUN TIME: 0 days 0 hours 0 minutes 8 seconds 336 msec
