                         Program Version 5.0.3 -  RELEASE  -
|  1> ! PBEh-3c def2/J TightSCF DefGrid3
|  2>
|  3> %maxcore 60000
|  4>
|  5> %pal
|  6> nprocs 4
|  7> end
|  8>
|  9> *xyzfile 0 1 n2h2.xyz
| 10>
| 11>                          ****END OF INPUT****

CARTESIAN COORDINATES (ANGSTROEM)
---------------------------------
  N     -0.558609   -0.276678    0.000000
  N      0.558609    0.276678    0.000000
  H      1.264593   -0.488824    0.000000
  H     -1.264593    0.488824    0.000000

 Total Charge           Charge          ....    0
 Multiplicity           Mult            ....    1
 Number of Electrons    NEL             ....   16
 Basis Dimension        Dim             ....   34

ORBITAL ENERGIES
----------------

  NO   OCC          E(Eh)            E(eV)
   0   2.0000     -14.691625      -399.7794
   1   2.0000     -14.691144      -399.7663
   2   2.0000      -1.132116       -30.8064
   3   2.0000      -0.772641       -21.0246
   4   2.0000      -0.544503       -14.8167
   5   2.0000      -0.505553       -13.7568
   6   2.0000      -0.439033       -11.9467
   7   2.0000      -0.292671        -7.9640
   8   0.0000      -0.011133        -0.3030
   9   0.0000       0.154323         4.1994
  10   0.0000       0.158310         4.3078
  11   0.0000       0.383230        10.4282
  12   0.0000       0.703294        19.1376

MULLIKEN ATOMIC CHARGES
-----------------------
   0 N :   -0.323892
   1 N :   -0.323892
   2 H :    0.323892
   3 H :    0.323892
Sum of atomic charges:   -0.0000000

LOEWDIN ATOMIC CHARGES
----------------------
   0 N :   -0.211633
   1 N :   -0.211633
   2 H :    0.211633
   3 H :    0.211633

  Mayer bond orders larger than 0.100000
B(  0-N ,  1-N ) :   2.0012 B(  0-N ,  3-H ) :   0.8437 B(  1-N ,  2-H ) :   0.8437

Dispersion correction           -0.000660969
FINAL SINGLE POINT ENERGY      -110.390117957967

DIPOLE MOMENT
-------------
                                X             Y             Z
Electronic contribution:      0.00000      -0.00000       0.00000
Nuclear contribution   :      0.00000       0.00000       0.00000
                        -----------------------------------------
Total Dipole Moment    :      0.00000      -0.00000       0.00000
                        -----------------------------------------
Magnitude (a.u.)       :      0.00000
Magnitude (Debye)      :      0.00000

Rotational constants in cm-1:     9.916135     1.307630     1.155284
Rotational constants in MHz : 297278.249370 39201.748733 34634.531923

                             ****ORCA TERMINATED NORMALLY****
TOTAL RUN TIME: 0 days 0 hours 0 minutes 35 seconds 122 msec
