                         Program Version 5.0.3 -  RELEASE  -
|  1> ! PBEh-3c def2/J TightSCF DefGrid3
|  2>
|  3> %maxcore 60000
|  4>
|  5> %pal
|  6> nprocs 4
|  7> end
|  8>
|  9> *xyzfile 0 1 21.xyz
| 10>
| 11>                          ****END OF INPUT****

CARTESIAN COORDINATES (ANGSTROEM)
---------------------------------
  N     -1.152514    2.979514   -0.084466
  C      0.149856    2.640897    0.218489
  C      0.252222    1.283126    0.414883
  C     -1.068274    0.749159    0.219696
  C     -1.600925   -0.546724    0.287383
  C     -2.957318   -0.732011    0.048649
  C     -3.796213    0.362731   -0.258106
  C     -3.285380    1.655003   -0.327354
  C     -1.923382    1.838413   -0.088043
  H     -1.485072    3.910891   -0.252034
  H      0.916519    3.396933    0.273799
  H     -0.989235   -1.407290    0.524884
  H     -4.848556    0.212653   -0.442631
  H     -3.938509    2.485958   -0.561040
  O     -3.402984   -2.028280    0.132875
  C     -4.782871   -2.249450   -0.099966
  H     -5.402158   -1.718786    0.626643
  H     -5.072457   -1.949123   -1.109459
  H     -4.935910   -3.318692    0.012780
  C      1.496748    0.507338    0.708978
  C      2.026331   -0.199499   -0.547023
  N      3.221997   -0.986086   -0.290810
  C      4.446738   -0.398531   -0.184970
  C      5.592450   -1.329747    0.157936
  H      2.278188    1.169217    1.083177
  H      1.300424   -0.240645    1.482197
  H      1.264322   -0.860170   -0.960174
  H      2.271813    0.548519   -1.299038
  H      3.131846   -1.959208   -0.063354
  O      4.616050    0.800908   -0.359267
  H      5.990524   -1.047496    1.131159
  H      5.303468   -2.378998    0.181035
  H      6.382263   -1.190525   -0.576826

 Total Charge           Charge          ....    0
 Multiplicity           Mult            ....    1
 Number of Electrons    NEL             ....  124
 Basis Dimension        Dim             ....  287

ORBITAL ENERGIES
----------------

  NO   OCC          E(Eh)            E(eV)
   0   2.0000     -19.516884      -531.0814
   1   2.0000     -19.445868      -529.1490
   2   2.0000     -14.679709      -399.4552
   3   2.0000     -14.655528      -398.7972
   4   2.0000     -10.540613      -286.8247
   5   2.0000     -10.498016      -285.6655
   6   2.0000     -10.485795      -285.3330
   7   2.0000     -10.474404      -285.0230
   8   2.0000     -10.473620      -285.0017
   9   2.0000     -10.466146      -284.7983
  10   2.0000     -10.450531      -284.3734
  11   2.0000     -10.442410      -284.1524
  12   2.0000     -10.442272      -284.1487
  13   2.0000     -10.438205      -284.0380
  14   2.0000     -10.435600      -283.9671
  15   2.0000     -10.435469      -283.9636
  16   2.0000     -10.434816      -283.9458
  17   2.0000      -1.164484       -31.6872
  18   2.0000      -1.132467       -30.8160
  19   2.0000      -1.082221       -29.4487
  20   2.0000      -1.014924       -27.6175
  21   2.0000      -0.935023       -25.4433
  22   2.0000      -0.894722       -24.3466
  23   2.0000      -0.847091       -23.0505
  24   2.0000      -0.834738       -22.7144
  25   2.0000      -0.816068       -22.2063
  26   2.0000      -0.793217       -21.5845
  27   2.0000      -0.769714       -20.9450
  28   2.0000      -0.718273       -19.5452
  29   2.0000      -0.698723       -19.0132
  30   2.0000      -0.661834       -18.0094
  31   2.0000      -0.648387       -17.6435
  32   2.0000      -0.626989       -17.0612
  33   2.0000      -0.607301       -16.5255
  34   2.0000      -0.573828       -15.6146
  35   2.0000      -0.567575       -15.4445
  36   2.0000      -0.554414       -15.0864
  37   2.0000      -0.530149       -14.4261
  38   2.0000      -0.527201       -14.3459
  39   2.0000      -0.524864       -14.2823
  40   2.0000      -0.507533       -13.8107
  41   2.0000      -0.502059       -13.6617
  42   2.0000      -0.491217       -13.3667
  43   2.0000      -0.481996       -13.1158
  44   2.0000      -0.471939       -12.8421
  45   2.0000      -0.467096       -12.7103
  46   2.0000      -0.453739       -12.3469
  47   2.0000      -0.452168       -12.3041
  48   2.0000      -0.448113       -12.1938
  49   2.0000      -0.441211       -12.0060
  50   2.0000      -0.431900       -11.7526
  51   2.0000      -0.413070       -11.2402
  52   2.0000      -0.406847       -11.0709
  53   2.0000      -0.400684       -10.9032
  54   2.0000      -0.388363       -10.5679
  55   2.0000      -0.373159       -10.1542
  56   2.0000      -0.349384        -9.5072
  57   2.0000      -0.318398        -8.6640
  58   2.0000      -0.300826        -8.1859
  59   2.0000      -0.294001        -8.0002
  60   2.0000      -0.244979        -6.6662
  61   2.0000      -0.230242        -6.2652
  62   0.0000       0.007403         0.2014
  63   0.0000       0.061790         1.6814
  64   0.0000       0.068874         1.8741
  65   0.0000       0.098328         2.6756
  66   0.0000       0.118589         3.2270

MULLIKEN ATOMIC CHARGES
-----------------------
   0 N :   -0.705089
   1 C :   -0.053478
   2 C :    0.021097
   3 C :    0.080966
   4 C :   -0.447229
   5 C :    0.401760
   6 C :   -0.365818
   7 C :   -0.256937
   8 C :    0.365129
   9 H :    0.357432
  10 H :    0.246510
  11 H :    0.209316
  12 H :    0.229472
  13 H :    0.213232
  14 O :   -0.470701
  15 C :   -0.403332
  16 H :    0.203793
  17 H :    0.203284
  18 H :    0.237787
  19 C :   -0.533716
  20 C :   -0.274441
  21 N :   -0.631423
  22 C :    0.522737
  23 C :   -0.749767
  24 H :    0.257311
  25 H :    0.214923
  26 H :    0.233732
  27 H :    0.256047
  28 H :    0.350539
  29 O :   -0.434418
  30 H :    0.254037
  31 H :    0.207706
  32 H :    0.259538
Sum of atomic charges:    0.0000000

LOEWDIN ATOMIC CHARGES
----------------------
   0 N :   -0.161866
   1 C :   -0.073984
   2 C :   -0.106978
   3 C :   -0.047897
   4 C :   -0.162991
   5 C :    0.058726
   6 C :   -0.194441
   7 C :   -0.149485
   8 C :    0.006710
   9 H :    0.261047
  10 H :    0.139016
  11 H :    0.141729
  12 H :    0.139497
  13 H :    0.136104
  14 O :   -0.195996
  15 C :   -0.180799
  16 H :    0.111943
  17 H :    0.111650
  18 H :    0.129222
  19 C :   -0.234584
  20 C :   -0.143753
  21 N :   -0.243503
  22 C :    0.105196
  23 C :   -0.390690
  24 H :    0.146446
  25 H :    0.127720
  26 H :    0.126821
  27 H :    0.143573
  28 H :    0.251096
  29 O :   -0.285511
  30 H :    0.154724
  31 H :    0.124589
  32 H :    0.156670

  Mayer bond orders larger than 0.100000
B(  0-N ,  1-C ) :   1.1314 B(  0-N ,  8-C ) :   1.0033 B(  0-N ,  9-H ) :   0.8343
B(  1-C ,  2-C ) :   1.5644 B(  1-C , 10-H ) :   0.9077 B(  2-C ,  3-C ) :   1.2308
B(  2-C , 19-C ) :   0.9609 B(  3-C ,  4-C ) :   1.2859 B(  3-C ,  8-C ) :   1.2257
B(  4-C ,  5-C ) :   1.4406 B(  4-C ,  7-C ) :   0.1016 B(  4-C , 11-H ) :   0.9297
B(  5-C ,  6-C ) :   1.2851 B(  5-C , 14-O ) :   1.0095 B(  6-C ,  7-C ) :   1.4699
B(  6-C , 12-H ) :   0.9059 B(  7-C ,  8-C ) :   1.3187 B(  7-C , 13-H ) :   0.9210
B( 14-O , 15-C ) :   0.9592 B( 15-C , 16-H ) :   0.9076 B( 15-C , 17-H ) :   0.9076
B( 15-C , 18-H ) :   0.9242 B( 19-C , 20-C ) :   0.9493 B( 19-C , 24-H ) :   0.9134
B( 19-C , 25-H ) :   0.9208 B( 20-C , 21-N ) :   0.9323 B( 20-C , 26-H ) :   0.9175
B( 20-C , 27-H ) :   0.9013 B( 21-N , 22-C ) :   1.1426 B( 21-N , 28-H ) :   0.8306
B( 22-C , 23-C ) :   0.9265 B( 22-C , 29-O ) :   1.9793 B( 23-C , 30-H ) :   0.9108
B( 23-C , 31-H ) :   0.9229 B( 23-C , 32-H ) :   0.9112

Dispersion correction           -0.020731750
FINAL SINGLE POINT ENERGY      -763.326680196502

DIPOLE MOMENT
-------------
                                X             Y             Z
Electronic contribution:     -3.99147       6.79499      -0.16801
Nuclear contribution   :      3.02701      -7.12497       0.18603
                        -----------------------------------------
Total Dipole Moment    :     -0.96446      -0.32998       0.01802
                        -----------------------------------------
Magnitude (a.u.)       :      1.01951
Magnitude (Debye)      :      2.59139

Rotational constants in cm-1:     0.028770     0.006925     0.005697
Rotational constants in MHz :   862.496934   207.597755   170.796242

                             ****ORCA TERMINATED NORMALLY****
TOTAL RUN TIME: 0 days 0 hours 4 minutes 20 seconds 137 msec
