                         Program Version 5.0.3 -  RELEASE  -
|  1> ! PBEh-3c def2/J TightSCF DefGrid3
|  2>
|  3> %maxcore 60000
|  4>
|  5> %pal
|  6> nprocs 4
|  7> end
|  8>
|  9> *xyzfile -1 1 1p.xyz
| 10>
| 11>                          ****END OF INPUT****

CARTESIAN COORDINATES (ANGSTROEM)
---------------------------------
  H     -0.998403   -3.349367   -3.371134
  O     -0.315549   -2.959221   -2.802871
  C      0.198514   -3.996029   -1.953275
  H      0.625652   -4.811869   -2.550416
  H     -0.589271   -4.405091   -1.306167
  C      1.260982   -3.402045   -1.057281
  H      1.652467   -4.198439   -0.410573
  O      2.351963   -2.853378   -1.841308
  C      2.908554   -1.726207   -1.187882
  H      3.970889   -1.874928   -0.989111
  N      2.801512   -0.549145   -2.097322
  C      1.890676   -0.502079   -3.124528
  H      1.278553   -1.392254   -3.229827
  C      1.775321    0.575723   -3.939912
  H      1.042875    0.592334   -4.735193
  C      2.618501    1.727350   -3.742613
  O      2.629350    2.763108   -4.417768
  N      3.485720    1.606650   -2.643076
  H      4.086274    2.402793   -2.443693
  C      3.622979    0.531813   -1.791934
  O      4.399354    0.521201   -0.836100
  C      0.800276   -2.235694   -0.185087
  H      0.101963   -1.598300   -0.735726
  C      2.117389   -1.505739    0.113108
  H      1.984686   -0.439853    0.327273
  O      2.808509   -2.154436    1.180306
  H      2.112108   -2.518935    1.762410
  O      0.189997   -2.716128    1.019739
  P     -1.267373   -2.061367    1.452766
  O     -1.647357   -2.806247    2.695894
  O     -2.170631   -1.949887    0.264817
  O     -0.863253   -0.521084    1.799574
  C     -0.046479   -0.151848    2.926542
  H      0.972683    0.050932    2.583478
  H     -0.037433   -0.952390    3.674327
  C     -0.679514    1.100699    3.506363
  H     -0.131467    1.412830    4.400061
  O     -0.608912    2.202011    2.558677
  C     -1.875487    2.410532    1.934831
  H     -2.186923    3.436124    2.142128
  N     -1.728035    2.360331    0.460924
  C     -1.979472    1.245630   -0.306602
  H     -2.320644    0.361354    0.213862
  C     -1.795114    1.214288   -1.649740
  H     -2.011471    0.313856   -2.208953
  C     -1.308148    2.376645   -2.343857
  O     -1.124348    2.498452   -3.559003
  N     -1.008889    3.446686   -1.482860
  H     -0.633183    4.288082   -1.912638
  C     -1.170577    3.508852   -0.115481
  O     -0.847800    4.496942    0.541306
  C     -2.163845    0.909431    3.824471
  H     -2.404619   -0.138686    4.011539
  C     -2.894707    1.431171    2.557337
  H     -3.116665    0.592523    1.900623
  O     -4.130095    2.062210    2.862861
  H     -4.003685    2.448684    3.754907
  O     -2.532061    1.710064    4.962533
  H     -3.096335    1.171345    5.539273

 Total Charge           Charge          ....   -1
 Multiplicity           Mult            ....    1
 Number of Electrons    NEL             ....  286
 Basis Dimension        Dim             ....  602

ORBITAL ENERGIES
----------------

  NO   OCC          E(Eh)            E(eV)
   0   2.0000     -77.736263     -2115.3113
   1   2.0000     -19.443047      -529.0722
   2   2.0000     -19.438734      -528.9548
   3   2.0000     -19.423245      -528.5334
   4   2.0000     -19.418395      -528.4014
   5   2.0000     -19.413006      -528.2547
   6   2.0000     -19.409168      -528.1503
   7   2.0000     -19.404362      -528.0195
   8   2.0000     -19.403303      -527.9907
   9   2.0000     -19.392000      -527.6831
  10   2.0000     -19.381716      -527.4033
  11   2.0000     -19.378375      -527.3124
  12   2.0000     -19.371357      -527.1214
  13   2.0000     -19.300541      -525.1944
  14   2.0000     -19.291051      -524.9362
  15   2.0000     -14.624308      -397.9477
  16   2.0000     -14.615195      -397.6997
  17   2.0000     -14.608120      -397.5072
  18   2.0000     -14.597781      -397.2258
  19   2.0000     -10.515971      -286.1541
  20   2.0000     -10.506146      -285.8868
  21   2.0000     -10.477167      -285.0982
  22   2.0000     -10.468191      -284.8540
  23   2.0000     -10.461730      -284.6781
  24   2.0000     -10.449465      -284.3444
  25   2.0000     -10.426956      -283.7319
  26   2.0000     -10.426486      -283.7191
  27   2.0000     -10.419788      -283.5368
  28   2.0000     -10.418501      -283.5018
  29   2.0000     -10.416716      -283.4533
  30   2.0000     -10.415884      -283.4306
  31   2.0000     -10.414595      -283.3955
  32   2.0000     -10.411854      -283.3210
  33   2.0000     -10.409145      -283.2472
  34   2.0000     -10.404469      -283.1200
  35   2.0000     -10.362649      -281.9820
  36   2.0000     -10.350781      -281.6591
  37   2.0000      -6.780639      -184.5106
  38   2.0000      -4.875876      -132.6793
  39   2.0000      -4.874381      -132.6387
  40   2.0000      -4.872151      -132.5780
  41   2.0000      -1.107065       -30.1248
  42   2.0000      -1.095673       -29.8148
  43   2.0000      -1.089515       -29.6472
  44   2.0000      -1.083851       -29.4931
  45   2.0000      -1.067598       -29.0508
  46   2.0000      -1.057826       -28.7849
  47   2.0000      -1.053103       -28.6564
  48   2.0000      -1.050768       -28.5929
  49   2.0000      -1.045118       -28.4391
  50   2.0000      -1.040755       -28.3204
  51   2.0000      -1.037479       -28.2312
  52   2.0000      -1.015507       -27.6334
  53   2.0000      -0.990199       -26.9447
  54   2.0000      -0.979951       -26.6658
  55   2.0000      -0.941079       -25.6081
  56   2.0000      -0.931327       -25.3427
  57   2.0000      -0.927205       -25.2305
  58   2.0000      -0.885485       -24.0953
  59   2.0000      -0.805319       -21.9138
  60   2.0000      -0.795203       -21.6386
  61   2.0000      -0.786702       -21.4072
  62   2.0000      -0.784864       -21.3572
  63   2.0000      -0.761241       -20.7144
  64   2.0000      -0.756124       -20.5752
  65   2.0000      -0.689900       -18.7731
  66   2.0000      -0.684916       -18.6375
  67   2.0000      -0.680577       -18.5194
  68   2.0000      -0.669181       -18.2093
  69   2.0000      -0.636764       -17.3272
  70   2.0000      -0.631884       -17.1944
  71   2.0000      -0.601266       -16.3613
  72   2.0000      -0.600192       -16.3320
  73   2.0000      -0.585277       -15.9262
  74   2.0000      -0.583040       -15.8653
  75   2.0000      -0.553098       -15.0506
  76   2.0000      -0.546555       -14.8725
  77   2.0000      -0.541147       -14.7254
  78   2.0000      -0.533144       -14.5076
  79   2.0000      -0.529187       -14.3999
  80   2.0000      -0.520085       -14.1522
  81   2.0000      -0.518511       -14.1094
  82   2.0000      -0.503143       -13.6912
  83   2.0000      -0.494644       -13.4600
  84   2.0000      -0.492854       -13.4112
  85   2.0000      -0.482999       -13.1431
  86   2.0000      -0.479854       -13.0575
  87   2.0000      -0.469813       -12.7843
  88   2.0000      -0.461972       -12.5709
  89   2.0000      -0.460171       -12.5219
  90   2.0000      -0.451858       -12.2957
  91   2.0000      -0.443751       -12.0751
  92   2.0000      -0.436386       -11.8747
  93   2.0000      -0.431632       -11.7453
  94   2.0000      -0.425980       -11.5915
  95   2.0000      -0.421483       -11.4691
  96   2.0000      -0.418429       -11.3860
  97   2.0000      -0.415844       -11.3157
  98   2.0000      -0.413885       -11.2624
  99   2.0000      -0.410594       -11.1728
 100   2.0000      -0.403897       -10.9906
 101   2.0000      -0.397176       -10.8077
 102   2.0000      -0.396425       -10.7873
 103   2.0000      -0.386538       -10.5182
 104   2.0000      -0.382881       -10.4187
 105   2.0000      -0.381145       -10.3715
 106   2.0000      -0.380676       -10.3587
 107   2.0000      -0.375756       -10.2248
 108   2.0000      -0.368209       -10.0195
 109   2.0000      -0.362792        -9.8721
 110   2.0000      -0.357532        -9.7290
 111   2.0000      -0.353017        -9.6061
 112   2.0000      -0.347693        -9.4612
 113   2.0000      -0.345912        -9.4127
 114   2.0000      -0.333057        -9.0629
 115   2.0000      -0.331579        -9.0227
 116   2.0000      -0.324705        -8.8357
 117   2.0000      -0.318039        -8.6543
 118   2.0000      -0.312106        -8.4928
 119   2.0000      -0.309584        -8.4242
 120   2.0000      -0.305290        -8.3074
 121   2.0000      -0.299208        -8.1419
 122   2.0000      -0.281470        -7.6592
 123   2.0000      -0.272954        -7.4275
 124   2.0000      -0.271603        -7.3907
 125   2.0000      -0.265864        -7.2345
 126   2.0000      -0.262913        -7.1542
 127   2.0000      -0.259022        -7.0483
 128   2.0000      -0.256216        -6.9720
 129   2.0000      -0.253392        -6.8951
 130   2.0000      -0.247962        -6.7474
 131   2.0000      -0.245138        -6.6706
 132   2.0000      -0.239817        -6.5258
 133   2.0000      -0.237996        -6.4762
 134   2.0000      -0.233439        -6.3522
 135   2.0000      -0.230335        -6.2677
 136   2.0000      -0.224027        -6.0961
 137   2.0000      -0.222630        -6.0581
 138   2.0000      -0.208799        -5.6817
 139   2.0000      -0.191716        -5.2169
 140   2.0000      -0.188627        -5.1328
 141   2.0000      -0.185211        -5.0398
 142   2.0000      -0.174767        -4.7556
 143   0.0000       0.077098         2.0979
 144   0.0000       0.088381         2.4050
 145   0.0000       0.127641         3.4733
 146   0.0000       0.136155         3.7050
 147   0.0000       0.164253         4.4696

MULLIKEN ATOMIC CHARGES
-----------------------
   0 H :    0.424914
   1 O :   -0.630287
   2 C :   -0.176365
   3 H :    0.188705
   4 H :    0.228889
   5 C :    0.044440
   6 H :    0.226420
   7 O :   -0.502777
   8 C :    0.205736
   9 H :    0.271120
  10 N :   -0.574583
  11 C :    0.065949
  12 H :    0.329455
  13 C :   -0.467456
  14 H :    0.261994
  15 C :    0.558919
  16 O :   -0.427765
  17 N :   -0.732849
  18 H :    0.385904
  19 C :    0.715570
  20 O :   -0.451235
  21 C :   -0.057069
  22 H :    0.281839
  23 C :   -0.019599
  24 H :    0.244916
  25 O :   -0.653994
  26 H :    0.434125
  27 O :   -0.630271
  28 P :    1.389062
  29 O :   -0.722884
  30 O :   -0.732588
  31 O :   -0.636972
  32 C :   -0.173533
  33 H :    0.226841
  34 H :    0.215929
  35 C :    0.000824
  36 H :    0.230060
  37 O :   -0.472041
  38 C :    0.235152
  39 H :    0.247605
  40 N :   -0.591515
  41 C :    0.088975
  42 H :    0.334842
  43 C :   -0.492125
  44 H :    0.266556
  45 C :    0.561389
  46 O :   -0.431723
  47 N :   -0.738697
  48 H :    0.386643
  49 C :    0.733680
  50 O :   -0.452377
  51 C :   -0.061652
  52 H :    0.270334
  53 C :   -0.045474
  54 H :    0.276431
  55 O :   -0.639864
  56 H :    0.411741
  57 O :   -0.654736
  58 H :    0.425471
Sum of atomic charges:   -1.0000000

LOEWDIN ATOMIC CHARGES
----------------------
   0 H :    0.314785
   1 O :   -0.410869
   2 C :   -0.092246
   3 H :    0.104795
   4 H :    0.129858
   5 C :   -0.015273
   6 H :    0.126050
   7 O :   -0.237202
   8 C :    0.085277
   9 H :    0.142685
  10 N :   -0.095110
  11 C :   -0.008903
  12 H :    0.170108
  13 C :   -0.245271
  14 H :    0.164652
  15 C :    0.127760
  16 O :   -0.279170
  17 N :   -0.201148
  18 H :    0.281004
  19 C :    0.156831
  20 O :   -0.289573
  21 C :   -0.040749
  22 H :    0.150217
  23 C :   -0.035385
  24 H :    0.124381
  25 O :   -0.404262
  26 H :    0.316025
  27 O :   -0.346815
  28 P :    0.803996
  29 O :   -0.603351
  30 O :   -0.600005
  31 O :   -0.352328
  32 C :   -0.093201
  33 H :    0.122956
  34 H :    0.125829
  35 C :   -0.019406
  36 H :    0.129075
  37 O :   -0.241957
  38 C :    0.070051
  39 H :    0.139065
  40 N :   -0.092027
  41 C :    0.004737
  42 H :    0.174134
  43 C :   -0.257998
  44 H :    0.164713
  45 C :    0.123875
  46 O :   -0.280184
  47 N :   -0.202395
  48 H :    0.281509
  49 C :    0.166484
  50 O :   -0.288291
  51 C :   -0.033550
  52 H :    0.139542
  53 C :   -0.043335
  54 H :    0.146899
  55 O :   -0.396622
  56 H :    0.304414
  57 O :   -0.403208
  58 H :    0.318127

  Mayer bond orders larger than 0.100000
B(  0-H ,  1-O ) :   0.7860 B(  1-O ,  2-C ) :   0.9954 B(  2-C ,  3-H ) :   0.9024
B(  2-C ,  4-H ) :   0.8848 B(  2-C ,  5-C ) :   0.9784 B(  5-C ,  6-H ) :   0.8917
B(  5-C ,  7-O ) :   0.9100 B(  5-C , 21-C ) :   0.9173 B(  7-O ,  8-C ) :   1.0016
B(  8-C ,  9-H ) :   0.8809 B(  8-C , 10-N ) :   0.8499 B(  8-C , 23-C ) :   0.9205
B( 10-N , 11-C ) :   1.0732 B( 10-N , 19-C ) :   1.0362 B( 11-C , 12-H ) :   0.8283
B( 11-C , 13-C ) :   1.5944 B( 13-C , 14-H ) :   0.9116 B( 13-C , 15-C ) :   1.0821
B( 15-C , 16-O ) :   2.0015 B( 15-C , 17-N ) :   0.9774 B( 17-N , 18-H ) :   0.8057
B( 17-N , 19-C ) :   1.0699 B( 19-C , 20-O ) :   1.9540 B( 21-C , 22-H ) :   0.8390
B( 21-C , 23-C ) :   0.9389 B( 21-C , 27-O ) :   0.9236 B( 23-C , 24-H ) :   0.8966
B( 23-C , 25-O ) :   1.0018 B( 25-O , 26-H ) :   0.7443 B( 27-O , 28-P ) :   0.8332
B( 28-P , 29-O ) :   1.7613 B( 28-P , 30-O ) :   1.6708 B( 28-P , 31-O ) :   0.8445
B( 31-O , 32-C ) :   0.9179 B( 32-C , 33-H ) :   0.8980 B( 32-C , 34-H ) :   0.8850
B( 32-C , 35-C ) :   0.9436 B( 35-C , 36-H ) :   0.9043 B( 35-C , 37-O ) :   0.9545
B( 35-C , 51-C ) :   0.9297 B( 37-O , 38-C ) :   1.0119 B( 38-C , 39-H ) :   0.8839
B( 38-C , 40-N ) :   0.8743 B( 38-C , 53-C ) :   0.8986 B( 40-N , 41-C ) :   1.0647
B( 40-N , 49-C ) :   1.0192 B( 41-C , 42-H ) :   0.8078 B( 41-C , 43-C ) :   1.6128
B( 43-C , 44-H ) :   0.9080 B( 43-C , 45-C ) :   1.0765 B( 45-C , 46-O ) :   1.9889
B( 45-C , 47-N ) :   0.9774 B( 47-N , 48-H ) :   0.8055 B( 47-N , 49-C ) :   1.0728
B( 49-C , 50-O ) :   1.9518 B( 51-C , 52-H ) :   0.8837 B( 51-C , 53-C ) :   0.9285
B( 51-C , 57-O ) :   0.9684 B( 53-C , 54-H ) :   0.8664 B( 53-C , 55-O ) :   1.0379
B( 55-O , 56-H ) :   0.7552 B( 57-O , 58-H ) :   0.7876

Dispersion correction           -0.049668992
FINAL SINGLE POINT ENERGY     -2308.310542586597

DIPOLE MOMENT
-------------
                                X             Y             Z
Electronic contribution:      3.07861       7.78240      -5.46025
Nuclear contribution   :     -2.94371      -8.75688       6.09691
                        -----------------------------------------
Total Dipole Moment    :      0.13491      -0.97449       0.63666
                        -----------------------------------------
Magnitude (a.u.)       :      1.17182
Magnitude (Debye)      :      2.97853

Rotational constants in cm-1:     0.004296     0.002967     0.002258
Rotational constants in MHz :   128.776684    88.958423    67.688930

                             ****ORCA TERMINATED NORMALLY****
TOTAL RUN TIME: 0 days 0 hours 16 minutes 43 seconds 858 msec
