                         Program Version 5.0.3 -  RELEASE  -
|  1> ! PBEh-3c def2/J TightSCF DefGrid3
|  2>
|  3> %maxcore 60000
|  4>
|  5> %pal
|  6> nprocs 4
|  7> end
|  8>
|  9> *xyzfile 0 1 r14.xyz
| 10>
| 11>                          ****END OF INPUT****

CARTESIAN COORDINATES (ANGSTROEM)
---------------------------------
  C      0.228514    0.733402   -0.720446
  C     -0.228514   -0.733402   -0.720446
  C     -1.755794   -0.822427   -0.717497
  C      0.406558   -1.516712    0.429558
  C      1.755794    0.822427   -0.717497
  C     -0.406558    1.516712    0.429558
  C     -2.385923   -0.029467    0.425148
  C      1.929289   -1.425613    0.385630
  C      2.385923    0.029467    0.425148
  C     -1.929289    1.425613    0.385630
  H     -0.135878    1.188101   -1.649380
  H      0.135878   -1.188101   -1.649380
  H     -2.063139   -1.869980   -0.670135
  H     -2.133067   -0.424121   -1.664350
  H      0.054341   -1.136296    1.391087
  H      0.085337   -2.559611    0.371461
  H      2.063139    1.869980   -0.670135
  H      2.133067    0.424121   -1.664350
  H     -0.054341    1.136296    1.391087
  H     -0.085337    2.559611    0.371461
  H     -2.107555   -0.469955    1.385445
  H     -3.473572   -0.087793    0.359951
  H      2.368215   -1.986427    1.212372
  H      2.288570   -1.887861   -0.538844
  H      2.107555    0.469955    1.385445
  H      3.473572    0.087793    0.359951
  H     -2.368215    1.986427    1.212372
  H     -2.288570    1.887861   -0.538844

 Total Charge           Charge          ....    0
 Multiplicity           Mult            ....    1
 Number of Electrons    NEL             ....   78
 Basis Dimension        Dim             ....  186

ORBITAL ENERGIES
----------------

  NO   OCC          E(Eh)            E(eV)
   0   2.0000     -10.430029      -283.8155
   1   2.0000     -10.429810      -283.8096
   2   2.0000     -10.424153      -283.6556
   3   2.0000     -10.424151      -283.6556
   4   2.0000     -10.423684      -283.6429
   5   2.0000     -10.423675      -283.6426
   6   2.0000     -10.423188      -283.6294
   7   2.0000     -10.423163      -283.6287
   8   2.0000     -10.422529      -283.6114
   9   2.0000     -10.422515      -283.6110
  10   2.0000      -0.943318       -25.6690
  11   2.0000      -0.885176       -24.0869
  12   2.0000      -0.845687       -23.0123
  13   2.0000      -0.816668       -22.2227
  14   2.0000      -0.789913       -21.4946
  15   2.0000      -0.702071       -19.1043
  16   2.0000      -0.671593       -18.2750
  17   2.0000      -0.665366       -18.1055
  18   2.0000      -0.635572       -17.2948
  19   2.0000      -0.584041       -15.8926
  20   2.0000      -0.533834       -14.5264
  21   2.0000      -0.530812       -14.4441
  22   2.0000      -0.507837       -13.8190
  23   2.0000      -0.494117       -13.4456
  24   2.0000      -0.482508       -13.1297
  25   2.0000      -0.467570       -12.7232
  26   2.0000      -0.454687       -12.3727
  27   2.0000      -0.431753       -11.7486
  28   2.0000      -0.421468       -11.4687
  29   2.0000      -0.416168       -11.3245
  30   2.0000      -0.414866       -11.2891
  31   2.0000      -0.389335       -10.5943
  32   2.0000      -0.386965       -10.5299
  33   2.0000      -0.372030       -10.1235
  34   2.0000      -0.366300        -9.9675
  35   2.0000      -0.356867        -9.7108
  36   2.0000      -0.332742        -9.0544
  37   2.0000      -0.328670        -8.9436
  38   2.0000      -0.322747        -8.7824
  39   0.0000       0.127859         3.4792
  40   0.0000       0.135791         3.6951
  41   0.0000       0.149881         4.0785
  42   0.0000       0.176568         4.8047
  43   0.0000       0.179999         4.8980

MULLIKEN ATOMIC CHARGES
-----------------------
   0 C :   -0.220295
   1 C :   -0.220294
   2 C :   -0.411669
   3 C :   -0.414450
   4 C :   -0.411669
   5 C :   -0.414450
   6 C :   -0.426204
   7 C :   -0.417360
   8 C :   -0.426204
   9 C :   -0.417361
  10 H :    0.207015
  11 H :    0.207015
  12 H :    0.213230
  13 H :    0.207412
  14 H :    0.204004
  15 H :    0.216159
  16 H :    0.213231
  17 H :    0.207412
  18 H :    0.204004
  19 H :    0.216159
  20 H :    0.205848
  21 H :    0.219400
  22 H :    0.217442
  23 H :    0.199468
  24 H :    0.205848
  25 H :    0.219400
  26 H :    0.217442
  27 H :    0.199468
Sum of atomic charges:   -0.0000000

LOEWDIN ATOMIC CHARGES
----------------------
   0 C :   -0.145426
   1 C :   -0.145426
   2 C :   -0.229900
   3 C :   -0.233925
   4 C :   -0.229900
   5 C :   -0.233925
   6 C :   -0.239939
   7 C :   -0.236391
   8 C :   -0.239939
   9 C :   -0.236391
  10 H :    0.119892
  11 H :    0.119892
  12 H :    0.121970
  13 H :    0.120381
  14 H :    0.117769
  15 H :    0.123453
  16 H :    0.121970
  17 H :    0.120381
  18 H :    0.117769
  19 H :    0.123453
  20 H :    0.118371
  21 H :    0.123674
  22 H :    0.122578
  23 H :    0.117494
  24 H :    0.118371
  25 H :    0.123674
  26 H :    0.122578
  27 H :    0.117494

  Mayer bond orders larger than 0.100000
B(  0-C ,  1-C ) :   0.9663 B(  0-C ,  4-C ) :   0.9890 B(  0-C ,  5-C ) :   0.9690
B(  0-C , 10-H ) :   0.9131 B(  1-C ,  2-C ) :   0.9890 B(  1-C ,  3-C ) :   0.9690
B(  1-C , 11-H ) :   0.9131 B(  2-C ,  6-C ) :   0.9825 B(  2-C , 12-H ) :   0.9260
B(  2-C , 13-H ) :   0.9215 B(  3-C ,  7-C ) :   0.9892 B(  3-C , 14-H ) :   0.9120
B(  3-C , 15-H ) :   0.9243 B(  4-C ,  8-C ) :   0.9825 B(  4-C , 16-H ) :   0.9260
B(  4-C , 17-H ) :   0.9215 B(  5-C ,  9-C ) :   0.9892 B(  5-C , 18-H ) :   0.9120
B(  5-C , 19-H ) :   0.9243 B(  6-C ,  9-C ) :   0.9864 B(  6-C , 20-H ) :   0.9160
B(  6-C , 21-H ) :   0.9254 B(  7-C ,  8-C ) :   0.9864 B(  7-C , 22-H ) :   0.9274
B(  7-C , 23-H ) :   0.9189 B(  8-C , 24-H ) :   0.9160 B(  8-C , 25-H ) :   0.9254
B(  9-C , 26-H ) :   0.9274 B(  9-C , 27-H ) :   0.9189

Dispersion correction           -0.017837882
FINAL SINGLE POINT ENERGY      -391.081364987897

DIPOLE MOMENT
-------------
                                X             Y             Z
Electronic contribution:     -0.00000       0.00000      -0.92003
Nuclear contribution   :     -0.00000       0.00000       0.90194
                        -----------------------------------------
Total Dipole Moment    :     -0.00000       0.00000      -0.01809
                        -----------------------------------------
Magnitude (a.u.)       :      0.01809
Magnitude (Debye)      :      0.04598

Rotational constants in cm-1:     0.074810     0.037482     0.030465
Rotational constants in MHz :  2242.746428  1123.671768   913.324423

                             ****ORCA TERMINATED NORMALLY****
TOTAL RUN TIME: 0 days 0 hours 2 minutes 19 seconds 837 msec
