                         Program Version 5.0.3 -  RELEASE  -
|  1> ! PBEh-3c def2/J TightSCF DefGrid3
|  2>
|  3> %maxcore 60000
|  4>
|  5> %pal
|  6> nprocs 4
|  7> end
|  8>
|  9> *xyzfile 0 1 P60.xyz
| 10>
| 11>                          ****END OF INPUT****

CARTESIAN COORDINATES (ANGSTROEM)
---------------------------------
  C      0.279992    0.716201   -1.222603
  C     -0.279992   -0.716201   -1.222603
  C      0.000000    0.000000    1.103585
  C      0.000000    1.204847    0.179999
  C      0.000000   -1.204847    0.179999
  C     -0.260727    2.455410    0.532919
  C      0.260727   -2.455410    0.532919
  H     -0.148897    1.360506   -1.988118
  H      1.361861    0.679629   -1.386749
  H      0.148897   -1.360506   -1.988118
  H     -1.361861   -0.679629   -1.386749
  H     -0.876411    0.006298    1.755493
  H      0.876411   -0.006298    1.755493
  H     -0.265985    3.257962   -0.193091
  H     -0.474916    2.722948    1.559814
  H      0.265985   -3.257962   -0.193091
  H      0.474916   -2.722948    1.559814

 Total Charge           Charge          ....    0
 Multiplicity           Mult            ....    1
 Number of Electrons    NEL             ....   52
 Basis Dimension        Dim             ....  125

ORBITAL ENERGIES
----------------

  NO   OCC          E(Eh)            E(eV)
   0   2.0000     -10.451764      -284.4070
   1   2.0000     -10.451757      -284.4068
   2   2.0000     -10.439813      -284.0818
   3   2.0000     -10.438961      -284.0586
   4   2.0000     -10.438753      -284.0529
   5   2.0000     -10.424148      -283.6555
   6   2.0000     -10.424141      -283.6553
   7   2.0000      -0.949140       -25.8274
   8   2.0000      -0.855367       -23.2757
   9   2.0000      -0.816621       -22.2214
  10   2.0000      -0.764096       -20.7921
  11   2.0000      -0.704564       -19.1721
  12   2.0000      -0.599140       -16.3034
  13   2.0000      -0.594144       -16.1675
  14   2.0000      -0.533250       -14.5105
  15   2.0000      -0.529825       -14.4173
  16   2.0000      -0.494234       -13.4488
  17   2.0000      -0.484320       -13.1790
  18   2.0000      -0.463289       -12.6067
  19   2.0000      -0.428839       -11.6693
  20   2.0000      -0.427833       -11.6419
  21   2.0000      -0.408637       -11.1196
  22   2.0000      -0.378971       -10.3123
  23   2.0000      -0.372547       -10.1375
  24   2.0000      -0.295510        -8.0412
  25   2.0000      -0.281840        -7.6692
  26   0.0000       0.029621         0.8060
  27   0.0000       0.061685         1.6785
  28   0.0000       0.155776         4.2389
  29   0.0000       0.163301         4.4436
  30   0.0000       0.176025         4.7899

MULLIKEN ATOMIC CHARGES
-----------------------
   0 C :   -0.481119
   1 C :   -0.481119
   2 C :   -0.501440
   3 C :    0.156970
   4 C :    0.156970
   5 C :   -0.568744
   6 C :   -0.568744
   7 H :    0.232992
   8 H :    0.238563
   9 H :    0.232991
  10 H :    0.238563
  11 H :    0.251033
  12 H :    0.251033
  13 H :    0.210833
  14 H :    0.210193
  15 H :    0.210833
  16 H :    0.210193
Sum of atomic charges:   -0.0000000

LOEWDIN ATOMIC CHARGES
----------------------
   0 C :   -0.229008
   1 C :   -0.229008
   2 C :   -0.227518
   3 C :   -0.051097
   4 C :   -0.051097
   5 C :   -0.288722
   6 C :   -0.288722
   7 H :    0.133563
   8 H :    0.138305
   9 H :    0.133563
  10 H :    0.138305
  11 H :    0.149323
  12 H :    0.149323
  13 H :    0.131024
  14 H :    0.130372
  15 H :    0.131024
  16 H :    0.130372

  Mayer bond orders larger than 0.100000
B(  0-C ,  1-C ) :   0.9544 B(  0-C ,  3-C ) :   0.9760 B(  0-C ,  7-H ) :   0.9255
B(  0-C ,  8-H ) :   0.9061 B(  1-C ,  4-C ) :   0.9760 B(  1-C ,  9-H ) :   0.9255
B(  1-C , 10-H ) :   0.9061 B(  2-C ,  3-C ) :   0.9667 B(  2-C ,  4-C ) :   0.9667
B(  2-C , 11-H ) :   0.9051 B(  2-C , 12-H ) :   0.9051 B(  3-C ,  5-C ) :   1.8916
B(  4-C ,  6-C ) :   1.8916 B(  5-C , 13-H ) :   0.9327 B(  5-C , 14-H ) :   0.9345
B(  6-C , 15-H ) :   0.9327 B(  6-C , 16-H ) :   0.9345

Dispersion correction           -0.008646934
FINAL SINGLE POINT ENERGY      -272.118174208835

DIPOLE MOMENT
-------------
                                X             Y             Z
Electronic contribution:     -0.00000       0.00000       0.43080
Nuclear contribution   :      0.00000       0.00000      -0.52410
                        -----------------------------------------
Total Dipole Moment    :     -0.00000       0.00000      -0.09330
                        -----------------------------------------
Magnitude (a.u.)       :      0.09330
Magnitude (Debye)      :      0.23714

Rotational constants in cm-1:     0.187706     0.069522     0.053514
Rotational constants in MHz :  5627.284652  2084.231043  1604.318317

                             ****ORCA TERMINATED NORMALLY****
TOTAL RUN TIME: 0 days 0 hours 1 minutes 0 seconds 598 msec
