                         Program Version 5.0.3 -  RELEASE  -
|  1> ! PBEh-3c def2/J TightSCF DefGrid3
|  2>
|  3> %maxcore 60000
|  4>
|  5> %pal
|  6> nprocs 4
|  7> end
|  8>
|  9> *xyzfile 0 1 h10.xyz
| 10>
| 11>                          ****END OF INPUT****

CARTESIAN COORDINATES (ANGSTROEM)
---------------------------------
  C     -2.055688   -1.909015    0.178733
  C     -0.653282   -1.430632   -0.179904
  C     -0.476500    0.085864   -0.076777
  C      0.825344    0.546315   -0.756341
  C      2.085053    0.046288   -0.054236
  C      0.881358    2.063286   -0.909945
  C     -0.591359    0.554151    1.371909
  H     -2.802878   -1.408105   -0.437625
  H     -2.157240   -2.981489    0.019007
  H     -2.295429   -1.709836    1.221541
  H     -0.421346   -1.740787   -1.202042
  H      0.073695   -1.925873    0.468125
  H     -1.296048    0.543628   -0.643514
  H      0.810910    0.114906   -1.762449
  H      2.176611    0.482764    0.940575
  H      2.971069    0.334911   -0.619701
  H      2.096390   -1.037670    0.048358
  H      0.975085    2.555246    0.058087
  H     -0.016086    2.445061   -1.397481
  H      1.742801    2.358158   -1.509250
  H      0.147480    0.056620    2.001047
  H     -1.575272    0.327126    1.778402
  H     -0.444668    1.629082    1.463480

 Total Charge           Charge          ....    0
 Multiplicity           Mult            ....    1
 Number of Electrons    NEL             ....   58
 Basis Dimension        Dim             ....  137

ORBITAL ENERGIES
----------------

  NO   OCC          E(Eh)            E(eV)
   0   2.0000     -10.434772      -283.9446
   1   2.0000     -10.433201      -283.9018
   2   2.0000     -10.425584      -283.6946
   3   2.0000     -10.418864      -283.5117
   4   2.0000     -10.417234      -283.4673
   5   2.0000     -10.416747      -283.4541
   6   2.0000     -10.416544      -283.4486
   7   2.0000      -0.916394       -24.9363
   8   2.0000      -0.850716       -23.1492
   9   2.0000      -0.794940       -21.6314
  10   2.0000      -0.760332       -20.6897
  11   2.0000      -0.723855       -19.6971
  12   2.0000      -0.659880       -17.9562
  13   2.0000      -0.601129       -16.3576
  14   2.0000      -0.534024       -14.5315
  15   2.0000      -0.517093       -14.0708
  16   2.0000      -0.496648       -13.5145
  17   2.0000      -0.480601       -13.0778
  18   2.0000      -0.453178       -12.3316
  19   2.0000      -0.450539       -12.2598
  20   2.0000      -0.430132       -11.7045
  21   2.0000      -0.426338       -11.6012
  22   2.0000      -0.420635       -11.4461
  23   2.0000      -0.406258       -11.0548
  24   2.0000      -0.391124       -10.6430
  25   2.0000      -0.376537       -10.2461
  26   2.0000      -0.357004        -9.7146
  27   2.0000      -0.352049        -9.5797
  28   2.0000      -0.346282        -9.4228
  29   0.0000       0.125842         3.4243
  30   0.0000       0.163550         4.4504
  31   0.0000       0.167045         4.5455
  32   0.0000       0.173374         4.7177
  33   0.0000       0.184870         5.0306

MULLIKEN ATOMIC CHARGES
-----------------------
   0 C :   -0.644730
   1 C :   -0.405937
   2 C :   -0.198486
   3 C :   -0.222134
   4 C :   -0.643783
   5 C :   -0.633091
   6 C :   -0.656310
   7 H :    0.208342
   8 H :    0.220566
   9 H :    0.212776
  10 H :    0.209076
  11 H :    0.203790
  12 H :    0.200298
  13 H :    0.207323
  14 H :    0.210039
  15 H :    0.218316
  16 H :    0.220514
  17 H :    0.206500
  18 H :    0.214048
  19 H :    0.217681
  20 H :    0.209266
  21 H :    0.223902
  22 H :    0.222034
Sum of atomic charges:   -0.0000000

LOEWDIN ATOMIC CHARGES
----------------------
   0 C :   -0.361323
   1 C :   -0.238828
   2 C :   -0.152155
   3 C :   -0.156566
   4 C :   -0.355884
   5 C :   -0.353205
   6 C :   -0.356295
   7 H :    0.122935
   8 H :    0.126877
   9 H :    0.123206
  10 H :    0.120438
  11 H :    0.119136
  12 H :    0.117529
  13 H :    0.118737
  14 H :    0.123926
  15 H :    0.126800
  16 H :    0.124989
  17 H :    0.122174
  18 H :    0.124305
  19 H :    0.126186
  20 H :    0.123852
  21 H :    0.127286
  22 H :    0.125881

  Mayer bond orders larger than 0.100000
B(  0-C ,  1-C ) :   0.9962 B(  0-C ,  7-H ) :   0.9296 B(  0-C ,  8-H ) :   0.9313
B(  0-C ,  9-H ) :   0.9263 B(  1-C ,  2-C ) :   0.9790 B(  1-C , 10-H ) :   0.9235
B(  1-C , 11-H ) :   0.9153 B(  2-C ,  3-C ) :   0.9718 B(  2-C ,  6-C ) :   0.9772
B(  2-C , 12-H ) :   0.9120 B(  3-C ,  4-C ) :   0.9824 B(  3-C ,  5-C ) :   0.9941
B(  3-C , 13-H ) :   0.9129 B(  4-C , 14-H ) :   0.9247 B(  4-C , 15-H ) :   0.9287
B(  4-C , 16-H ) :   0.9271 B(  5-C , 17-H ) :   0.9240 B(  5-C , 18-H ) :   0.9312
B(  5-C , 19-H ) :   0.9295 B(  6-C , 20-H ) :   0.9250 B(  6-C , 21-H ) :   0.9248
B(  6-C , 22-H ) :   0.9257

Dispersion correction           -0.011851745
FINAL SINGLE POINT ENERGY      -275.790969686435

DIPOLE MOMENT
-------------
                                X             Y             Z
Electronic contribution:      0.03154      -0.12831      -1.14760
Nuclear contribution   :     -0.03861       0.11314       1.10327
                        -----------------------------------------
Total Dipole Moment    :     -0.00706      -0.01516      -0.04433
                        -----------------------------------------
Magnitude (a.u.)       :      0.04738
Magnitude (Debye)      :      0.12043

Rotational constants in cm-1:     0.134566     0.050387     0.046780
Rotational constants in MHz :  4034.196902  1510.549333  1402.434833

                             ****ORCA TERMINATED NORMALLY****
TOTAL RUN TIME: 0 days 0 hours 1 minutes 50 seconds 706 msec
