                         Program Version 5.0.3 -  RELEASE  -
|  1> ! PBEh-3c def2/J TightSCF DefGrid3
|  2>
|  3> %maxcore 60000
|  4>
|  5> %pal
|  6> nprocs 4
|  7> end
|  8>
|  9> *xyzfile 0 1 bf.xyz
| 10>
| 11>                          ****END OF INPUT****

CARTESIAN COORDINATES (ANGSTROEM)
---------------------------------
  F      0.459658    0.000000    0.000000
  B     -0.807842    0.000000    0.000000

 Total Charge           Charge          ....    0
 Multiplicity           Mult            ....    1
 Number of Electrons    NEL             ....   14
 Basis Dimension        Dim             ....   30

ORBITAL ENERGIES
----------------

  NO   OCC          E(Eh)            E(eV)
   0   2.0000     -25.182128      -685.2406
   1   2.0000      -7.078944      -192.6279
   2   2.0000      -1.420569       -38.6557
   3   2.0000      -0.692625       -18.8473
   4   2.0000      -0.597086       -16.2475
   5   2.0000      -0.597086       -16.2475
   6   2.0000      -0.323861        -8.8127
   7   0.0000      -0.006335        -0.1724
   8   0.0000      -0.006335        -0.1724
   9   0.0000       0.154656         4.2084
  10   0.0000       0.331056         9.0085
  11   0.0000       0.331056         9.0085

MULLIKEN ATOMIC CHARGES
-----------------------
   0 F :   -0.176129
   1 B :    0.176129
Sum of atomic charges:    0.0000000

LOEWDIN ATOMIC CHARGES
----------------------
   0 F :   -0.001030
   1 B :    0.001030

  Mayer bond orders larger than 0.100000
B(  0-F ,  1-B ) :   1.3383

Dispersion correction           -0.000165838
FINAL SINGLE POINT ENERGY      -124.405443114105

DIPOLE MOMENT
-------------
                                X             Y             Z
Electronic contribution:      0.24582      -0.00000       0.00000
Nuclear contribution   :      0.18482       0.00000       0.00000
                        -----------------------------------------
Total Dipole Moment    :      0.43064      -0.00000       0.00000
                        -----------------------------------------
Magnitude (a.u.)       :      0.43064
Magnitude (Debye)      :      1.09459

Rotational constants in cm-1:     0.000000     1.523001     1.523001
Rotational constants in MHz :     0.000000 45658.425199 45658.425199

                             ****ORCA TERMINATED NORMALLY****
TOTAL RUN TIME: 0 days 0 hours 0 minutes 18 seconds 868 msec
