                         Program Version 5.0.3 -  RELEASE  -
|  1> ! PBEh-3c def2/J TightSCF DefGrid3
|  2>
|  3> %maxcore 60000
|  4>
|  5> %pal
|  6> nprocs 4
|  7> end
|  8>
|  9> *xyzfile 0 1 48.xyz
| 10>
| 11>                          ****END OF INPUT****

CARTESIAN COORDINATES (ANGSTROEM)
---------------------------------
  N      1.449573   -0.005665   -1.864359
  C      0.778096   -1.144281   -2.086741
  H      1.327229   -2.060817   -1.909869
  C     -0.545871   -1.190001   -2.516885
  H     -1.030383   -2.142610   -2.677078
  C     -1.220386    0.007845   -2.731398
  H     -2.248546    0.013116   -3.065835
  C     -0.537748    1.198801   -2.504540
  H     -1.015816    2.156268   -2.654822
  C      0.785706    1.139689   -2.074682
  H      1.340913    2.050621   -1.888104
  N      0.576925    0.006012    3.897417
  C      1.447593    0.000399    2.878004
  H      2.495450    0.001648    3.152307
  C      1.074208   -0.006669    1.536176
  H      1.821668   -0.010833    0.755077
  C     -0.281841   -0.008083    1.223761
  H     -0.611569   -0.013538    0.193479
  C     -1.199944   -0.002368    2.268930
  H     -2.264394   -0.003217    2.080194
  C     -0.724340    0.004550    3.577889
  H     -1.416524    0.009133    4.411080

 Total Charge           Charge          ....    0
 Multiplicity           Mult            ....    1
 Number of Electrons    NEL             ....   84
 Basis Dimension        Dim             ....  200

ORBITAL ENERGIES
----------------

  NO   OCC          E(Eh)            E(eV)
   0   2.0000     -14.653154      -398.7326
   1   2.0000     -14.632061      -398.1586
   2   2.0000     -10.494421      -285.5677
   3   2.0000     -10.494381      -285.5666
   4   2.0000     -10.482009      -285.2300
   5   2.0000     -10.475057      -285.0408
   6   2.0000     -10.473768      -285.0057
   7   2.0000     -10.470177      -284.9080
   8   2.0000     -10.470141      -284.9070
   9   2.0000     -10.459930      -284.6292
  10   2.0000     -10.450844      -284.3819
  11   2.0000     -10.446662      -284.2681
  12   2.0000      -1.058593       -28.8058
  13   2.0000      -1.037703       -28.2373
  14   2.0000      -0.913319       -24.8527
  15   2.0000      -0.891949       -24.2712
  16   2.0000      -0.865735       -23.5578
  17   2.0000      -0.845266       -23.0009
  18   2.0000      -0.720523       -19.6064
  19   2.0000      -0.720497       -19.6057
  20   2.0000      -0.700387       -19.0585
  21   2.0000      -0.699674       -19.0391
  22   2.0000      -0.611851       -16.6493
  23   2.0000      -0.592047       -16.1104
  24   2.0000      -0.558196       -15.1893
  25   2.0000      -0.547298       -14.8927
  26   2.0000      -0.537784       -14.6338
  27   2.0000      -0.527434       -14.3522
  28   2.0000      -0.502407       -13.6712
  29   2.0000      -0.484358       -13.1801
  30   2.0000      -0.478450       -13.0193
  31   2.0000      -0.473224       -12.8771
  32   2.0000      -0.449685       -12.2365
  33   2.0000      -0.447486       -12.1767
  34   2.0000      -0.432047       -11.7566
  35   2.0000      -0.411632       -11.2011
  36   2.0000      -0.345703        -9.4071
  37   2.0000      -0.326626        -8.8879
  38   2.0000      -0.326489        -8.8842
  39   2.0000      -0.315270        -8.5789
  40   2.0000      -0.305661        -8.3175
  41   2.0000      -0.296958        -8.0806
  42   0.0000      -0.016949        -0.4612
  43   0.0000      -0.003710        -0.1010
  44   0.0000       0.004537         0.1235
  45   0.0000       0.018896         0.5142
  46   0.0000       0.134859         3.6697

MULLIKEN ATOMIC CHARGES
-----------------------
   0 N :   -0.364928
   1 C :   -0.049978
   2 H :    0.241855
   3 C :   -0.286008
   4 H :    0.238426
   5 C :   -0.153990
   6 H :    0.241132
   7 C :   -0.285744
   8 H :    0.238450
   9 C :   -0.049721
  10 H :    0.241898
  11 N :   -0.362539
  12 C :   -0.040026
  13 H :    0.230225
  14 C :   -0.318514
  15 H :    0.259778
  16 C :   -0.135573
  17 H :    0.243890
  18 C :   -0.300315
  19 H :    0.224534
  20 C :   -0.040957
  21 H :    0.228106
Sum of atomic charges:    0.0000000

LOEWDIN ATOMIC CHARGES
----------------------
   0 N :   -0.142532
   1 C :   -0.057322
   2 H :    0.133855
   3 C :   -0.164515
   4 H :    0.145126
   5 C :   -0.105323
   6 H :    0.143495
   7 C :   -0.164344
   8 H :    0.145146
   9 C :   -0.057170
  10 H :    0.133884
  11 N :   -0.143231
  12 C :   -0.059324
  13 H :    0.128637
  14 C :   -0.165747
  15 H :    0.150606
  16 C :   -0.102676
  17 H :    0.143875
  18 C :   -0.168533
  19 H :    0.138856
  20 C :   -0.060512
  21 H :    0.127750

  Mayer bond orders larger than 0.100000
B(  0-N ,  1-C ) :   1.4846 B(  0-N ,  9-C ) :   1.4842 B(  1-C ,  2-H ) :   0.9134
B(  1-C ,  3-C ) :   1.3846 B(  3-C ,  4-H ) :   0.9118 B(  3-C ,  5-C ) :   1.4119
B(  5-C ,  6-H ) :   0.9163 B(  5-C ,  7-C ) :   1.4119 B(  7-C ,  8-H ) :   0.9118
B(  7-C ,  9-C ) :   1.3847 B(  9-C , 10-H ) :   0.9133 B( 11-N , 12-C ) :   1.4953
B( 11-N , 20-C ) :   1.5003 B( 12-C , 13-H ) :   0.9190 B( 12-C , 14-C ) :   1.3777
B( 14-C , 15-H ) :   0.8909 B( 14-C , 16-C ) :   1.4147 B( 16-C , 17-H ) :   0.9083
B( 16-C , 18-C ) :   1.4132 B( 18-C , 19-H ) :   0.9159 B( 18-C , 20-C ) :   1.3829
B( 20-C , 21-H ) :   0.9189

Dispersion correction           -0.013313851
FINAL SINGLE POINT ENERGY      -495.464360806288

DIPOLE MOMENT
-------------
                                X             Y             Z
Electronic contribution:      1.71908       0.00106       1.45315
Nuclear contribution   :     -2.77843      -0.00040      -2.78172
                        -----------------------------------------
Total Dipole Moment    :     -1.05935       0.00065      -1.32857
                        -----------------------------------------
Magnitude (a.u.)       :      1.69921
Magnitude (Debye)      :      4.31906

Rotational constants in cm-1:     0.068920     0.015116     0.014131
Rotational constants in MHz :  2066.157863   453.180001   423.651651

                             ****ORCA TERMINATED NORMALLY****
TOTAL RUN TIME: 0 days 0 hours 2 minutes 32 seconds 887 msec
