                         Program Version 5.0.3 -  RELEASE  -
|  1> ! PBEh-3c def2/J TightSCF DefGrid3
|  2>
|  3> %maxcore 60000
|  4>
|  5> %pal
|  6> nprocs 4
|  7> end
|  8>
|  9> *xyzfile 0 1 methylcyclohexa-14-diene.xyz
| 10>
| 11>                          ****END OF INPUT****

CARTESIAN COORDINATES (ANGSTROEM)
---------------------------------
  C     -1.056790   -1.597630   -0.651025
  C      0.329988   -1.276202   -1.130903
  C      1.105204   -0.339522   -0.572875
  C      0.689283    0.523018    0.591012
  C     -0.701198    0.187268    1.066445
  C     -1.481431   -0.747462    0.512245
  H      0.707815   -1.852509   -1.980142
  H     -1.779267   -1.487496   -1.483096
  H     -1.123063   -2.669356   -0.379401
  H      1.393327    0.333360    1.427375
  H     -1.078192    0.768567    1.913725
  H     -2.483415   -0.921040    0.914672
  H      2.106837   -0.160703   -0.976330
  C      0.818442    2.025263    0.251382
  H      0.557988    2.647664    1.120275
  H      1.847732    2.273560   -0.046742
  H      0.146740    2.293222   -0.576616

 Total Charge           Charge          ....    0
 Multiplicity           Mult            ....    1
 Number of Electrons    NEL             ....   52
 Basis Dimension        Dim             ....  125

ORBITAL ENERGIES
----------------

  NO   OCC          E(Eh)            E(eV)
   0   2.0000     -10.451235      -284.3926
   1   2.0000     -10.444274      -284.2031
   2   2.0000     -10.441030      -284.1149
   3   2.0000     -10.441001      -284.1141
   4   2.0000     -10.438736      -284.0524
   5   2.0000     -10.438727      -284.0522
   6   2.0000     -10.428928      -283.7856
   7   2.0000      -0.933208       -25.3939
   8   2.0000      -0.853333       -23.2204
   9   2.0000      -0.827532       -22.5183
  10   2.0000      -0.758874       -20.6500
  11   2.0000      -0.676691       -18.4137
  12   2.0000      -0.650761       -17.7081
  13   2.0000      -0.563568       -15.3355
  14   2.0000      -0.533039       -14.5047
  15   2.0000      -0.505610       -13.7584
  16   2.0000      -0.493724       -13.4349
  17   2.0000      -0.473078       -12.8731
  18   2.0000      -0.465560       -12.6685
  19   2.0000      -0.431568       -11.7436
  20   2.0000      -0.429280       -11.6813
  21   2.0000      -0.413553       -11.2533
  22   2.0000      -0.384468       -10.4619
  23   2.0000      -0.356047        -9.6885
  24   2.0000      -0.300359        -8.1732
  25   2.0000      -0.271843        -7.3972
  26   0.0000       0.043382         1.1805
  27   0.0000       0.062384         1.6976
  28   0.0000       0.144404         3.9294
  29   0.0000       0.180081         4.9003
  30   0.0000       0.191165         5.2019

MULLIKEN ATOMIC CHARGES
-----------------------
   0 C :   -0.494372
   1 C :   -0.206669
   2 C :   -0.162075
   3 C :   -0.320510
   4 C :   -0.162140
   5 C :   -0.206637
   6 H :    0.211882
   7 H :    0.227801
   8 H :    0.228613
   9 H :    0.226733
  10 H :    0.209622
  11 H :    0.211901
  12 H :    0.209629
  13 C :   -0.628468
  14 H :    0.214318
  15 H :    0.214372
  16 H :    0.226002
Sum of atomic charges:    0.0000000

LOEWDIN ATOMIC CHARGES
----------------------
   0 C :   -0.238619
   1 C :   -0.146700
   2 C :   -0.139972
   3 C :   -0.154060
   4 C :   -0.139945
   5 C :   -0.146709
   6 H :    0.130798
   7 H :    0.137031
   8 H :    0.137155
   9 H :    0.133938
  10 H :    0.130343
  11 H :    0.130804
  12 H :    0.130349
  13 C :   -0.347900
  14 H :    0.125607
  15 H :    0.125607
  16 H :    0.132273

  Mayer bond orders larger than 0.100000
B(  0-C ,  1-C ) :   0.9930 B(  0-C ,  5-C ) :   0.9930 B(  0-C ,  7-H ) :   0.8981
B(  0-C ,  8-H ) :   0.8982 B(  1-C ,  2-C ) :   1.9185 B(  1-C ,  6-H ) :   0.9213
B(  2-C ,  3-C ) :   0.9897 B(  2-C , 12-H ) :   0.9188 B(  3-C ,  4-C ) :   0.9897
B(  3-C ,  9-H ) :   0.8943 B(  3-C , 13-C ) :   0.9621 B(  4-C ,  5-C ) :   1.9185
B(  4-C , 10-H ) :   0.9188 B(  5-C , 11-H ) :   0.9213 B( 13-C , 14-H ) :   0.9278
B( 13-C , 15-H ) :   0.9278 B( 13-C , 16-H ) :   0.9239

Dispersion correction           -0.008726994
FINAL SINGLE POINT ENERGY      -272.127376640646

DIPOLE MOMENT
-------------
                                X             Y             Z
Electronic contribution:     -0.62231      -2.49656       0.11508
Nuclear contribution   :      0.60324       2.49282      -0.13485
                        -----------------------------------------
Total Dipole Moment    :     -0.01908      -0.00374      -0.01977
                        -----------------------------------------
Magnitude (a.u.)       :      0.02773
Magnitude (Debye)      :      0.07047

Rotational constants in cm-1:     0.152380     0.082341     0.058862
Rotational constants in MHz :  4568.222509  2468.522020  1764.623814

                             ****ORCA TERMINATED NORMALLY****
TOTAL RUN TIME: 0 days 0 hours 1 minutes 30 seconds 321 msec
