                         Program Version 5.0.3 -  RELEASE  -
|  1> ! PBEh-3c def2/J TightSCF DefGrid3
|  2>
|  3> %maxcore 60000
|  4>
|  5> %pal
|  6> nprocs 4
|  7> end
|  8>
|  9> *xyzfile 1 2 IP_67.xyz
| 10>
| 11>                          ****END OF INPUT****

CARTESIAN COORDINATES (ANGSTROEM)
---------------------------------
  P      0.000001   -0.281853    0.000000
  H     -0.677354    0.093951    1.173206
  H      1.354707    0.093951    0.000000
  H     -0.677354    0.093951   -1.173206

 Total Charge           Charge          ....    1
 Multiplicity           Mult            ....    2
 Number of Electrons    NEL             ....   17
 Basis Dimension        Dim             ....   24

ORBITAL ENERGIES
----------------
                 SPIN UP ORBITALS
  NO   OCC          E(Eh)            E(eV)
   0   1.0000     -78.086458     -2124.8406
   1   1.0000      -7.168305      -195.0595
   2   1.0000      -5.265735      -143.2879
   3   1.0000      -5.256110      -143.0260
   4   1.0000      -5.256109      -143.0260
   5   1.0000      -1.048399       -28.5284
   6   1.0000      -0.769785       -20.9469
   7   1.0000      -0.769783       -20.9469
   8   1.0000      -0.627926       -17.0867
   9   0.0000      -0.194621        -5.2959
  10   0.0000      -0.194620        -5.2959
  11   0.0000      -0.194456        -5.2914
  12   0.0000       0.013901         0.3783
  13   0.0000       0.213874         5.8198

                 SPIN DOWN ORBITALS
  NO   OCC          E(Eh)            E(eV)
   0   1.0000     -78.080400     -2124.6757
   1   1.0000      -7.161224      -194.8668
   2   1.0000      -5.251903      -142.9115
   3   1.0000      -5.251902      -142.9115
   4   1.0000      -5.245421      -142.7352
   5   1.0000      -1.007325       -27.4107
   6   1.0000      -0.760541       -20.6954
   7   1.0000      -0.760539       -20.6953
   8   0.0000      -0.399515       -10.8714
   9   0.0000      -0.174418        -4.7462
  10   0.0000      -0.174417        -4.7461
  11   0.0000      -0.172176        -4.6852
  12   0.0000       0.041155         1.1199

MULLIKEN ATOMIC CHARGES AND SPIN POPULATIONS
--------------------------------------------
   0 P :    0.270572    1.042416
   1 H :    0.243137   -0.014138
   2 H :    0.243153   -0.014140
   3 H :    0.243137   -0.014138
Sum of atomic charges         :    1.0000000

LOEWDIN ATOMIC CHARGES AND SPIN POPULATIONS
-------------------------------------------
   0 P :    0.544262    1.012753
   1 H :    0.151910   -0.004250
   2 H :    0.151918   -0.004252
   3 H :    0.151910   -0.004250

  Mayer bond orders larger than 0.100000
B(  0-P ,  1-H ) :   0.9057 B(  0-P ,  2-H ) :   0.9057 B(  0-P ,  3-H ) :   0.9057

Dispersion correction           -0.000705609
FINAL SINGLE POINT ENERGY      -342.367921360354

DIPOLE MOMENT
-------------
                                X             Y             Z
Electronic contribution:      0.00002      -0.77514      -0.00000
Nuclear contribution   :     -0.00000       0.99350       0.00000
                        -----------------------------------------
Total Dipole Moment    :      0.00002       0.21836      -0.00000
                        -----------------------------------------
Magnitude (a.u.)       :      0.21836
Magnitude (Debye)      :      0.55501

Rotational constants in cm-1:     5.328060     5.328024     3.037569
Rotational constants in MHz : 159731.215244 159730.149856 91064.017075

                             ****ORCA TERMINATED NORMALLY****
TOTAL RUN TIME: 0 days 0 hours 0 minutes 9 seconds 623 msec
