                         Program Version 5.0.3 -  RELEASE  -
|  1> ! PBEh-3c def2/J TightSCF DefGrid3
|  2>
|  3> %maxcore 60000
|  4>
|  5> %pal
|  6> nprocs 4
|  7> end
|  8>
|  9> *xyzfile 0 1 E41.xyz
| 10>
| 11>                          ****END OF INPUT****

CARTESIAN COORDINATES (ANGSTROEM)
---------------------------------
  C     -0.597996    0.394226   -0.190847
  C      0.681273   -0.413472    0.020603
  N      1.814906    0.319605    0.193413
  N     -1.737113   -0.354186    0.318253
  O      0.683943   -1.630990   -0.013194
  H     -2.593898   -0.087135   -0.149329
  H     -1.575740   -1.344078    0.158798
  H      1.795151    1.317445    0.312358
  H      2.690225   -0.166472    0.305039
  H     -0.639975    0.604059   -1.272487
  H     -0.520776    1.360998    0.317393

 Total Charge           Charge          ....    0
 Multiplicity           Mult            ....    1
 Number of Electrons    NEL             ....   40
 Basis Dimension        Dim             ....   87

ORBITAL ENERGIES
----------------

  NO   OCC          E(Eh)            E(eV)
   0   2.0000     -19.460562      -529.5488
   1   2.0000     -14.660246      -398.9256
   2   2.0000     -14.604438      -397.4070
   3   2.0000     -10.551952      -287.1332
   4   2.0000     -10.472631      -284.9748
   5   2.0000      -1.146969       -31.2106
   6   2.0000      -1.006912       -27.3995
   7   2.0000      -0.972041       -26.4506
   8   2.0000      -0.782519       -21.2934
   9   2.0000      -0.656719       -17.8702
  10   2.0000      -0.609600       -16.5881
  11   2.0000      -0.571745       -15.5580
  12   2.0000      -0.530603       -14.4384
  13   2.0000      -0.499774       -13.5996
  14   2.0000      -0.467486       -12.7209
  15   2.0000      -0.444331       -12.0909
  16   2.0000      -0.437228       -11.8976
  17   2.0000      -0.324278        -8.8240
  18   2.0000      -0.315093        -8.5741
  19   2.0000      -0.283234        -7.7072
  20   0.0000       0.062983         1.7139
  21   0.0000       0.121356         3.3023
  22   0.0000       0.150836         4.1045
  23   0.0000       0.173090         4.7100
  24   0.0000       0.203163         5.5283

MULLIKEN ATOMIC CHARGES
-----------------------
   0 C :   -0.361276
   1 C :    0.511669
   2 N :   -0.803018
   3 N :   -0.753519
   4 O :   -0.416978
   5 H :    0.319434
   6 H :    0.345402
   7 H :    0.363423
   8 H :    0.374375
   9 H :    0.215208
  10 H :    0.205280
Sum of atomic charges:   -0.0000000

LOEWDIN ATOMIC CHARGES
----------------------
   0 C :   -0.192552
   1 C :    0.104881
   2 N :   -0.374083
   3 N :   -0.476768
   4 O :   -0.269913
   5 H :    0.223290
   6 H :    0.237497
   7 H :    0.253217
   8 H :    0.260674
   9 H :    0.118057
  10 H :    0.115701

  Mayer bond orders larger than 0.100000
B(  0-C ,  1-C ) :   0.9109 B(  0-C ,  3-N ) :   1.0520 B(  0-C ,  9-H ) :   0.8885
B(  0-C , 10-H ) :   0.9034 B(  1-C ,  2-N ) :   1.1396 B(  1-C ,  4-O ) :   2.0179
B(  2-N ,  7-H ) :   0.8301 B(  2-N ,  8-H ) :   0.8237 B(  3-N ,  5-H ) :   0.8619
B(  3-N ,  6-H ) :   0.8260

Dispersion correction           -0.004109985
FINAL SINGLE POINT ENERGY      -263.989666235274

DIPOLE MOMENT
-------------
                                X             Y             Z
Electronic contribution:      2.11175      -2.18066       0.23963
Nuclear contribution   :     -1.71198       3.47314      -0.65492
                        -----------------------------------------
Total Dipole Moment    :      0.39976       1.29248      -0.41530
                        -----------------------------------------
Magnitude (a.u.)       :      1.41520
Magnitude (Debye)      :      3.59715

Rotational constants in cm-1:     0.330055     0.131342     0.098429
Rotational constants in MHz :  9894.805017  3937.543613  2950.829650

                             ****ORCA TERMINATED NORMALLY****
TOTAL RUN TIME: 0 days 0 hours 1 minutes 22 seconds 552 msec
