                         Program Version 5.0.3 -  RELEASE  -
|  1> ! PBEh-3c def2/J TightSCF DefGrid3
|  2>
|  3> %maxcore 60000
|  4>
|  5> %pal
|  6> nprocs 4
|  7> end
|  8>
|  9> *xyzfile -1 4 EA_c-.xyz
| 10>
| 11>                          ****END OF INPUT****

CARTESIAN COORDINATES (ANGSTROEM)
---------------------------------
  C      0.000000    0.000000    0.000000

 Total Charge           Charge          ....   -1
 Multiplicity           Mult            ....    4
 Number of Electrons    NEL             ....    7
 Basis Dimension        Dim             ....   15

ORBITAL ENERGIES
----------------
                 SPIN UP ORBITALS
  NO   OCC          E(Eh)            E(eV)
   0   1.0000     -10.118933      -275.3502
   1   1.0000      -0.288624        -7.8539
   2   1.0000       0.068633         1.8676
   3   1.0000       0.068634         1.8676
   4   1.0000       0.068634         1.8676
   5   0.0000       0.845049        22.9950
   6   0.0000       0.845050        22.9950
   7   0.0000       0.845050        22.9950
   8   0.0000       0.983852        26.7720
   9   0.0000       2.101555        57.1862

                 SPIN DOWN ORBITALS
  NO   OCC          E(Eh)            E(eV)
   0   1.0000     -10.083567      -274.3878
   1   1.0000      -0.097726        -2.6593
   2   0.0000       0.347445         9.4545
   3   0.0000       0.347445         9.4545
   4   0.0000       0.347445         9.4545
   5   0.0000       0.960895        26.1473
   6   0.0000       0.960895        26.1473

MULLIKEN ATOMIC CHARGES AND SPIN POPULATIONS
--------------------------------------------
   0 C :   -1.000000    3.000000
Sum of atomic charges         :   -1.0000000

LOEWDIN ATOMIC CHARGES AND SPIN POPULATIONS
-------------------------------------------
   0 C :   -1.000000    3.000000

Dispersion correction            0.000000000
FINAL SINGLE POINT ENERGY       -37.775637749630

DIPOLE MOMENT
-------------
                                X             Y             Z
Electronic contribution:      0.00000       0.00000      -0.00000
Nuclear contribution   :      0.00000       0.00000       0.00000
                        -----------------------------------------
Total Dipole Moment    :      0.00000       0.00000      -0.00000
                        -----------------------------------------
Magnitude (a.u.)       :      0.00001
Magnitude (Debye)      :      0.00001

Rotational constants in cm-1:     0.000000     0.000000     0.000000
Rotational constants in MHz :     0.000000     0.000000     0.000000

                             ****ORCA TERMINATED NORMALLY****
TOTAL RUN TIME: 0 days 0 hours 0 minutes 14 seconds 147 msec
