                         Program Version 5.0.3 -  RELEASE  -
|  1> ! PBEh-3c def2/J TightSCF DefGrid3
|  2>
|  3> %maxcore 60000
|  4>
|  5> %pal
|  6> nprocs 4
|  7> end
|  8>
|  9> *xyzfile 1 1 H3OpH2O62d.xyz
| 10>
| 11>                          ****END OF INPUT****

CARTESIAN COORDINATES (ANGSTROEM)
---------------------------------
  O      1.843413   -0.959600   -1.486772
  H      1.265674   -0.739123   -2.234918
  O      1.079330   -0.527185    1.028201
  H      1.401928   -0.701783    0.106999
  O      0.000000    0.000000   -3.511900
  O     -1.843413    0.959600   -1.486772
  H     -1.265674    0.739123   -2.234918
  O     -1.079330    0.527185    1.028201
  H     -1.401928    0.701783    0.106999
  H      0.000000    0.000000    1.033447
  H     -2.366676    1.724473   -1.741821
  H      2.366676   -1.724473   -1.741821
  H     -1.770016    0.033550    1.531531
  H      1.770016   -0.033550    1.531531
  O     -2.991412   -0.724108    2.442482
  O      2.991412    0.724108    2.442482
  H      0.433422    0.636555   -4.094039
  H     -0.433422   -0.636555   -4.094039
  H     -3.179792   -1.665314    2.501141
  H     -3.435269   -0.305906    3.186422
  H      3.435269    0.305906    3.186422
  H      3.179792    1.665314    2.501141

 Total Charge           Charge          ....    1
 Multiplicity           Mult            ....    1
 Number of Electrons    NEL             ....   70
 Basis Dimension        Dim             ....  135

ORBITAL ENERGIES
----------------

  NO   OCC          E(Eh)            E(eV)
   0   2.0000     -19.661162      -535.0074
   1   2.0000     -19.633128      -534.2446
   2   2.0000     -19.633077      -534.2432
   3   2.0000     -19.624023      -533.9968
   4   2.0000     -19.624020      -533.9967
   5   2.0000     -19.615394      -533.7620
   6   2.0000     -19.615382      -533.7617
   7   2.0000      -1.283203       -34.9177
   8   2.0000      -1.281385       -34.8683
   9   2.0000      -1.256111       -34.1805
  10   2.0000      -1.246788       -33.9268
  11   2.0000      -1.244300       -33.8591
  12   2.0000      -1.236865       -33.6568
  13   2.0000      -1.232586       -33.5404
  14   2.0000      -0.759120       -20.6567
  15   2.0000      -0.757288       -20.6069
  16   2.0000      -0.749638       -20.3987
  17   2.0000      -0.744763       -20.2660
  18   2.0000      -0.729224       -19.8432
  19   2.0000      -0.729196       -19.8424
  20   2.0000      -0.728837       -19.8327
  21   2.0000      -0.723642       -19.6913
  22   2.0000      -0.631298       -17.1785
  23   2.0000      -0.622544       -16.9403
  24   2.0000      -0.596564       -16.2333
  25   2.0000      -0.579158       -15.7597
  26   2.0000      -0.572515       -15.5789
  27   2.0000      -0.562139       -15.2966
  28   2.0000      -0.535557       -14.5732
  29   2.0000      -0.534119       -14.5341
  30   2.0000      -0.516463       -14.0537
  31   2.0000      -0.505934       -13.7672
  32   2.0000      -0.505920       -13.7668
  33   2.0000      -0.499943       -13.6041
  34   2.0000      -0.499032       -13.5793
  35   0.0000      -0.038543        -1.0488
  36   0.0000      -0.002950        -0.0803
  37   0.0000       0.002687         0.0731
  38   0.0000       0.027664         0.7528
  39   0.0000       0.027988         0.7616

MULLIKEN ATOMIC CHARGES
-----------------------
   0 O :   -0.864425
   1 H :    0.455908
   2 O :   -0.908871
   3 H :    0.492653
   4 O :   -0.825033
   5 O :   -0.864425
   6 H :    0.455908
   7 O :   -0.908871
   8 H :    0.492653
   9 H :    0.517440
  10 H :    0.446759
  11 H :    0.446759
  12 H :    0.495405
  13 H :    0.495405
  14 O :   -0.833206
  15 O :   -0.833206
  16 H :    0.460064
  17 H :    0.460064
  18 H :    0.454018
  19 H :    0.455491
  20 H :    0.455491
  21 H :    0.454018
Sum of atomic charges:    1.0000000

LOEWDIN ATOMIC CHARGES
----------------------
   0 O :   -0.581982
   1 H :    0.305352
   2 O :   -0.530571
   3 H :    0.327214
   4 O :   -0.555842
   5 O :   -0.581982
   6 H :    0.305352
   7 O :   -0.530571
   8 H :    0.327214
   9 H :    0.367958
  10 H :    0.323774
  11 H :    0.323774
  12 H :    0.328415
  13 H :    0.328415
  14 O :   -0.564806
  15 O :   -0.564806
  16 H :    0.331275
  17 H :    0.331275
  18 H :    0.326947
  19 H :    0.328325
  20 H :    0.328325
  21 H :    0.326947

  Mayer bond orders larger than 0.100000
B(  0-O ,  1-H ) :   0.7088 B(  0-O ,  3-H ) :   0.1635 B(  0-O , 11-H ) :   0.7821
B(  2-O ,  3-H ) :   0.6173 B(  2-O ,  9-H ) :   0.3678 B(  2-O , 13-H ) :   0.6277
B(  4-O , 16-H ) :   0.7700 B(  4-O , 17-H ) :   0.7700 B(  5-O ,  6-H ) :   0.7088
B(  5-O ,  8-H ) :   0.1635 B(  5-O , 10-H ) :   0.7821 B(  7-O ,  8-H ) :   0.6173
B(  7-O ,  9-H ) :   0.3678 B(  7-O , 12-H ) :   0.6277 B( 12-H , 14-O ) :   0.1484
B( 13-H , 15-O ) :   0.1484 B( 14-O , 18-H ) :   0.7754 B( 14-O , 19-H ) :   0.7743
B( 15-O , 20-H ) :   0.7743 B( 15-O , 21-H ) :   0.7754

Dispersion correction           -0.005887339
FINAL SINGLE POINT ENERGY      -534.299517023984

DIPOLE MOMENT
-------------
                                X             Y             Z
Electronic contribution:     -0.00000      -0.00000       0.42235
Nuclear contribution   :     -0.00000       0.00000      -1.18323
                        -----------------------------------------
Total Dipole Moment    :     -0.00000      -0.00000      -0.76088
                        -----------------------------------------
Magnitude (a.u.)       :      0.76088
Magnitude (Debye)      :      1.93400

Rotational constants in cm-1:     0.029496     0.025892     0.015565
Rotational constants in MHz :   884.267435   776.228412   466.632623

                             ****ORCA TERMINATED NORMALLY****
TOTAL RUN TIME: 0 days 0 hours 1 minutes 37 seconds 655 msec
