                         Program Version 5.0.3 -  RELEASE  -
|  1> ! PBEh-3c def2/J TightSCF DefGrid3
|  2>
|  3> %maxcore 60000
|  4>
|  5> %pal
|  6> nprocs 4
|  7> end
|  8>
|  9> *xyzfile -1 1 4b.xyz
| 10>
| 11>                          ****END OF INPUT****

CARTESIAN COORDINATES (ANGSTROEM)
---------------------------------
  H     -3.090970   -3.064019    4.283078
  O     -2.487484   -2.581622    3.695880
  C     -3.140413   -2.417239    2.423393
  H     -4.139301   -1.983447    2.553718
  H     -3.233650   -3.381419    1.905118
  C     -2.297305   -1.491459    1.569730
  H     -2.719792   -1.467733    0.560309
  O     -2.332039   -0.131619    2.101564
  C     -1.009000    0.310301    2.413675
  H     -0.622650    0.984575    1.645435
  N     -1.079722    1.100976    3.642666
  C     -1.483891    0.499761    4.813298
  H     -1.731735   -0.553407    4.718888
  C     -1.590502    1.170816    5.984063
  H     -1.903276    0.667616    6.889036
  C     -1.306007    2.583903    6.027407
  O     -1.366058    3.317172    7.021237
  N     -0.955615    3.126713    4.782056
  H     -0.769833    4.126112    4.754624
  C     -0.830692    2.474208    3.572406
  O     -0.541591    3.058206    2.531242
  C     -0.818013   -1.875227    1.495507
  H     -0.655218   -2.934108    1.706112
  C     -0.142108   -0.959891    2.518724
  H     -0.231446   -1.398267    3.515002
  O      1.234224   -0.744178    2.252030
  H      1.338082   -0.936120    1.296979
  O     -0.276692   -1.531015    0.206391
  P      0.263947   -2.744539   -0.780722
  O     -0.763004   -3.837205   -0.810736
  O      1.700060   -3.026964   -0.457843
  O      0.274763   -1.884126   -2.162741
  C     -0.975366   -1.420233   -2.723389
  H     -1.550026   -0.885763   -1.959647
  H     -1.555439   -2.275830   -3.086277
  C     -0.648182   -0.490637   -3.875107
  H     -1.567682   -0.268819   -4.425768
  O     -0.130457    0.773279   -3.350909
  C      1.181154    1.019350   -3.842430
  H      1.188055    1.772519   -4.633890
  N      1.972898    1.584917   -2.738215
  C      1.943336    0.975499   -1.505913
  H      1.303804    0.100679   -1.456839
  C      2.638889    1.441060   -0.441142
  H      2.588449    0.954135    0.523263
  C      3.459693    2.618103   -0.579631
  O      4.146819    3.145815    0.302861
  N      3.432393    3.173574   -1.867048
  H      3.997098    4.005837   -2.017550
  C      2.733241    2.730548   -2.971764
  O      2.782447    3.303395   -4.058311
  C      0.423328   -1.030031   -4.831697
  H      0.503999   -2.117504   -4.786955
  C      1.710266   -0.337908   -4.355170
  H      2.139621   -0.897663   -3.520875
  O      2.692988   -0.226066   -5.367521
  H      2.186915   -0.150519   -6.203389
  O      0.183720   -0.600120   -6.185472
  H     -0.075029   -1.374371   -6.708744

 Total Charge           Charge          ....   -1
 Multiplicity           Mult            ....    1
 Number of Electrons    NEL             ....  286
 Basis Dimension        Dim             ....  602

ORBITAL ENERGIES
----------------

  NO   OCC          E(Eh)            E(eV)
   0   2.0000     -77.728431     -2115.0982
   1   2.0000     -19.450152      -529.2655
   2   2.0000     -19.441877      -529.0404
   3   2.0000     -19.432792      -528.7932
   4   2.0000     -19.428896      -528.6872
   5   2.0000     -19.414439      -528.2937
   6   2.0000     -19.404091      -528.0122
   7   2.0000     -19.402952      -527.9812
   8   2.0000     -19.397188      -527.8243
   9   2.0000     -19.397160      -527.8235
  10   2.0000     -19.395077      -527.7669
  11   2.0000     -19.388632      -527.5915
  12   2.0000     -19.375417      -527.2319
  13   2.0000     -19.288966      -524.8794
  14   2.0000     -19.280706      -524.6547
  15   2.0000     -14.632389      -398.1675
  16   2.0000     -14.620920      -397.8555
  17   2.0000     -14.617927      -397.7740
  18   2.0000     -14.604442      -397.4071
  19   2.0000     -10.523891      -286.3696
  20   2.0000     -10.514339      -286.1097
  21   2.0000     -10.493584      -285.5449
  22   2.0000     -10.473469      -284.9976
  23   2.0000     -10.455761      -284.5157
  24   2.0000     -10.451841      -284.4090
  25   2.0000     -10.446127      -284.2536
  26   2.0000     -10.435496      -283.9643
  27   2.0000     -10.427190      -283.7383
  28   2.0000     -10.426275      -283.7134
  29   2.0000     -10.421764      -283.5906
  30   2.0000     -10.421352      -283.5794
  31   2.0000     -10.418698      -283.5072
  32   2.0000     -10.415413      -283.4178
  33   2.0000     -10.412466      -283.3376
  34   2.0000     -10.408246      -283.2228
  35   2.0000     -10.382641      -282.5260
  36   2.0000     -10.357845      -281.8513
  37   2.0000      -6.772943      -184.3011
  38   2.0000      -4.868111      -132.4680
  39   2.0000      -4.866870      -132.4343
  40   2.0000      -4.864186      -132.3612
  41   2.0000      -1.109806       -30.1994
  42   2.0000      -1.104285       -30.0491
  43   2.0000      -1.091223       -29.6937
  44   2.0000      -1.086269       -29.5589
  45   2.0000      -1.072181       -29.1755
  46   2.0000      -1.068237       -29.0682
  47   2.0000      -1.066105       -29.0102
  48   2.0000      -1.058961       -28.8158
  49   2.0000      -1.049791       -28.5663
  50   2.0000      -1.043884       -28.4055
  51   2.0000      -1.034927       -28.1618
  52   2.0000      -1.011894       -27.5350
  53   2.0000      -0.999228       -27.1904
  54   2.0000      -0.988311       -26.8933
  55   2.0000      -0.951236       -25.8844
  56   2.0000      -0.937829       -25.5196
  57   2.0000      -0.917152       -24.9570
  58   2.0000      -0.873332       -23.7646
  59   2.0000      -0.818870       -22.2826
  60   2.0000      -0.801625       -21.8133
  61   2.0000      -0.795308       -21.6414
  62   2.0000      -0.790038       -21.4980
  63   2.0000      -0.765316       -20.8253
  64   2.0000      -0.762671       -20.7533
  65   2.0000      -0.697794       -18.9879
  66   2.0000      -0.693644       -18.8750
  67   2.0000      -0.689636       -18.7659
  68   2.0000      -0.677131       -18.4257
  69   2.0000      -0.645245       -17.5580
  70   2.0000      -0.636493       -17.3199
  71   2.0000      -0.608858       -16.5679
  72   2.0000      -0.607189       -16.5224
  73   2.0000      -0.594212       -16.1693
  74   2.0000      -0.587398       -15.9839
  75   2.0000      -0.556324       -15.1383
  76   2.0000      -0.554610       -15.0917
  77   2.0000      -0.550903       -14.9908
  78   2.0000      -0.544358       -14.8127
  79   2.0000      -0.538288       -14.6476
  80   2.0000      -0.527046       -14.3417
  81   2.0000      -0.521255       -14.1841
  82   2.0000      -0.514887       -14.0108
  83   2.0000      -0.503755       -13.7079
  84   2.0000      -0.491608       -13.3773
  85   2.0000      -0.488091       -13.2816
  86   2.0000      -0.474660       -12.9161
  87   2.0000      -0.471115       -12.8197
  88   2.0000      -0.466351       -12.6901
  89   2.0000      -0.461938       -12.5700
  90   2.0000      -0.458970       -12.4892
  91   2.0000      -0.447814       -12.1856
  92   2.0000      -0.438541       -11.9333
  93   2.0000      -0.437774       -11.9124
  94   2.0000      -0.436270       -11.8715
  95   2.0000      -0.432703       -11.7745
  96   2.0000      -0.425791       -11.5864
  97   2.0000      -0.421746       -11.4763
  98   2.0000      -0.417218       -11.3531
  99   2.0000      -0.413390       -11.2489
 100   2.0000      -0.409684       -11.1481
 101   2.0000      -0.404363       -11.0033
 102   2.0000      -0.401165       -10.9163
 103   2.0000      -0.399527       -10.8717
 104   2.0000      -0.395502       -10.7622
 105   2.0000      -0.391108       -10.6426
 106   2.0000      -0.382108       -10.3977
 107   2.0000      -0.377391       -10.2693
 108   2.0000      -0.373574       -10.1655
 109   2.0000      -0.372339       -10.1319
 110   2.0000      -0.363545        -9.8926
 111   2.0000      -0.357251        -9.7213
 112   2.0000      -0.352750        -9.5988
 113   2.0000      -0.344799        -9.3825
 114   2.0000      -0.341865        -9.3026
 115   2.0000      -0.337267        -9.1775
 116   2.0000      -0.333496        -9.0749
 117   2.0000      -0.323342        -8.7986
 118   2.0000      -0.316150        -8.6029
 119   2.0000      -0.310677        -8.4540
 120   2.0000      -0.310347        -8.4450
 121   2.0000      -0.295060        -8.0290
 122   2.0000      -0.287759        -7.8303
 123   2.0000      -0.286049        -7.7838
 124   2.0000      -0.279924        -7.6171
 125   2.0000      -0.274202        -7.4614
 126   2.0000      -0.268144        -7.2966
 127   2.0000      -0.262968        -7.1557
 128   2.0000      -0.257504        -7.0071
 129   2.0000      -0.256103        -6.9689
 130   2.0000      -0.251577        -6.8458
 131   2.0000      -0.249439        -6.7876
 132   2.0000      -0.244347        -6.6490
 133   2.0000      -0.241617        -6.5747
 134   2.0000      -0.240287        -6.5385
 135   2.0000      -0.234988        -6.3943
 136   2.0000      -0.226757        -6.1704
 137   2.0000      -0.213129        -5.7995
 138   2.0000      -0.205376        -5.5886
 139   2.0000      -0.204286        -5.5589
 140   2.0000      -0.188419        -5.1272
 141   2.0000      -0.175701        -4.7811
 142   2.0000      -0.160445        -4.3659
 143   0.0000       0.059349         1.6150
 144   0.0000       0.080863         2.2004
 145   0.0000       0.119195         3.2435
 146   0.0000       0.132315         3.6005
 147   0.0000       0.158622         4.3163

MULLIKEN ATOMIC CHARGES
-----------------------
   0 H :    0.421653
   1 O :   -0.641827
   2 C :   -0.185779
   3 H :    0.200497
   4 H :    0.216833
   5 C :    0.023906
   6 H :    0.245455
   7 O :   -0.494002
   8 C :    0.182425
   9 H :    0.285844
  10 N :   -0.570499
  11 C :    0.100943
  12 H :    0.304977
  13 C :   -0.485431
  14 H :    0.241551
  15 C :    0.564084
  16 O :   -0.431789
  17 N :   -0.738192
  18 H :    0.390454
  19 C :    0.732793
  20 O :   -0.432465
  21 C :   -0.055700
  22 H :    0.274224
  23 C :    0.009363
  24 H :    0.234388
  25 O :   -0.643557
  26 H :    0.452351
  27 O :   -0.668293
  28 P :    1.372252
  29 O :   -0.744663
  30 O :   -0.713551
  31 O :   -0.615937
  32 C :   -0.165993
  33 H :    0.230929
  34 H :    0.209344
  35 C :    0.010444
  36 H :    0.222253
  37 O :   -0.486272
  38 C :    0.192609
  39 H :    0.262504
  40 N :   -0.571050
  41 C :    0.090154
  42 H :    0.331893
  43 C :   -0.491635
  44 H :    0.273333
  45 C :    0.565506
  46 O :   -0.428936
  47 N :   -0.735587
  48 H :    0.383657
  49 C :    0.725385
  50 O :   -0.455114
  51 C :   -0.084778
  52 H :    0.256716
  53 C :   -0.013517
  54 H :    0.295706
  55 O :   -0.632552
  56 H :    0.416479
  57 O :   -0.658900
  58 H :    0.425115
Sum of atomic charges:   -1.0000000

LOEWDIN ATOMIC CHARGES
----------------------
   0 H :    0.311753
   1 O :   -0.420831
   2 C :   -0.098240
   3 H :    0.110303
   4 H :    0.120615
   5 C :   -0.012997
   6 H :    0.136021
   7 O :   -0.258268
   8 C :    0.063666
   9 H :    0.152498
  10 N :   -0.082930
  11 C :    0.006703
  12 H :    0.161759
  13 C :   -0.256942
  14 H :    0.154190
  15 C :    0.127917
  16 O :   -0.282925
  17 N :   -0.201525
  18 H :    0.283687
  19 C :    0.169161
  20 O :   -0.272370
  21 C :   -0.023733
  22 H :    0.144817
  23 C :   -0.036080
  24 H :    0.129114
  25 O :   -0.389942
  26 H :    0.322466
  27 O :   -0.364049
  28 P :    0.796270
  29 O :   -0.614764
  30 O :   -0.598899
  31 O :   -0.352108
  32 C :   -0.090335
  33 H :    0.127682
  34 H :    0.120512
  35 C :   -0.017627
  36 H :    0.124869
  37 O :   -0.245623
  38 C :    0.067181
  39 H :    0.141156
  40 N :   -0.087417
  41 C :    0.004053
  42 H :    0.171062
  43 C :   -0.241822
  44 H :    0.167178
  45 C :    0.128246
  46 O :   -0.279622
  47 N :   -0.202198
  48 H :    0.279732
  49 C :    0.165120
  50 O :   -0.294668
  51 C :   -0.037677
  52 H :    0.133236
  53 C :   -0.044597
  54 H :    0.154908
  55 O :   -0.387423
  56 H :    0.308228
  57 O :   -0.406334
  58 H :    0.317844

  Mayer bond orders larger than 0.100000
B(  0-H ,  1-O ) :   0.7896 B(  1-O ,  2-C ) :   0.9774 B(  2-C ,  3-H ) :   0.9055
B(  2-C ,  4-H ) :   0.8920 B(  2-C ,  5-C ) :   0.9476 B(  5-C ,  6-H ) :   0.8957
B(  5-C ,  7-O ) :   0.9379 B(  5-C , 21-C ) :   0.9294 B(  7-O ,  8-C ) :   0.9823
B(  8-C ,  9-H ) :   0.8574 B(  8-C , 10-N ) :   0.8911 B(  8-C , 23-C ) :   0.8822
B( 10-N , 11-C ) :   1.0801 B( 10-N , 19-C ) :   1.0139 B( 11-C , 12-H ) :   0.8480
B( 11-C , 13-C ) :   1.5985 B( 13-C , 14-H ) :   0.9211 B( 13-C , 15-C ) :   1.0773
B( 15-C , 16-O ) :   1.9971 B( 15-C , 17-N ) :   0.9947 B( 17-N , 18-H ) :   0.8035
B( 17-N , 19-C ) :   1.0524 B( 19-C , 20-O ) :   1.9808 B( 21-C , 22-H ) :   0.8773
B( 21-C , 23-C ) :   0.9433 B( 21-C , 27-O ) :   0.8902 B( 23-C , 24-H ) :   0.8917
B( 23-C , 25-O ) :   1.0719 B( 25-O , 26-H ) :   0.7109 B( 27-O , 28-P ) :   0.7921
B( 28-P , 29-O ) :   1.7112 B( 28-P , 30-O ) :   1.7817 B( 28-P , 31-O ) :   0.8507
B( 31-O , 32-C ) :   0.9255 B( 32-C , 33-H ) :   0.8904 B( 32-C , 34-H ) :   0.8955
B( 32-C , 35-C ) :   0.9410 B( 35-C , 36-H ) :   0.9042 B( 35-C , 37-O ) :   0.9376
B( 35-C , 51-C ) :   0.9252 B( 37-O , 38-C ) :   0.9832 B( 38-C , 39-H ) :   0.8692
B( 38-C , 40-N ) :   0.9053 B( 38-C , 53-C ) :   0.8900 B( 40-N , 41-C ) :   1.0499
B( 40-N , 49-C ) :   1.0287 B( 41-C , 42-H ) :   0.8277 B( 41-C , 43-C ) :   1.6118
B( 43-C , 44-H ) :   0.8955 B( 43-C , 45-C ) :   1.0776 B( 45-C , 46-O ) :   2.0000
B( 45-C , 47-N ) :   0.9799 B( 47-N , 48-H ) :   0.8073 B( 47-N , 49-C ) :   1.0649
B( 49-C , 50-O ) :   1.9621 B( 51-C , 52-H ) :   0.8951 B( 51-C , 53-C ) :   0.9446
B( 51-C , 57-O ) :   0.9547 B( 53-C , 54-H ) :   0.8699 B( 53-C , 55-O ) :   1.0448
B( 55-O , 56-H ) :   0.7560 B( 57-O , 58-H ) :   0.7890

Dispersion correction           -0.047310365
FINAL SINGLE POINT ENERGY     -2308.306501883202

DIPOLE MOMENT
-------------
                                X             Y             Z
Electronic contribution:      9.16682      10.39857       3.28854
Nuclear contribution   :    -12.81934     -10.95698      -4.41571
                        -----------------------------------------
Total Dipole Moment    :     -3.65251      -0.55842      -1.12717
                        -----------------------------------------
Magnitude (a.u.)       :      3.86305
Magnitude (Debye)      :      9.81910

Rotational constants in cm-1:     0.004652     0.002132     0.001645
Rotational constants in MHz :   139.461474    63.922726    49.306737

                             ****ORCA TERMINATED NORMALLY****
TOTAL RUN TIME: 0 days 0 hours 14 minutes 52 seconds 866 msec
