                         Program Version 5.0.3 -  RELEASE  -
|  1> ! PBEh-3c def2/J TightSCF DefGrid3
|  2>
|  3> %maxcore 60000
|  4>
|  5> %pal
|  6> nprocs 4
|  7> end
|  8>
|  9> *xyzfile 0 1 13r_6.xyz
| 10>
| 11>                          ****END OF INPUT****

CARTESIAN COORDINATES (ANGSTROEM)
---------------------------------
  C      0.967458   -0.116367    0.000000
  N     -0.309972   -0.089860    0.000000
  C     -1.521107   -0.220124    0.000000
  H      1.500981   -0.128125    0.941777
  H      1.500981   -0.128125   -0.941777
  H     -2.138341    0.682601    0.000000

 Total Charge           Charge          ....    0
 Multiplicity           Mult            ....    1
 Number of Electrons    NEL             ....   22
 Basis Dimension        Dim             ....   51

ORBITAL ENERGIES
----------------

  NO   OCC          E(Eh)            E(eV)
   0   2.0000     -14.720633      -400.5688
   1   2.0000     -10.482045      -285.2310
   2   2.0000     -10.479797      -285.1698
   3   2.0000      -1.079590       -29.3771
   4   2.0000      -0.855843       -23.2887
   5   2.0000      -0.625235       -17.0135
   6   2.0000      -0.565069       -15.3763
   7   2.0000      -0.551593       -15.0096
   8   2.0000      -0.459319       -12.4987
   9   2.0000      -0.386780       -10.5248
  10   2.0000      -0.249551        -6.7906
  11   0.0000       0.015297         0.4163
  12   0.0000       0.021225         0.5776
  13   0.0000       0.171295         4.6612
  14   0.0000       0.224546         6.1102
  15   0.0000       0.248744         6.7687

MULLIKEN ATOMIC CHARGES
-----------------------
   0 C :   -0.395834
   1 N :   -0.067467
   2 C :   -0.223352
   3 H :    0.233666
   4 H :    0.233666
   5 H :    0.219322
Sum of atomic charges:   -0.0000000

LOEWDIN ATOMIC CHARGES
----------------------
   0 C :   -0.285763
   1 N :    0.084414
   2 C :   -0.216897
   3 H :    0.139531
   4 H :    0.139531
   5 H :    0.139184

  Mayer bond orders larger than 0.100000
B(  0-C ,  1-N ) :   1.6074 B(  0-C ,  2-C ) :   0.2716 B(  0-C ,  3-H ) :   0.9001
B(  0-C ,  4-H ) :   0.9001 B(  1-N ,  2-C ) :   2.0477 B(  2-C ,  5-H ) :   0.8606

Dispersion correction           -0.001540190
FINAL SINGLE POINT ENERGY      -132.362082611774

DIPOLE MOMENT
-------------
                                X             Y             Z
Electronic contribution:     -1.05651      -0.17893       0.00000
Nuclear contribution   :      1.50377       0.73406       0.00000
                        -----------------------------------------
Total Dipole Moment    :      0.44726       0.55514       0.00000
                        -----------------------------------------
Magnitude (a.u.)       :      0.71290
Magnitude (Debye)      :      1.81204

Rotational constants in cm-1:     6.557486     0.352546     0.345285
Rotational constants in MHz : 196588.494875 10569.048916 10351.398181

                             ****ORCA TERMINATED NORMALLY****
TOTAL RUN TIME: 0 days 0 hours 1 minutes 6 seconds 788 msec
