                         Program Version 5.0.3 -  RELEASE  -
|  1> ! PBEh-3c def2/J TightSCF DefGrid3
|  2>
|  3> %maxcore 60000
|  4>
|  5> %pal
|  6> nprocs 4
|  7> end
|  8>
|  9> *xyzfile -1 1 fch3clts.xyz
| 10>
| 11>                          ****END OF INPUT****

CARTESIAN COORDINATES (ANGSTROEM)
---------------------------------
  F      0.000000    0.000000   -1.996809
  C      0.000000    0.000000    0.052747
  H     -0.531043    0.919793   -0.073853
  H     -0.531043   -0.919793   -0.073853
  H      1.062085    0.000000   -0.073853
  Cl     0.000000    0.000000    2.165620

 Total Charge           Charge          ....   -1
 Multiplicity           Mult            ....    1
 Number of Electrons    NEL             ....   36
 Basis Dimension        Dim             ....   54

ORBITAL ENERGIES
----------------

  NO   OCC          E(Eh)            E(eV)
   0   2.0000    -102.036921     -2776.5658
   1   2.0000     -24.670827      -671.3273
   2   2.0000     -10.307926      -280.4929
   3   2.0000      -9.502531      -258.5770
   4   2.0000      -7.188133      -195.5990
   5   2.0000      -7.183548      -195.4743
   6   2.0000      -7.183548      -195.4743
   7   2.0000      -0.855738       -23.2858
   8   2.0000      -0.663903       -18.0657
   9   2.0000      -0.553744       -15.0681
  10   2.0000      -0.310669        -8.4537
  11   2.0000      -0.310668        -8.4537
  12   2.0000      -0.195640        -5.3236
  13   2.0000      -0.128787        -3.5045
  14   2.0000      -0.128785        -3.5044
  15   2.0000      -0.082022        -2.2319
  16   2.0000      -0.082018        -2.2318
  17   2.0000      -0.068764        -1.8712
  18   0.0000       0.248777         6.7696
  19   0.0000       0.345419         9.3993
  20   0.0000       0.398823        10.8525
  21   0.0000       0.398826        10.8526
  22   0.0000       0.677196        18.4274

MULLIKEN ATOMIC CHARGES
-----------------------
   0 F :   -0.705138
   1 C :   -0.475627
   2 H :    0.246469
   3 H :    0.246469
   4 H :    0.246453
   5 Cl:   -0.558626
Sum of atomic charges:   -1.0000000

LOEWDIN ATOMIC CHARGES
----------------------
   0 F :   -0.691102
   1 C :   -0.263035
   2 H :    0.136008
   3 H :    0.136008
   4 H :    0.136004
   5 Cl:   -0.453884

  Mayer bond orders larger than 0.100000
B(  0-F ,  1-C ) :   0.4145 B(  1-C ,  2-H ) :   0.9125 B(  1-C ,  3-H ) :   0.9125
B(  1-C ,  4-H ) :   0.9125 B(  1-C ,  5-Cl) :   0.5721

Dispersion correction           -0.001561271
FINAL SINGLE POINT ENERGY      -599.154787966621

DIPOLE MOMENT
-------------
                                X             Y             Z
Electronic contribution:      0.00001      -0.00000       2.87792
Nuclear contribution   :     -0.00000       0.00000      -1.57278
                        -----------------------------------------
Total Dipole Moment    :      0.00001      -0.00000       1.30514
                        -----------------------------------------
Magnitude (a.u.)       :      1.30514
Magnitude (Debye)      :      3.31740

Rotational constants in cm-1:     4.941928     0.076071     0.076071
Rotational constants in MHz : 148155.289204  2280.564595  2280.564595

                             ****ORCA TERMINATED NORMALLY****
TOTAL RUN TIME: 0 days 0 hours 0 minutes 19 seconds 530 msec
