                         Program Version 5.0.3 -  RELEASE  -
|  1> ! PBEh-3c def2/J TightSCF DefGrid3
|  2>
|  3> %maxcore 60000
|  4>
|  5> %pal
|  6> nprocs 4
|  7> end
|  8>
|  9> *xyzfile 0 1 OCH2.xyz
| 10>
| 11>                          ****END OF INPUT****

CARTESIAN COORDINATES (ANGSTROEM)
---------------------------------
  O      0.000000    0.000000    0.671599
  C      0.000000    0.000000   -0.526142
  H      0.000000    0.938969   -1.107971
  H      0.000000   -0.938969   -1.107971

 Total Charge           Charge          ....    0
 Multiplicity           Mult            ....    1
 Number of Electrons    NEL             ....   16
 Basis Dimension        Dim             ....   34

ORBITAL ENERGIES
----------------

  NO   OCC          E(Eh)            E(eV)
   0   2.0000     -19.514730      -531.0228
   1   2.0000     -10.541906      -286.8599
   2   2.0000      -1.175788       -31.9948
   3   2.0000      -0.712643       -19.3920
   4   2.0000      -0.566058       -15.4032
   5   2.0000      -0.518840       -14.1184
   6   2.0000      -0.456081       -12.4106
   7   2.0000      -0.326218        -8.8769
   8   0.0000      -0.005228        -0.1423
   9   0.0000       0.155065         4.2195
  10   0.0000       0.251202         6.8355
  11   0.0000       0.259560         7.0630
  12   0.0000       0.502924        13.6853

MULLIKEN ATOMIC CHARGES
-----------------------
   0 O :   -0.282937
   1 C :   -0.031641
   2 H :    0.157289
   3 H :    0.157289
Sum of atomic charges:    0.0000000

LOEWDIN ATOMIC CHARGES
----------------------
   0 O :   -0.162006
   1 C :   -0.004854
   2 H :    0.083430
   3 H :    0.083430

  Mayer bond orders larger than 0.100000
B(  0-O ,  1-C ) :   2.1365 B(  1-C ,  2-H ) :   0.8618 B(  1-C ,  3-H ) :   0.8618

Dispersion correction           -0.000601239
FINAL SINGLE POINT ENERGY      -114.250969271052

DIPOLE MOMENT
-------------
                                X             Y             Z
Electronic contribution:      0.00000      -0.00000       1.29125
Nuclear contribution   :      0.00000       0.00000      -2.20706
                        -----------------------------------------
Total Dipole Moment    :      0.00000      -0.00000      -0.91580
                        -----------------------------------------
Magnitude (a.u.)       :      0.91580
Magnitude (Debye)      :      2.32779

Rotational constants in cm-1:     9.484271     1.311259     1.151989
Rotational constants in MHz : 284331.293051 39310.555350 34535.771837

                             ****ORCA TERMINATED NORMALLY****
TOTAL RUN TIME: 0 days 0 hours 1 minutes 9 seconds 994 msec
