                         Program Version 5.0.3 -  RELEASE  -
|  1> ! PBEh-3c def2/J TightSCF DefGrid3
|  2>
|  3> %maxcore 60000
|  4>
|  5> %pal
|  6> nprocs 4
|  7> end
|  8>
|  9> *xyzfile -1 1 6p.xyz
| 10>
| 11>                          ****END OF INPUT****

CARTESIAN COORDINATES (ANGSTROEM)
---------------------------------
  H     -1.103120   -3.248622   -3.051195
  O     -0.372160   -2.880539   -2.529176
  C     -0.935511   -2.197411   -1.396411
  H     -1.620750   -2.855188   -0.848340
  H     -1.482607   -1.299574   -1.716100
  C      0.194937   -1.776276   -0.478831
  H     -0.222659   -1.177870    0.337306
  O      0.814324   -2.959873    0.114290
  C      2.210110   -2.977733   -0.167234
  H      2.805858   -2.638419    0.683709
  N      2.602986   -4.369192   -0.418406
  C      1.896839   -5.105982   -1.341596
  H      1.060974   -4.576923   -1.792418
  C      2.207568   -6.388329   -1.647167
  H      1.630580   -6.943612   -2.374779
  C      3.319871   -7.031252   -0.991515
  O      3.713475   -8.189765   -1.172880
  N      3.979311   -6.209838   -0.065572
  H      4.768149   -6.620349    0.427376
  C      3.693079   -4.902284    0.270746
  O      4.351162   -4.271864    1.095614
  C      1.324355   -0.996677   -1.165038
  H      1.001199   -0.502436   -2.082823
  C      2.400966   -2.060166   -1.393914
  H      2.167706   -2.618225   -2.304278
  O      3.709363   -1.539359   -1.525016
  H      3.746214   -0.771086   -0.920562
  O      1.901292   -0.022932   -0.272824
  P      1.505765    1.574432   -0.412572
  O      1.009143    1.870090   -1.793489
  O      2.649960    2.307447    0.218065
  O      0.183291    1.679734    0.546913
  C      0.305889    1.517247    1.973222
  H      1.084432    2.185834    2.354029
  H      0.572607    0.480768    2.214914
  C     -1.037879    1.854866    2.592124
  H     -0.975251    1.695717    3.673646
  O     -1.349224    3.261012    2.366216
  C     -2.551467    3.384829    1.604431
  H     -3.390737    3.676582    2.240617
  N     -2.376297    4.481960    0.649153
  C     -1.417076    4.385562   -0.334890
  H     -0.847104    3.462180   -0.325446
  C     -1.180554    5.372857   -1.230327
  H     -0.419528    5.263595   -1.991443
  C     -1.939518    6.596924   -1.164561
  O     -1.827870    7.576125   -1.911321
  N     -2.870740    6.624688   -0.115817
  H     -3.422486    7.473043   -0.017570
  C     -3.140195    5.640686    0.812319
  O     -3.965942    5.790466    1.710602
  C     -2.214467    1.054429    2.017724
  H     -1.892766    0.105633    1.584255
  C     -2.810283    2.004888    0.964392
  H     -2.253729    1.909602    0.030270
  O     -4.177278    1.758488    0.689122
  H     -4.548260    1.417545    1.529487
  O     -3.236716    0.831650    3.005413
  H     -3.229235   -0.107100    3.247558

 Total Charge           Charge          ....   -1
 Multiplicity           Mult            ....    1
 Number of Electrons    NEL             ....  286
 Basis Dimension        Dim             ....  602

ORBITAL ENERGIES
----------------

  NO   OCC          E(Eh)            E(eV)
   0   2.0000     -77.729403     -2115.1246
   1   2.0000     -19.457902      -529.4764
   2   2.0000     -19.449882      -529.2582
   3   2.0000     -19.442113      -529.0468
   4   2.0000     -19.432550      -528.7866
   5   2.0000     -19.425416      -528.5924
   6   2.0000     -19.406633      -528.0813
   7   2.0000     -19.405604      -528.0533
   8   2.0000     -19.404835      -528.0324
   9   2.0000     -19.404643      -528.0272
  10   2.0000     -19.402459      -527.9678
  11   2.0000     -19.395799      -527.7865
  12   2.0000     -19.383419      -527.4496
  13   2.0000     -19.291407      -524.9459
  14   2.0000     -19.281414      -524.6739
  15   2.0000     -14.641348      -398.4113
  16   2.0000     -14.627075      -398.0229
  17   2.0000     -14.626718      -398.0132
  18   2.0000     -14.611685      -397.6042
  19   2.0000     -10.533471      -286.6303
  20   2.0000     -10.521158      -286.2953
  21   2.0000     -10.501182      -285.7517
  22   2.0000     -10.480924      -285.2004
  23   2.0000     -10.462545      -284.7003
  24   2.0000     -10.460286      -284.6388
  25   2.0000     -10.452714      -284.4328
  26   2.0000     -10.444980      -284.2224
  27   2.0000     -10.435640      -283.9682
  28   2.0000     -10.432811      -283.8912
  29   2.0000     -10.429794      -283.8091
  30   2.0000     -10.429187      -283.7926
  31   2.0000     -10.425207      -283.6843
  32   2.0000     -10.418069      -283.4901
  33   2.0000     -10.415437      -283.4185
  34   2.0000     -10.407791      -283.2104
  35   2.0000     -10.390017      -282.7267
  36   2.0000     -10.362761      -281.9851
  37   2.0000      -6.773822      -184.3251
  38   2.0000      -4.868974      -132.4915
  39   2.0000      -4.867630      -132.4549
  40   2.0000      -4.865269      -132.3907
  41   2.0000      -1.119163       -30.4540
  42   2.0000      -1.109546       -30.1923
  43   2.0000      -1.098586       -29.8940
  44   2.0000      -1.096935       -29.8491
  45   2.0000      -1.076096       -29.2821
  46   2.0000      -1.075320       -29.2609
  47   2.0000      -1.073444       -29.2099
  48   2.0000      -1.061427       -28.8829
  49   2.0000      -1.057589       -28.7785
  50   2.0000      -1.054205       -28.6864
  51   2.0000      -1.041124       -28.3304
  52   2.0000      -1.016232       -27.6531
  53   2.0000      -1.007657       -27.4197
  54   2.0000      -0.994256       -27.0551
  55   2.0000      -0.959760       -26.1164
  56   2.0000      -0.945048       -25.7161
  57   2.0000      -0.919070       -25.0092
  58   2.0000      -0.876198       -23.8426
  59   2.0000      -0.826321       -22.4853
  60   2.0000      -0.806364       -21.9423
  61   2.0000      -0.800879       -21.7930
  62   2.0000      -0.798290       -21.7226
  63   2.0000      -0.771529       -20.9944
  64   2.0000      -0.768493       -20.9118
  65   2.0000      -0.705610       -19.2006
  66   2.0000      -0.701442       -19.0872
  67   2.0000      -0.694010       -18.8850
  68   2.0000      -0.682509       -18.5720
  69   2.0000      -0.652942       -17.7674
  70   2.0000      -0.643136       -17.5006
  71   2.0000      -0.615648       -16.7526
  72   2.0000      -0.614761       -16.7285
  73   2.0000      -0.598935       -16.2979
  74   2.0000      -0.595094       -16.1933
  75   2.0000      -0.564883       -15.3712
  76   2.0000      -0.563238       -15.3265
  77   2.0000      -0.557885       -15.1808
  78   2.0000      -0.549886       -14.9632
  79   2.0000      -0.544358       -14.8127
  80   2.0000      -0.533861       -14.5271
  81   2.0000      -0.530570       -14.4375
  82   2.0000      -0.520202       -14.1554
  83   2.0000      -0.509722       -13.8702
  84   2.0000      -0.497397       -13.5348
  85   2.0000      -0.491119       -13.3640
  86   2.0000      -0.485617       -13.2143
  87   2.0000      -0.477265       -12.9871
  88   2.0000      -0.476255       -12.9596
  89   2.0000      -0.469966       -12.7884
  90   2.0000      -0.460431       -12.5290
  91   2.0000      -0.454167       -12.3585
  92   2.0000      -0.444733       -12.1018
  93   2.0000      -0.443615       -12.0714
  94   2.0000      -0.441681       -12.0188
  95   2.0000      -0.440166       -11.9775
  96   2.0000      -0.433314       -11.7911
  97   2.0000      -0.427544       -11.6341
  98   2.0000      -0.423995       -11.5375
  99   2.0000      -0.419350       -11.4111
 100   2.0000      -0.414037       -11.2665
 101   2.0000      -0.411967       -11.2102
 102   2.0000      -0.409368       -11.1395
 103   2.0000      -0.407321       -11.0838
 104   2.0000      -0.402928       -10.9642
 105   2.0000      -0.399973       -10.8838
 106   2.0000      -0.389871       -10.6089
 107   2.0000      -0.383354       -10.4316
 108   2.0000      -0.381777       -10.3887
 109   2.0000      -0.377729       -10.2785
 110   2.0000      -0.369478       -10.0540
 111   2.0000      -0.364277        -9.9125
 112   2.0000      -0.360731        -9.8160
 113   2.0000      -0.352116        -9.5816
 114   2.0000      -0.345725        -9.4077
 115   2.0000      -0.343626        -9.3505
 116   2.0000      -0.342517        -9.3204
 117   2.0000      -0.328597        -8.9416
 118   2.0000      -0.322641        -8.7795
 119   2.0000      -0.318860        -8.6766
 120   2.0000      -0.318353        -8.6628
 121   2.0000      -0.302848        -8.2409
 122   2.0000      -0.293337        -7.9821
 123   2.0000      -0.291357        -7.9282
 124   2.0000      -0.284203        -7.7336
 125   2.0000      -0.276228        -7.5165
 126   2.0000      -0.269913        -7.3447
 127   2.0000      -0.266558        -7.2534
 128   2.0000      -0.265936        -7.2365
 129   2.0000      -0.263493        -7.1700
 130   2.0000      -0.257621        -7.0102
 131   2.0000      -0.252277        -6.8648
 132   2.0000      -0.251608        -6.8466
 133   2.0000      -0.248825        -6.7709
 134   2.0000      -0.245366        -6.6767
 135   2.0000      -0.242074        -6.5872
 136   2.0000      -0.234176        -6.3722
 137   2.0000      -0.215101        -5.8532
 138   2.0000      -0.211057        -5.7432
 139   2.0000      -0.203054        -5.5254
 140   2.0000      -0.196257        -5.3404
 141   2.0000      -0.179069        -4.8727
 142   2.0000      -0.166809        -4.5391
 143   0.0000       0.051974         1.4143
 144   0.0000       0.074396         2.0244
 145   0.0000       0.110664         3.0113
 146   0.0000       0.124600         3.3905
 147   0.0000       0.146533         3.9874

MULLIKEN ATOMIC CHARGES
-----------------------
   0 H :    0.424124
   1 O :   -0.637184
   2 C :   -0.179889
   3 H :    0.196965
   4 H :    0.216937
   5 C :    0.002584
   6 H :    0.241878
   7 O :   -0.499682
   8 C :    0.180697
   9 H :    0.278919
  10 N :   -0.566838
  11 C :    0.095024
  12 H :    0.310519
  13 C :   -0.487706
  14 H :    0.242872
  15 C :    0.564201
  16 O :   -0.431554
  17 N :   -0.736191
  18 H :    0.389377
  19 C :    0.727394
  20 O :   -0.438454
  21 C :   -0.059626
  22 H :    0.288896
  23 C :    0.003664
  24 H :    0.244614
  25 O :   -0.633971
  26 H :    0.444855
  27 O :   -0.649150
  28 P :    1.388823
  29 O :   -0.736817
  30 O :   -0.719692
  31 O :   -0.634627
  32 C :   -0.163287
  33 H :    0.259693
  34 H :    0.184121
  35 C :    0.012349
  36 H :    0.222935
  37 O :   -0.474839
  38 C :    0.194578
  39 H :    0.264397
  40 N :   -0.574701
  41 C :    0.078473
  42 H :    0.358259
  43 C :   -0.489598
  44 H :    0.281174
  45 C :    0.559912
  46 O :   -0.432501
  47 N :   -0.735487
  48 H :    0.383591
  49 C :    0.728253
  50 O :   -0.455811
  51 C :   -0.078995
  52 H :    0.234989
  53 C :   -0.019025
  54 H :    0.278684
  55 O :   -0.635760
  56 H :    0.417924
  57 O :   -0.656250
  58 H :    0.425955
Sum of atomic charges:   -1.0000000

LOEWDIN ATOMIC CHARGES
----------------------
   0 H :    0.313656
   1 O :   -0.416609
   2 C :   -0.098159
   3 H :    0.108518
   4 H :    0.120646
   5 C :   -0.017258
   6 H :    0.127393
   7 O :   -0.256120
   8 C :    0.063655
   9 H :    0.148117
  10 N :   -0.083075
  11 C :    0.003732
  12 H :    0.163799
  13 C :   -0.256859
  14 H :    0.154918
  15 C :    0.127148
  16 O :   -0.283070
  17 N :   -0.201591
  18 H :    0.282955
  19 C :    0.166900
  20 O :   -0.279352
  21 C :   -0.030600
  22 H :    0.150728
  23 C :   -0.038554
  24 H :    0.133188
  25 O :   -0.384441
  26 H :    0.325694
  27 O :   -0.354901
  28 P :    0.802756
  29 O :   -0.602661
  30 O :   -0.596705
  31 O :   -0.365679
  32 C :   -0.090763
  33 H :    0.141704
  34 H :    0.108275
  35 C :   -0.018909
  36 H :    0.125356
  37 O :   -0.244901
  38 C :    0.065659
  39 H :    0.143106
  40 N :   -0.086857
  41 C :    0.008695
  42 H :    0.178837
  43 C :   -0.241281
  44 H :    0.171898
  45 C :    0.125736
  46 O :   -0.283132
  47 N :   -0.202321
  48 H :    0.279669
  49 C :    0.166792
  50 O :   -0.294442
  51 C :   -0.036726
  52 H :    0.119481
  53 C :   -0.045289
  54 H :    0.148208
  55 O :   -0.390807
  56 H :    0.309057
  57 O :   -0.403785
  58 H :    0.318568

  Mayer bond orders larger than 0.100000
B(  0-H ,  1-O ) :   0.7875 B(  1-O ,  2-C ) :   0.9811 B(  2-C ,  3-H ) :   0.9053
B(  2-C ,  4-H ) :   0.8925 B(  2-C ,  5-C ) :   0.9477 B(  5-C ,  6-H ) :   0.8881
B(  5-C ,  7-O ) :   0.9283 B(  5-C , 21-C ) :   0.9184 B(  7-O ,  8-C ) :   0.9750
B(  8-C ,  9-H ) :   0.8636 B(  8-C , 10-N ) :   0.8883 B(  8-C , 23-C ) :   0.8844
B( 10-N , 11-C ) :   1.0788 B( 10-N , 19-C ) :   1.0211 B( 11-C , 12-H ) :   0.8394
B( 11-C , 13-C ) :   1.5939 B( 13-C , 14-H ) :   0.9210 B( 13-C , 15-C ) :   1.0782
B( 15-C , 16-O ) :   1.9969 B( 15-C , 17-N ) :   0.9927 B( 17-N , 18-H ) :   0.8040
B( 17-N , 19-C ) :   1.0536 B( 19-C , 20-O ) :   1.9778 B( 21-C , 22-H ) :   0.8601
B( 21-C , 23-C ) :   0.9411 B( 21-C , 27-O ) :   0.9013 B( 23-C , 24-H ) :   0.8923
B( 23-C , 25-O ) :   1.0736 B( 25-O , 26-H ) :   0.7388 B( 27-O , 28-P ) :   0.8238
B( 28-P , 29-O ) :   1.7048 B( 28-P , 30-O ) :   1.7688 B( 28-P , 31-O ) :   0.8313
B( 31-O , 32-C ) :   0.9281 B( 32-C , 33-H ) :   0.8823 B( 32-C , 34-H ) :   0.8974
B( 32-C , 35-C ) :   0.9378 B( 35-C , 36-H ) :   0.9035 B( 35-C , 37-O ) :   0.9482
B( 35-C , 51-C ) :   0.9252 B( 37-O , 38-C ) :   0.9915 B( 38-C , 39-H ) :   0.8659
B( 38-C , 40-N ) :   0.9116 B( 38-C , 53-C ) :   0.8931 B( 40-N , 41-C ) :   1.0409
B( 40-N , 49-C ) :   1.0258 B( 41-C , 42-H ) :   0.8069 B( 41-C , 43-C ) :   1.6230
B( 43-C , 44-H ) :   0.9040 B( 43-C , 45-C ) :   1.0723 B( 45-C , 46-O ) :   1.9953
B( 45-C , 47-N ) :   0.9800 B( 47-N , 48-H ) :   0.8074 B( 47-N , 49-C ) :   1.0668
B( 49-C , 50-O ) :   1.9597 B( 51-C , 52-H ) :   0.8977 B( 51-C , 53-C ) :   0.9450
B( 51-C , 57-O ) :   0.9574 B( 53-C , 54-H ) :   0.8735 B( 53-C , 55-O ) :   1.0433
B( 55-O , 56-H ) :   0.7553 B( 57-O , 58-H ) :   0.7878

Dispersion correction           -0.046693259
FINAL SINGLE POINT ENERGY     -2308.310991057412

DIPOLE MOMENT
-------------
                                X             Y             Z
Electronic contribution:      8.15416       7.08550      -0.38971
Nuclear contribution   :    -11.70936     -10.81949       1.78132
                        -----------------------------------------
Total Dipole Moment    :     -3.55520      -3.73399       1.39161
                        -----------------------------------------
Magnitude (a.u.)       :      5.34029
Magnitude (Debye)      :     13.57393

Rotational constants in cm-1:     0.007760     0.001362     0.001296
Rotational constants in MHz :   232.634080    40.846304    38.865011

                             ****ORCA TERMINATED NORMALLY****
TOTAL RUN TIME: 0 days 0 hours 13 minutes 48 seconds 333 msec
