                         Program Version 5.0.3 -  RELEASE  -
|  1> ! PBEh-3c def2/J TightSCF DefGrid3
|  2>
|  3> %maxcore 60000
|  4>
|  5> %pal
|  6> nprocs 4
|  7> end
|  8>
|  9> *xyzfile 0 1 P43.xyz
| 10>
| 11>                          ****END OF INPUT****

CARTESIAN COORDINATES (ANGSTROEM)
---------------------------------
  C      0.000000    1.097981    0.000000
  C      0.000000   -1.097981    0.000000
  C     -1.059124    0.000000    0.000000
  C      1.059124    0.000000    0.000000
  C     -2.379287    0.000000    0.000000
  C      2.379287    0.000000    0.000000
  H      0.000000    1.738738    0.884483
  H      0.000000    1.738738   -0.884483
  H      0.000000   -1.738738    0.884483
  H      0.000000   -1.738738   -0.884483
  H     -2.944153   -0.923495    0.000000
  H     -2.944153    0.923495    0.000000
  H      2.944153   -0.923495    0.000000
  H      2.944153    0.923495    0.000000

 Total Charge           Charge          ....    0
 Multiplicity           Mult            ....    1
 Number of Electrons    NEL             ....   44
 Basis Dimension        Dim             ....  106

ORBITAL ENERGIES
----------------

  NO   OCC          E(Eh)            E(eV)
   0   2.0000     -10.454512      -284.4817
   1   2.0000     -10.454479      -284.4808
   2   2.0000     -10.442366      -284.1512
   3   2.0000     -10.442292      -284.1492
   4   2.0000     -10.427813      -283.7552
   5   2.0000     -10.427799      -283.7548
   6   2.0000      -0.955896       -26.0113
   7   2.0000      -0.837477       -22.7889
   8   2.0000      -0.777656       -21.1611
   9   2.0000      -0.757836       -20.6218
  10   2.0000      -0.602441       -16.3933
  11   2.0000      -0.586274       -15.9533
  12   2.0000      -0.526366       -14.3232
  13   2.0000      -0.516384       -14.0515
  14   2.0000      -0.513601       -13.9758
  15   2.0000      -0.481672       -13.1070
  16   2.0000      -0.451019       -12.2728
  17   2.0000      -0.407769       -11.0960
  18   2.0000      -0.376337       -10.2407
  19   2.0000      -0.362187        -9.8556
  20   2.0000      -0.311740        -8.4829
  21   2.0000      -0.282310        -7.6820
  22   0.0000       0.019495         0.5305
  23   0.0000       0.071816         1.9542
  24   0.0000       0.148320         4.0360
  25   0.0000       0.170639         4.6433
  26   0.0000       0.173375         4.7178

MULLIKEN ATOMIC CHARGES
-----------------------
   0 C :   -0.498062
   1 C :   -0.498062
   2 C :    0.169936
   3 C :    0.169937
   4 C :   -0.598979
   5 C :   -0.598979
   6 H :    0.248679
   7 H :    0.248679
   8 H :    0.248679
   9 H :    0.248679
  10 H :    0.214873
  11 H :    0.214874
  12 H :    0.214873
  13 H :    0.214873
Sum of atomic charges:    0.0000000

LOEWDIN ATOMIC CHARGES
----------------------
   0 C :   -0.228155
   1 C :   -0.228155
   2 C :   -0.044311
   3 C :   -0.044311
   4 C :   -0.289322
   5 C :   -0.289322
   6 H :    0.145691
   7 H :    0.145691
   8 H :    0.145691
   9 H :    0.145691
  10 H :    0.135202
  11 H :    0.135202
  12 H :    0.135202
  13 H :    0.135202

  Mayer bond orders larger than 0.100000
B(  0-C ,  2-C ) :   0.9753 B(  0-C ,  3-C ) :   0.9753 B(  0-C ,  6-H ) :   0.9012
B(  0-C ,  7-H ) :   0.9012 B(  1-C ,  2-C ) :   0.9753 B(  1-C ,  3-C ) :   0.9753
B(  1-C ,  8-H ) :   0.9012 B(  1-C ,  9-H ) :   0.9012 B(  2-C ,  4-C ) :   1.8917
B(  3-C ,  5-C ) :   1.8917 B(  4-C , 10-H ) :   0.9312 B(  4-C , 11-H ) :   0.9312
B(  5-C , 12-H ) :   0.9312 B(  5-C , 13-H ) :   0.9312

Dispersion correction           -0.006228500
FINAL SINGLE POINT ENERGY      -232.854118150478

DIPOLE MOMENT
-------------
                                X             Y             Z
Electronic contribution:      0.00000       0.00000       0.00000
Nuclear contribution   :      0.00000       0.00000       0.00000
                        -----------------------------------------
Total Dipole Moment    :      0.00000       0.00000       0.00000
                        -----------------------------------------
Magnitude (a.u.)       :      0.00000
Magnitude (Debye)      :      0.00000

Rotational constants in cm-1:     0.353095     0.083853     0.069524
Rotational constants in MHz : 10585.519759  2513.838097  2084.271380

                             ****ORCA TERMINATED NORMALLY****
TOTAL RUN TIME: 0 days 0 hours 0 minutes 49 seconds 610 msec
