                         Program Version 5.0.3 -  RELEASE  -
|  1> ! PBEh-3c def2/J TightSCF DefGrid3
|  2>
|  3> %maxcore 60000
|  4>
|  5> %pal
|  6> nprocs 4
|  7> end
|  8>
|  9> *xyzfile 0 1 P10X.xyz
| 10>
| 11>                          ****END OF INPUT****

CARTESIAN COORDINATES (ANGSTROEM)
---------------------------------
  C      0.804433    0.293025   -1.122437
  C     -0.353603   -0.690670   -0.769530
  C     -0.353603   -0.690670    0.769530
  C      0.804433    0.293025    1.122437
  C      2.064048   -0.409672   -0.666125
  C      2.064048   -0.409672    0.666125
  C      0.652429    1.328247    0.000000
  C     -1.719654   -0.168114   -1.165953
  C     -1.719654   -0.168114    1.165953
  N     -2.420658    0.082005    0.000000
  O     -2.144110    0.014765    2.275333
  O     -2.144110    0.014765   -2.275333
  H     -3.357475    0.458856    0.000000
  H      0.778194    0.647150   -2.150908
  H     -0.206860   -1.666496   -1.233172
  H     -0.206860   -1.666496    1.233172
  H      0.778194    0.647150    2.150908
  H      2.764870   -0.908365   -1.323161
  H      2.764870   -0.908365    1.323161
  H     -0.309346    1.847850    0.000000
  H      1.460413    2.059792    0.000000

 Total Charge           Charge          ....    0
 Multiplicity           Mult            ....    1
 Number of Electrons    NEL             ....   86
 Basis Dimension        Dim             ....  198

ORBITAL ENERGIES
----------------

  NO   OCC          E(Eh)            E(eV)
   0   2.0000     -19.489660      -530.3406
   1   2.0000     -19.489641      -530.3401
   2   2.0000     -14.694245      -399.8507
   3   2.0000     -10.572845      -287.7017
   4   2.0000     -10.572801      -287.7005
   5   2.0000     -10.473691      -285.0036
   6   2.0000     -10.473467      -284.9975
   7   2.0000     -10.470942      -284.9288
   8   2.0000     -10.470889      -284.9274
   9   2.0000     -10.456176      -284.5270
  10   2.0000     -10.455179      -284.4999
  11   2.0000     -10.453263      -284.4477
  12   2.0000      -1.188500       -32.3407
  13   2.0000      -1.168075       -31.7849
  14   2.0000      -1.064425       -28.9645
  15   2.0000      -1.009802       -27.4781
  16   2.0000      -0.881195       -23.9785
  17   2.0000      -0.839547       -22.8452
  18   2.0000      -0.809699       -22.0330
  19   2.0000      -0.748897       -20.3785
  20   2.0000      -0.706534       -19.2258
  21   2.0000      -0.680775       -18.5248
  22   2.0000      -0.637102       -17.3364
  23   2.0000      -0.607969       -16.5437
  24   2.0000      -0.605679       -16.4814
  25   2.0000      -0.585583       -15.9345
  26   2.0000      -0.552659       -15.0386
  27   2.0000      -0.528644       -14.3851
  28   2.0000      -0.517207       -14.0739
  29   2.0000      -0.502262       -13.6672
  30   2.0000      -0.491663       -13.3788
  31   2.0000      -0.476707       -12.9719
  32   2.0000      -0.467509       -12.7216
  33   2.0000      -0.435103       -11.8397
  34   2.0000      -0.427773       -11.6403
  35   2.0000      -0.422972       -11.5097
  36   2.0000      -0.413374       -11.2485
  37   2.0000      -0.397334       -10.8120
  38   2.0000      -0.392899       -10.6913
  39   2.0000      -0.348937        -9.4951
  40   2.0000      -0.344182        -9.3657
  41   2.0000      -0.316401        -8.6097
  42   2.0000      -0.301915        -8.2155
  43   0.0000       0.005873         0.1598
  44   0.0000       0.029132         0.7927
  45   0.0000       0.053164         1.4467
  46   0.0000       0.136895         3.7251
  47   0.0000       0.147750         4.0205

MULLIKEN ATOMIC CHARGES
-----------------------
   0 C :   -0.299320
   1 C :   -0.374325
   2 C :   -0.374324
   3 C :   -0.299320
   4 C :   -0.168486
   5 C :   -0.168487
   6 C :   -0.427546
   7 C :    0.546431
   8 C :    0.546431
   9 N :   -0.675931
  10 O :   -0.359372
  11 O :   -0.359372
  12 H :    0.383520
  13 H :    0.253013
  14 H :    0.290094
  15 H :    0.290094
  16 H :    0.253013
  17 H :    0.226162
  18 H :    0.226162
  19 H :    0.235546
  20 H :    0.256019
Sum of atomic charges:    0.0000000

LOEWDIN ATOMIC CHARGES
----------------------
   0 C :   -0.124918
   1 C :   -0.157984
   2 C :   -0.157984
   3 C :   -0.124918
   4 C :   -0.133536
   5 C :   -0.133536
   6 C :   -0.211294
   7 C :    0.125168
   8 C :    0.125168
   9 N :   -0.198616
  10 O :   -0.209744
  11 O :   -0.209744
  12 H :    0.275486
  13 H :    0.140133
  14 H :    0.157071
  15 H :    0.157071
  16 H :    0.140133
  17 H :    0.137491
  18 H :    0.137491
  19 H :    0.125964
  20 H :    0.141097

  Mayer bond orders larger than 0.100000
B(  0-C ,  1-C ) :   0.9339 B(  0-C ,  4-C ) :   0.9851 B(  0-C ,  6-C ) :   0.9460
B(  0-C , 13-H ) :   0.9161 B(  1-C ,  2-C ) :   0.9373 B(  1-C ,  7-C ) :   0.9101
B(  1-C , 14-H ) :   0.8918 B(  2-C ,  3-C ) :   0.9339 B(  2-C ,  8-C ) :   0.9101
B(  2-C , 15-H ) :   0.8918 B(  3-C ,  5-C ) :   0.9851 B(  3-C ,  6-C ) :   0.9460
B(  3-C , 16-H ) :   0.9161 B(  4-C ,  5-C ) :   1.8644 B(  4-C , 17-H ) :   0.9240
B(  5-C , 18-H ) :   0.9240 B(  6-C , 19-H ) :   0.9119 B(  6-C , 20-H ) :   0.9167
B(  7-C ,  9-N ) :   1.0354 B(  7-C , 11-O ) :   2.1203 B(  8-C ,  9-N ) :   1.0354
B(  8-C , 10-O ) :   2.1203 B(  9-N , 12-H ) :   0.8037

Dispersion correction           -0.014614022
FINAL SINGLE POINT ENERGY      -552.401012770908

DIPOLE MOMENT
-------------
                                X             Y             Z
Electronic contribution:     -6.94903      -0.97272       0.00000
Nuclear contribution   :      7.80609       0.75794       0.00000
                        -----------------------------------------
Total Dipole Moment    :      0.85707      -0.21478       0.00000
                        -----------------------------------------
Magnitude (a.u.)       :      0.88357
Magnitude (Debye)      :      2.24585

Rotational constants in cm-1:     0.051906     0.035049     0.024257
Rotational constants in MHz :  1556.105428  1050.740742   727.191947

                             ****ORCA TERMINATED NORMALLY****
TOTAL RUN TIME: 0 days 0 hours 2 minutes 22 seconds 846 msec
