                         Program Version 5.0.3 -  RELEASE  -
|  1> ! PBEh-3c def2/J TightSCF DefGrid3
|  2>
|  3> %maxcore 60000
|  4>
|  5> %pal
|  6> nprocs 4
|  7> end
|  8>
|  9> *xyzfile -1 1 150B.xyz
| 10>
| 11>                          ****END OF INPUT****

CARTESIAN COORDINATES (ANGSTROEM)
---------------------------------
  O      2.104420    0.045090    4.464150
  N      1.000030    0.045170    5.174280
  O      1.065540    0.045610    6.411589
  O     -0.117290    0.044790    4.549350

 Total Charge           Charge          ....   -1
 Multiplicity           Mult            ....    1
 Number of Electrons    NEL             ....   32
 Basis Dimension        Dim             ....   60

ORBITAL ENERGIES
----------------

  NO   OCC          E(Eh)            E(eV)
   0   2.0000     -19.270692      -524.3822
   1   2.0000     -19.258597      -524.0531
   2   2.0000     -19.247778      -523.7587
   3   2.0000     -14.663356      -399.0102
   4   2.0000      -1.096039       -29.8247
   5   2.0000      -0.887162       -24.1409
   6   2.0000      -0.850775       -23.1508
   7   2.0000      -0.443240       -12.0612
   8   2.0000      -0.355499        -9.6736
   9   2.0000      -0.340010        -9.2521
  10   2.0000      -0.336685        -9.1617
  11   2.0000      -0.136978        -3.7274
  12   2.0000      -0.134494        -3.6598
  13   2.0000      -0.116427        -3.1681
  14   2.0000      -0.100104        -2.7240
  15   2.0000      -0.068358        -1.8601
  16   0.0000       0.237421         6.4605
  17   0.0000       0.463750        12.6193
  18   0.0000       0.594607        16.1801
  19   0.0000       0.644391        17.5348
  20   0.0000       0.953586        25.9484

MULLIKEN ATOMIC CHARGES
-----------------------
   0 O :   -0.570476
   1 N :    0.630887
   2 O :   -0.513237
   3 O :   -0.547174
Sum of atomic charges:   -1.0000000

LOEWDIN ATOMIC CHARGES
----------------------
   0 O :   -0.462990
   1 N :    0.265449
   2 O :   -0.376629
   3 O :   -0.425830

  Mayer bond orders larger than 0.100000
B(  0-O ,  1-N ) :   1.4728 B(  0-O ,  2-O ) :   0.1413 B(  0-O ,  3-O ) :   0.1355
B(  1-N ,  2-O ) :   1.5796 B(  1-N ,  3-O ) :   1.5201 B(  2-O ,  3-O ) :   0.1476

Dispersion correction           -0.000858974
FINAL SINGLE POINT ENERGY      -279.755068701739

DIPOLE MOMENT
-------------
                                X             Y             Z
Electronic contribution:     -0.07214       0.00004       0.15249
Nuclear contribution   :      0.00010      -0.00000      -0.00019
                        -----------------------------------------
Total Dipole Moment    :     -0.07204       0.00004       0.15231
                        -----------------------------------------
Magnitude (a.u.)       :      0.16848
Magnitude (Debye)      :      0.42825

Rotational constants in cm-1:     0.434857     0.426253     0.215256
Rotational constants in MHz : 13036.695721 12778.754625  6453.218267

                             ****ORCA TERMINATED NORMALLY****
TOTAL RUN TIME: 0 days 0 hours 0 minutes 44 seconds 671 msec
