                         Program Version 5.0.3 -  RELEASE  -
|  1> ! PBEh-3c def2/J TightSCF DefGrid3
|  2>
|  3> %maxcore 60000
|  4>
|  5> %pal
|  6> nprocs 4
|  7> end
|  8>
|  9> *xyzfile 1 1 24.xyz
| 10>
| 11>                          ****END OF INPUT****

CARTESIAN COORDINATES (ANGSTROEM)
---------------------------------
  K     -0.522558   -0.695807   -0.087624
  O      1.059463    1.416612    0.173584
  H      2.014895    1.435169    0.231098
  H      0.810424    2.338925    0.235563

 Total Charge           Charge          ....    1
 Multiplicity           Mult            ....    1
 Number of Electrons    NEL             ....   28
 Basis Dimension        Dim             ....   43

ORBITAL ENERGIES
----------------

  NO   OCC          E(Eh)            E(eV)
   0   2.0000    -130.883379     -3561.5178
   1   2.0000     -19.674376      -535.3670
   2   2.0000     -13.763574      -374.5259
   3   2.0000     -11.022294      -299.9319
   4   2.0000     -11.022287      -299.9317
   5   2.0000     -11.022247      -299.9306
   6   2.0000      -1.690615       -46.0040
   7   2.0000      -1.300397       -35.3856
   8   2.0000      -1.013100       -27.5679
   9   2.0000      -1.012510       -27.5518
  10   2.0000      -1.009684       -27.4749
  11   2.0000      -0.775199       -21.0942
  12   2.0000      -0.649444       -17.6723
  13   2.0000      -0.557405       -15.1678
  14   0.0000      -0.164857        -4.4860
  15   0.0000      -0.099460        -2.7064
  16   0.0000      -0.098043        -2.6679
  17   0.0000      -0.096515        -2.6263
  18   0.0000      -0.063479        -1.7274

MULLIKEN ATOMIC CHARGES
-----------------------
   0 K :    0.902027
   1 O :   -0.837076
   2 H :    0.467493
   3 H :    0.467556
Sum of atomic charges:    1.0000000

LOEWDIN ATOMIC CHARGES
----------------------
   0 K :    0.815195
   1 O :   -0.497814
   2 H :    0.341298
   3 H :    0.341320

  Mayer bond orders larger than 0.100000
B(  0-K ,  1-O ) :   0.1881 B(  1-O ,  2-H ) :   0.7611 B(  1-O ,  3-H ) :   0.7611

Dispersion correction           -0.000549159
FINAL SINGLE POINT ENERGY      -675.561090747240

DIPOLE MOMENT
-------------
                                X             Y             Z
Electronic contribution:     -3.44254      -4.59614      -0.56893
Nuclear contribution   :      3.20158       4.27279       0.53125
                        -----------------------------------------
Total Dipole Moment    :     -0.24095      -0.32335      -0.03767
                        -----------------------------------------
Magnitude (a.u.)       :      0.40501
Magnitude (Debye)      :      1.02944

Rotational constants in cm-1:    14.750585     0.183737     0.181476
Rotational constants in MHz : 442211.403593  5508.286558  5440.518673

                             ****ORCA TERMINATED NORMALLY****
TOTAL RUN TIME: 0 days 0 hours 0 minutes 14 seconds 431 msec
