                         Program Version 5.0.3 -  RELEASE  -
|  1> ! PBEh-3c def2/J TightSCF DefGrid3
|  2>
|  3> %maxcore 60000
|  4>
|  5> %pal
|  6> nprocs 4
|  7> end
|  8>
|  9> *xyzfile 0 1 61.xyz
| 10>
| 11>                          ****END OF INPUT****

CARTESIAN COORDINATES (ANGSTROEM)
---------------------------------
  C     -2.443699   -0.127364   -0.824253
  H     -2.659071   -0.720216   -1.713153
  H     -2.394677   -0.810735    0.023236
  H     -3.280379    0.552654   -0.668187
  C     -1.130052    0.626989   -0.986188
  H     -0.957053    1.258143   -0.110885
  H     -1.194531    1.303156   -1.842046
  C      0.058148   -0.306999   -1.175601
  H      0.141091   -0.967428   -0.307549
  H     -0.129203   -0.958288   -2.034377
  C      1.374648    0.428886   -1.386588
  H      1.543285    1.115483   -0.553141
  H      1.297741    1.051454   -2.280881
  C      2.559222   -0.519150   -1.518128
  H      2.420387   -1.195503   -2.361344
  H      3.493147    0.019404   -1.671556
  H      2.666840   -1.129699   -0.621512
  C     -0.651915   -0.280152    2.465664
  O     -1.074529   -1.395332    2.268518
  O     -1.465608    0.778813    2.698253
  H     -2.366370    0.424433    2.657718
  C      0.788352    0.129514    2.482869
  H      1.414175   -0.740667    2.324714
  H      0.964389    0.863788    1.699745
  H      1.025663    0.598815    3.434672

 Total Charge           Charge          ....    0
 Multiplicity           Mult            ....    1
 Number of Electrons    NEL             ....   74
 Basis Dimension        Dim             ....  167

ORBITAL ENERGIES
----------------

  NO   OCC          E(Eh)            E(eV)
   0   2.0000     -19.545909      -531.8712
   1   2.0000     -19.490761      -530.3706
   2   2.0000     -10.588900      -288.1386
   3   2.0000     -10.451107      -284.3891
   4   2.0000     -10.429228      -283.7937
   5   2.0000     -10.426508      -283.7197
   6   2.0000     -10.423678      -283.6427
   7   2.0000     -10.420492      -283.5560
   8   2.0000     -10.415986      -283.4334
   9   2.0000      -1.223888       -33.3037
  10   2.0000      -1.128001       -30.6945
  11   2.0000      -0.893493       -24.3132
  12   2.0000      -0.852720       -23.2037
  13   2.0000      -0.837138       -22.7797
  14   2.0000      -0.754256       -20.5244
  15   2.0000      -0.686176       -18.6718
  16   2.0000      -0.670857       -18.2550
  17   2.0000      -0.644459       -17.5366
  18   2.0000      -0.564677       -15.3656
  19   2.0000      -0.551808       -15.0155
  20   2.0000      -0.548615       -14.9286
  21   2.0000      -0.525466       -14.2986
  22   2.0000      -0.495374       -13.4798
  23   2.0000      -0.489387       -13.3169
  24   2.0000      -0.473014       -12.8714
  25   2.0000      -0.461564       -12.5598
  26   2.0000      -0.457491       -12.4490
  27   2.0000      -0.453779       -12.3480
  28   2.0000      -0.447040       -12.1646
  29   2.0000      -0.426616       -11.6088
  30   2.0000      -0.402328       -10.9479
  31   2.0000      -0.386221       -10.5096
  32   2.0000      -0.380934       -10.3657
  33   2.0000      -0.372895       -10.1470
  34   2.0000      -0.362543        -9.8653
  35   2.0000      -0.361579        -9.8391
  36   2.0000      -0.340526        -9.2662
  37   0.0000       0.039466         1.0739
  38   0.0000       0.100098         2.7238
  39   0.0000       0.125641         3.4189
  40   0.0000       0.153842         4.1862
  41   0.0000       0.166527         4.5314

MULLIKEN ATOMIC CHARGES
-----------------------
   0 C :   -0.656994
   1 H :    0.211917
   2 H :    0.228563
   3 H :    0.210732
   4 C :   -0.418908
   5 H :    0.200571
   6 H :    0.208180
   7 C :   -0.407386
   8 H :    0.215773
   9 H :    0.205462
  10 C :   -0.414350
  11 H :    0.195182
  12 H :    0.209060
  13 C :   -0.637503
  14 H :    0.212025
  15 H :    0.217770
  16 H :    0.207385
  17 C :    0.518298
  18 O :   -0.395164
  19 O :   -0.585776
  20 H :    0.442839
  21 C :   -0.745974
  22 H :    0.257396
  23 H :    0.260987
  24 H :    0.259911
Sum of atomic charges:   -0.0000000

LOEWDIN ATOMIC CHARGES
----------------------
   0 C :   -0.368101
   1 H :    0.124432
   2 H :    0.130284
   3 H :    0.122197
   4 C :   -0.247721
   5 H :    0.115836
   6 H :    0.119295
   7 C :   -0.244713
   8 H :    0.123470
   9 H :    0.120376
  10 C :   -0.245514
  11 H :    0.111919
  12 H :    0.120279
  13 C :   -0.361405
  14 H :    0.125090
  15 H :    0.125413
  16 H :    0.122518
  17 C :    0.131320
  18 O :   -0.230741
  19 O :   -0.305048
  20 H :    0.332797
  21 C :   -0.389510
  22 H :    0.152801
  23 H :    0.157085
  24 H :    0.157643

  Mayer bond orders larger than 0.100000
B(  0-C ,  1-H ) :   0.9296 B(  0-C ,  2-H ) :   0.9136 B(  0-C ,  3-H ) :   0.9339
B(  0-C ,  4-C ) :   0.9960 B(  4-C ,  5-H ) :   0.9156 B(  4-C ,  6-H ) :   0.9206
B(  4-C ,  7-C ) :   0.9893 B(  7-C ,  8-H ) :   0.9074 B(  7-C ,  9-H ) :   0.9177
B(  7-C , 10-C ) :   0.9878 B( 10-C , 11-H ) :   0.9176 B( 10-C , 12-H ) :   0.9191
B( 10-C , 13-C ) :   0.9987 B( 13-C , 14-H ) :   0.9289 B( 13-C , 15-H ) :   0.9322
B( 13-C , 16-H ) :   0.9296 B( 17-C , 18-O ) :   2.0425 B( 17-C , 19-O ) :   1.1297
B( 17-C , 21-C ) :   0.9399 B( 19-O , 20-H ) :   0.7611 B( 21-C , 22-H ) :   0.9174
B( 21-C , 23-H ) :   0.8928 B( 21-C , 24-H ) :   0.9018

Dispersion correction           -0.012123009
FINAL SINGLE POINT ENERGY      -425.940251553063

DIPOLE MOMENT
-------------
                                X             Y             Z
Electronic contribution:     -5.30573      -1.15643      11.12202
Nuclear contribution   :      5.46292       1.72647     -10.99359
                        -----------------------------------------
Total Dipole Moment    :      0.15720       0.57005       0.12843
                        -----------------------------------------
Magnitude (a.u.)       :      0.60511
Magnitude (Debye)      :      1.53807

Rotational constants in cm-1:     0.054596     0.028628     0.021957
Rotational constants in MHz :  1636.749688   858.249757   658.241990

                             ****ORCA TERMINATED NORMALLY****
TOTAL RUN TIME: 0 days 0 hours 2 minutes 8 seconds 647 msec
