                         Program Version 5.0.3 -  RELEASE  -
|  1> ! PBEh-3c def2/J TightSCF DefGrid3
|  2>
|  3> %maxcore 60000
|  4>
|  5> %pal
|  6> nprocs 4
|  7> end
|  8>
|  9> *xyzfile 0 1 59.xyz
| 10>
| 11>                          ****END OF INPUT****

CARTESIAN COORDINATES (ANGSTROEM)
---------------------------------
  Al     0.000000    0.000000    0.000000
  F      0.821890    1.423555    0.000000
  F      0.821890   -1.423555    0.000000
  F     -1.643780    0.000000    0.000000

 Total Charge           Charge          ....    0
 Multiplicity           Mult            ....    1
 Number of Electrons    NEL             ....   40
 Basis Dimension        Dim             ....   63

ORBITAL ENERGIES
----------------

  NO   OCC          E(Eh)            E(eV)
   0   2.0000     -56.685172     -1542.4819
   1   2.0000     -25.079540      -682.4490
   2   2.0000     -25.079537      -682.4489
   3   2.0000     -25.079433      -682.4461
   4   2.0000      -4.418859      -120.2433
   5   2.0000      -2.913564       -79.2821
   6   2.0000      -2.906628       -79.0934
   7   2.0000      -2.906627       -79.0933
   8   2.0000      -1.289730       -35.0953
   9   2.0000      -1.277594       -34.7651
  10   2.0000      -1.277586       -34.7649
  11   2.0000      -0.572842       -15.5878
  12   2.0000      -0.529148       -14.3988
  13   2.0000      -0.529146       -14.3988
  14   2.0000      -0.507770       -13.8171
  15   2.0000      -0.495033       -13.4705
  16   2.0000      -0.495029       -13.4704
  17   2.0000      -0.486786       -13.2461
  18   2.0000      -0.486773       -13.2458
  19   2.0000      -0.470668       -12.8075
  20   0.0000      -0.025094        -0.6828
  21   0.0000       0.023425         0.6374
  22   0.0000       0.131929         3.5900
  23   0.0000       0.131937         3.5902
  24   0.0000       0.212580         5.7846

MULLIKEN ATOMIC CHARGES
-----------------------
   0 Al:    1.566122
   1 F :   -0.522030
   2 F :   -0.522030
   3 F :   -0.522061
Sum of atomic charges:    0.0000000

LOEWDIN ATOMIC CHARGES
----------------------
   0 Al:    0.740224
   1 F :   -0.246736
   2 F :   -0.246736
   3 F :   -0.246752

  Mayer bond orders larger than 0.100000
B(  0-Al,  1-F ) :   0.8652 B(  0-Al,  2-F ) :   0.8652 B(  0-Al,  3-F ) :   0.8651

Dispersion correction           -0.000644483
FINAL SINGLE POINT ENERGY      -541.305794465111

DIPOLE MOMENT
-------------
                                X             Y             Z
Electronic contribution:      0.00014       0.00000      -0.00000
Nuclear contribution   :      0.00000       0.00000       0.00000
                        -----------------------------------------
Total Dipole Moment    :      0.00014       0.00000      -0.00000
                        -----------------------------------------
Magnitude (a.u.)       :      0.00014
Magnitude (Debye)      :      0.00035

Rotational constants in cm-1:     0.218933     0.218933     0.109466
Rotational constants in MHz :  6563.431828  6563.431723  3281.715888

                             ****ORCA TERMINATED NORMALLY****
TOTAL RUN TIME: 0 days 0 hours 0 minutes 14 seconds 208 msec
