                         Program Version 5.0.3 -  RELEASE  -
|  1> ! PBEh-3c def2/J TightSCF DefGrid3
|  2>
|  3> %maxcore 60000
|  4>
|  5> %pal
|  6> nprocs 4
|  7> end
|  8>
|  9> *xyzfile 0 1 14b.xyz
| 10>
| 11>                          ****END OF INPUT****

CARTESIAN COORDINATES (ANGSTROEM)
---------------------------------
  P     -0.233372   -2.146790    0.000000
  H      0.554010   -3.323495    0.000000
  H     -1.089819   -2.573778    1.041690
  H     -1.089819   -2.573778   -1.041690

 Total Charge           Charge          ....    0
 Multiplicity           Mult            ....    1
 Number of Electrons    NEL             ....   18
 Basis Dimension        Dim             ....   24

ORBITAL ENERGIES
----------------

  NO   OCC          E(Eh)            E(eV)
   0   2.0000     -77.727376     -2115.0694
   1   2.0000      -6.808313      -185.2636
   2   2.0000      -4.898472      -133.2942
   3   2.0000      -4.898469      -133.2941
   4   2.0000      -4.896465      -133.2396
   5   2.0000      -0.718431       -19.5495
   6   2.0000      -0.438877       -11.9425
   7   2.0000      -0.438869       -11.9422
   8   2.0000      -0.312926        -8.5151
   9   0.0000       0.073113         1.9895
  10   0.0000       0.073149         1.9905
  11   0.0000       0.160954         4.3798
  12   0.0000       0.377274        10.2662
  13   0.0000       0.511902        13.9296

MULLIKEN ATOMIC CHARGES
-----------------------
   0 P :   -0.258168
   1 H :    0.085952
   2 H :    0.086108
   3 H :    0.086108
Sum of atomic charges:   -0.0000000

LOEWDIN ATOMIC CHARGES
----------------------
   0 P :   -0.094984
   1 H :    0.031648
   2 H :    0.031668
   3 H :    0.031668

  Mayer bond orders larger than 0.100000
B(  0-P ,  1-H ) :   0.9626 B(  0-P ,  2-H ) :   0.9625 B(  0-P ,  3-H ) :   0.9625

Dispersion correction           -0.000714972
FINAL SINGLE POINT ENERGY      -342.730612080542

DIPOLE MOMENT
-------------
                                X             Y             Z
Electronic contribution:      0.64133       1.40818       0.00000
Nuclear contribution   :     -0.81558      -1.78948       0.00000
                        -----------------------------------------
Total Dipole Moment    :     -0.17425      -0.38130       0.00000
                        -----------------------------------------
Magnitude (a.u.)       :      0.41923
Magnitude (Debye)      :      1.06559

Rotational constants in cm-1:     4.541247     4.533945     3.847746
Rotational constants in MHz : 136143.153852 135924.264521 115352.526463

                             ****ORCA TERMINATED NORMALLY****
TOTAL RUN TIME: 0 days 0 hours 0 minutes 33 seconds 570 msec
