                         Program Version 5.0.3 -  RELEASE  -
|  1> ! PBEh-3c def2/J TightSCF DefGrid3
|  2>
|  3> %maxcore 60000
|  4>
|  5> %pal
|  6> nprocs 4
|  7> end
|  8>
|  9> *xyzfile 0 1 3O_B.xyz
| 10>
| 11>                          ****END OF INPUT****

CARTESIAN COORDINATES (ANGSTROEM)
---------------------------------
  Si     0.000000    0.000000   -0.690297
  H      1.090130    0.000000    0.345149
  H     -1.090130    0.000000    0.345149

 Total Charge           Charge          ....    0
 Multiplicity           Mult            ....    1
 Number of Electrons    NEL             ....   16
 Basis Dimension        Dim             ....   22

ORBITAL ENERGIES
----------------

  NO   OCC          E(Eh)            E(eV)
   0   2.0000     -66.753416     -1816.4528
   1   2.0000      -5.531938      -150.5317
   2   2.0000      -3.826565      -104.1261
   3   2.0000      -3.818816      -103.9153
   4   2.0000      -3.817041      -103.8670
   5   2.0000      -0.569973       -15.5097
   6   2.0000      -0.380460       -10.3528
   7   2.0000      -0.276052        -7.5118
   8   0.0000      -0.091749        -2.4966
   9   0.0000       0.073819         2.0087
  10   0.0000       0.153202         4.1688
  11   0.0000       0.184992         5.0339
  12   0.0000       0.417301        11.3553

MULLIKEN ATOMIC CHARGES
-----------------------
   0 Si:    0.092895
   1 H :   -0.046448
   2 H :   -0.046448
Sum of atomic charges:   -0.0000000

LOEWDIN ATOMIC CHARGES
----------------------
   0 Si:    0.086060
   1 H :   -0.043030
   2 H :   -0.043030

  Mayer bond orders larger than 0.100000
B(  0-Si,  1-H ) :   0.9711 B(  0-Si,  2-H ) :   0.9711

Dispersion correction           -0.000445022
FINAL SINGLE POINT ENERGY      -290.236880812216

DIPOLE MOMENT
-------------
                                X             Y             Z
Electronic contribution:      0.00000       0.00000      -1.57442
Nuclear contribution   :      0.00000       0.00000       1.81669
                        -----------------------------------------
Total Dipole Moment    :      0.00000       0.00000       0.24227
                        -----------------------------------------
Magnitude (a.u.)       :      0.24227
Magnitude (Debye)      :      0.61580

Rotational constants in cm-1:     8.359053     7.036391     3.820453
Rotational constants in MHz : 250598.111807 210945.688182 114534.289386

                             ****ORCA TERMINATED NORMALLY****
TOTAL RUN TIME: 0 days 0 hours 0 minutes 34 seconds 785 msec
