                         Program Version 5.0.3 -  RELEASE  -
|  1> ! PBEh-3c def2/J TightSCF DefGrid3
|  2>
|  3> %maxcore 60000
|  4>
|  5> %pal
|  6> nprocs 4
|  7> end
|  8>
|  9> *xyzfile -1 1 1.xyz
| 10>
| 11>                          ****END OF INPUT****

CARTESIAN COORDINATES (ANGSTROEM)
---------------------------------
  F     -0.205116    1.191946   -0.696290
  N     -1.071468   -0.009126    1.502794
  H     -0.617573   -0.916984    1.474148
  H     -0.600900    0.486876    2.253556
  H     -0.763072    0.483185    0.608173

 Total Charge           Charge          ....   -1
 Multiplicity           Mult            ....    1
 Number of Electrons    NEL             ....   20
 Basis Dimension        Dim             ....   36

ORBITAL ENERGIES
----------------

  NO   OCC          E(Eh)            E(eV)
   0   2.0000     -24.587998      -669.0734
   1   2.0000     -14.362339      -390.8191
   2   2.0000      -0.780216       -21.2307
   3   2.0000      -0.697020       -18.9669
   4   2.0000      -0.287114        -7.8128
   5   2.0000      -0.258903        -7.0451
   6   2.0000      -0.092540        -2.5181
   7   2.0000      -0.012001        -0.3266
   8   2.0000      -0.011803        -0.3212
   9   2.0000      -0.009395        -0.2557
  10   0.0000       0.347452         9.4547
  11   0.0000       0.414505        11.2792
  12   0.0000       0.587629        15.9902
  13   0.0000       0.967139        26.3172
  14   0.0000       0.990054        26.9407

MULLIKEN ATOMIC CHARGES
-----------------------
   0 F :   -0.815918
   1 N :   -1.030380
   2 H :    0.238184
   3 H :    0.237875
   4 H :    0.370238
Sum of atomic charges:   -1.0000000

LOEWDIN ATOMIC CHARGES
----------------------
   0 F :   -0.841299
   1 N :   -0.752362
   2 H :    0.172321
   3 H :    0.172125
   4 H :    0.249216

  Mayer bond orders larger than 0.100000
B(  0-F ,  4-H ) :   0.3145 B(  1-N ,  2-H ) :   0.9156 B(  1-N ,  3-H ) :   0.9156
B(  1-N ,  4-H ) :   0.6210

Dispersion correction           -0.000743050
FINAL SINGLE POINT ENERGY      -156.063885586024

DIPOLE MOMENT
-------------
                                X             Y             Z
Electronic contribution:      0.86689       1.67192      -3.05404
Nuclear contribution   :     -0.57638      -2.24081       4.08047
                        -----------------------------------------
Total Dipole Moment    :      0.29052      -0.56889       1.02643
                        -----------------------------------------
Magnitude (a.u.)       :      1.20897
Magnitude (Debye)      :      3.07295

Rotational constants in cm-1:     9.012774     0.266041     0.263016
Rotational constants in MHz : 270196.164548  7975.696318  7885.008067

                             ****ORCA TERMINATED NORMALLY****
TOTAL RUN TIME: 0 days 0 hours 0 minutes 58 seconds 304 msec
