                         Program Version 5.0.3 -  RELEASE  -
|  1> ! PBEh-3c def2/J TightSCF DefGrid3
|  2>
|  3> %maxcore 60000
|  4>
|  5> %pal
|  6> nprocs 4
|  7> end
|  8>
|  9> *xyzfile 0 1 p4.xyz
| 10>
| 11>                          ****END OF INPUT****

CARTESIAN COORDINATES (ANGSTROEM)
---------------------------------
  C      0.610020   -0.395915    0.000000
  C      1.842759    0.118267    0.000000
  C     -0.610020    0.395915    0.000000
  C     -1.842759   -0.118267    0.000000
  H      0.483392   -1.476094    0.000000
  H      2.010352    1.190090    0.000000
  H      2.721808   -0.513631    0.000000
  H     -0.483392    1.476094    0.000000
  H     -2.010352   -1.190090    0.000000
  H     -2.721808    0.513631    0.000000

 Total Charge           Charge          ....    0
 Multiplicity           Mult            ....    1
 Number of Electrons    NEL             ....   30
 Basis Dimension        Dim             ....   72

ORBITAL ENERGIES
----------------

  NO   OCC          E(Eh)            E(eV)
   0   2.0000     -10.451805      -284.4081
   1   2.0000     -10.451479      -284.3992
   2   2.0000     -10.441695      -284.1330
   3   2.0000     -10.441679      -284.1325
   4   2.0000      -0.901384       -24.5279
   5   2.0000      -0.823285       -22.4027
   6   2.0000      -0.681816       -18.5532
   7   2.0000      -0.623199       -16.9581
   8   2.0000      -0.531309       -14.4577
   9   2.0000      -0.526046       -14.3144
  10   2.0000      -0.452914       -12.3244
  11   2.0000      -0.443273       -12.0621
  12   2.0000      -0.398672       -10.8484
  13   2.0000      -0.375548       -10.2192
  14   2.0000      -0.274538        -7.4706
  15   0.0000      -0.003586        -0.0976
  16   0.0000       0.108078         2.9410
  17   0.0000       0.169898         4.6232
  18   0.0000       0.174536         4.7494
  19   0.0000       0.174748         4.7551

MULLIKEN ATOMIC CHARGES
-----------------------
   0 C :   -0.159992
   1 C :   -0.494649
   2 C :   -0.159992
   3 C :   -0.494649
   4 H :    0.215896
   5 H :    0.216926
   6 H :    0.221819
   7 H :    0.215896
   8 H :    0.216925
   9 H :    0.221819
Sum of atomic charges:   -0.0000000

LOEWDIN ATOMIC CHARGES
----------------------
   0 C :   -0.140329
   1 C :   -0.259135
   2 C :   -0.140329
   3 C :   -0.259135
   4 H :    0.133080
   5 H :    0.131208
   6 H :    0.135175
   7 H :    0.133080
   8 H :    0.131208
   9 H :    0.135175

  Mayer bond orders larger than 0.100000
B(  0-C ,  1-C ) :   1.8424 B(  0-C ,  2-C ) :   1.0971 B(  0-C ,  4-H ) :   0.9200
B(  1-C ,  3-C ) :   0.1174 B(  1-C ,  5-H ) :   0.9294 B(  1-C ,  6-H ) :   0.9283
B(  2-C ,  3-C ) :   1.8424 B(  2-C ,  7-H ) :   0.9200 B(  3-C ,  8-H ) :   0.9294
B(  3-C ,  9-H ) :   0.9283

Dispersion correction           -0.003519909
FINAL SINGLE POINT ENERGY      -155.634189423403

DIPOLE MOMENT
-------------
                                X             Y             Z
Electronic contribution:      0.00000       0.00000       0.00000
Nuclear contribution   :     -0.00000      -0.00000       0.00000
                        -----------------------------------------
Total Dipole Moment    :      0.00000       0.00000       0.00000
                        -----------------------------------------
Magnitude (a.u.)       :      0.00000
Magnitude (Debye)      :      0.00000

Rotational constants in cm-1:     1.418858     0.147789     0.133847
Rotational constants in MHz : 42536.295781  4430.590799  4012.633888

                             ****ORCA TERMINATED NORMALLY****
TOTAL RUN TIME: 0 days 0 hours 0 minutes 43 seconds 507 msec
