                         Program Version 5.0.3 -  RELEASE  -
|  1> ! PBEh-3c def2/J TightSCF DefGrid3
|  2>
|  3> %maxcore 60000
|  4>
|  5> %pal
|  6> nprocs 4
|  7> end
|  8>
|  9> *xyzfile -1 1 230B.xyz
| 10>
| 11>                          ****END OF INPUT****

CARTESIAN COORDINATES (ANGSTROEM)
---------------------------------
  O      2.444690    0.406350   -0.408880
  S      3.069630    0.006820   -1.737780
  C      4.145530    1.410600   -2.148270
  O      3.937110   -1.170800   -1.604870
  O      2.017400   -0.048250   -2.778960
  H      4.631150    1.188830   -3.104880
  H      3.531470    2.314080   -2.226980
  H      4.890430    1.510230   -1.351670

 Total Charge           Charge          ....   -1
 Multiplicity           Mult            ....    1
 Number of Electrons    NEL             ....   50
 Basis Dimension        Dim             ....   84

ORBITAL ENERGIES
----------------

  NO   OCC          E(Eh)            E(eV)
   0   2.0000     -89.599978     -2438.1394
   1   2.0000     -19.253662      -523.9188
   2   2.0000     -19.247077      -523.7396
   3   2.0000     -19.228158      -523.2248
   4   2.0000     -10.290239      -280.0116
   5   2.0000      -8.197757      -223.0723
   6   2.0000      -6.089816      -165.7123
   7   2.0000      -6.089079      -165.6923
   8   2.0000      -6.088937      -165.6884
   9   2.0000      -0.997196       -27.1351
  10   2.0000      -0.867833       -23.6149
  11   2.0000      -0.833448       -22.6793
  12   2.0000      -0.655353       -17.8331
  13   2.0000      -0.445726       -12.1288
  14   2.0000      -0.339057        -9.2262
  15   2.0000      -0.336387        -9.1536
  16   2.0000      -0.335719        -9.1354
  17   2.0000      -0.285526        -7.7696
  18   2.0000      -0.280824        -7.6416
  19   2.0000      -0.173080        -4.7098
  20   2.0000      -0.171201        -4.6586
  21   2.0000      -0.140040        -3.8107
  22   2.0000      -0.134434        -3.6581
  23   2.0000      -0.116446        -3.1687
  24   2.0000      -0.086469        -2.3529
  25   0.0000       0.311185         8.4678
  26   0.0000       0.323817         8.8115
  27   0.0000       0.339704         9.2438
  28   0.0000       0.341083         9.2813
  29   0.0000       0.404443        11.0054

MULLIKEN ATOMIC CHARGES
-----------------------
   0 O :   -0.770878
   1 S :    1.392407
   2 C :   -0.788865
   3 O :   -0.725229
   4 O :   -0.735172
   5 H :    0.199092
   6 H :    0.215576
   7 H :    0.213069
Sum of atomic charges:   -1.0000000

LOEWDIN ATOMIC CHARGES
----------------------
   0 O :   -0.715712
   1 S :    1.199769
   2 C :   -0.521135
   3 O :   -0.658122
   4 O :   -0.671390
   5 H :    0.116582
   6 H :    0.125556
   7 H :    0.124452

  Mayer bond orders larger than 0.100000
B(  0-O ,  1-S ) :   1.5304 B(  1-S ,  2-C ) :   0.8648 B(  1-S ,  3-O ) :   1.5989
B(  1-S ,  4-O ) :   1.5847 B(  2-C ,  5-H ) :   0.9106 B(  2-C ,  6-H ) :   0.9121
B(  2-C ,  7-H ) :   0.9118

Dispersion correction           -0.003261931
FINAL SINGLE POINT ENERGY      -662.779227126912

DIPOLE MOMENT
-------------
                                X             Y             Z
Electronic contribution:     -2.48101      -3.40806       0.85731
Nuclear contribution   :      3.48015       4.41684      -1.38252
                        -----------------------------------------
Total Dipole Moment    :      0.99914       1.00878      -0.52521
                        -----------------------------------------
Magnitude (a.u.)       :      1.51386
Magnitude (Debye)      :      3.84792

Rotational constants in cm-1:     0.165528     0.152820     0.148901
Rotational constants in MHz :  4962.404710  4581.429620  4463.925994

                             ****ORCA TERMINATED NORMALLY****
TOTAL RUN TIME: 0 days 0 hours 1 minutes 5 seconds 888 msec
