                         Program Version 5.0.3 -  RELEASE  -
|  1> ! PBEh-3c def2/J TightSCF DefGrid3
|  2>
|  3> %maxcore 60000
|  4>
|  5> %pal
|  6> nprocs 4
|  7> end
|  8>
|  9> *xyzfile 0 1 E5.xyz
| 10>
| 11>                          ****END OF INPUT****

CARTESIAN COORDINATES (ANGSTROEM)
---------------------------------
  C      0.000000   -1.274224   -0.584310
  C      0.000000    0.000000    0.217609
  C      0.000000    1.274224   -0.584310
  C      0.000000    0.000000    1.549636
  H      0.000000   -2.156561    0.056678
  H      0.878023   -1.324318   -1.237107
  H     -0.878023   -1.324318   -1.237107
  H      0.000000    2.156561    0.056678
  H      0.878023    1.324318   -1.237107
  H     -0.878023    1.324318   -1.237107
  H      0.000000   -0.923034    2.118224
  H      0.000000    0.923034    2.118224

 Total Charge           Charge          ....    0
 Multiplicity           Mult            ....    1
 Number of Electrons    NEL             ....   32
 Basis Dimension        Dim             ....   76

ORBITAL ENERGIES
----------------

  NO   OCC          E(Eh)            E(eV)
   0   2.0000     -10.452854      -284.4366
   1   2.0000     -10.429845      -283.8105
   2   2.0000     -10.429771      -283.8085
   3   2.0000     -10.422269      -283.6043
   4   2.0000      -0.898005       -24.4359
   5   2.0000      -0.774370       -21.0717
   6   2.0000      -0.760468       -20.6934
   7   2.0000      -0.589788       -16.0490
   8   2.0000      -0.511925       -13.9302
   9   2.0000      -0.502655       -13.6779
  10   2.0000      -0.487694       -13.2708
  11   2.0000      -0.438882       -11.9426
  12   2.0000      -0.423159       -11.5147
  13   2.0000      -0.417333       -11.3562
  14   2.0000      -0.388231       -10.5643
  15   2.0000      -0.286528        -7.7968
  16   0.0000       0.055787         1.5180
  17   0.0000       0.143030         3.8921
  18   0.0000       0.184495         5.0204
  19   0.0000       0.195934         5.3316
  20   0.0000       0.216515         5.8917

MULLIKEN ATOMIC CHARGES
-----------------------
   0 C :   -0.684411
   1 C :    0.143223
   2 C :   -0.684411
   3 C :   -0.522383
   4 H :    0.226777
   5 H :    0.220546
   6 H :    0.220546
   7 H :    0.226777
   8 H :    0.220546
   9 H :    0.220546
  10 H :    0.206120
  11 H :    0.206120
Sum of atomic charges:   -0.0000000

LOEWDIN ATOMIC CHARGES
----------------------
   0 C :   -0.350184
   1 C :   -0.061784
   2 C :   -0.350184
   3 C :   -0.292912
   4 H :    0.133487
   5 H :    0.133280
   6 H :    0.133280
   7 H :    0.133487
   8 H :    0.133280
   9 H :    0.133280
  10 H :    0.127484
  11 H :    0.127484

  Mayer bond orders larger than 0.100000
B(  0-C ,  1-C ) :   0.9814 B(  0-C ,  4-H ) :   0.9318 B(  0-C ,  5-H ) :   0.9168
B(  0-C ,  6-H ) :   0.9168 B(  1-C ,  2-C ) :   0.9814 B(  1-C ,  3-C ) :   1.8999
B(  2-C ,  7-H ) :   0.9318 B(  2-C ,  8-H ) :   0.9168 B(  2-C ,  9-H ) :   0.9168
B(  3-C , 10-H ) :   0.9311 B(  3-C , 11-H ) :   0.9311

Dispersion correction           -0.004434440
FINAL SINGLE POINT ENERGY      -156.874684936302

DIPOLE MOMENT
-------------
                                X             Y             Z
Electronic contribution:      0.00000      -0.00000       1.23227
Nuclear contribution   :      0.00000       0.00000      -1.44270
                        -----------------------------------------
Total Dipole Moment    :      0.00000      -0.00000      -0.21043
                        -----------------------------------------
Magnitude (a.u.)       :      0.21043
Magnitude (Debye)      :      0.53487

Rotational constants in cm-1:     0.305552     0.279672     0.154330
Rotational constants in MHz :  9160.223928  8384.350479  4626.709316

                             ****ORCA TERMINATED NORMALLY****
TOTAL RUN TIME: 0 days 0 hours 1 minutes 8 seconds 239 msec
