                         Program Version 5.0.3 -  RELEASE  -
|  1> ! PBEh-3c def2/J TightSCF DefGrid3
|  2>
|  3> %maxcore 60000
|  4>
|  5> %pal
|  6> nprocs 4
|  7> end
|  8>
|  9> *xyzfile -1 1 3b.xyz
| 10>
| 11>                          ****END OF INPUT****

CARTESIAN COORDINATES (ANGSTROEM)
---------------------------------
  H     -1.234161    0.366935   -4.972862
  O     -0.818493   -0.341691   -4.456781
  C     -1.687750   -0.658453   -3.359801
  H     -2.557130   -1.232404   -3.707658
  H     -2.046657    0.253632   -2.865276
  C     -0.924407   -1.460883   -2.331296
  H     -1.609897   -1.702299   -1.508203
  O     -0.439471   -2.708840   -2.914575
  C      0.809935   -3.063423   -2.346063
  H      0.764882   -4.068220   -1.923260
  N      1.849168   -3.104665   -3.421939
  C      1.691607   -2.438589   -4.610141
  H      0.760080   -1.889316   -4.704321
  C      2.627676   -2.473602   -5.593668
  H      2.468660   -1.942820   -6.523191
  C      3.842348   -3.230301   -5.415506
  O      4.768657   -3.349213   -6.226977
  N      3.913781   -3.882980   -4.174067
  H      4.743666   -4.442855   -3.996631
  C      2.985959   -3.867251   -3.155437
  O      3.137848   -4.474427   -2.095440
  C      0.334800   -0.803335   -1.759065
  H      0.859915   -0.243994   -2.538732
  C      1.146157   -2.013946   -1.280783
  H      2.221207   -1.823093   -1.214813
  O      0.629518   -2.461529   -0.024008
  H      0.280172   -1.651283    0.399640
  O      0.002089    0.048121   -0.662077
  P      0.697290    1.555615   -0.587196
  O      0.470768    2.240716   -1.902267
  O      2.063186    1.452169    0.015646
  O     -0.269242    2.168133    0.573345
  C     -1.661439    2.414176    0.268296
  H     -2.140646    1.484542   -0.056486
  H     -1.737683    3.158609   -0.531673
  C     -2.339078    2.931097    1.521382
  H     -3.355888    3.246704    1.266942
  O     -2.445438    1.845259    2.494828
  C     -1.797128    2.191816    3.708988
  H     -2.502308    2.480859    4.492224
  N     -1.106374    0.982794    4.195624
  C     -0.429002    0.185178    3.305206
  H     -0.480404    0.525918    2.277187
  C      0.236838   -0.932867    3.682523
  H      0.756789   -1.548765    2.960971
  C      0.270473   -1.312610    5.072753
  O      0.836149   -2.301928    5.553699
  N     -0.404191   -0.417005    5.915391
  H     -0.391558   -0.627893    6.910133
  C     -1.093439    0.727288    5.565932
  O     -1.638221    1.452995    6.394865
  C     -1.599658    4.071036    2.233928
  H     -0.935082    4.619285    1.563944
  C     -0.832010    3.347605    3.350527
  H      0.090534    2.924473    2.945237
  O     -0.495355    4.187086    4.437401
  H     -1.222560    4.841034    4.489213
  O     -2.517304    4.970266    2.885246
  H     -2.548178    5.797139    2.379121

 Total Charge           Charge          ....   -1
 Multiplicity           Mult            ....    1
 Number of Electrons    NEL             ....  286
 Basis Dimension        Dim             ....  602

ORBITAL ENERGIES
----------------

  NO   OCC          E(Eh)            E(eV)
   0   2.0000     -77.729056     -2115.1151
   1   2.0000     -19.454808      -529.3922
   2   2.0000     -19.442447      -529.0559
   3   2.0000     -19.441926      -529.0417
   4   2.0000     -19.430668      -528.7354
   5   2.0000     -19.418676      -528.4090
   6   2.0000     -19.408014      -528.1189
   7   2.0000     -19.407430      -528.1030
   8   2.0000     -19.400984      -527.9276
   9   2.0000     -19.398430      -527.8581
  10   2.0000     -19.395949      -527.7906
  11   2.0000     -19.389610      -527.6181
  12   2.0000     -19.383654      -527.4560
  13   2.0000     -19.289070      -524.8823
  14   2.0000     -19.279099      -524.6110
  15   2.0000     -14.632176      -398.1618
  16   2.0000     -14.629227      -398.0815
  17   2.0000     -14.616947      -397.7474
  18   2.0000     -14.612325      -397.6216
  19   2.0000     -10.523308      -286.3538
  20   2.0000     -10.521732      -286.3109
  21   2.0000     -10.488564      -285.4083
  22   2.0000     -10.481974      -285.2290
  23   2.0000     -10.464547      -284.7548
  24   2.0000     -10.463965      -284.7390
  25   2.0000     -10.440782      -284.1081
  26   2.0000     -10.437421      -284.0167
  27   2.0000     -10.434225      -283.9297
  28   2.0000     -10.430486      -283.8280
  29   2.0000     -10.424795      -283.6731
  30   2.0000     -10.423915      -283.6491
  31   2.0000     -10.423440      -283.6362
  32   2.0000     -10.414220      -283.3853
  33   2.0000     -10.413564      -283.3675
  34   2.0000     -10.410195      -283.2758
  35   2.0000     -10.374440      -282.3029
  36   2.0000     -10.367047      -282.1017
  37   2.0000      -6.773649      -184.3204
  38   2.0000      -4.868809      -132.4870
  39   2.0000      -4.867601      -132.4541
  40   2.0000      -4.864800      -132.3779
  41   2.0000      -1.112405       -30.2701
  42   2.0000      -1.111508       -30.2457
  43   2.0000      -1.097854       -29.8741
  44   2.0000      -1.093171       -29.7467
  45   2.0000      -1.079037       -29.3621
  46   2.0000      -1.065256       -28.9871
  47   2.0000      -1.063174       -28.9304
  48   2.0000      -1.057989       -28.7893
  49   2.0000      -1.057845       -28.7854
  50   2.0000      -1.048521       -28.5317
  51   2.0000      -1.037287       -28.2260
  52   2.0000      -1.014806       -27.6143
  53   2.0000      -0.997400       -27.1406
  54   2.0000      -0.996254       -27.1095
  55   2.0000      -0.949700       -25.8427
  56   2.0000      -0.945690       -25.7335
  57   2.0000      -0.917553       -24.9679
  58   2.0000      -0.872697       -23.7473
  59   2.0000      -0.813455       -22.1352
  60   2.0000      -0.809521       -22.0282
  61   2.0000      -0.801784       -21.8177
  62   2.0000      -0.790192       -21.5022
  63   2.0000      -0.769751       -20.9460
  64   2.0000      -0.765162       -20.8211
  65   2.0000      -0.697789       -18.9878
  66   2.0000      -0.694445       -18.8968
  67   2.0000      -0.688712       -18.7408
  68   2.0000      -0.685549       -18.6547
  69   2.0000      -0.645389       -17.5619
  70   2.0000      -0.642973       -17.4962
  71   2.0000      -0.614658       -16.7257
  72   2.0000      -0.604789       -16.4571
  73   2.0000      -0.597574       -16.2608
  74   2.0000      -0.588329       -16.0092
  75   2.0000      -0.560755       -15.2589
  76   2.0000      -0.557879       -15.1806
  77   2.0000      -0.552035       -15.0216
  78   2.0000      -0.549201       -14.9445
  79   2.0000      -0.537005       -14.6127
  80   2.0000      -0.532084       -14.4787
  81   2.0000      -0.524054       -14.2602
  82   2.0000      -0.509990       -13.8775
  83   2.0000      -0.500653       -13.6235
  84   2.0000      -0.496825       -13.5193
  85   2.0000      -0.492186       -13.3931
  86   2.0000      -0.483339       -13.1523
  87   2.0000      -0.473660       -12.8889
  88   2.0000      -0.467512       -12.7217
  89   2.0000      -0.466099       -12.6832
  90   2.0000      -0.465371       -12.6634
  91   2.0000      -0.453215       -12.3326
  92   2.0000      -0.444497       -12.0954
  93   2.0000      -0.442801       -12.0492
  94   2.0000      -0.438449       -11.9308
  95   2.0000      -0.432087       -11.7577
  96   2.0000      -0.429243       -11.6803
  97   2.0000      -0.422061       -11.4849
  98   2.0000      -0.420433       -11.4406
  99   2.0000      -0.418006       -11.3745
 100   2.0000      -0.409363       -11.1393
 101   2.0000      -0.406059       -11.0494
 102   2.0000      -0.403237       -10.9726
 103   2.0000      -0.401179       -10.9166
 104   2.0000      -0.394753       -10.7418
 105   2.0000      -0.389942       -10.6109
 106   2.0000      -0.387754       -10.5513
 107   2.0000      -0.382476       -10.4077
 108   2.0000      -0.381526       -10.3819
 109   2.0000      -0.371663       -10.1135
 110   2.0000      -0.368008       -10.0140
 111   2.0000      -0.362989        -9.8774
 112   2.0000      -0.354938        -9.6584
 113   2.0000      -0.350421        -9.5354
 114   2.0000      -0.345916        -9.4128
 115   2.0000      -0.335452        -9.1281
 116   2.0000      -0.331815        -9.0292
 117   2.0000      -0.329469        -8.9653
 118   2.0000      -0.320693        -8.7265
 119   2.0000      -0.315660        -8.5895
 120   2.0000      -0.315202        -8.5771
 121   2.0000      -0.299553        -8.1512
 122   2.0000      -0.292950        -7.9716
 123   2.0000      -0.281478        -7.6594
 124   2.0000      -0.276443        -7.5224
 125   2.0000      -0.274537        -7.4705
 126   2.0000      -0.270976        -7.3736
 127   2.0000      -0.263649        -7.1742
 128   2.0000      -0.261871        -7.1259
 129   2.0000      -0.256545        -6.9809
 130   2.0000      -0.255678        -6.9574
 131   2.0000      -0.251962        -6.8562
 132   2.0000      -0.250347        -6.8123
 133   2.0000      -0.247544        -6.7360
 134   2.0000      -0.241036        -6.5589
 135   2.0000      -0.237888        -6.4733
 136   2.0000      -0.234739        -6.3876
 137   2.0000      -0.212674        -5.7871
 138   2.0000      -0.204555        -5.5662
 139   2.0000      -0.201472        -5.4823
 140   2.0000      -0.195957        -5.3323
 141   2.0000      -0.175438        -4.7739
 142   2.0000      -0.159584        -4.3425
 143   0.0000       0.067241         1.8297
 144   0.0000       0.072298         1.9673
 145   0.0000       0.119480         3.2512
 146   0.0000       0.124396         3.3850
 147   0.0000       0.155046         4.2190

MULLIKEN ATOMIC CHARGES
-----------------------
   0 H :    0.428188
   1 O :   -0.633622
   2 C :   -0.170938
   3 H :    0.192441
   4 H :    0.215477
   5 C :    0.042589
   6 H :    0.225366
   7 O :   -0.503260
   8 C :    0.193426
   9 H :    0.276369
  10 N :   -0.575525
  11 C :    0.074356
  12 H :    0.336314
  13 C :   -0.483955
  14 H :    0.244166
  15 C :    0.560694
  16 O :   -0.434395
  17 N :   -0.732123
  18 H :    0.387962
  19 C :    0.718488
  20 O :   -0.442715
  21 C :   -0.042869
  22 H :    0.277502
  23 C :   -0.006325
  24 H :    0.258139
  25 O :   -0.653825
  26 H :    0.437895
  27 O :   -0.660842
  28 P :    1.366779
  29 O :   -0.748033
  30 O :   -0.703773
  31 O :   -0.613332
  32 C :   -0.162977
  33 H :    0.217480
  34 H :    0.215466
  35 C :    0.012125
  36 H :    0.220126
  37 O :   -0.493358
  38 C :    0.199195
  39 H :    0.259516
  40 N :   -0.570707
  41 C :    0.089579
  42 H :    0.330313
  43 C :   -0.491771
  44 H :    0.274929
  45 C :    0.562356
  46 O :   -0.428643
  47 N :   -0.735109
  48 H :    0.384945
  49 C :    0.722968
  50 O :   -0.450679
  51 C :   -0.088038
  52 H :    0.259098
  53 C :   -0.010492
  54 H :    0.298265
  55 O :   -0.628636
  56 H :    0.417480
  57 O :   -0.659750
  58 H :    0.425702
Sum of atomic charges:   -1.0000000

LOEWDIN ATOMIC CHARGES
----------------------
   0 H :    0.317048
   1 O :   -0.411938
   2 C :   -0.092111
   3 H :    0.106327
   4 H :    0.124032
   5 C :   -0.014847
   6 H :    0.126435
   7 O :   -0.241190
   8 C :    0.082661
   9 H :    0.145746
  10 N :   -0.093514
  11 C :   -0.000539
  12 H :    0.171763
  13 C :   -0.261369
  14 H :    0.155624
  15 C :    0.126441
  16 O :   -0.286701
  17 N :   -0.200423
  18 H :    0.282140
  19 C :    0.159765
  20 O :   -0.281896
  21 C :   -0.034266
  22 H :    0.149569
  23 C :   -0.028589
  24 H :    0.132676
  25 O :   -0.403736
  26 H :    0.314341
  27 O :   -0.360498
  28 P :    0.801793
  29 O :   -0.614672
  30 O :   -0.592393
  31 O :   -0.353189
  32 C :   -0.091742
  33 H :    0.121897
  34 H :    0.123531
  35 C :   -0.018272
  36 H :    0.124206
  37 O :   -0.245391
  38 C :    0.069375
  39 H :    0.139170
  40 N :   -0.087472
  41 C :    0.003792
  42 H :    0.171626
  43 C :   -0.245986
  44 H :    0.167588
  45 C :    0.126631
  46 O :   -0.280099
  47 N :   -0.202698
  48 H :    0.280394
  49 C :    0.163603
  50 O :   -0.290593
  51 C :   -0.037297
  52 H :    0.134310
  53 C :   -0.044203
  54 H :    0.156381
  55 O :   -0.383805
  56 H :    0.309235
  57 O :   -0.406754
  58 H :    0.318083

  Mayer bond orders larger than 0.100000
B(  0-H ,  1-O ) :   0.7839 B(  1-O ,  2-C ) :   0.9947 B(  2-C ,  3-H ) :   0.9002
B(  2-C ,  4-H ) :   0.8912 B(  2-C ,  5-C ) :   0.9765 B(  5-C ,  6-H ) :   0.8908
B(  5-C ,  7-O ) :   0.9095 B(  5-C , 21-C ) :   0.9164 B(  7-O ,  8-C ) :   1.0031
B(  8-C ,  9-H ) :   0.8779 B(  8-C , 10-N ) :   0.8356 B(  8-C , 23-C ) :   0.9182
B( 10-N , 11-C ) :   1.0920 B( 10-N , 19-C ) :   1.0296 B( 11-C , 12-H ) :   0.8227
B( 11-C , 13-C ) :   1.5837 B( 13-C , 14-H ) :   0.9199 B( 13-C , 15-C ) :   1.0831
B( 15-C , 16-O ) :   1.9969 B( 15-C , 17-N ) :   0.9831 B( 17-N , 18-H ) :   0.8045
B( 17-N , 19-C ) :   1.0649 B( 19-C , 20-O ) :   1.9649 B( 21-C , 22-H ) :   0.8473
B( 21-C , 23-C ) :   0.9435 B( 21-C , 27-O ) :   0.9257 B( 23-C , 24-H ) :   0.8961
B( 23-C , 25-O ) :   1.0047 B( 25-O , 26-H ) :   0.7328 B( 27-O , 28-P ) :   0.7829
B( 28-P , 29-O ) :   1.7016 B( 28-P , 30-O ) :   1.8105 B( 28-P , 31-O ) :   0.8485
B( 31-O , 32-C ) :   0.9314 B( 32-C , 33-H ) :   0.8948 B( 32-C , 34-H ) :   0.8917
B( 32-C , 35-C ) :   0.9420 B( 35-C , 36-H ) :   0.9045 B( 35-C , 37-O ) :   0.9301
B( 35-C , 51-C ) :   0.9254 B( 37-O , 38-C ) :   0.9808 B( 38-C , 39-H ) :   0.8729
B( 38-C , 40-N ) :   0.8997 B( 38-C , 53-C ) :   0.8870 B( 40-N , 41-C ) :   1.0603
B( 40-N , 49-C ) :   1.0277 B( 41-C , 42-H ) :   0.8326 B( 41-C , 43-C ) :   1.6026
B( 43-C , 44-H ) :   0.9018 B( 43-C , 45-C ) :   1.0780 B( 45-C , 46-O ) :   1.9993
B( 45-C , 47-N ) :   0.9818 B( 47-N , 48-H ) :   0.8065 B( 47-N , 49-C ) :   1.0632
B( 49-C , 50-O ) :   1.9663 B( 51-C , 52-H ) :   0.8943 B( 51-C , 53-C ) :   0.9472
B( 51-C , 57-O ) :   0.9525 B( 53-C , 54-H ) :   0.8687 B( 53-C , 55-O ) :   1.0485
B( 55-O , 56-H ) :   0.7571 B( 57-O , 58-H ) :   0.7883

Dispersion correction           -0.046782843
FINAL SINGLE POINT ENERGY     -2308.305349068097

DIPOLE MOMENT
-------------
                                X             Y             Z
Electronic contribution:     10.52687      -7.42718       5.30265
Nuclear contribution   :    -14.95343       9.02328      -6.27144
                        -----------------------------------------
Total Dipole Moment    :     -4.42657       1.59610      -0.96878
                        -----------------------------------------
Magnitude (a.u.)       :      4.80423
Magnitude (Debye)      :     12.21137

Rotational constants in cm-1:     0.005850     0.001628     0.001408
Rotational constants in MHz :   175.371504    48.801795    42.215739

                             ****ORCA TERMINATED NORMALLY****
TOTAL RUN TIME: 0 days 0 hours 14 minutes 35 seconds 3 msec
