                         Program Version 5.0.3 -  RELEASE  -
|  1> ! PBEh-3c def2/J TightSCF DefGrid3
|  2>
|  3> %maxcore 60000
|  4>
|  5> %pal
|  6> nprocs 4
|  7> end
|  8>
|  9> *xyzfile 0 1 5b.xyz
| 10>
| 11>                          ****END OF INPUT****

CARTESIAN COORDINATES (ANGSTROEM)
---------------------------------
  P      0.207821   -1.767449    0.000000
  Cl    -1.091282   -1.967620    1.582561
  Cl    -1.091282   -1.967620   -1.582561
  Cl     1.091282   -3.623722    0.000000

 Total Charge           Charge          ....    0
 Multiplicity           Mult            ....    1
 Number of Electrons    NEL             ....   66
 Basis Dimension        Dim             ....   72

ORBITAL ENERGIES
----------------

  NO   OCC          E(Eh)            E(eV)
   0   2.0000    -102.328297     -2784.4945
   1   2.0000    -102.328079     -2784.4886
   2   2.0000    -102.328071     -2784.4884
   3   2.0000     -77.884717     -2119.3509
   4   2.0000      -9.796752      -266.5832
   5   2.0000      -9.796504      -266.5764
   6   2.0000      -9.796495      -266.5762
   7   2.0000      -7.483638      -203.6401
   8   2.0000      -7.483393      -203.6335
   9   2.0000      -7.483389      -203.6334
  10   2.0000      -7.476317      -203.4409
  11   2.0000      -7.476063      -203.4340
  12   2.0000      -7.476052      -203.4337
  13   2.0000      -7.475983      -203.4318
  14   2.0000      -7.475744      -203.4253
  15   2.0000      -7.475737      -203.4251
  16   2.0000      -6.950882      -189.1431
  17   2.0000      -5.040574      -137.1610
  18   2.0000      -5.040572      -137.1609
  19   2.0000      -5.037603      -137.0802
  20   2.0000      -1.003788       -27.3145
  21   2.0000      -0.934390       -25.4260
  22   2.0000      -0.934144       -25.4194
  23   2.0000      -0.683040       -18.5865
  24   2.0000      -0.516405       -14.0521
  25   2.0000      -0.516284       -14.0488
  26   2.0000      -0.476297       -12.9607
  27   2.0000      -0.423469       -11.5232
  28   2.0000      -0.423410       -11.5216
  29   2.0000      -0.389586       -10.6012
  30   2.0000      -0.389495       -10.5987
  31   2.0000      -0.379641       -10.3306
  32   2.0000      -0.334979        -9.1153
  33   0.0000      -0.023059        -0.6275
  34   0.0000      -0.022883        -0.6227
  35   0.0000      -0.015838        -0.4310
  36   0.0000       0.274778         7.4771
  37   0.0000       0.392490        10.6802

MULLIKEN ATOMIC CHARGES
-----------------------
   0 P :    0.613843
   1 Cl:   -0.204836
   2 Cl:   -0.204836
   3 Cl:   -0.204170
Sum of atomic charges:    0.0000000

LOEWDIN ATOMIC CHARGES
----------------------
   0 P :    0.288542
   1 Cl:   -0.096517
   2 Cl:   -0.096517
   3 Cl:   -0.095508

  Mayer bond orders larger than 0.100000
B(  0-P ,  1-Cl) :   1.0411 B(  0-P ,  2-Cl) :   1.0411 B(  0-P ,  3-Cl) :   1.0421

Dispersion correction           -0.002550251
FINAL SINGLE POINT ENERGY     -1720.121534282471

DIPOLE MOMENT
-------------
                                X             Y             Z
Electronic contribution:      0.06920       0.08607      -0.00000
Nuclear contribution   :      0.12357       0.16262       0.00000
                        -----------------------------------------
Total Dipole Moment    :      0.19277       0.24869      -0.00000
                        -----------------------------------------
Magnitude (a.u.)       :      0.31465
Magnitude (Debye)      :      0.79978

Rotational constants in cm-1:     0.084787     0.084714     0.047487
Rotational constants in MHz :  2541.858871  2539.673661  1423.616261

                             ****ORCA TERMINATED NORMALLY****
TOTAL RUN TIME: 0 days 0 hours 1 minutes 16 seconds 58 msec
