                         Program Version 5.0.3 -  RELEASE  -
|  1> ! PBEh-3c def2/J TightSCF DefGrid3
|  2>
|  3> %maxcore 60000
|  4>
|  5> %pal
|  6> nprocs 4
|  7> end
|  8>
|  9> *xyzfile 0 1 CYS_xai.xyz
| 10>
| 11>                          ****END OF INPUT****

CARTESIAN COORDINATES (ANGSTROEM)
---------------------------------
  N     -1.351539   -0.675682    0.200759
  C     -0.124024   -0.028947   -0.176502
  C      0.983641   -1.072067   -0.025567
  O      0.754802   -2.184988    0.445201
  C      0.109036    1.209220    0.703711
  S      1.309742    2.399115    0.028528
  H     -1.253382   -1.618293    0.550669
  H     -0.193175    0.300818   -1.215723
  H     -0.841297    1.718869    0.830644
  H      0.485664    0.916589    1.683464
  C     -2.546231   -0.152842   -0.177833
  O     -2.626555    0.931296   -0.748748
  N      2.204537   -0.682910   -0.437946
  C      3.350753   -1.552792   -0.267612
  H      4.181449   -1.152707   -0.840431
  H      3.641841   -1.635826    0.778937
  H      3.107072   -2.547216   -0.630511
  H      2.330710    0.285889   -0.691325
  C     -3.758155   -0.985819    0.155565
  H     -4.465126   -0.367778    0.702889
  H     -3.518414   -1.869514    0.741026
  H     -4.235555   -1.288361   -0.773944
  H      0.535006    2.796743   -0.987619

 Total Charge           Charge          ....    0
 Multiplicity           Mult            ....    1
 Number of Electrons    NEL             ....   94
 Basis Dimension        Dim             ....  192

ORBITAL ENERGIES
----------------

  NO   OCC          E(Eh)            E(eV)
   0   2.0000     -89.595471     -2438.0167
   1   2.0000     -19.472924      -529.8852
   2   2.0000     -19.457364      -529.4618
   3   2.0000     -14.668387      -399.1471
   4   2.0000     -14.661572      -398.9616
   5   2.0000     -10.557555      -287.2857
   6   2.0000     -10.550243      -287.0867
   7   2.0000     -10.501136      -285.7504
   8   2.0000     -10.484819      -285.3064
   9   2.0000     -10.472834      -284.9803
  10   2.0000     -10.441975      -284.1406
  11   2.0000      -8.236252      -224.1198
  12   2.0000      -6.127218      -166.7301
  13   2.0000      -6.124003      -166.6426
  14   2.0000      -6.118829      -166.5018
  15   2.0000      -1.159284       -31.5457
  16   2.0000      -1.142191       -31.0806
  17   2.0000      -1.031917       -28.0799
  18   2.0000      -1.029424       -28.0121
  19   2.0000      -0.907441       -24.6927
  20   2.0000      -0.844637       -22.9837
  21   2.0000      -0.815753       -22.1978
  22   2.0000      -0.776222       -21.1221
  23   2.0000      -0.714622       -19.4459
  24   2.0000      -0.669003       -18.2045
  25   2.0000      -0.655012       -17.8238
  26   2.0000      -0.612657       -16.6713
  27   2.0000      -0.557584       -15.1726
  28   2.0000      -0.544505       -14.8167
  29   2.0000      -0.534253       -14.5378
  30   2.0000      -0.522435       -14.2162
  31   2.0000      -0.520243       -14.1565
  32   2.0000      -0.507049       -13.7975
  33   2.0000      -0.491654       -13.3786
  34   2.0000      -0.473139       -12.8748
  35   2.0000      -0.464728       -12.6459
  36   2.0000      -0.458952       -12.4887
  37   2.0000      -0.453044       -12.3279
  38   2.0000      -0.438684       -11.9372
  39   2.0000      -0.430581       -11.7167
  40   2.0000      -0.408065       -11.1040
  41   2.0000      -0.390726       -10.6322
  42   2.0000      -0.328947        -8.9511
  43   2.0000      -0.323494        -8.8027
  44   2.0000      -0.309251        -8.4152
  45   2.0000      -0.305930        -8.3248
  46   2.0000      -0.296987        -8.0814
  47   0.0000       0.040333         1.0975
  48   0.0000       0.058531         1.5927
  49   0.0000       0.068721         1.8700
  50   0.0000       0.105778         2.8784
  51   0.0000       0.140227         3.8158

MULLIKEN ATOMIC CHARGES
-----------------------
   0 N :   -0.644527
   1 C :   -0.159607
   2 C :    0.541554
   3 O :   -0.446271
   4 C :   -0.567101
   5 S :   -0.199029
   6 H :    0.388751
   7 H :    0.269598
   8 H :    0.312863
   9 H :    0.269477
  10 C :    0.524898
  11 O :   -0.446855
  12 N :   -0.634069
  13 C :   -0.489234
  14 H :    0.222089
  15 H :    0.230706
  16 H :    0.249810
  17 H :    0.383366
  18 C :   -0.747110
  19 H :    0.258141
  20 H :    0.221694
  21 H :    0.256963
  22 H :    0.203895
Sum of atomic charges:   -0.0000000

LOEWDIN ATOMIC CHARGES
----------------------
   0 N :   -0.228617
   1 C :   -0.109442
   2 C :    0.110539
   3 O :   -0.288064
   4 C :   -0.337011
   5 S :   -0.008403
   6 H :    0.270651
   7 H :    0.145166
   8 H :    0.159331
   9 H :    0.145378
  10 C :    0.107017
  11 O :   -0.293146
  12 N :   -0.241938
  13 C :   -0.250978
  14 H :    0.128590
  15 H :    0.126532
  16 H :    0.141452
  17 H :    0.250913
  18 C :   -0.386438
  19 H :    0.156757
  20 H :    0.132026
  21 H :    0.157238
  22 H :    0.112447

  Mayer bond orders larger than 0.100000
B(  0-N ,  1-C ) :   0.9479 B(  0-N ,  6-H ) :   0.7674 B(  0-N , 10-C ) :   1.1515
B(  1-C ,  2-C ) :   0.9170 B(  1-C ,  4-C ) :   0.8943 B(  1-C ,  7-H ) :   0.8804
B(  2-C ,  3-O ) :   1.9400 B(  2-C , 12-N ) :   1.1838 B(  4-C ,  5-S ) :   1.0159
B(  4-C ,  8-H ) :   0.8666 B(  4-C ,  9-H ) :   0.8910 B(  5-S , 22-H ) :   0.9129
B( 10-C , 11-O ) :   1.9483 B( 10-C , 18-C ) :   0.9298 B( 12-N , 13-C ) :   0.9518
B( 12-N , 17-H ) :   0.7677 B( 13-C , 14-H ) :   0.9257 B( 13-C , 15-H ) :   0.9152
B( 13-C , 16-H ) :   0.9114 B( 18-C , 19-H ) :   0.9111 B( 18-C , 20-H ) :   0.9198
B( 18-C , 21-H ) :   0.9091

Dispersion correction           -0.013513336
FINAL SINGLE POINT ENERGY      -892.534736956329

DIPOLE MOMENT
-------------
                                X             Y             Z
Electronic contribution:      0.81543       4.20841      -0.42492
Nuclear contribution   :     -0.26729      -4.42783       0.42463
                        -----------------------------------------
Total Dipole Moment    :      0.54814      -0.21942      -0.00029
                        -----------------------------------------
Magnitude (a.u.)       :      0.59042
Magnitude (Debye)      :      1.50073

Rotational constants in cm-1:     0.039782     0.021196     0.014623
Rotational constants in MHz :  1192.620905   635.441339   438.392495

                             ****ORCA TERMINATED NORMALLY****
TOTAL RUN TIME: 0 days 0 hours 2 minutes 10 seconds 846 msec
