                         Program Version 5.0.3 -  RELEASE  -
|  1> ! PBEh-3c def2/J TightSCF DefGrid3
|  2>
|  3> %maxcore 60000
|  4>
|  5> %pal
|  6> nprocs 4
|  7> end
|  8>
|  9> *xyzfile 0 1 p2.xyz
| 10>
| 11>                          ****END OF INPUT****

CARTESIAN COORDINATES (ANGSTROEM)
---------------------------------
  C      0.663041    0.000000    0.000000
  C     -0.663041    0.000000    0.000000
  H      1.233862    0.921821    0.000000
  H      1.233862   -0.921821    0.000000
  H     -1.233862   -0.921821    0.000000
  H     -1.233862    0.921821    0.000000

 Total Charge           Charge          ....    0
 Multiplicity           Mult            ....    1
 Number of Electrons    NEL             ....   16
 Basis Dimension        Dim             ....   38

ORBITAL ENERGIES
----------------

  NO   OCC          E(Eh)            E(eV)
   0   2.0000     -10.440763      -284.1076
   1   2.0000     -10.439771      -284.0806
   2   2.0000      -0.850052       -23.1311
   3   2.0000      -0.651330       -17.7236
   4   2.0000      -0.530517       -14.4361
   5   2.0000      -0.479176       -13.0390
   6   2.0000      -0.407230       -11.0813
   7   2.0000      -0.317302        -8.6342
   8   0.0000       0.040823         1.1108
   9   0.0000       0.169679         4.6172
  10   0.0000       0.194879         5.3029
  11   0.0000       0.209616         5.7039
  12   0.0000       0.319710         8.6997

MULLIKEN ATOMIC CHARGES
-----------------------
   0 C :   -0.429309
   1 C :   -0.429309
   2 H :    0.214655
   3 H :    0.214655
   4 H :    0.214655
   5 H :    0.214655
Sum of atomic charges:   -0.0000000

LOEWDIN ATOMIC CHARGES
----------------------
   0 C :   -0.260123
   1 C :   -0.260123
   2 H :    0.130062
   3 H :    0.130062
   4 H :    0.130062
   5 H :    0.130062

  Mayer bond orders larger than 0.100000
B(  0-C ,  1-C ) :   1.9827 B(  0-C ,  2-H ) :   0.9299 B(  0-C ,  3-H ) :   0.9299
B(  1-C ,  4-H ) :   0.9299 B(  1-C ,  5-H ) :   0.9299

Dispersion correction           -0.001301509
FINAL SINGLE POINT ENERGY       -78.405403285554

DIPOLE MOMENT
-------------
                                X             Y             Z
Electronic contribution:     -0.00000      -0.00000      -0.00000
Nuclear contribution   :      0.00000       0.00000       0.00000
                        -----------------------------------------
Total Dipole Moment    :     -0.00000      -0.00000      -0.00000
                        -----------------------------------------
Magnitude (a.u.)       :      0.00000
Magnitude (Debye)      :      0.00000

Rotational constants in cm-1:     4.920199     1.009499     0.837637
Rotational constants in MHz : 147503.869792 30264.007036 25111.725655

                             ****ORCA TERMINATED NORMALLY****
TOTAL RUN TIME: 0 days 0 hours 0 minutes 25 seconds 686 msec
