                         Program Version 5.0.3 -  RELEASE  -
|  1> ! PBEh-3c def2/J TightSCF DefGrid3
|  2>
|  3> %maxcore 60000
|  4>
|  5> %pal
|  6> nprocs 4
|  7> end
|  8>
|  9> *xyzfile 0 1 r16.xyz
| 10>
| 11>                          ****END OF INPUT****

CARTESIAN COORDINATES (ANGSTROEM)
---------------------------------
  C      2.824473   -1.364737   -0.019894
  C      4.197368   -0.911109    0.466283
  C      4.568679    0.438038   -0.140223
  C      3.497338    1.478499    0.167914
  C      2.124434    1.016879   -0.314484
  C      1.736545   -0.335190    0.282431
  C      0.379930   -0.825045   -0.217486
  C     -0.802336    0.055913    0.168476
  C     -2.140580   -0.543248   -0.245865
  C     -3.329406    0.334233    0.122176
  C     -4.668458   -0.265645   -0.286142
  C     -5.845819    0.624854    0.088724
  H      2.557686   -2.323627    0.430365
  H      2.860386   -1.523445   -1.103414
  H      4.180094   -0.821077    1.556436
  H      4.952050   -1.660448    0.222344
  H      4.661577    0.329599   -1.224950
  H      5.539908    0.769375    0.230274
  H      3.458799    1.642339    1.248970
  H      3.753557    2.436349   -0.287593
  H      2.137020    0.921476   -1.406422
  H      1.374314    1.770322   -0.070914
  H      1.676888   -0.218379    1.372366
  H      0.207482   -1.832912    0.172848
  H      0.420648   -0.920866   -1.307881
  H     -0.796766    0.212257    1.251570
  H     -0.701842    1.042746   -0.288070
  H     -2.257352   -1.525082    0.221792
  H     -2.139222   -0.715222   -1.326162
  H     -3.327897    0.510793    1.201790
  H     -3.215131    1.314597   -0.349507
  H     -4.780904   -1.244271    0.185929
  H     -4.667544   -0.441912   -1.364176
  H     -5.876935    0.791654    1.165331
  H     -6.795839    0.183778   -0.208841
  H     -5.763143    1.598517   -0.393992

 Total Charge           Charge          ....    0
 Multiplicity           Mult            ....    1
 Number of Electrons    NEL             ....   96
 Basis Dimension        Dim             ....  228

ORBITAL ENERGIES
----------------

  NO   OCC          E(Eh)            E(eV)
   0   2.0000     -10.431052      -283.8434
   1   2.0000     -10.426366      -283.7158
   2   2.0000     -10.424621      -283.6684
   3   2.0000     -10.424425      -283.6630
   4   2.0000     -10.424351      -283.6610
   5   2.0000     -10.424292      -283.6594
   6   2.0000     -10.424168      -283.6560
   7   2.0000     -10.423926      -283.6494
   8   2.0000     -10.423373      -283.6344
   9   2.0000     -10.423067      -283.6261
  10   2.0000     -10.422935      -283.6225
  11   2.0000     -10.418489      -283.5015
  12   2.0000      -0.930455       -25.3190
  13   2.0000      -0.897524       -24.4229
  14   2.0000      -0.866224       -23.5712
  15   2.0000      -0.828904       -22.5556
  16   2.0000      -0.822334       -22.3768
  17   2.0000      -0.776064       -21.1178
  18   2.0000      -0.716148       -19.4874
  19   2.0000      -0.680754       -18.5243
  20   2.0000      -0.663527       -18.0555
  21   2.0000      -0.644151       -17.5282
  22   2.0000      -0.636187       -17.3115
  23   2.0000      -0.617412       -16.8006
  24   2.0000      -0.541771       -14.7423
  25   2.0000      -0.533876       -14.5275
  26   2.0000      -0.512996       -13.9593
  27   2.0000      -0.494367       -13.4524
  28   2.0000      -0.493232       -13.4215
  29   2.0000      -0.487984       -13.2787
  30   2.0000      -0.477780       -13.0011
  31   2.0000      -0.464570       -12.6416
  32   2.0000      -0.452080       -12.3017
  33   2.0000      -0.438578       -11.9343
  34   2.0000      -0.425816       -11.5870
  35   2.0000      -0.420283       -11.4365
  36   2.0000      -0.411023       -11.1845
  37   2.0000      -0.401054       -10.9132
  38   2.0000      -0.386900       -10.5281
  39   2.0000      -0.385440       -10.4884
  40   2.0000      -0.378485       -10.2991
  41   2.0000      -0.371705       -10.1146
  42   2.0000      -0.368390       -10.0244
  43   2.0000      -0.366388        -9.9699
  44   2.0000      -0.361789        -9.8448
  45   2.0000      -0.356444        -9.6993
  46   2.0000      -0.334441        -9.1006
  47   2.0000      -0.327959        -8.9242
  48   0.0000       0.132992         3.6189
  49   0.0000       0.139253         3.7893
  50   0.0000       0.150477         4.0947
  51   0.0000       0.156205         4.2506
  52   0.0000       0.165809         4.5119

MULLIKEN ATOMIC CHARGES
-----------------------
   0 C :   -0.400708
   1 C :   -0.420306
   2 C :   -0.418387
   3 C :   -0.417184
   4 C :   -0.411073
   5 C :   -0.222728
   6 C :   -0.386756
   7 C :   -0.410847
   8 C :   -0.398689
   9 C :   -0.395985
  10 C :   -0.410460
  11 C :   -0.639263
  12 H :    0.214083
  13 H :    0.196299
  14 H :    0.200966
  15 H :    0.217638
  16 H :    0.200699
  17 H :    0.217954
  18 H :    0.201237
  19 H :    0.217704
  20 H :    0.195178
  21 H :    0.221990
  22 H :    0.194562
  23 H :    0.205128
  24 H :    0.196714
  25 H :    0.200057
  26 H :    0.206526
  27 H :    0.200327
  28 H :    0.200928
  29 H :    0.199827
  30 H :    0.199632
  31 H :    0.204589
  32 H :    0.204628
  33 H :    0.208663
  34 H :    0.218395
  35 H :    0.208663
Sum of atomic charges:   -0.0000000

LOEWDIN ATOMIC CHARGES
----------------------
   0 C :   -0.230781
   1 C :   -0.238806
   2 C :   -0.240005
   3 C :   -0.238169
   4 C :   -0.232709
   5 C :   -0.152445
   6 C :   -0.228533
   7 C :   -0.238189
   8 C :   -0.236974
   9 C :   -0.239682
  10 C :   -0.245755
  11 C :   -0.362037
  12 H :    0.122260
  13 H :    0.118082
  14 H :    0.118251
  15 H :    0.123156
  16 H :    0.118002
  17 H :    0.122716
  18 H :    0.118480
  19 H :    0.123111
  20 H :    0.117681
  21 H :    0.123482
  22 H :    0.115808
  23 H :    0.120544
  24 H :    0.119019
  25 H :    0.118851
  26 H :    0.119559
  27 H :    0.118441
  28 H :    0.119185
  29 H :    0.118430
  30 H :    0.118322
  31 H :    0.119241
  32 H :    0.119279
  33 H :    0.123239
  34 H :    0.125706
  35 H :    0.123238

  Mayer bond orders larger than 0.100000
B(  0-C ,  1-C ) :   0.9897 B(  0-C ,  5-C ) :   0.9836 B(  0-C , 12-H ) :   0.9252
B(  0-C , 13-H ) :   0.9153 B(  1-C ,  2-C ) :   0.9870 B(  1-C , 14-H ) :   0.9181
B(  1-C , 15-H ) :   0.9268 B(  2-C ,  3-C ) :   0.9879 B(  2-C , 16-H ) :   0.9180
B(  2-C , 17-H ) :   0.9268 B(  3-C ,  4-C ) :   0.9887 B(  3-C , 18-H ) :   0.9178
B(  3-C , 19-H ) :   0.9271 B(  4-C ,  5-C ) :   0.9713 B(  4-C , 20-H ) :   0.9157
B(  4-C , 21-H ) :   0.9215 B(  5-C ,  6-C ) :   0.9929 B(  5-C , 22-H ) :   0.9050
B(  6-C ,  7-C ) :   0.9913 B(  6-C , 23-H ) :   0.9222 B(  6-C , 24-H ) :   0.9155
B(  7-C ,  8-C ) :   0.9948 B(  7-C , 25-H ) :   0.9191 B(  7-C , 26-H ) :   0.9152
B(  8-C ,  9-C ) :   0.9965 B(  8-C , 27-H ) :   0.9186 B(  8-C , 28-H ) :   0.9185
B(  9-C , 10-C ) :   0.9917 B(  9-C , 29-H ) :   0.9185 B(  9-C , 30-H ) :   0.9185
B( 10-C , 11-C ) :   0.9988 B( 10-C , 31-H ) :   0.9206 B( 10-C , 32-H ) :   0.9206
B( 11-C , 33-H ) :   0.9297 B( 11-C , 34-H ) :   0.9324 B( 11-C , 35-H ) :   0.9297

Dispersion correction           -0.020110628
FINAL SINGLE POINT ENERGY      -470.732723463624

DIPOLE MOMENT
-------------
                                X             Y             Z
Electronic contribution:      6.14002      -0.71898       0.18421
Nuclear contribution   :     -6.12667       0.71471      -0.17330
                        -----------------------------------------
Total Dipole Moment    :      0.01335      -0.00427       0.01091
                        -----------------------------------------
Magnitude (a.u.)       :      0.01777
Magnitude (Debye)      :      0.04516

Rotational constants in cm-1:     0.104163     0.008309     0.007905
Rotational constants in MHz :  3122.719769   249.106142   236.978349

                             ****ORCA TERMINATED NORMALLY****
TOTAL RUN TIME: 0 days 0 hours 2 minutes 41 seconds 771 msec
