                         Program Version 5.0.3 -  RELEASE  -
|  1> ! PBEh-3c def2/J TightSCF DefGrid3
|  2>
|  3> %maxcore 60000
|  4>
|  5> %pal
|  6> nprocs 4
|  7> end
|  8>
|  9> *xyzfile 0 1 E2.xyz
| 10>
| 11>                          ****END OF INPUT****

CARTESIAN COORDINATES (ANGSTROEM)
---------------------------------
  C      0.006158    0.719254    0.000000
  C     -1.196024    0.004143    0.000000
  C     -1.202749   -1.385894    0.000000
  C     -0.002144   -2.092183    0.000000
  C      1.200299   -1.394512    0.000000
  C      1.201340   -0.001512    0.000000
  C      0.002475    2.228046    0.000000
  H     -2.137345    0.543949    0.000000
  H     -2.146058   -1.919732    0.000000
  H     -0.005946   -3.175628    0.000000
  H      2.141013   -1.932810    0.000000
  H      2.145291    0.532732    0.000000
  H      1.017714    2.627247    0.000000
  H     -0.512012    2.623450   -0.880284
  H     -0.512012    2.623450    0.880284

 Total Charge           Charge          ....    0
 Multiplicity           Mult            ....    1
 Number of Electrons    NEL             ....   50
 Basis Dimension        Dim             ....  121

ORBITAL ENERGIES
----------------

  NO   OCC          E(Eh)            E(eV)
   0   2.0000     -10.456225      -284.5283
   1   2.0000     -10.445467      -284.2356
   2   2.0000     -10.445109      -284.2259
   3   2.0000     -10.443022      -284.1691
   4   2.0000     -10.442822      -284.1636
   5   2.0000     -10.442658      -284.1592
   6   2.0000     -10.434732      -283.9435
   7   2.0000      -0.953835       -25.9552
   8   2.0000      -0.861475       -23.4419
   9   2.0000      -0.832242       -22.6465
  10   2.0000      -0.767518       -20.8852
  11   2.0000      -0.679336       -18.4857
  12   2.0000      -0.656678       -17.8691
  13   2.0000      -0.576608       -15.6903
  14   2.0000      -0.521609       -14.1937
  15   2.0000      -0.514948       -14.0124
  16   2.0000      -0.477110       -12.9828
  17   2.0000      -0.476547       -12.9675
  18   2.0000      -0.465199       -12.6587
  19   2.0000      -0.439706       -11.9650
  20   2.0000      -0.407208       -11.0807
  21   2.0000      -0.393299       -10.7022
  22   2.0000      -0.389955       -10.6112
  23   2.0000      -0.289767        -7.8850
  24   2.0000      -0.280171        -7.6238
  25   0.0000       0.019835         0.5397
  26   0.0000       0.025060         0.6819
  27   0.0000       0.142214         3.8698
  28   0.0000       0.171942         4.6788
  29   0.0000       0.185995         5.0612

MULLIKEN ATOMIC CHARGES
-----------------------
   0 C :    0.121161
   1 C :   -0.264221
   2 C :   -0.203928
   3 C :   -0.237728
   4 C :   -0.203052
   5 C :   -0.270416
   6 C :   -0.705753
   7 H :    0.210607
   8 H :    0.216617
   9 H :    0.217225
  10 H :    0.216684
  11 H :    0.209615
  12 H :    0.227138
  13 H :    0.233026
  14 H :    0.233026
Sum of atomic charges:   -0.0000000

LOEWDIN ATOMIC CHARGES
----------------------
   0 C :   -0.050781
   1 C :   -0.136676
   2 C :   -0.131695
   3 C :   -0.143631
   4 C :   -0.132116
   5 C :   -0.139963
   6 C :   -0.348307
   7 H :    0.133496
   8 H :    0.135033
   9 H :    0.134815
  10 H :    0.135150
  11 H :    0.132722
  12 H :    0.133570
  13 H :    0.139191
  14 H :    0.139191

  Mayer bond orders larger than 0.100000
B(  0-C ,  1-C ) :   1.3801 B(  0-C ,  5-C ) :   1.4253 B(  0-C ,  6-C ) :   0.9580
B(  1-C ,  2-C ) :   1.4402 B(  1-C ,  7-H ) :   0.9262 B(  2-C ,  3-C ) :   1.4147
B(  2-C ,  8-H ) :   0.9206 B(  3-C ,  4-C ) :   1.4332 B(  3-C ,  9-H ) :   0.9201
B(  4-C ,  5-C ) :   1.4240 B(  4-C , 10-H ) :   0.9202 B(  5-C , 11-H ) :   0.9207
B(  6-C , 12-H ) :   0.9321 B(  6-C , 13-H ) :   0.9186 B(  6-C , 14-H ) :   0.9186

Dispersion correction           -0.007721134
FINAL SINGLE POINT ENERGY      -270.959248708004

DIPOLE MOMENT
-------------
                                X             Y             Z
Electronic contribution:     -0.00315      -3.38171       0.00000
Nuclear contribution   :     -0.01716       3.52699       0.00000
                        -----------------------------------------
Total Dipole Moment    :     -0.02031       0.14527       0.00000
                        -----------------------------------------
Magnitude (a.u.)       :      0.14669
Magnitude (Debye)      :      0.37285

Rotational constants in cm-1:     0.185580     0.084033     0.058468
Rotational constants in MHz :  5563.543613  2519.231886  1752.830955

                             ****ORCA TERMINATED NORMALLY****
TOTAL RUN TIME: 0 days 0 hours 1 minutes 24 seconds 659 msec
