                         Program Version 5.0.3 -  RELEASE  -
|  1> ! PBEh-3c def2/J TightSCF DefGrid3
|  2>
|  3> %maxcore 60000
|  4>
|  5> %pal
|  6> nprocs 4
|  7> end
|  8>
|  9> *xyzfile 1 2 6int.xyz
| 10>
| 11>                          ****END OF INPUT****

CARTESIAN COORDINATES (ANGSTROEM)
---------------------------------
  C     -2.314644    0.106019    0.529154
  C     -0.926991   -0.222297    0.205794
  C      0.028559    0.791626   -0.289442
  C      1.496630    0.474301   -0.001405
  C      1.949766   -0.835707   -0.537092
  O     -0.563619   -1.420813    0.361922
  H     -2.719439    0.808223   -0.203749
  H     -2.302890    0.643878    1.487994
  H     -2.933711   -0.783246    0.625000
  H     -0.268838    1.771837    0.090258
  H     -0.156897    0.837726   -1.375988
  H      2.097838    1.275560   -0.456941
  H      1.685204    0.540992    1.073568
  H      0.417604   -1.533229    0.118770
  H      2.766548   -1.359854   -0.054926
  H      1.744881   -1.095016   -1.572919

 Total Charge           Charge          ....    1
 Multiplicity           Mult            ....    2
 Number of Electrons    NEL             ....   47
 Basis Dimension        Dim             ....  110

ORBITAL ENERGIES
----------------
                 SPIN UP ORBITALS
  NO   OCC          E(Eh)            E(eV)
   0   1.0000     -19.798542      -538.7457
   1   1.0000     -10.802625      -293.9544
   2   1.0000     -10.662513      -290.1417
   3   1.0000     -10.641522      -289.5705
   4   1.0000     -10.640352      -289.5387
   5   1.0000     -10.638685      -289.4933
   6   1.0000      -1.465874       -39.8885
   7   1.0000      -1.120618       -30.4936
   8   1.0000      -1.076894       -29.3038
   9   1.0000      -0.988029       -26.8856
  10   1.0000      -0.920443       -25.0465
  11   1.0000      -0.880832       -23.9687
  12   1.0000      -0.800430       -21.7808
  13   1.0000      -0.765137       -20.8204
  14   1.0000      -0.745057       -20.2740
  15   1.0000      -0.703271       -19.1370
  16   1.0000      -0.680877       -18.5276
  17   1.0000      -0.669432       -18.2162
  18   1.0000      -0.658387       -17.9156
  19   1.0000      -0.650063       -17.6891
  20   1.0000      -0.628675       -17.1071
  21   1.0000      -0.614969       -16.7342
  22   1.0000      -0.593225       -16.1425
  23   1.0000      -0.462416       -12.5830
  24   0.0000      -0.242436        -6.5970
  25   0.0000      -0.053747        -1.4625
  26   0.0000      -0.019637        -0.5343
  27   0.0000      -0.012245        -0.3332
  28   0.0000      -0.004720        -0.1284

                 SPIN DOWN ORBITALS
  NO   OCC          E(Eh)            E(eV)
   0   1.0000     -19.795430      -538.6610
   1   1.0000     -10.802836      -293.9601
   2   1.0000     -10.661968      -290.1269
   3   1.0000     -10.640148      -289.5331
   4   1.0000     -10.639513      -289.5159
   5   1.0000     -10.627260      -289.1825
   6   1.0000      -1.459645       -39.7189
   7   1.0000      -1.117533       -30.4096
   8   1.0000      -1.067217       -29.0404
   9   1.0000      -0.972032       -26.4503
  10   1.0000      -0.912790       -24.8383
  11   1.0000      -0.858277       -23.3549
  12   1.0000      -0.794588       -21.6218
  13   1.0000      -0.762646       -20.7527
  14   1.0000      -0.742220       -20.1968
  15   1.0000      -0.698557       -19.0087
  16   1.0000      -0.671287       -18.2666
  17   1.0000      -0.662738       -18.0340
  18   1.0000      -0.653536       -17.7836
  19   1.0000      -0.648407       -17.6440
  20   1.0000      -0.615273       -16.7424
  21   1.0000      -0.607978       -16.5439
  22   1.0000      -0.588567       -16.0157
  23   0.0000      -0.245430        -6.6785
  24   0.0000      -0.234479        -6.3805
  25   0.0000      -0.049215        -1.3392
  26   0.0000      -0.013804        -0.3756
  27   0.0000      -0.007993        -0.2175

MULLIKEN ATOMIC CHARGES AND SPIN POPULATIONS
--------------------------------------------
   0 C :   -0.754026    0.006391
   1 C :    0.499605   -0.009628
   2 C :   -0.595836    0.017290
   3 C :   -0.488177   -0.075759
   4 C :   -0.571001    0.970992
   5 O :   -0.404437    0.058099
   6 H :    0.306641   -0.000121
   7 H :    0.317928   -0.000183
   8 H :    0.324965   -0.000365
   9 H :    0.326342   -0.001418
  10 H :    0.330608   -0.000346
  11 H :    0.325907    0.066730
  12 H :    0.286328    0.007465
  13 H :    0.490521    0.052266
  14 H :    0.311572   -0.049028
  15 H :    0.293058   -0.042385
Sum of atomic charges         :    1.0000000

LOEWDIN ATOMIC CHARGES AND SPIN POPULATIONS
-------------------------------------------
   0 C :   -0.356808    0.005260
   1 C :    0.245627   -0.004815
   2 C :   -0.265441    0.017164
   3 C :   -0.259800   -0.012159
   4 C :   -0.257415    0.863906
   5 O :   -0.106076    0.074437
   6 H :    0.190036   -0.000188
   7 H :    0.205776   -0.000200
   8 H :    0.189120   -0.000261
   9 H :    0.186185   -0.001059
  10 H :    0.201302    0.000064
  11 H :    0.186751    0.059158
  12 H :    0.160717    0.006680
  13 H :    0.351840    0.035466
  14 H :    0.169890   -0.023253
  15 H :    0.158296   -0.020198

  Mayer bond orders larger than 0.100000
B(  0-C ,  1-C ) :   0.9982 B(  0-C ,  6-H ) :   0.8732 B(  0-C ,  7-H ) :   0.8469
B(  0-C ,  8-H ) :   0.8781 B(  1-C ,  2-C ) :   0.9658 B(  1-C ,  5-O ) :   1.5688
B(  2-C ,  3-C ) :   0.9480 B(  2-C ,  9-H ) :   0.8716 B(  2-C , 10-H ) :   0.8329
B(  3-C ,  4-C ) :   0.9740 B(  3-C , 11-H ) :   0.8543 B(  3-C , 12-H ) :   0.8880
B(  4-C , 13-H ) :   0.1668 B(  4-C , 14-H ) :   0.8901 B(  4-C , 15-H ) :   0.8835
B(  5-O , 13-H ) :   0.5842

Dispersion correction           -0.007144102
FINAL SINGLE POINT ENERGY      -270.857069085615

DIPOLE MOMENT
-------------
                                X             Y             Z
Electronic contribution:     -1.21330      -2.40719       0.63175
Nuclear contribution   :      0.94322       2.96419      -0.72722
                        -----------------------------------------
Total Dipole Moment    :     -0.27008       0.55700      -0.09548
                        -----------------------------------------
Magnitude (a.u.)       :      0.62635
Magnitude (Debye)      :      1.59205

Rotational constants in cm-1:     0.237418     0.080223     0.064461
Rotational constants in MHz :  7117.603115  2405.012275  1932.483332

                             ****ORCA TERMINATED NORMALLY****
TOTAL RUN TIME: 0 days 0 hours 3 minutes 21 seconds 934 msec
