                         Program Version 5.0.3 -  RELEASE  -
|  1> ! PBEh-3c def2/J TightSCF DefGrid3
|  2>
|  3> %maxcore 60000
|  4>
|  5> %pal
|  6> nprocs 4
|  7> end
|  8>
|  9> *xyzfile 0 1 i16e.xyz
| 10>
| 11>                          ****END OF INPUT****

CARTESIAN COORDINATES (ANGSTROEM)
---------------------------------
  C     -3.051970    0.810829   -0.439710
  C     -3.271082   -0.486972    0.014197
  C     -2.183608   -1.363308    0.187109
  C     -0.867862   -0.960386   -0.109837
  C     -0.659671    0.393920   -0.488690
  C     -1.748452    1.256972   -0.687451
  C     -1.536911    2.672020   -1.196859
  C      0.785341    0.858654   -0.722152
  C     -0.133323    2.833360   -1.785567
  N      0.854930    2.335291   -0.812922
  C      1.710698    0.183108    0.299761
  C      0.300002   -1.869175   -0.061379
  C      1.581565   -1.311169    0.128686
  C      1.316184   -4.076234   -0.236529
  C      2.594346   -3.514474   -0.013909
  C      2.708916   -2.136740    0.158901
  C      0.189262   -3.261535   -0.266971
  O     -4.546788   -0.898175    0.293223
  O     -2.522279   -2.637324    0.653366
  C     -2.113561   -2.865293    2.022285
  O      1.318678   -5.445102   -0.419533
  C      0.059215   -6.081237   -0.652629
  O      3.719557   -4.292536    0.020364
  C      1.337223    3.148041    0.187981
  O      2.045475    2.818786    1.125083
  O      0.946809    4.453737   -0.021473
  C      1.496935    5.420580    0.911438
  C      0.939977    6.781994    0.529004
  H     -3.903701    1.470112   -0.593762
  H     -2.297842    2.908145   -1.953926
  H     -1.658815    3.396064   -0.378341
  H      1.100094    0.496864   -1.716767
  H     -0.029500    2.217875   -2.689916
  H      0.082978    3.869768   -2.045010
  H      1.415819    0.479278    1.313023
  H      2.744660    0.505988    0.154393
  H      3.698272   -1.710118    0.308821
  H     -0.787082   -3.692309   -0.448344
  H     -4.484832   -1.841042    0.527431
  H     -2.566113   -2.113712    2.685645
  H     -1.020087   -2.826595    2.107272
  H     -2.472966   -3.865365    2.287468
  H      0.276463   -7.147384   -0.761221
  H     -0.623613   -5.920060    0.195366
  H     -0.409930   -5.696940   -1.570722
  H      3.450458   -5.212037   -0.135298
  H      1.211939    5.135606    1.931776
  H      2.592316    5.395357    0.847832
  H     -0.154991    6.788895    0.595862
  H      1.334988    7.541910    1.215978
  H      1.231876    7.052066   -0.493346

 Total Charge           Charge          ....    0
 Multiplicity           Mult            ....    1
 Number of Electrons    NEL             ....  204
 Basis Dimension        Dim             ....  466

ORBITAL ENERGIES
----------------

  NO   OCC          E(Eh)            E(eV)
   0   2.0000     -19.540874      -531.7342
   1   2.0000     -19.532932      -531.5181
   2   2.0000     -19.529645      -531.4287
   3   2.0000     -19.522195      -531.2259
   4   2.0000     -19.520044      -531.1674
   5   2.0000     -19.460898      -529.5579
   6   2.0000     -14.669025      -399.1645
   7   2.0000     -10.592125      -288.2264
   8   2.0000     -10.512705      -286.0653
   9   2.0000     -10.511698      -286.0378
  10   2.0000     -10.510479      -286.0047
  11   2.0000     -10.505035      -285.8565
  12   2.0000     -10.504238      -285.8348
  13   2.0000     -10.495674      -285.6018
  14   2.0000     -10.494705      -285.5754
  15   2.0000     -10.493929      -285.5543
  16   2.0000     -10.477808      -285.1156
  17   2.0000     -10.469550      -284.8910
  18   2.0000     -10.461783      -284.6796
  19   2.0000     -10.460070      -284.6330
  20   2.0000     -10.457769      -284.5704
  21   2.0000     -10.456207      -284.5279
  22   2.0000     -10.452729      -284.4332
  23   2.0000     -10.447725      -284.2970
  24   2.0000     -10.444348      -284.2052
  25   2.0000     -10.442975      -284.1678
  26   2.0000     -10.438780      -284.0537
  27   2.0000     -10.436577      -283.9937
  28   2.0000      -1.202901       -32.7326
  29   2.0000      -1.187959       -32.3260
  30   2.0000      -1.180605       -32.1259
  31   2.0000      -1.157416       -31.4949
  32   2.0000      -1.150532       -31.3076
  33   2.0000      -1.106961       -30.1219
  34   2.0000      -1.045706       -28.4551
  35   2.0000      -0.973054       -26.4781
  36   2.0000      -0.945291       -25.7227
  37   2.0000      -0.897109       -24.4116
  38   2.0000      -0.877368       -23.8744
  39   2.0000      -0.856366       -23.3029
  40   2.0000      -0.851943       -23.1825
  41   2.0000      -0.838971       -22.8296
  42   2.0000      -0.818501       -22.2726
  43   2.0000      -0.805164       -21.9096
  44   2.0000      -0.789402       -21.4807
  45   2.0000      -0.768063       -20.9001
  46   2.0000      -0.737722       -20.0744
  47   2.0000      -0.711535       -19.3618
  48   2.0000      -0.707926       -19.2636
  49   2.0000      -0.695120       -18.9152
  50   2.0000      -0.683897       -18.6098
  51   2.0000      -0.663740       -18.0613
  52   2.0000      -0.648652       -17.6507
  53   2.0000      -0.624962       -17.0061
  54   2.0000      -0.614772       -16.7288
  55   2.0000      -0.613734       -16.7006
  56   2.0000      -0.587039       -15.9742
  57   2.0000      -0.579619       -15.7722
  58   2.0000      -0.569817       -15.5055
  59   2.0000      -0.562030       -15.2936
  60   2.0000      -0.550857       -14.9896
  61   2.0000      -0.544194       -14.8083
  62   2.0000      -0.541916       -14.7463
  63   2.0000      -0.539152       -14.6711
  64   2.0000      -0.533151       -14.5078
  65   2.0000      -0.519916       -14.1476
  66   2.0000      -0.512254       -13.9391
  67   2.0000      -0.510832       -13.9004
  68   2.0000      -0.506011       -13.7693
  69   2.0000      -0.504176       -13.7193
  70   2.0000      -0.492928       -13.4133
  71   2.0000      -0.490810       -13.3556
  72   2.0000      -0.481432       -13.1004
  73   2.0000      -0.472841       -12.8667
  74   2.0000      -0.471662       -12.8346
  75   2.0000      -0.463669       -12.6171
  76   2.0000      -0.462591       -12.5877
  77   2.0000      -0.457897       -12.4600
  78   2.0000      -0.450940       -12.2707
  79   2.0000      -0.445693       -12.1279
  80   2.0000      -0.440866       -11.9966
  81   2.0000      -0.434183       -11.8147
  82   2.0000      -0.430764       -11.7217
  83   2.0000      -0.426317       -11.6007
  84   2.0000      -0.420128       -11.4323
  85   2.0000      -0.413810       -11.2603
  86   2.0000      -0.412856       -11.2344
  87   2.0000      -0.408418       -11.1136
  88   2.0000      -0.402844       -10.9619
  89   2.0000      -0.399478       -10.8703
  90   2.0000      -0.395362       -10.7584
  91   2.0000      -0.391159       -10.6440
  92   2.0000      -0.378774       -10.3070
  93   2.0000      -0.357908        -9.7392
  94   2.0000      -0.348261        -9.4767
  95   2.0000      -0.346553        -9.4302
  96   2.0000      -0.323543        -8.8041
  97   2.0000      -0.299701        -8.1553
  98   2.0000      -0.286787        -7.8039
  99   2.0000      -0.275201        -7.4886
 100   2.0000      -0.256755        -6.9867
 101   2.0000      -0.234451        -6.3797
 102   0.0000      -0.015534        -0.4227
 103   0.0000       0.023133         0.6295
 104   0.0000       0.033566         0.9134
 105   0.0000       0.062496         1.7006
 106   0.0000       0.084421         2.2972

MULLIKEN ATOMIC CHARGES
-----------------------
   0 C :   -0.390189
   1 C :    0.334371
   2 C :    0.122380
   3 C :    0.101905
   4 C :   -0.035081
   5 C :    0.094543
   6 C :   -0.489290
   7 C :   -0.093824
   8 C :   -0.326277
   9 N :   -0.514863
  10 C :   -0.534577
  11 C :    0.065810
  12 C :    0.082220
  13 C :    0.315302
  14 C :    0.297312
  15 C :   -0.387055
  16 C :   -0.430322
  17 O :   -0.614660
  18 O :   -0.513554
  19 C :   -0.398420
  20 O :   -0.504276
  21 C :   -0.397980
  22 O :   -0.609915
  23 C :    0.766435
  24 O :   -0.456535
  25 O :   -0.506397
  26 C :   -0.145727
  27 C :   -0.665059
  28 H :    0.229662
  29 H :    0.231765
  30 H :    0.247182
  31 H :    0.244544
  32 H :    0.236581
  33 H :    0.265178
  34 H :    0.266727
  35 H :    0.256697
  36 H :    0.236694
  37 H :    0.268643
  38 H :    0.439866
  39 H :    0.221612
  40 H :    0.241440
  41 H :    0.218848
  42 H :    0.242060
  43 H :    0.211071
  44 H :    0.217736
  45 H :    0.444912
  46 H :    0.222632
  47 H :    0.219487
  48 H :    0.225686
  49 H :    0.218808
  50 H :    0.225887
Sum of atomic charges:   -0.0000000

LOEWDIN ATOMIC CHARGES
----------------------
   0 C :   -0.161947
   1 C :    0.058221
   2 C :    0.009988
   3 C :   -0.031322
   4 C :   -0.060026
   5 C :   -0.038358
   6 C :   -0.233734
   7 C :   -0.026822
   8 C :   -0.133509
   9 N :   -0.139062
  10 C :   -0.216466
  11 C :   -0.057621
  12 C :   -0.034751
  13 C :    0.024780
  14 C :    0.059001
  15 C :   -0.156388
  16 C :   -0.168355
  17 O :   -0.318642
  18 O :   -0.237862
  19 C :   -0.177809
  20 O :   -0.214870
  21 C :   -0.174240
  22 O :   -0.312614
  23 C :    0.179007
  24 O :   -0.272911
  25 O :   -0.213510
  26 C :   -0.072634
  27 C :   -0.371554
  28 H :    0.146764
  29 H :    0.137527
  30 H :    0.142956
  31 H :    0.133944
  32 H :    0.128001
  33 H :    0.143362
  34 H :    0.155430
  35 H :    0.146970
  36 H :    0.150353
  37 H :    0.154899
  38 H :    0.328218
  39 H :    0.120411
  40 H :    0.129876
  41 H :    0.124194
  42 H :    0.132739
  43 H :    0.117133
  44 H :    0.120277
  45 H :    0.332041
  46 H :    0.124367
  47 H :    0.122889
  48 H :    0.133614
  49 H :    0.134451
  50 H :    0.133594

  Mayer bond orders larger than 0.100000
B(  0-C ,  1-C ) :   1.3961 B(  0-C ,  5-C ) :   1.3745 B(  0-C , 28-H ) :   0.9126
B(  1-C ,  2-C ) :   1.3187 B(  1-C , 17-O ) :   1.0897 B(  2-C ,  3-C ) :   1.2915
B(  2-C , 18-O ) :   0.9811 B(  3-C ,  4-C ) :   1.3177 B(  3-C , 11-C ) :   0.9922
B(  4-C ,  5-C ) :   1.4320 B(  4-C ,  7-C ) :   0.9212 B(  5-C ,  6-C ) :   0.9434
B(  6-C ,  8-C ) :   0.9688 B(  6-C , 29-H ) :   0.9134 B(  6-C , 30-H ) :   0.8989
B(  7-C ,  9-N ) :   0.9234 B(  7-C , 10-C ) :   0.9765 B(  7-C , 31-H ) :   0.8916
B(  8-C ,  9-N ) :   0.9393 B(  8-C , 32-H ) :   0.9051 B(  8-C , 33-H ) :   0.9038
B(  9-N , 23-C ) :   1.1128 B( 10-C , 12-C ) :   0.9220 B( 10-C , 34-H ) :   0.8925
B( 10-C , 35-H ) :   0.9145 B( 11-C , 12-C ) :   1.3662 B( 11-C , 16-C ) :   1.3333
B( 12-C , 15-C ) :   1.4044 B( 13-C , 14-C ) :   1.2747 B( 13-C , 16-C ) :   1.3487
B( 13-C , 20-O ) :   0.9999 B( 14-C , 15-C ) :   1.4053 B( 14-C , 22-O ) :   1.1034
B( 15-C , 36-H ) :   0.9107 B( 16-C , 37-H ) :   0.8800 B( 17-O , 38-H ) :   0.7479
B( 18-O , 19-C ) :   0.9079 B( 19-C , 39-H ) :   0.9114 B( 19-C , 40-H ) :   0.8969
B( 19-C , 41-H ) :   0.9283 B( 20-O , 21-C ) :   0.9299 B( 21-C , 42-H ) :   0.9215
B( 21-C , 43-H ) :   0.9074 B( 21-C , 44-H ) :   0.9058 B( 22-O , 45-H ) :   0.7522
B( 23-C , 24-O ) :   1.8882 B( 23-C , 25-O ) :   1.0321 B( 25-O , 26-C ) :   0.8716
B( 26-C , 27-C ) :   0.9914 B( 26-C , 46-H ) :   0.9055 B( 26-C , 47-H ) :   0.9073
B( 27-C , 48-H ) :   0.9225 B( 27-C , 49-H ) :   0.9222 B( 27-C , 50-H ) :   0.9224

Dispersion correction           -0.039226162
FINAL SINGLE POINT ENERGY     -1317.363183082181

DIPOLE MOMENT
-------------
                                X             Y             Z
Electronic contribution:      1.46513     -12.80735      -2.08762
Nuclear contribution   :     -2.26927      12.26761       1.89600
                        -----------------------------------------
Total Dipole Moment    :     -0.80414      -0.53974      -0.19162
                        -----------------------------------------
Magnitude (a.u.)       :      0.98726
Magnitude (Debye)      :      2.50941

Rotational constants in cm-1:     0.009036     0.003758     0.002864
Rotational constants in MHz :   270.882025   112.663397    85.855688

                             ****ORCA TERMINATED NORMALLY****
TOTAL RUN TIME: 0 days 0 hours 10 minutes 37 seconds 414 msec
