                         Program Version 5.0.3 -  RELEASE  -
|  1> ! PBEh-3c def2/J TightSCF DefGrid3
|  2>
|  3> %maxcore 60000
|  4>
|  5> %pal
|  6> nprocs 4
|  7> end
|  8>
|  9> *xyzfile 0 1 hexyne.xyz
| 10>
| 11>                          ****END OF INPUT****

CARTESIAN COORDINATES (ANGSTROEM)
---------------------------------
  C     -1.663524   -0.944307   -1.640243
  H     -1.258385   -1.967211   -1.636483
  H     -1.254767   -0.429712   -2.522906
  H     -2.752397   -1.017206   -1.771658
  C     -1.303952   -0.202288   -0.350847
  H     -1.752477    0.805569   -0.367575
  H     -1.755052   -0.721204    0.512130
  C      0.207059   -0.079676   -0.133394
  H      0.667605    0.445954   -0.985185
  H      0.665242   -1.081107   -0.104308
  C      0.559919    0.670191    1.167931
  H      0.105846    0.147689    2.027734
  H      0.103425    1.674723    1.147430
  C      1.994581    0.802147    1.392396
  C      3.190858    0.902687    1.557125
  H      4.246020    0.993753    1.707853

 Total Charge           Charge          ....    0
 Multiplicity           Mult            ....    1
 Number of Electrons    NEL             ....   46
 Basis Dimension        Dim             ....  110

ORBITAL ENERGIES
----------------

  NO   OCC          E(Eh)            E(eV)
   0   2.0000     -10.464500      -284.7535
   1   2.0000     -10.449060      -284.3334
   2   2.0000     -10.444296      -284.2037
   3   2.0000     -10.441397      -284.1249
   4   2.0000     -10.436717      -283.9975
   5   2.0000     -10.430240      -283.8213
   6   2.0000      -0.906275       -24.6610
   7   2.0000      -0.853613       -23.2280
   8   2.0000      -0.798551       -21.7297
   9   2.0000      -0.725874       -19.7520
  10   2.0000      -0.657555       -17.8930
  11   2.0000      -0.590332       -16.0637
  12   2.0000      -0.541128       -14.7248
  13   2.0000      -0.521014       -14.1775
  14   2.0000      -0.492646       -13.4056
  15   2.0000      -0.485543       -13.2123
  16   2.0000      -0.441325       -12.0091
  17   2.0000      -0.417873       -11.3709
  18   2.0000      -0.403546       -10.9810
  19   2.0000      -0.388021       -10.5586
  20   2.0000      -0.378760       -10.3066
  21   2.0000      -0.309899        -8.4328
  22   2.0000      -0.309801        -8.4301
  23   0.0000       0.079893         2.1740
  24   0.0000       0.084103         2.2886
  25   0.0000       0.134932         3.6717
  26   0.0000       0.157290         4.2801
  27   0.0000       0.180816         4.9202

MULLIKEN ATOMIC CHARGES
-----------------------
   0 C :   -0.636776
   1 H :    0.211388
   2 H :    0.211347
   3 H :    0.220371
   4 C :   -0.413002
   5 H :    0.206457
   6 H :    0.206436
   7 C :   -0.401314
   8 H :    0.221130
   9 H :    0.221088
  10 C :   -0.566692
  11 H :    0.242014
  12 H :    0.242066
  13 C :    0.326337
  14 C :   -0.513509
  15 H :    0.222659
Sum of atomic charges:    0.0000000

LOEWDIN ATOMIC CHARGES
----------------------
   0 C :   -0.360410
   1 H :    0.125090
   2 H :    0.125079
   3 H :    0.128027
   4 C :   -0.246684
   5 H :    0.120438
   6 H :    0.120442
   7 C :   -0.229956
   8 H :    0.128957
   9 H :    0.128931
  10 C :   -0.241442
  11 H :    0.146984
  12 H :    0.147030
  13 C :   -0.038497
  14 C :   -0.216102
  15 H :    0.162113

  Mayer bond orders larger than 0.100000
B(  0-C ,  1-H ) :   0.9283 B(  0-C ,  2-H ) :   0.9283 B(  0-C ,  3-H ) :   0.9307
B(  0-C ,  4-C ) :   0.9955 B(  4-C ,  5-H ) :   0.9191 B(  4-C ,  6-H ) :   0.9191
B(  4-C ,  7-C ) :   0.9794 B(  7-C ,  8-H ) :   0.9153 B(  7-C ,  9-H ) :   0.9153
B(  7-C , 10-C ) :   0.9687 B( 10-C , 11-H ) :   0.9015 B( 10-C , 12-H ) :   0.9014
B( 10-C , 13-C ) :   0.9687 B( 13-C , 14-C ) :   2.6740 B( 14-C , 15-H ) :   0.9507

Dispersion correction           -0.006670521
FINAL SINGLE POINT ENERGY      -234.066587669550

DIPOLE MOMENT
-------------
                                X             Y             Z
Electronic contribution:      6.23059       2.45023       4.25032
Nuclear contribution   :     -6.55138      -2.52130      -4.37419
                        -----------------------------------------
Total Dipole Moment    :     -0.32079      -0.07106      -0.12387
                        -----------------------------------------
Magnitude (a.u.)       :      0.35115
Magnitude (Debye)      :      0.89254

Rotational constants in cm-1:     0.496517     0.043658     0.041367
Rotational constants in MHz : 14885.212969  1308.834240  1240.159325

                             ****ORCA TERMINATED NORMALLY****
TOTAL RUN TIME: 0 days 0 hours 1 minutes 22 seconds 82 msec
