                         Program Version 5.0.3 -  RELEASE  -
|  1> ! PBEh-3c def2/J TightSCF DefGrid3
|  2>
|  3> %maxcore 60000
|  4>
|  5> %pal
|  6> nprocs 4
|  7> end
|  8>
|  9> *xyzfile 0 1 h12.xyz
| 10>
| 11>                          ****END OF INPUT****

CARTESIAN COORDINATES (ANGSTROEM)
---------------------------------
  C     -1.592464   -0.812349   -1.313924
  C     -1.242750    0.272221   -0.301465
  C      0.000000    0.000000    0.558980
  C      1.242750   -0.272221   -0.301465
  C      1.592464    0.812349   -1.313924
  C      0.233903    1.215699    1.455242
  C     -0.233903   -1.215699    1.455242
  H     -1.766903   -1.772678   -0.831246
  H     -2.499290   -0.549914   -1.857140
  H     -0.798507   -0.946542   -2.047365
  H     -2.088833    0.421059    0.375479
  H     -1.106439    1.221440   -0.824758
  H      2.088833   -0.421059    0.375479
  H      1.106439   -1.221440   -0.824758
  H      1.766903    1.772678   -0.831246
  H      2.499290    0.549914   -1.857140
  H      0.798507    0.946542   -2.047365
  H      0.348262    2.129573    0.872829
  H     -0.611859    1.357537    2.130019
  H      1.130914    1.083727    2.062841
  H     -0.348262   -2.129573    0.872829
  H      0.611859   -1.357537    2.130019
  H     -1.130914   -1.083727    2.062841

 Total Charge           Charge          ....    0
 Multiplicity           Mult            ....    1
 Number of Electrons    NEL             ....   58
 Basis Dimension        Dim             ....  137

ORBITAL ENERGIES
----------------

  NO   OCC          E(Eh)            E(eV)
   0   2.0000     -10.443136      -284.1722
   1   2.0000     -10.425280      -283.6863
   2   2.0000     -10.425222      -283.6847
   3   2.0000     -10.418696      -283.5071
   4   2.0000     -10.418685      -283.5068
   5   2.0000     -10.416465      -283.4464
   6   2.0000     -10.416408      -283.4449
   7   2.0000      -0.923098       -25.1188
   8   2.0000      -0.829766       -22.5791
   9   2.0000      -0.812407       -22.1067
  10   2.0000      -0.762053       -20.7365
  11   2.0000      -0.701194       -19.0805
  12   2.0000      -0.692124       -18.8337
  13   2.0000      -0.584593       -15.9076
  14   2.0000      -0.525915       -14.3109
  15   2.0000      -0.524919       -14.2838
  16   2.0000      -0.493535       -13.4298
  17   2.0000      -0.483378       -13.1534
  18   2.0000      -0.455049       -12.3825
  19   2.0000      -0.450657       -12.2630
  20   2.0000      -0.432959       -11.7814
  21   2.0000      -0.428207       -11.6521
  22   2.0000      -0.410874       -11.1805
  23   2.0000      -0.408329       -11.1112
  24   2.0000      -0.391394       -10.6504
  25   2.0000      -0.384264       -10.4564
  26   2.0000      -0.354751        -9.6533
  27   2.0000      -0.352958        -9.6045
  28   2.0000      -0.346332        -9.4242
  29   0.0000       0.119221         3.2442
  30   0.0000       0.159925         4.3518
  31   0.0000       0.169359         4.6085
  32   0.0000       0.182260         4.9596
  33   0.0000       0.184044         5.0081

MULLIKEN ATOMIC CHARGES
-----------------------
   0 C :   -0.656025
   1 C :   -0.394135
   2 C :   -0.085113
   3 C :   -0.394135
   4 C :   -0.656025
   5 C :   -0.618894
   6 C :   -0.618894
   7 H :    0.214401
   8 H :    0.222738
   9 H :    0.213577
  10 H :    0.209639
  11 H :    0.211793
  12 H :    0.209639
  13 H :    0.211793
  14 H :    0.214401
  15 H :    0.222738
  16 H :    0.213577
  17 H :    0.214172
  18 H :    0.213989
  19 H :    0.211300
  20 H :    0.214172
  21 H :    0.213989
  22 H :    0.211300
Sum of atomic charges:   -0.0000000

LOEWDIN ATOMIC CHARGES
----------------------
   0 C :   -0.363757
   1 C :   -0.232574
   2 C :   -0.107201
   3 C :   -0.232574
   4 C :   -0.363757
   5 C :   -0.342087
   6 C :   -0.342087
   7 H :    0.124032
   8 H :    0.128354
   9 H :    0.123369
  10 H :    0.121978
  11 H :    0.121222
  12 H :    0.121978
  13 H :    0.121222
  14 H :    0.124032
  15 H :    0.128354
  16 H :    0.123369
  17 H :    0.123528
  18 H :    0.125587
  19 H :    0.123950
  20 H :    0.123528
  21 H :    0.125587
  22 H :    0.123950

  Mayer bond orders larger than 0.100000
B(  0-C ,  1-C ) :   0.9950 B(  0-C ,  7-H ) :   0.9254 B(  0-C ,  8-H ) :   0.9297
B(  0-C ,  9-H ) :   0.9241 B(  1-C ,  2-C ) :   0.9647 B(  1-C , 10-H ) :   0.9201
B(  1-C , 11-H ) :   0.9194 B(  2-C ,  3-C ) :   0.9647 B(  2-C ,  5-C ) :   0.9855
B(  2-C ,  6-C ) :   0.9855 B(  3-C ,  4-C ) :   0.9950 B(  3-C , 12-H ) :   0.9201
B(  3-C , 13-H ) :   0.9194 B(  4-C , 14-H ) :   0.9254 B(  4-C , 15-H ) :   0.9297
B(  4-C , 16-H ) :   0.9241 B(  5-C , 17-H ) :   0.9265 B(  5-C , 18-H ) :   0.9282
B(  5-C , 19-H ) :   0.9298 B(  6-C , 20-H ) :   0.9265 B(  6-C , 21-H ) :   0.9282
B(  6-C , 22-H ) :   0.9298

Dispersion correction           -0.012361363
FINAL SINGLE POINT ENERGY      -275.793250533510

DIPOLE MOMENT
-------------
                                X             Y             Z
Electronic contribution:      0.00000      -0.00000       0.61016
Nuclear contribution   :     -0.00000      -0.00000      -0.61734
                        -----------------------------------------
Total Dipole Moment    :      0.00000      -0.00000      -0.00718
                        -----------------------------------------
Magnitude (a.u.)       :      0.00718
Magnitude (Debye)      :      0.01826

Rotational constants in cm-1:     0.085742     0.078472     0.058117
Rotational constants in MHz :  2570.477676  2352.529355  1742.309714

                             ****ORCA TERMINATED NORMALLY****
TOTAL RUN TIME: 0 days 0 hours 1 minutes 43 seconds 879 msec
