                         Program Version 5.0.3 -  RELEASE  -
|  1> ! PBEh-3c def2/J TightSCF DefGrid3
|  2>
|  3> %maxcore 60000
|  4>
|  5> %pal
|  6> nprocs 4
|  7> end
|  8>
|  9> *xyzfile 0 1 53B.xyz
| 10>
| 11>                          ****END OF INPUT****

CARTESIAN COORDINATES (ANGSTROEM)
---------------------------------
  C      0.071612    0.406917   -0.456096
  O      0.318101    1.450343   -1.043335
  N     -0.232436   -0.748089   -1.107263
  H     -0.207235   -0.755105   -2.113900
  H     -0.388212   -1.603582   -0.611562
  C      0.094456    0.312025    1.052321
  H      1.126170    0.396237    1.387395
  H     -0.327448   -0.614618    1.433347
  H     -0.455008    1.155871    1.459092

 Total Charge           Charge          ....    0
 Multiplicity           Mult            ....    1
 Number of Electrons    NEL             ....   32
 Basis Dimension        Dim             ....   70

ORBITAL ENERGIES
----------------

  NO   OCC          E(Eh)            E(eV)
   0   2.0000     -19.448435      -529.2188
   1   2.0000     -14.655712      -398.8022
   2   2.0000     -10.547855      -287.0217
   3   2.0000     -10.440779      -284.1080
   4   2.0000      -1.134428       -30.8694
   5   2.0000      -1.002387       -27.2763
   6   2.0000      -0.826863       -22.5001
   7   2.0000      -0.661326       -17.9956
   8   2.0000      -0.607658       -16.5352
   9   2.0000      -0.534222       -14.5369
  10   2.0000      -0.506082       -13.7712
  11   2.0000      -0.460196       -12.5226
  12   2.0000      -0.456620       -12.4253
  13   2.0000      -0.420110       -11.4318
  14   2.0000      -0.316827        -8.6213
  15   2.0000      -0.303257        -8.2520
  16   0.0000       0.069563         1.8929
  17   0.0000       0.120579         3.2811
  18   0.0000       0.169859         4.6221
  19   0.0000       0.187062         5.0902
  20   0.0000       0.215181         5.8554

MULLIKEN ATOMIC CHARGES
-----------------------
   0 C :    0.499334
   1 O :   -0.416689
   2 N :   -0.794785
   3 H :    0.372628
   4 H :    0.361177
   5 C :   -0.749386
   6 H :    0.256821
   7 H :    0.207792
   8 H :    0.263108
Sum of atomic charges:    0.0000000

LOEWDIN ATOMIC CHARGES
----------------------
   0 C :    0.100773
   1 O :   -0.278510
   2 N :   -0.376688
   3 H :    0.259124
   4 H :    0.250769
   5 C :   -0.395098
   6 H :    0.156707
   7 H :    0.125098
   8 H :    0.157825

  Mayer bond orders larger than 0.100000
B(  0-C ,  1-O ) :   2.0379 B(  0-C ,  2-N ) :   1.1428 B(  0-C ,  5-C ) :   0.9239
B(  2-N ,  3-H ) :   0.8247 B(  2-N ,  4-H ) :   0.8311 B(  5-C ,  6-H ) :   0.9087
B(  5-C ,  7-H ) :   0.9219 B(  5-C ,  8-H ) :   0.9116

Dispersion correction           -0.002888464
FINAL SINGLE POINT ENERGY      -208.767598828971

DIPOLE MOMENT
-------------
                                X             Y             Z
Electronic contribution:      0.24943       1.44617      -2.87301
Nuclear contribution   :     -0.51784      -2.90545       3.30898
                        -----------------------------------------
Total Dipole Moment    :     -0.26841      -1.45927       0.43596
                        -----------------------------------------
Magnitude (a.u.)       :      1.54648
Magnitude (Debye)      :      3.93083

Rotational constants in cm-1:     0.360225     0.312429     0.172653
Rotational constants in MHz : 10799.288376  9366.381246  5175.999707

                             ****ORCA TERMINATED NORMALLY****
TOTAL RUN TIME: 0 days 0 hours 1 minutes 9 seconds 763 msec
