                         Program Version 5.0.3 -  RELEASE  -
|  1> ! PBEh-3c def2/J TightSCF DefGrid3
|  2>
|  3> %maxcore 60000
|  4>
|  5> %pal
|  6> nprocs 4
|  7> end
|  8>
|  9> *xyzfile 0 1 T.xyz
| 10>
| 11>                          ****END OF INPUT****

CARTESIAN COORDINATES (ANGSTROEM)
---------------------------------
  N     -0.331092    1.757157    0.000000
  N      1.652626    0.616145    0.000000
  C     -0.397052   -0.620224    0.000000
  C      1.054047   -0.632277    0.000000
  C     -1.012074    0.575496    0.000000
  C      1.030202    1.837849    0.000000
  C     -1.130733   -1.920759    0.000000
  O      1.738481   -1.638362    0.000000
  O      1.638334    2.888589    0.000000
  H     -0.844956    2.626657    0.000000
  H      2.666289    0.635506    0.000000
  H     -2.090002    0.670791    0.000000
  H     -0.882915   -2.519178   -0.878556
  H     -0.882915   -2.519178    0.878556
  H     -2.208239   -1.758212    0.000000

 Total Charge           Charge          ....    0
 Multiplicity           Mult            ....    1
 Number of Electrons    NEL             ....   66
 Basis Dimension        Dim             ....  147

ORBITAL ENERGIES
----------------

  NO   OCC          E(Eh)            E(eV)
   0   2.0000     -19.474721      -529.9341
   1   2.0000     -19.473528      -529.9016
   2   2.0000     -14.713298      -400.3692
   3   2.0000     -14.695160      -399.8756
   4   2.0000     -10.601978      -288.4945
   5   2.0000     -10.566980      -287.5421
   6   2.0000     -10.526899      -286.4515
   7   2.0000     -10.472134      -284.9613
   8   2.0000     -10.446649      -284.2678
   9   2.0000      -1.197198       -32.5774
  10   2.0000      -1.158400       -31.5217
  11   2.0000      -1.092728       -29.7346
  12   2.0000      -1.035641       -28.1812
  13   2.0000      -0.918439       -24.9920
  14   2.0000      -0.805824       -21.9276
  15   2.0000      -0.767866       -20.8947
  16   2.0000      -0.748072       -20.3561
  17   2.0000      -0.647569       -17.6212
  18   2.0000      -0.644173       -17.5288
  19   2.0000      -0.592814       -16.1313
  20   2.0000      -0.556283       -15.1372
  21   2.0000      -0.541852       -14.7446
  22   2.0000      -0.507201       -13.8016
  23   2.0000      -0.492323       -13.3968
  24   2.0000      -0.489559       -13.3216
  25   2.0000      -0.467572       -12.7233
  26   2.0000      -0.460465       -12.5299
  27   2.0000      -0.447349       -12.1730
  28   2.0000      -0.418033       -11.3753
  29   2.0000      -0.355518        -9.6741
  30   2.0000      -0.338209        -9.2031
  31   2.0000      -0.325603        -8.8601
  32   2.0000      -0.287640        -7.8271
  33   0.0000      -0.015110        -0.4112
  34   0.0000       0.045651         1.2422
  35   0.0000       0.096925         2.6375
  36   0.0000       0.147991         4.0270
  37   0.0000       0.157926         4.2974

MULLIKEN ATOMIC CHARGES
-----------------------
   0 N :   -0.672832
   1 N :   -0.716687
   2 C :   -0.158435
   3 C :    0.561702
   4 C :    0.042983
   5 C :    0.669043
   6 C :   -0.677806
   7 O :   -0.390544
   8 O :   -0.422023
   9 H :    0.392443
  10 H :    0.399811
  11 H :    0.261075
  12 H :    0.248656
  13 H :    0.248656
  14 H :    0.213957
Sum of atomic charges:   -0.0000000

LOEWDIN ATOMIC CHARGES
----------------------
   0 N :   -0.180052
   1 N :   -0.190825
   2 C :   -0.149030
   3 C :    0.119839
   4 C :   -0.028052
   5 C :    0.132819
   6 C :   -0.333397
   7 O :   -0.245283
   8 O :   -0.269619
   9 H :    0.283393
  10 H :    0.288882
  11 H :    0.145458
  12 H :    0.147720
  13 H :    0.147720
  14 H :    0.130429

  Mayer bond orders larger than 0.100000
B(  0-N ,  4-C ) :   1.0611 B(  0-N ,  5-C ) :   1.0464 B(  0-N ,  9-H ) :   0.8084
B(  1-N ,  3-C ) :   1.0010 B(  1-N ,  5-C ) :   1.0608 B(  1-N , 10-H ) :   0.7973
B(  2-C ,  3-C ) :   1.0189 B(  2-C ,  4-C ) :   1.6569 B(  2-C ,  6-C ) :   0.9870
B(  3-C ,  7-O ) :   2.0581 B(  4-C , 11-H ) :   0.9042 B(  5-C ,  8-O ) :   2.0422
B(  6-C , 12-H ) :   0.9095 B(  6-C , 13-H ) :   0.9095 B(  6-C , 14-H ) :   0.9285

Dispersion correction           -0.008152522
FINAL SINGLE POINT ENERGY      -453.174562161088

DIPOLE MOMENT
-------------
                                X             Y             Z
Electronic contribution:      5.02485       4.79582      -0.00000
Nuclear contribution   :     -6.74590      -4.50862       0.00000
                        -----------------------------------------
Total Dipole Moment    :     -1.72105       0.28720      -0.00000
                        -----------------------------------------
Magnitude (a.u.)       :      1.74485
Magnitude (Debye)      :      4.43505

Rotational constants in cm-1:     0.107820     0.047547     0.033199
Rotational constants in MHz :  3232.375276  1425.429609   995.267631

                             ****ORCA TERMINATED NORMALLY****
TOTAL RUN TIME: 0 days 0 hours 1 minutes 41 seconds 236 msec
