                         Program Version 5.0.3 -  RELEASE  -
|  1> ! PBEh-3c def2/J TightSCF DefGrid3
|  2>
|  3> %maxcore 60000
|  4>
|  5> %pal
|  6> nprocs 4
|  7> end
|  8>
|  9> *xyzfile 0 1 1O_A.xyz
| 10>
| 11>                          ****END OF INPUT****

CARTESIAN COORDINATES (ANGSTROEM)
---------------------------------
  O      0.000000    0.000000   -0.398333
  H     -0.762457    0.000000    0.199167
  H      0.762457    0.000000    0.199167

 Total Charge           Charge          ....    0
 Multiplicity           Mult            ....    1
 Number of Electrons    NEL             ....   10
 Basis Dimension        Dim             ....   19

ORBITAL ENERGIES
----------------

  NO   OCC          E(Eh)            E(eV)
   0   2.0000     -19.476008      -529.9691
   1   2.0000      -1.099200       -29.9108
   2   2.0000      -0.577128       -15.7045
   3   2.0000      -0.434757       -11.8303
   4   2.0000      -0.355951        -9.6859
   5   0.0000       0.128548         3.4980
   6   0.0000       0.205945         5.6040
   7   0.0000       0.869203        23.6522
   8   0.0000       0.974101        26.5066
   9   0.0000       0.991605        26.9829

MULLIKEN ATOMIC CHARGES
-----------------------
   0 O :   -0.813983
   1 H :    0.406991
   2 H :    0.406991
Sum of atomic charges:   -0.0000000

LOEWDIN ATOMIC CHARGES
----------------------
   0 O :   -0.597907
   1 H :    0.298954
   2 H :    0.298954

  Mayer bond orders larger than 0.100000
B(  0-O ,  1-H ) :   0.8167 B(  0-O ,  2-H ) :   0.8167

Dispersion correction           -0.000209585
FINAL SINGLE POINT ENERGY       -76.257793107199

DIPOLE MOMENT
-------------
                                X             Y             Z
Electronic contribution:     -0.00000       0.00000      -0.13895
Nuclear contribution   :      0.00000       0.00000       0.99467
                        -----------------------------------------
Total Dipole Moment    :     -0.00000       0.00000       0.85572
                        -----------------------------------------
Magnitude (a.u.)       :      0.85572
Magnitude (Debye)      :      2.17508

Rotational constants in cm-1:    26.373747    14.383856     9.307617
Rotational constants in MHz : 790665.045714 431217.147588 279035.350199

                             ****ORCA TERMINATED NORMALLY****
TOTAL RUN TIME: 0 days 0 hours 0 minutes 22 seconds 154 msec
