                         Program Version 5.0.3 -  RELEASE  -
|  1> ! PBEh-3c def2/J TightSCF DefGrid3
|  2>
|  3> %maxcore 60000
|  4>
|  5> %pal
|  6> nprocs 4
|  7> end
|  8>
|  9> *xyzfile 0 1 51.xyz
| 10>
| 11>                          ****END OF INPUT****

CARTESIAN COORDINATES (ANGSTROEM)
---------------------------------
  N     -0.881945    2.486085   -0.123524
  C      0.362839    1.891412   -0.147691
  C      0.231295    0.521205   -0.115817
  C     -1.180538    0.255057   -0.070284
  C     -1.929289   -0.929394   -0.024129
  C     -3.316259   -0.846113    0.012396
  C     -3.968344    0.407561    0.004128
  C     -3.239461    1.591589   -0.040528
  C     -1.847730    1.505308   -0.077311
  H     -1.051031    3.474459   -0.146657
  H      1.250697    2.500830   -0.187054
  H     -1.461224   -1.904791   -0.015082
  H     -5.045314    0.465108    0.032681
  H     -3.750846    2.545503   -0.045991
  O     -3.981256   -2.045044    0.056058
  C     -5.397000   -1.995386    0.096451
  H     -5.806525   -1.512575   -0.793578
  H     -5.754314   -1.474820    0.987683
  H     -5.729443   -3.028634    0.128068
  C      1.313981   -0.514186   -0.119022
  C      2.713123    0.079091   -0.237113
  N      3.702787   -0.984872   -0.238959
  C      5.046864   -0.850841   -0.009398
  C      5.498278    0.473250    0.573074
  H      1.149471   -1.206190   -0.951943
  H      1.264493   -1.112921    0.794603
  H      2.898698    0.734266    0.612908
  H      2.775509    0.687129   -1.146026
  H      3.463557   -1.839054   -0.719400
  O      5.827064   -1.762851   -0.239220
  H      5.017672    0.660034    1.533414
  H      5.250624    1.300089   -0.092977
  H      6.573566    0.429687    0.710250

 Total Charge           Charge          ....    0
 Multiplicity           Mult            ....    1
 Number of Electrons    NEL             ....  124
 Basis Dimension        Dim             ....  287

ORBITAL ENERGIES
----------------

  NO   OCC          E(Eh)            E(eV)
   0   2.0000     -19.520238      -531.1727
   1   2.0000     -19.447592      -529.1959
   2   2.0000     -14.687047      -399.6549
   3   2.0000     -14.653632      -398.7456
   4   2.0000     -10.542657      -286.8803
   5   2.0000     -10.502678      -285.7924
   6   2.0000     -10.488328      -285.4019
   7   2.0000     -10.485750      -285.3318
   8   2.0000     -10.485171      -285.3160
   9   2.0000     -10.480113      -285.1784
  10   2.0000     -10.455785      -284.5164
  11   2.0000     -10.454734      -284.4878
  12   2.0000     -10.448556      -284.3197
  13   2.0000     -10.448089      -284.3069
  14   2.0000     -10.447666      -284.2954
  15   2.0000     -10.440135      -284.0905
  16   2.0000     -10.438371      -284.0425
  17   2.0000      -1.168222       -31.7889
  18   2.0000      -1.133562       -30.8458
  19   2.0000      -1.090007       -29.6606
  20   2.0000      -1.019675       -27.7468
  21   2.0000      -0.940781       -25.6000
  22   2.0000      -0.905246       -24.6330
  23   2.0000      -0.850595       -23.1459
  24   2.0000      -0.838405       -22.8142
  25   2.0000      -0.823050       -22.3963
  26   2.0000      -0.804158       -21.8822
  27   2.0000      -0.773899       -21.0589
  28   2.0000      -0.734002       -19.9732
  29   2.0000      -0.707054       -19.2399
  30   2.0000      -0.663725       -18.0609
  31   2.0000      -0.654033       -17.7971
  32   2.0000      -0.630665       -17.1613
  33   2.0000      -0.614836       -16.7305
  34   2.0000      -0.580815       -15.8048
  35   2.0000      -0.565411       -15.3856
  36   2.0000      -0.553521       -15.0621
  37   2.0000      -0.547018       -14.8851
  38   2.0000      -0.532358       -14.4862
  39   2.0000      -0.530293       -14.4300
  40   2.0000      -0.522252       -14.2112
  41   2.0000      -0.502605       -13.6766
  42   2.0000      -0.498620       -13.5682
  43   2.0000      -0.489337       -13.3155
  44   2.0000      -0.483740       -13.1632
  45   2.0000      -0.469697       -12.7811
  46   2.0000      -0.461357       -12.5542
  47   2.0000      -0.454356       -12.3636
  48   2.0000      -0.449526       -12.2322
  49   2.0000      -0.446187       -12.1414
  50   2.0000      -0.436443       -11.8762
  51   2.0000      -0.422092       -11.4857
  52   2.0000      -0.417479       -11.3602
  53   2.0000      -0.410237       -11.1631
  54   2.0000      -0.404744       -11.0136
  55   2.0000      -0.380454       -10.3527
  56   2.0000      -0.354628        -9.6499
  57   2.0000      -0.320821        -8.7300
  58   2.0000      -0.302081        -8.2201
  59   2.0000      -0.293805        -7.9948
  60   2.0000      -0.252714        -6.8767
  61   2.0000      -0.236731        -6.4418
  62   0.0000       0.001489         0.0405
  63   0.0000       0.056556         1.5390
  64   0.0000       0.066788         1.8174
  65   0.0000       0.091010         2.4765
  66   0.0000       0.120808         3.2873

MULLIKEN ATOMIC CHARGES
-----------------------
   0 N :   -0.710379
   1 C :   -0.054211
   2 C :    0.004696
   3 C :    0.087045
   4 C :   -0.441721
   5 C :    0.403013
   6 C :   -0.364002
   7 C :   -0.256621
   8 C :    0.362746
   9 H :    0.358097
  10 H :    0.236838
  11 H :    0.220063
  12 H :    0.231689
  13 H :    0.214728
  14 O :   -0.468554
  15 C :   -0.404365
  16 H :    0.203843
  17 H :    0.203997
  18 H :    0.240341
  19 C :   -0.522297
  20 C :   -0.237767
  21 N :   -0.621350
  22 C :    0.497854
  23 C :   -0.780834
  24 H :    0.225092
  25 H :    0.245515
  26 H :    0.223765
  27 H :    0.215774
  28 H :    0.359147
  29 O :   -0.416263
  30 H :    0.239006
  31 H :    0.232578
  32 H :    0.272535
Sum of atomic charges:    0.0000000

LOEWDIN ATOMIC CHARGES
----------------------
   0 N :   -0.162801
   1 C :   -0.087260
   2 C :   -0.105846
   3 C :   -0.047789
   4 C :   -0.157907
   5 C :    0.060233
   6 C :   -0.191000
   7 C :   -0.149537
   8 C :    0.008070
   9 H :    0.261632
  10 H :    0.133959
  11 H :    0.146284
  12 H :    0.140540
  13 H :    0.136798
  14 O :   -0.193493
  15 C :   -0.180538
  16 H :    0.112036
  17 H :    0.112128
  18 H :    0.130535
  19 C :   -0.230247
  20 C :   -0.141515
  21 N :   -0.251439
  22 C :    0.107730
  23 C :   -0.397964
  24 H :    0.133649
  25 H :    0.142504
  26 H :    0.127299
  27 H :    0.114188
  28 H :    0.258364
  29 O :   -0.271584
  30 H :    0.144937
  31 H :    0.141911
  32 H :    0.156124

  Mayer bond orders larger than 0.100000
B(  0-N ,  1-C ) :   1.1252 B(  0-N ,  8-C ) :   1.0007 B(  0-N ,  9-H ) :   0.8343
B(  1-C ,  2-C ) :   1.5498 B(  1-C , 10-H ) :   0.9124 B(  2-C ,  3-C ) :   1.2479
B(  2-C , 19-C ) :   0.9771 B(  3-C ,  4-C ) :   1.2875 B(  3-C ,  8-C ) :   1.2258
B(  4-C ,  5-C ) :   1.4360 B(  4-C ,  7-C ) :   0.1028 B(  4-C , 11-H ) :   0.9262
B(  5-C ,  6-C ) :   1.2843 B(  5-C , 14-O ) :   1.0133 B(  6-C ,  7-C ) :   1.4718
B(  6-C , 12-H ) :   0.9052 B(  7-C ,  8-C ) :   1.3174 B(  7-C , 13-H ) :   0.9203
B( 14-O , 15-C ) :   0.9573 B( 15-C , 16-H ) :   0.9076 B( 15-C , 17-H ) :   0.9076
B( 15-C , 18-H ) :   0.9234 B( 19-C , 20-C ) :   1.0052 B( 19-C , 24-H ) :   0.9038
B( 19-C , 25-H ) :   0.8967 B( 20-C , 21-N ) :   0.9478 B( 20-C , 26-H ) :   0.8985
B( 20-C , 27-H ) :   0.8969 B( 21-N , 22-C ) :   1.1509 B( 21-N , 28-H ) :   0.8190
B( 22-C , 23-C ) :   0.9287 B( 22-C , 29-O ) :   2.0388 B( 23-C , 30-H ) :   0.9096
B( 23-C , 31-H ) :   0.9106 B( 23-C , 32-H ) :   0.9158

Dispersion correction           -0.020650736
FINAL SINGLE POINT ENERGY      -763.320033803525

DIPOLE MOMENT
-------------
                                X             Y             Z
Electronic contribution:     -2.61253      -0.00218      -1.20752
Nuclear contribution   :      0.92744       1.92753       1.24679
                        -----------------------------------------
Total Dipole Moment    :     -1.68510       1.92535       0.03927
                        -----------------------------------------
Magnitude (a.u.)       :      2.55892
Magnitude (Debye)      :      6.50426

Rotational constants in cm-1:     0.035848     0.005678     0.004946
Rotational constants in MHz :  1074.700993   170.231717   148.286288

                             ****ORCA TERMINATED NORMALLY****
TOTAL RUN TIME: 0 days 0 hours 3 minutes 36 seconds 493 msec
