                         Program Version 5.0.3 -  RELEASE  -
|  1> ! PBEh-3c def2/J TightSCF DefGrid3
|  2>
|  3> %maxcore 60000
|  4>
|  5> %pal
|  6> nprocs 4
|  7> end
|  8>
|  9> *xyzfile 0 2 P21.xyz
| 10>
| 11>                          ****END OF INPUT****

CARTESIAN COORDINATES (ANGSTROEM)
---------------------------------
  C      0.682684   -0.024767    0.000000
  N     -0.706279    0.087865    0.000000
  H      1.187277    0.199451    0.929583
  H     -1.175480   -0.231000   -0.835224
  H      1.187277    0.199451   -0.929583
  H     -1.175480   -0.231000    0.835224

 Total Charge           Charge          ....    0
 Multiplicity           Mult            ....    2
 Number of Electrons    NEL             ....   17
 Basis Dimension        Dim             ....   38

ORBITAL ENERGIES
----------------
                 SPIN UP ORBITALS
  NO   OCC          E(Eh)            E(eV)
   0   1.0000     -14.634896      -398.2358
   1   1.0000     -10.441764      -284.1349
   2   1.0000      -0.992280       -27.0013
   3   1.0000      -0.720240       -19.5987
   4   1.0000      -0.579501       -15.7690
   5   1.0000      -0.503372       -13.6975
   6   1.0000      -0.433670       -11.8007
   7   1.0000      -0.399778       -10.8785
   8   1.0000      -0.189198        -5.1483
   9   0.0000       0.137711         3.7473
  10   0.0000       0.190687         5.1889
  11   0.0000       0.201230         5.4757
  12   0.0000       0.274114         7.4590
  13   0.0000       0.297565         8.0972

                 SPIN DOWN ORBITALS
  NO   OCC          E(Eh)            E(eV)
   0   1.0000     -14.629279      -398.0829
   1   1.0000     -10.427787      -283.7545
   2   1.0000      -0.976067       -26.5601
   3   1.0000      -0.686569       -18.6825
   4   1.0000      -0.573530       -15.6066
   5   1.0000      -0.492082       -13.3902
   6   1.0000      -0.424721       -11.5572
   7   1.0000      -0.334716        -9.1081
   8   0.0000       0.040065         1.0902
   9   0.0000       0.142665         3.8821
  10   0.0000       0.193196         5.2571
  11   0.0000       0.216481         5.8908
  12   0.0000       0.282516         7.6877

MULLIKEN ATOMIC CHARGES AND SPIN POPULATIONS
--------------------------------------------
   0 C :   -0.377517    0.922271
   1 N :   -0.703059    0.176405
   2 H :    0.199139   -0.044811
   3 H :    0.341149   -0.004528
   4 H :    0.199139   -0.044811
   5 H :    0.341149   -0.004528
Sum of atomic charges         :    0.0000000

LOEWDIN ATOMIC CHARGES AND SPIN POPULATIONS
-------------------------------------------
   0 C :   -0.307606    0.826569
   1 N :   -0.397610    0.217047
   2 H :    0.115853   -0.020486
   3 H :    0.236755   -0.001322
   4 H :    0.115853   -0.020486
   5 H :    0.236755   -0.001322

  Mayer bond orders larger than 0.100000
B(  0-C ,  1-N ) :   1.2323 B(  0-C ,  2-H ) :   0.9299 B(  0-C ,  4-H ) :   0.9299
B(  1-N ,  3-H ) :   0.8486 B(  1-N ,  5-H ) :   0.8486

Dispersion correction           -0.001236464
FINAL SINGLE POINT ENERGY       -94.987091020228

DIPOLE MOMENT
-------------
                                X             Y             Z
Electronic contribution:     -0.63848      -0.06737       0.00000
Nuclear contribution   :      0.22702      -0.16748       0.00000
                        -----------------------------------------
Total Dipole Moment    :     -0.41145      -0.23485       0.00000
                        -----------------------------------------
Magnitude (a.u.)       :      0.47376
Magnitude (Debye)      :      1.20420

Rotational constants in cm-1:     4.919719     0.916289     0.792627
Rotational constants in MHz : 147489.471098 27469.654535 23762.365273

                             ****ORCA TERMINATED NORMALLY****
TOTAL RUN TIME: 0 days 0 hours 2 minutes 21 seconds 6 msec
