                         Program Version 5.0.3 -  RELEASE  -
|  1> ! PBEh-3c def2/J TightSCF DefGrid3
|  2>
|  3> %maxcore 60000
|  4>
|  5> %pal
|  6> nprocs 4
|  7> end
|  8>
|  9> *xyzfile 0 1 ts10.xyz
| 10>
| 11>                          ****END OF INPUT****

CARTESIAN COORDINATES (ANGSTROEM)
---------------------------------
  C     -0.345714   -0.172891    0.000000
  C      1.384377   -0.052007    0.000000
  N      0.980082    1.064066    0.000000
  H     -1.027259    0.672774    0.000000
  H     -0.495743   -0.755971    0.900485
  H     -0.495743   -0.755971   -0.900485

 Total Charge           Charge          ....    0
 Multiplicity           Mult            ....    1
 Number of Electrons    NEL             ....   22
 Basis Dimension        Dim             ....   51

ORBITAL ENERGIES
----------------

  NO   OCC          E(Eh)            E(eV)
   0   2.0000     -14.681595      -399.5065
   1   2.0000     -10.520971      -286.2902
   2   2.0000     -10.485397      -285.3222
   3   2.0000      -1.072420       -29.1820
   4   2.0000      -0.806067       -21.9342
   5   2.0000      -0.574980       -15.6460
   6   2.0000      -0.534693       -14.5497
   7   2.0000      -0.490175       -13.3383
   8   2.0000      -0.448194       -12.1960
   9   2.0000      -0.394633       -10.7385
  10   2.0000      -0.358005        -9.7418
  11   0.0000       0.016581         0.4512
  12   0.0000       0.061539         1.6746
  13   0.0000       0.094377         2.5681
  14   0.0000       0.156403         4.2559
  15   0.0000       0.197298         5.3687

MULLIKEN ATOMIC CHARGES
-----------------------
   0 C :   -0.657710
   1 C :    0.003384
   2 N :   -0.186417
   3 H :    0.280880
   4 H :    0.279931
   5 H :    0.279931
Sum of atomic charges:    0.0000000

LOEWDIN ATOMIC CHARGES
----------------------
   0 C :   -0.258999
   1 C :   -0.134421
   2 N :   -0.084468
   3 H :    0.159381
   4 H :    0.159253
   5 H :    0.159253

  Mayer bond orders larger than 0.100000
B(  0-C ,  1-C ) :   0.5670 B(  0-C ,  2-N ) :   0.5147 B(  0-C ,  3-H ) :   0.8652
B(  0-C ,  4-H ) :   0.8773 B(  0-C ,  5-H ) :   0.8773 B(  1-C ,  2-N ) :   2.2563

Dispersion correction           -0.001595059
FINAL SINGLE POINT ENERGY      -132.344200589199

DIPOLE MOMENT
-------------
                                X             Y             Z
Electronic contribution:      2.56341       1.20662      -0.00000
Nuclear contribution   :     -3.54874      -1.56159       0.00000
                        -----------------------------------------
Total Dipole Moment    :     -0.98533      -0.35497      -0.00000
                        -----------------------------------------
Magnitude (a.u.)       :      1.04732
Magnitude (Debye)      :      2.66208

Rotational constants in cm-1:     1.384386     0.542926     0.421893
Rotational constants in MHz : 41502.844899 16276.515011 12648.034955

                             ****ORCA TERMINATED NORMALLY****
TOTAL RUN TIME: 0 days 0 hours 1 minutes 19 seconds 742 msec
