                         Program Version 5.0.3 -  RELEASE  -
|  1> ! PBEh-3c def2/J TightSCF DefGrid3
|  2>
|  3> %maxcore 60000
|  4>
|  5> %pal
|  6> nprocs 4
|  7> end
|  8>
|  9> *xyzfile 0 1 8.xyz
| 10>
| 11>                          ****END OF INPUT****

CARTESIAN COORDINATES (ANGSTROEM)
---------------------------------
  N     -0.862170    2.619596    0.660609
  C     -1.876029    2.180997   -0.162084
  C     -1.438589    1.128704   -0.932352
  C     -0.072054    0.899157   -0.557014
  C      0.902470   -0.019000   -0.977847
  C      2.156352    0.002713   -0.379950
  C      2.460025    0.938428    0.634990
  C      1.512459    1.867584    1.053214
  C      0.252725    1.841157    0.453638
  H     -0.954030    3.335121    1.357803
  H     -2.850614    2.639584   -0.119812
  H      0.711539   -0.742783   -1.759788
  H      3.434564    0.949471    1.097878
  H      1.757655    2.582842    1.827784
  O      3.048835   -0.935439   -0.838915
  C      4.346636   -0.919148   -0.269982
  H      4.316786   -1.119544    0.803386
  H      4.848838    0.034659   -0.445837
  H      4.898881   -1.711721   -0.766208
  C     -2.265196    0.271424   -1.839512
  C     -2.969474   -0.856071   -1.060053
  N     -2.053953   -1.615692   -0.226787
  C     -1.867268   -1.300909    1.095519
  C     -0.647456   -1.933994    1.731930
  H     -1.629998   -0.163152   -2.616002
  H     -3.026226    0.864182   -2.352474
  H     -3.477203   -1.531969   -1.750658
  H     -3.710014   -0.431738   -0.385791
  H     -1.297702   -2.097888   -0.681914
  O     -2.620614   -0.567539    1.718730
  H      0.167759   -1.209612    1.699476
  H     -0.326353   -2.838468    1.217135
  H     -0.870578   -2.160954    2.770882

 Total Charge           Charge          ....    0
 Multiplicity           Mult            ....    1
 Number of Electrons    NEL             ....  124
 Basis Dimension        Dim             ....  287

ORBITAL ENERGIES
----------------

  NO   OCC          E(Eh)            E(eV)
   0   2.0000     -19.519452      -531.1513
   1   2.0000     -19.438956      -528.9609
   2   2.0000     -14.679340      -399.4451
   3   2.0000     -14.645676      -398.5291
   4   2.0000     -10.532407      -286.6014
   5   2.0000     -10.500793      -285.7411
   6   2.0000     -10.487854      -285.3890
   7   2.0000     -10.474223      -285.0181
   8   2.0000     -10.474016      -285.0125
   9   2.0000     -10.465193      -284.7724
  10   2.0000     -10.452572      -284.4290
  11   2.0000     -10.444311      -284.2041
  12   2.0000     -10.443949      -284.1943
  13   2.0000     -10.442694      -284.1602
  14   2.0000     -10.438011      -284.0327
  15   2.0000     -10.434560      -283.9388
  16   2.0000     -10.424372      -283.6616
  17   2.0000      -1.166839       -31.7513
  18   2.0000      -1.124102       -30.5884
  19   2.0000      -1.082487       -29.4560
  20   2.0000      -1.008691       -27.4479
  21   2.0000      -0.936711       -25.4892
  22   2.0000      -0.893524       -24.3140
  23   2.0000      -0.846491       -23.0342
  24   2.0000      -0.834769       -22.7152
  25   2.0000      -0.811123       -22.0718
  26   2.0000      -0.790745       -21.5173
  27   2.0000      -0.771291       -20.9879
  28   2.0000      -0.717319       -19.5193
  29   2.0000      -0.699957       -19.0468
  30   2.0000      -0.661824       -18.0091
  31   2.0000      -0.639201       -17.3935
  32   2.0000      -0.628902       -17.1133
  33   2.0000      -0.609871       -16.5954
  34   2.0000      -0.576386       -15.6843
  35   2.0000      -0.556203       -15.1350
  36   2.0000      -0.549158       -14.9434
  37   2.0000      -0.530116       -14.4252
  38   2.0000      -0.529685       -14.4135
  39   2.0000      -0.520263       -14.1571
  40   2.0000      -0.514558       -14.0018
  41   2.0000      -0.496477       -13.5098
  42   2.0000      -0.489890       -13.3306
  43   2.0000      -0.479789       -13.0557
  44   2.0000      -0.473202       -12.8765
  45   2.0000      -0.464260       -12.6331
  46   2.0000      -0.456118       -12.4116
  47   2.0000      -0.447074       -12.1655
  48   2.0000      -0.445681       -12.1276
  49   2.0000      -0.437389       -11.9020
  50   2.0000      -0.429160       -11.6780
  51   2.0000      -0.415000       -11.2927
  52   2.0000      -0.402942       -10.9646
  53   2.0000      -0.395981       -10.7752
  54   2.0000      -0.390285       -10.6202
  55   2.0000      -0.376687       -10.2502
  56   2.0000      -0.350835        -9.5467
  57   2.0000      -0.317196        -8.6313
  58   2.0000      -0.295904        -8.0520
  59   2.0000      -0.288241        -7.8434
  60   2.0000      -0.244325        -6.6484
  61   2.0000      -0.230447        -6.2708
  62   0.0000       0.005203         0.1416
  63   0.0000       0.059678         1.6239
  64   0.0000       0.077448         2.1075
  65   0.0000       0.093083         2.5329
  66   0.0000       0.125189         3.4066

MULLIKEN ATOMIC CHARGES
-----------------------
   0 N :   -0.699616
   1 C :   -0.016604
   2 C :    0.015191
   3 C :    0.068772
   4 C :   -0.449090
   5 C :    0.395113
   6 C :   -0.371122
   7 C :   -0.257708
   8 C :    0.366843
   9 H :    0.359266
  10 H :    0.238751
  11 H :    0.206237
  12 H :    0.230829
  13 H :    0.215937
  14 O :   -0.471127
  15 C :   -0.403792
  16 H :    0.202476
  17 H :    0.205701
  18 H :    0.238460
  19 C :   -0.536832
  20 C :   -0.277543
  21 N :   -0.617588
  22 C :    0.530359
  23 C :   -0.758499
  24 H :    0.219668
  25 H :    0.231936
  26 H :    0.220651
  27 H :    0.257095
  28 H :    0.349450
  29 O :   -0.428939
  30 H :    0.271439
  31 H :    0.210801
  32 H :    0.253483
Sum of atomic charges:    0.0000000

LOEWDIN ATOMIC CHARGES
----------------------
   0 N :   -0.153083
   1 C :   -0.057324
   2 C :   -0.110782
   3 C :   -0.049200
   4 C :   -0.172698
   5 C :    0.055046
   6 C :   -0.199293
   7 C :   -0.147181
   8 C :    0.006044
   9 H :    0.262662
  10 H :    0.136708
  11 H :    0.138490
  12 H :    0.139985
  13 H :    0.137406
  14 O :   -0.197042
  15 C :   -0.180843
  16 H :    0.111194
  17 H :    0.113009
  18 H :    0.129571
  19 C :   -0.235616
  20 C :   -0.146285
  21 N :   -0.246088
  22 C :    0.112899
  23 C :   -0.391490
  24 H :    0.127964
  25 H :    0.137231
  26 H :    0.119265
  27 H :    0.147886
  28 H :    0.248687
  29 O :   -0.279083
  30 H :    0.163104
  31 H :    0.128222
  32 H :    0.150635

  Mayer bond orders larger than 0.100000
B(  0-N ,  1-C ) :   1.1429 B(  0-N ,  8-C ) :   1.0057 B(  0-N ,  9-H ) :   0.8337
B(  1-C ,  2-C ) :   1.5543 B(  1-C , 10-H ) :   0.9123 B(  2-C ,  3-C ) :   1.2575
B(  2-C , 19-C ) :   0.9543 B(  3-C ,  4-C ) :   1.2848 B(  3-C ,  8-C ) :   1.2254
B(  4-C ,  5-C ) :   1.4439 B(  4-C ,  7-C ) :   0.1004 B(  4-C , 11-H ) :   0.9279
B(  5-C ,  6-C ) :   1.2813 B(  5-C , 14-O ) :   1.0100 B(  6-C ,  7-C ) :   1.4687
B(  6-C , 12-H ) :   0.9056 B(  7-C ,  8-C ) :   1.3172 B(  7-C , 13-H ) :   0.9202
B( 14-O , 15-C ) :   0.9582 B( 15-C , 16-H ) :   0.9078 B( 15-C , 17-H ) :   0.9074
B( 15-C , 18-H ) :   0.9239 B( 19-C , 20-C ) :   0.9602 B( 19-C , 24-H ) :   0.9221
B( 19-C , 25-H ) :   0.9214 B( 20-C , 21-N ) :   0.9589 B( 20-C , 26-H ) :   0.9176
B( 20-C , 27-H ) :   0.8939 B( 21-N , 22-C ) :   1.1196 B( 21-N , 28-H ) :   0.8263
B( 22-C , 23-C ) :   0.9325 B( 22-C , 29-O ) :   1.9991 B( 23-C , 30-H ) :   0.8962
B( 23-C , 31-H ) :   0.9216 B( 23-C , 32-H ) :   0.9164

Dispersion correction           -0.023390465
FINAL SINGLE POINT ENERGY      -763.327747025446

DIPOLE MOMENT
-------------
                                X             Y             Z
Electronic contribution:     -2.78253       6.03070       0.27127
Nuclear contribution   :      3.54801      -5.70553      -0.44001
                        -----------------------------------------
Total Dipole Moment    :      0.76548       0.32517      -0.16874
                        -----------------------------------------
Magnitude (a.u.)       :      0.84863
Magnitude (Debye)      :      2.15705

Rotational constants in cm-1:     0.023499     0.012123     0.010588
Rotational constants in MHz :   704.491417   363.428200   317.420110

                             ****ORCA TERMINATED NORMALLY****
TOTAL RUN TIME: 0 days 0 hours 4 minutes 21 seconds 23 msec
