                         Program Version 5.0.3 -  RELEASE  -
|  1> ! PBEh-3c def2/J TightSCF DefGrid3
|  2>
|  3> %maxcore 60000
|  4>
|  5> %pal
|  6> nprocs 4
|  7> end
|  8>
|  9> *xyzfile 0 1 09r.xyz
| 10>
| 11>                          ****END OF INPUT****

CARTESIAN COORDINATES (ANGSTROEM)
---------------------------------
  C     -0.713555    0.000000   -0.699766
  C     -1.240985    0.000000    0.558894
  S      0.000000    0.000000    1.769135
  C      1.240985    0.000000    0.558894
  C      0.713555    0.000000   -0.699766
  H     -1.318135    0.000000   -1.597060
  H     -2.278819    0.000000    0.853364
  H      2.278819    0.000000    0.853364
  H      1.318135    0.000000   -1.597060

 Total Charge           Charge          ....    0
 Multiplicity           Mult            ....    1
 Number of Electrons    NEL             ....   44
 Basis Dimension        Dim             ....   86

ORBITAL ENERGIES
----------------

  NO   OCC          E(Eh)            E(eV)
   0   2.0000     -89.616867     -2438.5989
   1   2.0000     -10.474263      -285.0192
   2   2.0000     -10.474254      -285.0189
   3   2.0000     -10.452148      -284.4174
   4   2.0000     -10.451720      -284.4058
   5   2.0000      -8.255815      -224.6521
   6   2.0000      -6.146063      -167.2429
   7   2.0000      -6.142574      -167.1479
   8   2.0000      -6.140384      -167.0883
   9   2.0000      -0.977160       -26.5899
  10   2.0000      -0.819094       -22.2887
  11   2.0000      -0.812627       -22.1127
  12   2.0000      -0.636527       -17.3208
  13   2.0000      -0.623218       -16.9586
  14   2.0000      -0.582474       -15.8499
  15   2.0000      -0.473861       -12.8944
  16   2.0000      -0.452336       -12.3087
  17   2.0000      -0.440801       -11.9948
  18   2.0000      -0.435603       -11.8534
  19   2.0000      -0.395021       -10.7491
  20   2.0000      -0.293775        -7.9940
  21   2.0000      -0.280361        -7.6290
  22   0.0000       0.009366         0.2549
  23   0.0000       0.076232         2.0744
  24   0.0000       0.090960         2.4752
  25   0.0000       0.143168         3.8958
  26   0.0000       0.162488         4.4215

MULLIKEN ATOMIC CHARGES
-----------------------
   0 C :   -0.159632
   1 C :   -0.427702
   2 S :    0.208053
   3 C :   -0.427702
   4 C :   -0.159631
   5 H :    0.229359
   6 H :    0.253949
   7 H :    0.253948
   8 H :    0.229359
Sum of atomic charges:    0.0000000

LOEWDIN ATOMIC CHARGES
----------------------
   0 C :   -0.177453
   1 C :   -0.296959
   2 S :    0.370148
   3 C :   -0.296959
   4 C :   -0.177453
   5 H :    0.142156
   6 H :    0.147182
   7 H :    0.147182
   8 H :    0.142156

  Mayer bond orders larger than 0.100000
B(  0-C ,  1-C ) :   1.5601 B(  0-C ,  4-C ) :   1.2767 B(  0-C ,  5-H ) :   0.9168
B(  1-C ,  2-S ) :   1.2072 B(  1-C ,  6-H ) :   0.9114 B(  2-S ,  3-C ) :   1.2072
B(  3-C ,  4-C ) :   1.5601 B(  3-C ,  7-H ) :   0.9114 B(  4-C ,  8-H ) :   0.9168

Dispersion correction           -0.004356563
FINAL SINGLE POINT ENERGY      -552.209330428993

DIPOLE MOMENT
-------------
                                X             Y             Z
Electronic contribution:     -0.00000       0.00000       3.49824
Nuclear contribution   :      0.00000       0.00000      -3.74081
                        -----------------------------------------
Total Dipole Moment    :     -0.00000       0.00000      -0.24257
                        -----------------------------------------
Magnitude (a.u.)       :      0.24257
Magnitude (Debye)      :      0.61656

Rotational constants in cm-1:     0.266744     0.178796     0.107045
Rotational constants in MHz :  7996.780708  5360.168787  3209.123038

                             ****ORCA TERMINATED NORMALLY****
TOTAL RUN TIME: 0 days 0 hours 1 minutes 20 seconds 272 msec
