                         Program Version 5.0.3 -  RELEASE  -
|  1> ! PBEh-3c def2/J TightSCF DefGrid3
|  2>
|  3> %maxcore 60000
|  4>
|  5> %pal
|  6> nprocs 4
|  7> end
|  8>
|  9> *xyzfile 0 1 t-hono.xyz
| 10>
| 11>                          ****END OF INPUT****

CARTESIAN COORDINATES (ANGSTROEM)
---------------------------------
  O      1.058942    0.239324    0.000000
  N      0.146968   -0.495421    0.000000
  O     -1.078619    0.225078    0.000000
  H     -1.730039   -0.487084    0.000000

 Total Charge           Charge          ....    0
 Multiplicity           Mult            ....    1
 Number of Electrons    NEL             ....   24
 Basis Dimension        Dim             ....   47

ORBITAL ENERGIES
----------------

  NO   OCC          E(Eh)            E(eV)
   0   2.0000     -19.579103      -532.7745
   1   2.0000     -19.559334      -532.2365
   2   2.0000     -14.831591      -403.5881
   3   2.0000      -1.349992       -36.7351
   4   2.0000      -1.166243       -31.7351
   5   2.0000      -0.767557       -20.8863
   6   2.0000      -0.640600       -17.4316
   7   2.0000      -0.579340       -15.7647
   8   2.0000      -0.569144       -15.4872
   9   2.0000      -0.482783       -13.1372
  10   2.0000      -0.406102       -11.0506
  11   2.0000      -0.335160        -9.1202
  12   0.0000      -0.042811        -1.1649
  13   0.0000       0.120609         3.2819
  14   0.0000       0.174124         4.7382
  15   0.0000       0.379856        10.3364
  16   0.0000       0.695998        18.9391

MULLIKEN ATOMIC CHARGES
-----------------------
   0 O :   -0.209007
   1 N :    0.287406
   2 O :   -0.510814
   3 H :    0.432415
Sum of atomic charges:   -0.0000000

LOEWDIN ATOMIC CHARGES
----------------------
   0 O :   -0.087526
   1 N :    0.106977
   2 O :   -0.326492
   3 H :    0.307041

  Mayer bond orders larger than 0.100000
B(  0-O ,  1-N ) :   1.9894 B(  0-O ,  2-O ) :   0.1585 B(  1-N ,  2-O ) :   1.0422
B(  2-O ,  3-H ) :   0.7760

Dispersion correction           -0.000686671
FINAL SINGLE POINT ENERGY      -205.262463631730

DIPOLE MOMENT
-------------
                                X             Y             Z
Electronic contribution:      0.93533      -0.11795      -0.00000
Nuclear contribution   :     -1.62256      -0.45282       0.00000
                        -----------------------------------------
Total Dipole Moment    :     -0.68723      -0.57077      -0.00000
                        -----------------------------------------
Magnitude (a.u.)       :      0.89335
Magnitude (Debye)      :      2.27070

Rotational constants in cm-1:     3.119516     0.422776     0.372318
Rotational constants in MHz : 93520.747994 12674.516755 11161.799824

                             ****ORCA TERMINATED NORMALLY****
TOTAL RUN TIME: 0 days 0 hours 0 minutes 47 seconds 298 msec
