                         Program Version 5.0.3 -  RELEASE  -
|  1> ! PBEh-3c def2/J TightSCF DefGrid3
|  2>
|  3> %maxcore 60000
|  4>
|  5> %pal
|  6> nprocs 4
|  7> end
|  8>
|  9> *xyzfile 0 1 h5.xyz
| 10>
| 11>                          ****END OF INPUT****

CARTESIAN COORDINATES (ANGSTROEM)
---------------------------------
  C     -3.148837   -0.563078    0.000000
  C     -1.922847    0.340590    0.000000
  C     -0.617915   -0.444601    0.000000
  C      0.617915    0.444601    0.000000
  C      1.922847   -0.340590    0.000000
  C      3.148837    0.563078    0.000000
  H     -3.154974   -1.206499    0.879688
  H     -4.073465    0.011963    0.000000
  H     -3.154974   -1.206499   -0.879688
  H     -1.946536    0.994687    0.874517
  H     -1.946536    0.994687   -0.874517
  H     -0.591947   -1.100062    0.875366
  H     -0.591947   -1.100062   -0.875366
  H      0.591947    1.100062    0.875366
  H      0.591947    1.100062   -0.875366
  H      1.946536   -0.994687    0.874517
  H      1.946536   -0.994687   -0.874517
  H      3.154974    1.206499    0.879688
  H      4.073465   -0.011963    0.000000
  H      3.154974    1.206499   -0.879688

 Total Charge           Charge          ....    0
 Multiplicity           Mult            ....    1
 Number of Electrons    NEL             ....   50
 Basis Dimension        Dim             ....  118

ORBITAL ENERGIES
----------------

  NO   OCC          E(Eh)            E(eV)
   0   2.0000     -10.426640      -283.7233
   1   2.0000     -10.426614      -283.7226
   2   2.0000     -10.424788      -283.6729
   3   2.0000     -10.424556      -283.6666
   4   2.0000     -10.418671      -283.5065
   5   2.0000     -10.418663      -283.5062
   6   2.0000      -0.898141       -24.4397
   7   2.0000      -0.856029       -23.2937
   8   2.0000      -0.790995       -21.5241
   9   2.0000      -0.714109       -19.4319
  10   2.0000      -0.651984       -17.7414
  11   2.0000      -0.644445       -17.5363
  12   2.0000      -0.540619       -14.7110
  13   2.0000      -0.503792       -13.7089
  14   2.0000      -0.492969       -13.4144
  15   2.0000      -0.476575       -12.9683
  16   2.0000      -0.452674       -12.3179
  17   2.0000      -0.433412       -11.7937
  18   2.0000      -0.429446       -11.6858
  19   2.0000      -0.403840       -10.9890
  20   2.0000      -0.389175       -10.5900
  21   2.0000      -0.373591       -10.1659
  22   2.0000      -0.371404       -10.1064
  23   2.0000      -0.365411        -9.9433
  24   2.0000      -0.354546        -9.6477
  25   0.0000       0.135064         3.6753
  26   0.0000       0.149320         4.0632
  27   0.0000       0.177511         4.8303
  28   0.0000       0.180004         4.8982
  29   0.0000       0.187398         5.0993

MULLIKEN ATOMIC CHARGES
-----------------------
   0 C :   -0.639219
   1 C :   -0.409934
   2 C :   -0.395613
   3 C :   -0.395613
   4 C :   -0.409934
   5 C :   -0.639219
   6 H :    0.208755
   7 H :    0.218464
   8 H :    0.208755
   9 H :    0.204643
  10 H :    0.204643
  11 H :    0.199753
  12 H :    0.199753
  13 H :    0.199753
  14 H :    0.199753
  15 H :    0.204643
  16 H :    0.204643
  17 H :    0.208755
  18 H :    0.218463
  19 H :    0.208755
Sum of atomic charges:   -0.0000000

LOEWDIN ATOMIC CHARGES
----------------------
   0 C :   -0.362088
   1 C :   -0.245697
   2 C :   -0.240088
   3 C :   -0.240088
   4 C :   -0.245697
   5 C :   -0.362088
   6 H :    0.123284
   7 H :    0.125774
   8 H :    0.123284
   9 H :    0.119289
  10 H :    0.119289
  11 H :    0.118477
  12 H :    0.118477
  13 H :    0.118477
  14 H :    0.118477
  15 H :    0.119289
  16 H :    0.119289
  17 H :    0.123284
  18 H :    0.125774
  19 H :    0.123284

  Mayer bond orders larger than 0.100000
B(  0-C ,  1-C ) :   0.9989 B(  0-C ,  6-H ) :   0.9297 B(  0-C ,  7-H ) :   0.9324
B(  0-C ,  8-H ) :   0.9297 B(  1-C ,  2-C ) :   0.9914 B(  1-C ,  9-H ) :   0.9206
B(  1-C , 10-H ) :   0.9206 B(  2-C ,  3-C ) :   0.9974 B(  2-C , 11-H ) :   0.9183
B(  2-C , 12-H ) :   0.9183 B(  3-C ,  4-C ) :   0.9914 B(  3-C , 13-H ) :   0.9183
B(  3-C , 14-H ) :   0.9183 B(  4-C ,  5-C ) :   0.9989 B(  4-C , 15-H ) :   0.9206
B(  4-C , 16-H ) :   0.9206 B(  5-C , 17-H ) :   0.9297 B(  5-C , 18-H ) :   0.9324
B(  5-C , 19-H ) :   0.9297

Dispersion correction           -0.008528480
FINAL SINGLE POINT ENERGY      -236.561552633044

DIPOLE MOMENT
-------------
                                X             Y             Z
Electronic contribution:      0.00000      -0.00000      -0.00000
Nuclear contribution   :     -0.00000      -0.00000       0.00000
                        -----------------------------------------
Total Dipole Moment    :      0.00000      -0.00000      -0.00000
                        -----------------------------------------
Magnitude (a.u.)       :      0.00000
Magnitude (Debye)      :      0.00000

Rotational constants in cm-1:     0.489179     0.038273     0.036941
Rotational constants in MHz : 14665.208455  1147.383267  1107.469646

                             ****ORCA TERMINATED NORMALLY****
TOTAL RUN TIME: 0 days 0 hours 1 minutes 3 seconds 266 msec
