                         Program Version 5.0.3 -  RELEASE  -
|  1> ! PBEh-3c def2/J TightSCF DefGrid3
|  2>
|  3> %maxcore 60000
|  4>
|  5> %pal
|  6> nprocs 4
|  7> end
|  8>
|  9> *xyzfile 0 1 06.xyz
| 10>
| 11>                          ****END OF INPUT****

CARTESIAN COORDINATES (ANGSTROEM)
---------------------------------
  O     -1.478619   -2.019177   -0.384248
  N     -1.545253    0.230843    0.002289
  N      1.351765    0.230631   -0.032892
  N      1.307316   -2.041644    0.402874
  C     -2.198948    1.397365    0.216897
  C     -2.158381   -0.997089   -0.206883
  C     -3.596601   -0.938535   -0.192700
  C     -4.266738    0.236327    0.019155
  C      2.034423   -0.913685    0.151169
  C      3.442763   -0.934950    0.137562
  C      4.137594    0.240239   -0.069534
  C      3.428975    1.428162   -0.261918
  C      2.047017    1.361993   -0.234479
  C     -3.564258    1.444972    0.233134
  H     -1.573917    2.265070    0.371561
  H     -4.121121   -1.868186   -0.354868
  H     -0.507524    0.227873   -0.009588
  H     -5.348803    0.237403    0.024201
  H      3.964925   -1.869476    0.290747
  H      5.218947    0.233261   -0.083276
  H      3.930096    2.369092   -0.429947
  H      1.452991    2.256045   -0.383998
  H     -4.073032    2.379417    0.404500
  H      1.788475   -2.914618    0.277097
  H      0.327910   -2.041335    0.113145

 Total Charge           Charge          ....    0
 Multiplicity           Mult            ....    1
 Number of Electrons    NEL             ....  100
 Basis Dimension        Dim             ....  232

ORBITAL ENERGIES
----------------

  NO   OCC          E(Eh)            E(eV)
   0   2.0000     -19.447889      -529.2040
   1   2.0000     -14.682005      -399.5177
   2   2.0000     -14.642479      -398.4421
   3   2.0000     -14.628885      -398.0722
   4   2.0000     -10.544069      -286.9187
   5   2.0000     -10.526007      -286.4272
   6   2.0000     -10.505648      -285.8732
   7   2.0000     -10.488810      -285.4150
   8   2.0000     -10.470449      -284.9154
   9   2.0000     -10.468902      -284.8733
  10   2.0000     -10.450670      -284.3772
  11   2.0000     -10.450030      -284.3598
  12   2.0000     -10.445615      -284.2396
  13   2.0000     -10.445465      -284.2356
  14   2.0000      -1.134700       -30.8767
  15   2.0000      -1.070816       -29.1384
  16   2.0000      -1.051520       -28.6133
  17   2.0000      -0.984900       -26.8005
  18   2.0000      -0.909512       -24.7491
  19   2.0000      -0.899791       -24.4846
  20   2.0000      -0.843532       -22.9537
  21   2.0000      -0.833786       -22.6885
  22   2.0000      -0.728301       -19.8181
  23   2.0000      -0.719182       -19.5699
  24   2.0000      -0.710549       -19.3350
  25   2.0000      -0.698666       -19.0117
  26   2.0000      -0.624518       -16.9940
  27   2.0000      -0.603188       -16.4136
  28   2.0000      -0.588243       -16.0069
  29   2.0000      -0.567108       -15.4318
  30   2.0000      -0.554061       -15.0768
  31   2.0000      -0.545391       -14.8409
  32   2.0000      -0.521357       -14.1868
  33   2.0000      -0.515286       -14.0216
  34   2.0000      -0.505292       -13.7497
  35   2.0000      -0.493811       -13.4373
  36   2.0000      -0.484765       -13.1911
  37   2.0000      -0.475053       -12.9268
  38   2.0000      -0.462403       -12.5826
  39   2.0000      -0.444341       -12.0911
  40   2.0000      -0.433753       -11.8030
  41   2.0000      -0.428081       -11.6487
  42   2.0000      -0.391432       -10.6514
  43   2.0000      -0.372468       -10.1354
  44   2.0000      -0.348189        -9.4747
  45   2.0000      -0.336115        -9.1461
  46   2.0000      -0.333090        -9.0638
  47   2.0000      -0.306492        -8.3401
  48   2.0000      -0.255253        -6.9458
  49   2.0000      -0.253234        -6.8908
  50   0.0000      -0.013440        -0.3657
  51   0.0000      -0.002847        -0.0775
  52   0.0000       0.030904         0.8409
  53   0.0000       0.042221         1.1489
  54   0.0000       0.123607         3.3635

MULLIKEN ATOMIC CHARGES
-----------------------
   0 O :   -0.495428
   1 N :   -0.700045
   2 N :   -0.533589
   3 N :   -0.843733
   4 C :    0.068082
   5 C :    0.570260
   6 C :   -0.411036
   7 C :   -0.098187
   8 C :    0.532673
   9 C :   -0.366918
  10 C :   -0.112315
  11 C :   -0.342945
  12 C :    0.013243
  13 C :   -0.366289
  14 H :    0.250999
  15 H :    0.247938
  16 H :    0.447551
  17 H :    0.234856
  18 H :    0.225351
  19 H :    0.231610
  20 H :    0.225022
  21 H :    0.219580
  22 H :    0.232142
  23 H :    0.346157
  24 H :    0.425021
Sum of atomic charges:   -0.0000000

LOEWDIN ATOMIC CHARGES
----------------------
   0 O :   -0.322737
   1 N :   -0.153093
   2 N :   -0.201381
   3 N :   -0.380532
   4 C :   -0.021664
   5 C :    0.110028
   6 C :   -0.191308
   7 C :   -0.088191
   8 C :    0.091406
   9 C :   -0.198765
  10 C :   -0.086610
  11 C :   -0.210465
  12 C :   -0.041831
  13 C :   -0.217482
  14 H :    0.140714
  15 H :    0.151140
  16 H :    0.277619
  17 H :    0.142660
  18 H :    0.138886
  19 H :    0.141088
  20 H :    0.140266
  21 H :    0.124095
  22 H :    0.143820
  23 H :    0.246977
  24 H :    0.265360

  Mayer bond orders larger than 0.100000
B(  0-O ,  5-C ) :   1.8082 B(  0-O , 24-H ) :   0.1255 B(  1-N ,  4-C ) :   1.2111
B(  1-N ,  5-C ) :   1.0656 B(  1-N , 16-H ) :   0.6272 B(  2-N ,  8-C ) :   1.3621
B(  2-N , 12-C ) :   1.4304 B(  2-N , 16-H ) :   0.1572 B(  3-N ,  8-C ) :   1.1698
B(  3-N , 23-H ) :   0.8499 B(  3-N , 24-H ) :   0.6886 B(  4-C , 13-C ) :   1.5603
B(  4-C , 14-H ) :   0.9055 B(  5-C ,  6-C ) :   1.1416 B(  6-C ,  7-C ) :   1.5596
B(  6-C , 15-H ) :   0.9132 B(  7-C , 13-C ) :   1.2444 B(  7-C , 17-H ) :   0.9183
B(  8-C ,  9-C ) :   1.2712 B(  9-C , 10-C ) :   1.4920 B(  9-C , 18-H ) :   0.9123
B( 10-C , 11-C ) :   1.3483 B( 10-C , 19-H ) :   0.9180 B( 11-C , 12-C ) :   1.4393
B( 11-C , 20-H ) :   0.9155 B( 12-C , 21-H ) :   0.9181 B( 13-C , 22-H ) :   0.9165

Dispersion correction           -0.015551966
FINAL SINGLE POINT ENERGY      -625.822073886744

DIPOLE MOMENT
-------------
                                X             Y             Z
Electronic contribution:     -1.38438      -1.54488      -0.33205
Nuclear contribution   :      1.81611       2.53742       0.37771
                        -----------------------------------------
Total Dipole Moment    :      0.43173       0.99255       0.04567
                        -----------------------------------------
Magnitude (a.u.)       :      1.08334
Magnitude (Debye)      :      2.75363

Rotational constants in cm-1:     0.053881     0.011343     0.009473
Rotational constants in MHz :  1615.299600   340.057601   284.003328

                             ****ORCA TERMINATED NORMALLY****
TOTAL RUN TIME: 0 days 0 hours 2 minutes 51 seconds 115 msec
