                         Program Version 5.0.3 -  RELEASE  -
|  1> ! PBEh-3c def2/J TightSCF DefGrid3
|  2>
|  3> %maxcore 60000
|  4>
|  5> %pal
|  6> nprocs 4
|  7> end
|  8>
|  9> *xyzfile 0 1 bf3.xyz
| 10>
| 11>                          ****END OF INPUT****

CARTESIAN COORDINATES (ANGSTROEM)
---------------------------------
  B      0.000000    0.000000    0.000000
  F      1.310300   -0.000035    0.000000
  F     -0.655180   -1.134735    0.000000
  F     -0.655120    1.134770    0.000000

 Total Charge           Charge          ....    0
 Multiplicity           Mult            ....    1
 Number of Electrons    NEL             ....   32
 Basis Dimension        Dim             ....   60

ORBITAL ENERGIES
----------------

  NO   OCC          E(Eh)            E(eV)
   0   2.0000     -25.135211      -683.9639
   1   2.0000     -25.135135      -683.9618
   2   2.0000     -25.135133      -683.9618
   3   2.0000      -7.142536      -194.3583
   4   2.0000      -1.401826       -38.1456
   5   2.0000      -1.359870       -37.0039
   6   2.0000      -1.359868       -37.0039
   7   2.0000      -0.687995       -18.7213
   8   2.0000      -0.647943       -17.6314
   9   2.0000      -0.647943       -17.6314
  10   2.0000      -0.607742       -16.5375
  11   2.0000      -0.541334       -14.7305
  12   2.0000      -0.541333       -14.7304
  13   2.0000      -0.529988       -14.4217
  14   2.0000      -0.529982       -14.4216
  15   2.0000      -0.498900       -13.5757
  16   0.0000       0.063596         1.7305
  17   0.0000       0.114691         3.1209
  18   0.0000       0.233667         6.3584
  19   0.0000       0.233671         6.3585
  20   0.0000       0.281164         7.6509

MULLIKEN ATOMIC CHARGES
-----------------------
   0 B :    0.813337
   1 F :   -0.271104
   2 F :   -0.271116
   3 F :   -0.271116
Sum of atomic charges:   -0.0000000

LOEWDIN ATOMIC CHARGES
----------------------
   0 B :    0.294322
   1 F :   -0.098101
   2 F :   -0.098110
   3 F :   -0.098110

  Mayer bond orders larger than 0.100000
B(  0-B ,  1-F ) :   1.1307 B(  0-B ,  2-F ) :   1.1307 B(  0-B ,  3-F ) :   1.1307

Dispersion correction           -0.000612853
FINAL SINGLE POINT ENERGY      -323.937666610482

DIPOLE MOMENT
-------------
                                X             Y             Z
Electronic contribution:      0.00004       0.00000       0.00000
Nuclear contribution   :     -0.00000       0.00000       0.00000
                        -----------------------------------------
Total Dipole Moment    :      0.00004       0.00000       0.00000
                        -----------------------------------------
Magnitude (a.u.)       :      0.00004
Magnitude (Debye)      :      0.00010

Rotational constants in cm-1:     0.344553     0.344553     0.172277
Rotational constants in MHz : 10329.447288 10329.445852  5164.723285

                             ****ORCA TERMINATED NORMALLY****
TOTAL RUN TIME: 0 days 0 hours 0 minutes 23 seconds 860 msec
