                         Program Version 5.0.3 -  RELEASE  -
|  1> ! PBEh-3c def2/J TightSCF DefGrid3
|  2>
|  3> %maxcore 60000
|  4>
|  5> %pal
|  6> nprocs 4
|  7> end
|  8>
|  9> *xyzfile 0 1 BCl3PMe3.xyz
| 10>
| 11>                          ****END OF INPUT****

CARTESIAN COORDINATES (ANGSTROEM)
---------------------------------
  B      0.000000    0.000000   -0.774367
  P      0.000000    0.000000    1.205574
  C      0.000000   -1.703801    1.866182
  C     -1.475535    0.851901    1.866182
  C      1.475535    0.851901    1.866182
  Cl     0.000000    1.793809   -1.286957
  Cl    -1.553484   -0.896905   -1.286957
  Cl     1.553484   -0.896905   -1.286957
  H      2.364481    0.341282    1.492874
  H      1.477799    1.877060    1.492874
  H      1.470874    0.849209    2.958166
  H     -1.477799    1.877060    1.492874
  H     -2.364481    0.341282    1.492874
  H     -1.470874    0.849209    2.958166
  H      0.000000   -1.698419    2.958166
  H     -0.886682   -2.218341    1.492874
  H      0.886682   -2.218341    1.492874

 Total Charge           Charge          ....    0
 Multiplicity           Mult            ....    1
 Number of Electrons    NEL             ....   98
 Basis Dimension        Dim             ....  150

ORBITAL ENERGIES
----------------

  NO   OCC          E(Eh)            E(eV)
   0   2.0000    -102.267456     -2782.8390
   1   2.0000    -102.267450     -2782.8388
   2   2.0000    -102.267399     -2782.8374
   3   2.0000     -77.817268     -2117.5155
   4   2.0000     -10.478933      -285.1463
   5   2.0000     -10.478933      -285.1463
   6   2.0000     -10.478913      -285.1457
   7   2.0000      -9.733845      -264.8714
   8   2.0000      -9.733844      -264.8714
   9   2.0000      -9.733806      -264.8703
  10   2.0000      -7.419822      -201.9036
  11   2.0000      -7.419819      -201.9035
  12   2.0000      -7.419806      -201.9032
  13   2.0000      -7.414385      -201.7557
  14   2.0000      -7.414372      -201.7553
  15   2.0000      -7.414371      -201.7553
  16   2.0000      -7.414218      -201.7511
  17   2.0000      -7.414218      -201.7511
  18   2.0000      -7.414213      -201.7510
  19   2.0000      -7.058910      -192.0827
  20   2.0000      -6.887706      -187.4240
  21   2.0000      -4.979015      -135.4859
  22   2.0000      -4.979015      -135.4859
  23   2.0000      -4.977548      -135.4460
  24   2.0000      -0.926899       -25.2222
  25   2.0000      -0.895296       -24.3622
  26   2.0000      -0.867905       -23.6169
  27   2.0000      -0.867903       -23.6168
  28   2.0000      -0.822184       -22.3728
  29   2.0000      -0.822183       -22.3727
  30   2.0000      -0.667973       -18.1765
  31   2.0000      -0.563520       -15.3342
  32   2.0000      -0.531449       -14.4615
  33   2.0000      -0.531448       -14.4614
  34   2.0000      -0.523877       -14.2554
  35   2.0000      -0.506629       -13.7861
  36   2.0000      -0.506627       -13.7860
  37   2.0000      -0.485924       -13.2227
  38   2.0000      -0.449963       -12.2441
  39   2.0000      -0.449963       -12.2441
  40   2.0000      -0.432400       -11.7662
  41   2.0000      -0.426887       -11.6162
  42   2.0000      -0.426887       -11.6162
  43   2.0000      -0.357195        -9.7198
  44   2.0000      -0.357193        -9.7197
  45   2.0000      -0.335586        -9.1317
  46   2.0000      -0.335585        -9.1317
  47   2.0000      -0.318906        -8.6779
  48   2.0000      -0.316605        -8.6153
  49   0.0000       0.059121         1.6088
  50   0.0000       0.059121         1.6088
  51   0.0000       0.094406         2.5689
  52   0.0000       0.097927         2.6647
  53   0.0000       0.119198         3.2436

MULLIKEN ATOMIC CHARGES
-----------------------
   0 B :    0.301086
   1 P :    0.532111
   2 C :   -0.837105
   3 C :   -0.837227
   4 C :   -0.837227
   5 Cl:   -0.260905
   6 Cl:   -0.260922
   7 Cl:   -0.260922
   8 H :    0.282831
   9 H :    0.282825
  10 H :    0.254735
  11 H :    0.282825
  12 H :    0.282831
  13 H :    0.254735
  14 H :    0.254737
  15 H :    0.282795
  16 H :    0.282795
Sum of atomic charges:    0.0000000

LOEWDIN ATOMIC CHARGES
----------------------
   0 B :   -0.456675
   1 P :    0.735642
   2 C :   -0.504521
   3 C :   -0.504550
   4 C :   -0.504550
   5 Cl:   -0.069702
   6 Cl:   -0.069709
   7 Cl:   -0.069709
   8 H :    0.166446
   9 H :    0.166444
  10 H :    0.148373
  11 H :    0.166444
  12 H :    0.166446
  13 H :    0.148373
  14 H :    0.148374
  15 H :    0.166436
  16 H :    0.166436

  Mayer bond orders larger than 0.100000
B(  0-B ,  1-P ) :   0.7582 B(  0-B ,  5-Cl) :   1.0132 B(  0-B ,  6-Cl) :   1.0132
B(  0-B ,  7-Cl) :   1.0132 B(  1-P ,  2-C ) :   0.9887 B(  1-P ,  3-C ) :   0.9887
B(  1-P ,  4-C ) :   0.9887 B(  2-C , 14-H ) :   0.8995 B(  2-C , 15-H ) :   0.8866
B(  2-C , 16-H ) :   0.8866 B(  3-C , 11-H ) :   0.8866 B(  3-C , 12-H ) :   0.8866
B(  3-C , 13-H ) :   0.8995 B(  4-C ,  8-H ) :   0.8866 B(  4-C ,  9-H ) :   0.8866
B(  4-C , 10-H ) :   0.8995

Dispersion correction           -0.012042968
FINAL SINGLE POINT ENERGY     -1864.515839602533

DIPOLE MOMENT
-------------
                                X             Y             Z
Electronic contribution:     -0.00000      -0.00000     -18.70810
Nuclear contribution   :      0.00000       0.00000      21.74459
                        -----------------------------------------
Total Dipole Moment    :     -0.00000       0.00000       3.03649
                        -----------------------------------------
Magnitude (a.u.)       :      3.03649
Magnitude (Debye)      :      7.71814

Rotational constants in cm-1:     0.034398     0.026528     0.026528
Rotational constants in MHz :  1031.220837   795.291866   795.291730

                             ****ORCA TERMINATED NORMALLY****
TOTAL RUN TIME: 0 days 0 hours 1 minutes 35 seconds 436 msec
