                         Program Version 5.0.3 -  RELEASE  -
|  1> ! PBEh-3c def2/J TightSCF DefGrid3
|  2>
|  3> %maxcore 60000
|  4>
|  5> %pal
|  6> nprocs 4
|  7> end
|  8>
|  9> *xyzfile 1 1 c2h2f42.xyz
| 10>
| 11>                          ****END OF INPUT****

CARTESIAN COORDINATES (ANGSTROEM)
---------------------------------
  C     -0.296888   -0.716299   -0.328312
  H      0.316618   -1.479568   -0.809354
  F     -0.293450   -1.049719    1.097246
  F     -1.543100   -0.725253   -0.713642
  C      0.296888    0.716299   -0.328312
  H     -0.316618    1.479568   -0.809354
  F      0.293450    1.049719    1.097246
  F      1.543100    0.725253   -0.713642
  H      0.000000    0.000000    1.508124

 Total Charge           Charge          ....    1
 Multiplicity           Mult            ....    1
 Number of Electrons    NEL             ....   50
 Basis Dimension        Dim             ....   96

ORBITAL ENERGIES
----------------

  NO   OCC          E(Eh)            E(eV)
   0   2.0000     -25.437666      -692.1941
   1   2.0000     -25.437625      -692.1930
   2   2.0000     -25.379123      -690.6010
   3   2.0000     -25.379109      -690.6007
   4   2.0000     -10.890563      -296.3473
   5   2.0000     -10.890391      -296.3426
   6   2.0000      -1.706094       -46.4252
   7   2.0000      -1.659555       -45.1588
   8   2.0000      -1.627639       -44.2903
   9   2.0000      -1.612269       -43.8721
  10   2.0000      -1.135068       -30.8868
  11   2.0000      -1.018586       -27.7171
  12   2.0000      -1.002549       -27.2808
  13   2.0000      -0.922921       -25.1139
  14   2.0000      -0.917874       -24.9766
  15   2.0000      -0.881744       -23.9935
  16   2.0000      -0.876687       -23.8559
  17   2.0000      -0.843891       -22.9635
  18   2.0000      -0.818180       -22.2638
  19   2.0000      -0.795150       -21.6371
  20   2.0000      -0.780757       -21.2455
  21   2.0000      -0.760760       -20.7013
  22   2.0000      -0.739948       -20.1350
  23   2.0000      -0.721667       -19.6376
  24   2.0000      -0.672175       -18.2908
  25   0.0000      -0.215232        -5.8568
  26   0.0000      -0.113380        -3.0852
  27   0.0000      -0.074552        -2.0287
  28   0.0000      -0.073270        -1.9938
  29   0.0000      -0.022851        -0.6218

MULLIKEN ATOMIC CHARGES
-----------------------
   0 C :    0.446048
   1 H :    0.313367
   2 F :   -0.354376
   3 F :   -0.214505
   4 C :    0.446048
   5 H :    0.313367
   6 F :   -0.354376
   7 F :   -0.214505
   8 H :    0.618932
Sum of atomic charges:    1.0000000

LOEWDIN ATOMIC CHARGES
----------------------
   0 C :    0.285322
   1 H :    0.183336
   2 F :   -0.148041
   3 F :   -0.064119
   4 C :    0.285322
   5 H :    0.183336
   6 F :   -0.148041
   7 F :   -0.064119
   8 H :    0.487006

  Mayer bond orders larger than 0.100000
B(  0-C ,  1-H ) :   0.8505 B(  0-C ,  2-F ) :   0.7089 B(  0-C ,  3-F ) :   1.1150
B(  0-C ,  4-C ) :   0.8647 B(  2-F ,  8-H ) :   0.3087 B(  4-C ,  5-H ) :   0.8505
B(  4-C ,  6-F ) :   0.7089 B(  4-C ,  7-F ) :   1.1150 B(  6-F ,  8-H ) :   0.3087

Dispersion correction           -0.002729606
FINAL SINGLE POINT ENERGY      -476.058055886602

DIPOLE MOMENT
-------------
                                X             Y             Z
Electronic contribution:     -0.00000      -0.00000       0.77686
Nuclear contribution   :     -0.00000      -0.00000      -0.75768
                        -----------------------------------------
Total Dipole Moment    :     -0.00000      -0.00000       0.01918
                        -----------------------------------------
Magnitude (a.u.)       :      0.01918
Magnitude (Debye)      :      0.04876

Rotational constants in cm-1:     0.169993     0.096518     0.077596
Rotational constants in MHz :  5096.266617  2893.533447  2326.268167

                             ****ORCA TERMINATED NORMALLY****
TOTAL RUN TIME: 0 days 0 hours 1 minutes 13 seconds 291 msec
