                         Program Version 5.0.3 -  RELEASE  -
|  1> ! PBEh-3c def2/J TightSCF DefGrid3
|  2>
|  3> %maxcore 60000
|  4>
|  5> %pal
|  6> nprocs 4
|  7> end
|  8>
|  9> *xyzfile 0 1 05A.xyz
| 10>
| 11>                          ****END OF INPUT****

CARTESIAN COORDINATES (ANGSTROEM)
---------------------------------
  O      0.267447    1.036194    0.243833
  H      1.211680    1.012398    0.039697
  C     -0.248483   -0.251811   -0.021507
  H     -1.306363   -0.236789    0.227189
  H     -0.153028   -0.533195   -1.072957
  H      0.228747   -1.026796    0.583745

 Total Charge           Charge          ....    0
 Multiplicity           Mult            ....    1
 Number of Electrons    NEL             ....   18
 Basis Dimension        Dim             ....   38

ORBITAL ENERGIES
----------------

  NO   OCC          E(Eh)            E(eV)
   0   2.0000     -19.483782      -530.1807
   1   2.0000     -10.472836      -284.9803
   2   2.0000      -1.119749       -30.4699
   3   2.0000      -0.759713       -20.6728
   4   2.0000      -0.567810       -15.4509
   5   2.0000      -0.497475       -13.5370
   6   2.0000      -0.480903       -13.0860
   7   2.0000      -0.388480       -10.5711
   8   2.0000      -0.325237        -8.8501
   9   0.0000       0.129659         3.5282
  10   0.0000       0.194114         5.2821
  11   0.0000       0.219655         5.9771
  12   0.0000       0.233479         6.3533
  13   0.0000       0.240217         6.5366

MULLIKEN ATOMIC CHARGES
-----------------------
   0 O :   -0.623067
   1 H :    0.412530
   2 C :   -0.371562
   3 H :    0.217632
   4 H :    0.182441
   5 H :    0.182026
Sum of atomic charges:    0.0000000

LOEWDIN ATOMIC CHARGES
----------------------
   0 O :   -0.420222
   1 H :    0.306793
   2 C :   -0.200158
   3 H :    0.121608
   4 H :    0.095989
   5 H :    0.095990

  Mayer bond orders larger than 0.100000
B(  0-O ,  1-H ) :   0.7977 B(  0-O ,  2-C ) :   1.0195 B(  2-C ,  3-H ) :   0.9246
B(  2-C ,  4-H ) :   0.9173 B(  2-C ,  5-H ) :   0.9181

Dispersion correction           -0.001081297
FINAL SINGLE POINT ENERGY      -115.467123021275

DIPOLE MOMENT
-------------
                                X             Y             Z
Electronic contribution:      0.56084       1.69450       0.37308
Nuclear contribution   :     -0.16378      -2.22122      -0.60694
                        -----------------------------------------
Total Dipole Moment    :      0.39706      -0.52672      -0.23386
                        -----------------------------------------
Magnitude (a.u.)       :      0.69985
Magnitude (Debye)      :      1.77887

Rotational constants in cm-1:     4.294809     0.834094     0.803636
Rotational constants in MHz : 128755.128610 25005.515457 24092.401209

                             ****ORCA TERMINATED NORMALLY****
TOTAL RUN TIME: 0 days 0 hours 1 minutes 2 seconds 763 msec
