                         Program Version 5.0.3 -  RELEASE  -
|  1> ! PBEh-3c def2/J TightSCF DefGrid3
|  2>
|  3> %maxcore 60000
|  4>
|  5> %pal
|  6> nprocs 4
|  7> end
|  8>
|  9> *xyzfile 0 1 P7H7_2.xyz
| 10>
| 11>                          ****END OF INPUT****

CARTESIAN COORDINATES (ANGSTROEM)
---------------------------------
  P     -0.583779    1.777000    0.866501
  P     -2.405389    1.064877   -0.235529
  P     -1.961269   -1.064384   -0.618072
  P     -0.492472   -1.665563    0.964263
  P      1.323472   -1.830423   -0.341196
  P      2.248045    0.113500    0.297574
  P      0.824079    1.427448   -0.847467
  H     -0.777693    3.141668    0.506610
  H     -3.162174    0.781304    0.933669
  H     -1.036769   -0.804878   -1.663732
  H     -0.787155   -3.050389    0.827113
  H      2.050784   -2.573239    0.635745
  H      3.178170    0.091188   -0.784446
  H      1.582149    2.591891   -0.541032

 Total Charge           Charge          ....    0
 Multiplicity           Mult            ....    1
 Number of Electrons    NEL             ....  112
 Basis Dimension        Dim             ....  140

ORBITAL ENERGIES
----------------

  NO   OCC          E(Eh)            E(eV)
   0   2.0000     -77.765816     -2116.1154
   1   2.0000     -77.763238     -2116.0453
   2   2.0000     -77.762459     -2116.0241
   3   2.0000     -77.761017     -2115.9848
   4   2.0000     -77.760923     -2115.9823
   5   2.0000     -77.758548     -2115.9177
   6   2.0000     -77.755893     -2115.8454
   7   2.0000      -6.840507      -186.1397
   8   2.0000      -6.838324      -186.0803
   9   2.0000      -6.837361      -186.0540
  10   2.0000      -6.836203      -186.0225
  11   2.0000      -6.835805      -186.0117
  12   2.0000      -6.834381      -185.9730
  13   2.0000      -6.831770      -185.9019
  14   2.0000      -4.930709      -134.1714
  15   2.0000      -4.930242      -134.1587
  16   2.0000      -4.929041      -134.1260
  17   2.0000      -4.928449      -134.1099
  18   2.0000      -4.928049      -134.0990
  19   2.0000      -4.927393      -134.0812
  20   2.0000      -4.927292      -134.0784
  21   2.0000      -4.926696      -134.0622
  22   2.0000      -4.926277      -134.0508
  23   2.0000      -4.925921      -134.0411
  24   2.0000      -4.925890      -134.0403
  25   2.0000      -4.925846      -134.0391
  26   2.0000      -4.925492      -134.0295
  27   2.0000      -4.924555      -134.0040
  28   2.0000      -4.924531      -134.0033
  29   2.0000      -4.924328      -133.9978
  30   2.0000      -4.924262      -133.9960
  31   2.0000      -4.922900      -133.9589
  32   2.0000      -4.921764      -133.9280
  33   2.0000      -4.921757      -133.9278
  34   2.0000      -4.920152      -133.8841
  35   2.0000      -0.821035       -22.3415
  36   2.0000      -0.773283       -21.0421
  37   2.0000      -0.770666       -20.9709
  38   2.0000      -0.682735       -18.5782
  39   2.0000      -0.678007       -18.4495
  40   2.0000      -0.600450       -16.3391
  41   2.0000      -0.592229       -16.1154
  42   2.0000      -0.492630       -13.4051
  43   2.0000      -0.451390       -12.2829
  44   2.0000      -0.446893       -12.1606
  45   2.0000      -0.424653       -11.5554
  46   2.0000      -0.412793       -11.2327
  47   2.0000      -0.406095       -11.0504
  48   2.0000      -0.378496       -10.2994
  49   2.0000      -0.368571       -10.0293
  50   2.0000      -0.367162        -9.9910
  51   2.0000      -0.349756        -9.5174
  52   2.0000      -0.314364        -8.5543
  53   2.0000      -0.299309        -8.1446
  54   2.0000      -0.269699        -7.3389
  55   2.0000      -0.268867        -7.3163
  56   0.0000      -0.016537        -0.4500
  57   0.0000      -0.008035        -0.2186
  58   0.0000      -0.000014        -0.0004
  59   0.0000       0.004139         0.1126
  60   0.0000       0.009791         0.2664

MULLIKEN ATOMIC CHARGES
-----------------------
   0 P :   -0.120734
   1 P :   -0.082514
   2 P :   -0.126502
   3 P :   -0.132864
   4 P :   -0.117599
   5 P :   -0.085861
   6 P :   -0.146681
   7 H :    0.111164
   8 H :    0.111720
   9 H :    0.133853
  10 H :    0.120799
  11 H :    0.111206
  12 H :    0.106173
  13 H :    0.117841
Sum of atomic charges:    0.0000000

LOEWDIN ATOMIC CHARGES
----------------------
   0 P :   -0.042377
   1 P :   -0.041041
   2 P :   -0.037946
   3 P :   -0.051295
   4 P :   -0.043303
   5 P :   -0.035785
   6 P :   -0.051387
   7 H :    0.041998
   8 H :    0.040233
   9 H :    0.047851
  10 H :    0.045859
  11 H :    0.041629
  12 H :    0.038394
  13 H :    0.047171

  Mayer bond orders larger than 0.100000
B(  0-P ,  1-P ) :   0.9772 B(  0-P ,  6-P ) :   0.9934 B(  0-P ,  7-H ) :   0.9184
B(  1-P ,  2-P ) :   1.0074 B(  1-P ,  8-H ) :   0.9216 B(  2-P ,  3-P ) :   0.9694
B(  2-P ,  9-H ) :   0.9052 B(  3-P ,  4-P ) :   0.9980 B(  3-P , 10-H ) :   0.9148
B(  4-P ,  5-P ) :   0.9926 B(  4-P , 11-H ) :   0.9165 B(  5-P ,  6-P ) :   0.9892
B(  5-P , 12-H ) :   0.9174 B(  6-P , 13-H ) :   0.9208

Dispersion correction           -0.013777917
FINAL SINGLE POINT ENERGY     -2390.897997494337

DIPOLE MOMENT
-------------
                                X             Y             Z
Electronic contribution:     -1.49701      -0.25179       0.21320
Nuclear contribution   :      1.96218       0.33264      -0.16126
                        -----------------------------------------
Total Dipole Moment    :      0.46517       0.08085       0.05194
                        -----------------------------------------
Magnitude (a.u.)       :      0.47499
Magnitude (Debye)      :      1.20733

Rotational constants in cm-1:     0.031618     0.024250     0.016389
Rotational constants in MHz :   947.871135   727.006515   491.331116

                             ****ORCA TERMINATED NORMALLY****
TOTAL RUN TIME: 0 days 0 hours 1 minutes 42 seconds 623 msec
