                         Program Version 5.0.3 -  RELEASE  -
|  1> ! PBEh-3c def2/J TightSCF DefGrid3
|  2>
|  3> %maxcore 60000
|  4>
|  5> %pal
|  6> nprocs 4
|  7> end
|  8>
|  9> *xyzfile 0 2 P38.xyz
| 10>
| 11>                          ****END OF INPUT****

CARTESIAN COORDINATES (ANGSTROEM)
---------------------------------
  C     -1.358695   -0.715775   -0.359001
  S     -0.361145    0.560529    0.328491
  C      1.334752    0.062986   -0.077631
  H     -1.021771   -1.741864   -0.312952
  H     -2.385968   -0.450361   -0.563727
  O     -0.665649    1.814934   -0.392157
  O     -0.503918    0.505013    1.803892
  H      1.444498    0.031129   -1.159663
  H      1.973546    0.834231    0.350544
  H      1.544349   -0.900822    0.382204

 Total Charge           Charge          ....    0
 Multiplicity           Mult            ....    2
 Number of Electrons    NEL             ....   49
 Basis Dimension        Dim             ....   88

ORBITAL ENERGIES
----------------
                 SPIN UP ORBITALS
  NO   OCC          E(Eh)            E(eV)
   0   1.0000     -89.815378     -2444.0007
   1   1.0000     -19.485215      -530.2196
   2   1.0000     -19.483640      -530.1768
   3   1.0000     -10.511183      -286.0238
   4   1.0000     -10.487336      -285.3749
   5   1.0000      -8.420732      -229.1398
   6   1.0000      -6.311765      -171.7519
   7   1.0000      -6.311425      -171.7426
   8   1.0000      -6.311058      -171.7326
   9   1.0000      -1.204121       -32.7658
  10   1.0000      -1.096226       -29.8298
  11   1.0000      -0.894313       -24.3355
  12   1.0000      -0.837305       -22.7842
  13   1.0000      -0.679794       -18.4981
  14   1.0000      -0.579472       -15.7682
  15   1.0000      -0.564670       -15.3655
  16   1.0000      -0.540860       -14.7175
  17   1.0000      -0.519151       -14.1268
  18   1.0000      -0.497887       -13.5482
  19   1.0000      -0.489010       -13.3066
  20   1.0000      -0.396329       -10.7847
  21   1.0000      -0.384285       -10.4569
  22   1.0000      -0.359835        -9.7916
  23   1.0000      -0.349939        -9.5223
  24   1.0000      -0.320743        -8.7279
  25   0.0000       0.080104         2.1797
  26   0.0000       0.103908         2.8275
  27   0.0000       0.110565         3.0086
  28   0.0000       0.125280         3.4090
  29   0.0000       0.140174         3.8143

                 SPIN DOWN ORBITALS
  NO   OCC          E(Eh)            E(eV)
   0   1.0000     -89.815731     -2444.0103
   1   1.0000     -19.482804      -530.1540
   2   1.0000     -19.482455      -530.1445
   3   1.0000     -10.495124      -285.5868
   4   1.0000     -10.487386      -285.3763
   5   1.0000      -8.421135      -229.1507
   6   1.0000      -6.312487      -171.7715
   7   1.0000      -6.311792      -171.7526
   8   1.0000      -6.311531      -171.7455
   9   1.0000      -1.201160       -32.6852
  10   1.0000      -1.091904       -29.7122
  11   1.0000      -0.882129       -24.0039
  12   1.0000      -0.809761       -22.0347
  13   1.0000      -0.668352       -18.1868
  14   1.0000      -0.573090       -15.5946
  15   1.0000      -0.558787       -15.2054
  16   1.0000      -0.536431       -14.5970
  17   1.0000      -0.514249       -13.9934
  18   1.0000      -0.493955       -13.4412
  19   1.0000      -0.485302       -13.2057
  20   1.0000      -0.377119       -10.2619
  21   1.0000      -0.372781       -10.1439
  22   1.0000      -0.350717        -9.5435
  23   1.0000      -0.342671        -9.3246
  24   0.0000      -0.086611        -2.3568
  25   0.0000       0.083772         2.2796
  26   0.0000       0.108170         2.9434
  27   0.0000       0.124916         3.3991
  28   0.0000       0.127956         3.4819

MULLIKEN ATOMIC CHARGES AND SPIN POPULATIONS
--------------------------------------------
   0 C :   -0.544863    1.064965
   1 S :    1.164951   -0.051060
   2 C :   -0.774380   -0.004096
   3 H :    0.265591   -0.052751
   4 H :    0.295041   -0.056525
   5 O :   -0.618276    0.023452
   6 O :   -0.611779    0.073858
   7 H :    0.268243    0.000420
   8 H :    0.294775    0.001783
   9 H :    0.260698   -0.000045
Sum of atomic charges         :    0.0000000

LOEWDIN ATOMIC CHARGES AND SPIN POPULATIONS
-------------------------------------------
   0 C :   -0.366438    0.973768
   1 S :    1.195997   -0.017982
   2 C :   -0.484008   -0.001497
   3 H :    0.150593   -0.026458
   4 H :    0.165532   -0.027959
   5 O :   -0.569411    0.024358
   6 O :   -0.564700    0.073716
   7 H :    0.153940    0.000673
   8 H :    0.167580    0.001439
   9 H :    0.150915   -0.000059

  Mayer bond orders larger than 0.100000
B(  0-C ,  1-S ) :   0.9243 B(  0-C ,  3-H ) :   0.8801 B(  0-C ,  4-H ) :   0.8860
B(  1-S ,  2-C ) :   0.8756 B(  1-S ,  5-O ) :   1.6509 B(  1-S ,  6-O ) :   1.6423
B(  2-C ,  7-H ) :   0.8841 B(  2-C ,  8-H ) :   0.8862 B(  2-C ,  9-H ) :   0.8875

Dispersion correction           -0.004402482
FINAL SINGLE POINT ENERGY      -626.791803513069

DIPOLE MOMENT
-------------
                                X             Y             Z
Electronic contribution:     -2.31430       2.87221       1.70992
Nuclear contribution   :      2.91329      -4.33910      -2.54973
                        -----------------------------------------
Total Dipole Moment    :      0.59899      -1.46689      -0.83981
                        -----------------------------------------
Magnitude (a.u.)       :      1.79328
Magnitude (Debye)      :      4.55815

Rotational constants in cm-1:     0.153024     0.141468     0.139111
Rotational constants in MHz :  4587.556676  4241.092979  4170.431177

                             ****ORCA TERMINATED NORMALLY****
TOTAL RUN TIME: 0 days 0 hours 2 minutes 59 seconds 961 msec
