                         Program Version 5.0.3 -  RELEASE  -
|  1> ! PBEh-3c def2/J TightSCF DefGrid3
|  2>
|  3> %maxcore 60000
|  4>
|  5> %pal
|  6> nprocs 4
|  7> end
|  8>
|  9> *xyzfile 0 1 P33.xyz
| 10>
| 11>                          ****END OF INPUT****

CARTESIAN COORDINATES (ANGSTROEM)
---------------------------------
  C     -1.388766   -0.627586    1.259715
  C     -0.727350   -0.031451    0.000000
  C      0.736792   -0.490428    0.000000
  O      1.621972    0.529279    0.000000
  C      3.012479    0.155785    0.000000
  C     -0.878123    1.495592    0.000000
  C     -1.388766   -0.627586   -1.259715
  O      1.079108   -1.648960    0.000000
  H     -0.941974   -0.222235    2.170990
  H     -2.452988   -0.380753    1.268420
  H     -1.282214   -1.712404    1.278698
  H      3.564551    1.092239    0.000000
  H      3.251120   -0.430617   -0.887363
  H      3.251120   -0.430617    0.887363
  H     -0.419818    1.945858    0.881484
  H     -1.940151    1.753417    0.000000
  H     -0.419818    1.945858   -0.881484
  H     -1.282214   -1.712404   -1.278698
  H     -0.941974   -0.222235   -2.170990
  H     -2.452988   -0.380753   -1.268420

 Total Charge           Charge          ....    0
 Multiplicity           Mult            ....    1
 Number of Electrons    NEL             ....   64
 Basis Dimension        Dim             ....  144

ORBITAL ENERGIES
----------------

  NO   OCC          E(Eh)            E(eV)
   0   2.0000     -19.540316      -531.7190
   1   2.0000     -19.477721      -530.0157
   2   2.0000     -10.570040      -287.6254
   3   2.0000     -10.491294      -285.4826
   4   2.0000     -10.469584      -284.8919
   5   2.0000     -10.430091      -283.8172
   6   2.0000     -10.430045      -283.8160
   7   2.0000     -10.426809      -283.7279
   8   2.0000      -1.213001       -33.0074
   9   2.0000      -1.118636       -30.4396
  10   2.0000      -0.916469       -24.9384
  11   2.0000      -0.811103       -22.0712
  12   2.0000      -0.771157       -20.9843
  13   2.0000      -0.767733       -20.8911
  14   2.0000      -0.685925       -18.6650
  15   2.0000      -0.617481       -16.8025
  16   2.0000      -0.557809       -15.1787
  17   2.0000      -0.547636       -14.9019
  18   2.0000      -0.536682       -14.6039
  19   2.0000      -0.496071       -13.4988
  20   2.0000      -0.495702       -13.4887
  21   2.0000      -0.493267       -13.4225
  22   2.0000      -0.461739       -12.5646
  23   2.0000      -0.441929       -12.0255
  24   2.0000      -0.429632       -11.6909
  25   2.0000      -0.426303       -11.6003
  26   2.0000      -0.418625       -11.3914
  27   2.0000      -0.400791       -10.9061
  28   2.0000      -0.382662       -10.4128
  29   2.0000      -0.382187       -10.3998
  30   2.0000      -0.353645        -9.6232
  31   2.0000      -0.322628        -8.7792
  32   0.0000       0.048687         1.3248
  33   0.0000       0.123460         3.3595
  34   0.0000       0.159241         4.3332
  35   0.0000       0.172855         4.7036
  36   0.0000       0.179501         4.8845

MULLIKEN ATOMIC CHARGES
-----------------------
   0 C :   -0.617797
   1 C :   -0.232018
   2 C :    0.617327
   3 O :   -0.456272
   4 C :   -0.392409
   5 C :   -0.607431
   6 C :   -0.617797
   7 O :   -0.408008
   8 H :    0.221388
   9 H :    0.218116
  10 H :    0.245262
  11 H :    0.224997
  12 H :    0.227271
  13 H :    0.227271
  14 H :    0.226792
  15 H :    0.211749
  16 H :    0.226792
  17 H :    0.245262
  18 H :    0.221388
  19 H :    0.218117
Sum of atomic charges:   -0.0000000

LOEWDIN ATOMIC CHARGES
----------------------
   0 C :   -0.335923
   1 C :   -0.126496
   2 C :    0.157863
   3 O :   -0.178464
   4 C :   -0.178130
   5 C :   -0.343925
   6 C :   -0.335923
   7 O :   -0.228188
   8 H :    0.129217
   9 H :    0.128161
  10 H :    0.140648
  11 H :    0.127284
  12 H :    0.127594
  13 H :    0.127594
  14 H :    0.132302
  15 H :    0.126056
  16 H :    0.132302
  17 H :    0.140648
  18 H :    0.129217
  19 H :    0.128161

  Mayer bond orders larger than 0.100000
B(  0-C ,  1-C ) :   0.9806 B(  0-C ,  8-H ) :   0.9274 B(  0-C ,  9-H ) :   0.9254
B(  0-C , 10-H ) :   0.9150 B(  1-C ,  2-C ) :   0.8981 B(  1-C ,  5-C ) :   0.9724
B(  1-C ,  6-C ) :   0.9806 B(  2-C ,  3-O ) :   1.1062 B(  2-C ,  7-O ) :   1.9962
B(  3-O ,  4-C ) :   0.8974 B(  4-C , 11-H ) :   0.9230 B(  4-C , 12-H ) :   0.9135
B(  4-C , 13-H ) :   0.9135 B(  5-C , 14-H ) :   0.9262 B(  5-C , 15-H ) :   0.9216
B(  5-C , 16-H ) :   0.9262 B(  6-C , 17-H ) :   0.9150 B(  6-C , 18-H ) :   0.9274
B(  6-C , 19-H ) :   0.9254

Dispersion correction           -0.009848008
FINAL SINGLE POINT ENERGY      -385.503103139719

DIPOLE MOMENT
-------------
                                X             Y             Z
Electronic contribution:      5.21582      -2.27918       0.00000
Nuclear contribution   :     -5.15675       2.91725       0.00000
                        -----------------------------------------
Total Dipole Moment    :      0.05907       0.63806       0.00000
                        -----------------------------------------
Magnitude (a.u.)       :      0.64079
Magnitude (Debye)      :      1.62877

Rotational constants in cm-1:     0.104973     0.049388     0.043527
Rotational constants in MHz :  3147.012496  1480.615408  1304.912943

                             ****ORCA TERMINATED NORMALLY****
TOTAL RUN TIME: 0 days 0 hours 1 minutes 43 seconds 591 msec
