                         Program Version 5.0.3 -  RELEASE  -
|  1> ! PBEh-3c def2/J TightSCF DefGrid3
|  2>
|  3> %maxcore 60000
|  4>
|  5> %pal
|  6> nprocs 4
|  7> end
|  8>
|  9> *xyzfile 0 1 57A.xyz
| 10>
| 11>                          ****END OF INPUT****

CARTESIAN COORDINATES (ANGSTROEM)
---------------------------------
  C      1.207806    0.697327    0.000000
  H      2.144315    1.238021    0.000000
  C      1.207806   -0.697327    0.000000
  H      2.144315   -1.238021    0.000000
  C      0.000000   -1.394654    0.000000
  H      0.000000   -2.476041    0.000000
  C     -1.207806   -0.697327    0.000000
  H     -2.144315   -1.238021    0.000000
  C     -1.207806    0.697327    0.000000
  H     -2.144315    1.238021    0.000000
  C      0.000000    1.394654    0.000000
  H      0.000000    2.476041    0.000000

 Total Charge           Charge          ....    0
 Multiplicity           Mult            ....    1
 Number of Electrons    NEL             ....   42
 Basis Dimension        Dim             ....  102

ORBITAL ENERGIES
----------------

  NO   OCC          E(Eh)            E(eV)
   0   2.0000     -10.448947      -284.3303
   1   2.0000     -10.448730      -284.3244
   2   2.0000     -10.448728      -284.3243
   3   2.0000     -10.448120      -284.3078
   4   2.0000     -10.448118      -284.3077
   5   2.0000     -10.447891      -284.3016
   6   2.0000      -0.951689       -25.8968
   7   2.0000      -0.835290       -22.7294
   8   2.0000      -0.835289       -22.7294
   9   2.0000      -0.678933       -18.4747
  10   2.0000      -0.678933       -18.4747
  11   2.0000      -0.591844       -16.1049
  12   2.0000      -0.526185       -14.3182
  13   2.0000      -0.508216       -13.8293
  14   2.0000      -0.481751       -13.1091
  15   2.0000      -0.481749       -13.1091
  16   2.0000      -0.420584       -11.4447
  17   2.0000      -0.398379       -10.8404
  18   2.0000      -0.398378       -10.8404
  19   2.0000      -0.292358        -7.9555
  20   2.0000      -0.292355        -7.9554
  21   0.0000       0.018999         0.5170
  22   0.0000       0.019000         0.5170
  23   0.0000       0.140883         3.8336
  24   0.0000       0.195829         5.3288
  25   0.0000       0.201864         5.4930

MULLIKEN ATOMIC CHARGES
-----------------------
   0 C :   -0.219932
   1 H :    0.219931
   2 C :   -0.219932
   3 H :    0.219932
   4 C :   -0.219945
   5 H :    0.219944
   6 C :   -0.219932
   7 H :    0.219932
   8 C :   -0.219931
   9 H :    0.219931
  10 C :   -0.219944
  11 H :    0.219944
Sum of atomic charges:    0.0000000

LOEWDIN ATOMIC CHARGES
----------------------
   0 C :   -0.135701
   1 H :    0.135704
   2 C :   -0.135701
   3 H :    0.135704
   4 C :   -0.135707
   5 H :    0.135703
   6 C :   -0.135701
   7 H :    0.135704
   8 C :   -0.135701
   9 H :    0.135704
  10 C :   -0.135707
  11 H :    0.135703

  Mayer bond orders larger than 0.100000
B(  0-C ,  1-H ) :   0.9200 B(  0-C ,  2-C ) :   1.4264 B(  0-C , 10-C ) :   1.4264
B(  2-C ,  3-H ) :   0.9200 B(  2-C ,  4-C ) :   1.4264 B(  4-C ,  5-H ) :   0.9200
B(  4-C ,  6-C ) :   1.4264 B(  6-C ,  7-H ) :   0.9200 B(  6-C ,  8-C ) :   1.4264
B(  8-C ,  9-H ) :   0.9200 B(  8-C , 10-C ) :   1.4264 B( 10-C , 11-H ) :   0.9200

Dispersion correction           -0.005879412
FINAL SINGLE POINT ENERGY      -231.725737085388

DIPOLE MOMENT
-------------
                                X             Y             Z
Electronic contribution:     -0.00000      -0.00000       0.00000
Nuclear contribution   :      0.00000       0.00000       0.00000
                        -----------------------------------------
Total Dipole Moment    :     -0.00000      -0.00000       0.00000
                        -----------------------------------------
Magnitude (a.u.)       :      0.00000
Magnitude (Debye)      :      0.00000

Rotational constants in cm-1:     0.190211     0.190211     0.095106
Rotational constants in MHz :  5702.397264  5702.396979  2851.198561

                             ****ORCA TERMINATED NORMALLY****
TOTAL RUN TIME: 0 days 0 hours 1 minutes 11 seconds 225 msec
