                         Program Version 5.0.3 -  RELEASE  -
|  1> ! PBEh-3c def2/J TightSCF DefGrid3
|  2>
|  3> %maxcore 60000
|  4>
|  5> %pal
|  6> nprocs 4
|  7> end
|  8>
|  9> *xyzfile 0 1 14B.xyz
| 10>
| 11>                          ****END OF INPUT****

CARTESIAN COORDINATES (ANGSTROEM)
---------------------------------
  S      0.238220   -0.327599    0.223863
  H      1.455008    0.223438    0.256873
  H     -0.390937    0.893868    0.177922

 Total Charge           Charge          ....    0
 Multiplicity           Mult            ....    1
 Number of Electrons    NEL             ....   18
 Basis Dimension        Dim             ....   22

ORBITAL ENERGIES
----------------

  NO   OCC          E(Eh)            E(eV)
   0   2.0000     -89.584419     -2437.7160
   1   2.0000      -8.226842      -223.8638
   2   2.0000      -6.117553      -166.4671
   3   2.0000      -6.114911      -166.3952
   4   2.0000      -6.108914      -166.2320
   5   2.0000      -0.819107       -22.2890
   6   2.0000      -0.496777       -13.5180
   7   2.0000      -0.411288       -11.1917
   8   2.0000      -0.303042        -8.2462
   9   0.0000       0.062110         1.6901
  10   0.0000       0.099707         2.7132
  11   0.0000       0.432348        11.7648
  12   0.0000       0.557821        15.1791
  13   0.0000       0.633162        17.2292

MULLIKEN ATOMIC CHARGES
-----------------------
   0 S :   -0.373129
   1 H :    0.188887
   2 H :    0.184242
Sum of atomic charges:   -0.0000000

LOEWDIN ATOMIC CHARGES
----------------------
   0 S :   -0.211315
   1 H :    0.105065
   2 H :    0.106250

  Mayer bond orders larger than 0.100000
B(  0-S ,  1-H ) :   0.9329 B(  0-S ,  2-H ) :   0.9380

Dispersion correction           -0.000417474
FINAL SINGLE POINT ENERGY      -398.930992707109

DIPOLE MOMENT
-------------
                                X             Y             Z
Electronic contribution:     -0.32274      -1.01388       0.00788
Nuclear contribution   :      0.51919       1.56606      -0.01143
                        -----------------------------------------
Total Dipole Moment    :      0.19644       0.55218      -0.00354
                        -----------------------------------------
Magnitude (a.u.)       :      0.58609
Magnitude (Debye)      :      1.48973

Rotational constants in cm-1:    10.248228     8.619644     4.681825
Rotational constants in MHz : 307234.155119 258410.437858 140357.591207

                             ****ORCA TERMINATED NORMALLY****
TOTAL RUN TIME: 0 days 0 hours 0 minutes 45 seconds 172 msec
