                         Program Version 5.0.3 -  RELEASE  -
|  1> ! PBEh-3c def2/J TightSCF DefGrid3
|  2>
|  3> %maxcore 60000
|  4>
|  5> %pal
|  6> nprocs 4
|  7> end
|  8>
|  9> *xyzfile 0 1 f2s-cbh22.xyz
| 10>
| 11>                          ****END OF INPUT****

CARTESIAN COORDINATES (ANGSTROEM)
---------------------------------
  C     -0.149930   -1.036667    0.000000
  S      0.568955    0.424355    0.000000
  F     -0.149930    1.309518    1.144548
  F     -0.149930    1.309518   -1.144548
  B     -1.678800   -1.201068    0.000000
  H     -2.125040   -2.302109    0.000000
  H     -2.396006   -0.252602    0.000000
  B      0.939434   -2.106063    0.000000
  H      0.619452   -3.250304    0.000000
  H      2.093461   -1.800331    0.000000

 Total Charge           Charge          ....    0
 Multiplicity           Mult            ....    1
 Number of Electrons    NEL             ....   54
 Basis Dimension        Dim             ....  101

ORBITAL ENERGIES
----------------

  NO   OCC          E(Eh)            E(eV)
   0   2.0000     -89.818994     -2444.0991
   1   2.0000     -25.147439      -684.2966
   2   2.0000     -25.147348      -684.2941
   3   2.0000     -10.456894      -284.5465
   4   2.0000      -8.433063      -229.4753
   5   2.0000      -6.976610      -189.8432
   6   2.0000      -6.973959      -189.7711
   7   2.0000      -6.325023      -172.1126
   8   2.0000      -6.323889      -172.0818
   9   2.0000      -6.314159      -171.8170
  10   2.0000      -1.403578       -38.1933
  11   2.0000      -1.348449       -36.6932
  12   2.0000      -0.950442       -25.8628
  13   2.0000      -0.754647       -20.5350
  14   2.0000      -0.646015       -17.5790
  15   2.0000      -0.635100       -17.2820
  16   2.0000      -0.611559       -16.6414
  17   2.0000      -0.577127       -15.7044
  18   2.0000      -0.542945       -14.7743
  19   2.0000      -0.538802       -14.6616
  20   2.0000      -0.510279       -13.8854
  21   2.0000      -0.489146       -13.3103
  22   2.0000      -0.436528       -11.8785
  23   2.0000      -0.405944       -11.0463
  24   2.0000      -0.383295       -10.4300
  25   2.0000      -0.379917       -10.3381
  26   2.0000      -0.348608        -9.4861
  27   0.0000      -0.064940        -1.7671
  28   0.0000      -0.032114        -0.8739
  29   0.0000       0.009484         0.2581
  30   0.0000       0.066903         1.8205
  31   0.0000       0.133999         3.6463

MULLIKEN ATOMIC CHARGES
-----------------------
   0 C :   -0.584044
   1 S :    1.161494
   2 F :   -0.407695
   3 F :   -0.407695
   4 B :    0.053759
   5 H :    0.047976
   6 H :    0.044976
   7 B :    0.003634
   8 H :    0.059096
   9 H :    0.028499
Sum of atomic charges:    0.0000000

LOEWDIN ATOMIC CHARGES
----------------------
   0 C :   -0.483059
   1 S :    1.203213
   2 F :   -0.341379
   3 F :   -0.341379
   4 B :   -0.028158
   5 H :    0.025837
   6 H :    0.018325
   7 B :   -0.092874
   8 H :    0.028875
   9 H :    0.010599

  Mayer bond orders larger than 0.100000
B(  0-C ,  1-S ) :   1.4682 B(  0-C ,  4-B ) :   1.0312 B(  0-C ,  7-B ) :   1.1047
B(  1-S ,  2-F ) :   0.8169 B(  1-S ,  3-F ) :   0.8169 B(  4-B ,  5-H ) :   0.9884
B(  4-B ,  6-H ) :   0.9873 B(  7-B ,  8-H ) :   0.9864 B(  7-B ,  9-H ) :   0.9834

Dispersion correction           -0.004200188
FINAL SINGLE POINT ENERGY      -686.959746210605

DIPOLE MOMENT
-------------
                                X             Y             Z
Electronic contribution:      1.30809       7.28721      -0.00000
Nuclear contribution   :     -0.87913      -7.09888       0.00000
                        -----------------------------------------
Total Dipole Moment    :      0.42896       0.18833      -0.00000
                        -----------------------------------------
Magnitude (a.u.)       :      0.46848
Magnitude (Debye)      :      1.19079

Rotational constants in cm-1:     0.144863     0.078043     0.072405
Rotational constants in MHz :  4342.877711  2339.671233  2170.636695

                             ****ORCA TERMINATED NORMALLY****
TOTAL RUN TIME: 0 days 0 hours 1 minutes 26 seconds 928 msec
