                         Program Version 5.0.3 -  RELEASE  -
|  1> ! PBEh-3c def2/J TightSCF DefGrid3
|  2>
|  3> %maxcore 60000
|  4>
|  5> %pal
|  6> nprocs 4
|  7> end
|  8>
|  9> *xyzfile 0 1 ts2.xyz
| 10>
| 11>                          ****END OF INPUT****

CARTESIAN COORDINATES (ANGSTROEM)
---------------------------------
  C      0.000000    0.509558    0.000000
  H      0.037758    1.595479    0.000000
  O     -1.099586   -0.147769    0.000000
  H      1.969129   -0.087220    0.000000
  H     -0.131827   -1.064473    0.000000
  N      0.988804   -0.331283    0.000000

 Total Charge           Charge          ....    0
 Multiplicity           Mult            ....    1
 Number of Electrons    NEL             ....   24
 Basis Dimension        Dim             ....   51

ORBITAL ENERGIES
----------------

  NO   OCC          E(Eh)            E(eV)
   0   2.0000     -19.492159      -530.4086
   1   2.0000     -14.641131      -398.4054
   2   2.0000     -10.555790      -287.2377
   3   2.0000      -1.178584       -32.0709
   4   2.0000      -0.975675       -26.5495
   5   2.0000      -0.687880       -18.7182
   6   2.0000      -0.651239       -17.7211
   7   2.0000      -0.501866       -13.6565
   8   2.0000      -0.476732       -12.9725
   9   2.0000      -0.435133       -11.8406
  10   2.0000      -0.352895        -9.6028
  11   2.0000      -0.312325        -8.4988
  12   0.0000       0.042227         1.1491
  13   0.0000       0.110707         3.0125
  14   0.0000       0.163819         4.4577
  15   0.0000       0.199021         5.4156
  16   0.0000       0.264472         7.1966

MULLIKEN ATOMIC CHARGES
-----------------------
   0 C :    0.304856
   1 H :    0.227677
   2 O :   -0.532731
   3 H :    0.344175
   4 H :    0.412585
   5 N :   -0.756562
Sum of atomic charges:   -0.0000000

LOEWDIN ATOMIC CHARGES
----------------------
   0 C :    0.062705
   1 H :    0.118522
   2 O :   -0.355053
   3 H :    0.241819
   4 H :    0.373423
   5 N :   -0.441417

  Mayer bond orders larger than 0.100000
B(  0-C ,  1-H ) :   0.8837 B(  0-C ,  2-O ) :   1.4754 B(  0-C ,  5-N ) :   1.5193
B(  2-O ,  4-H ) :   0.3968 B(  2-O ,  5-N ) :   0.1655 B(  3-H ,  5-N ) :   0.8293
B(  4-H ,  5-N ) :   0.4123

Dispersion correction           -0.001429730
FINAL SINGLE POINT ENERGY      -169.444221018271

DIPOLE MOMENT
-------------
                                X             Y             Z
Electronic contribution:     -0.87810       0.10926      -0.00000
Nuclear contribution   :      1.86488       0.43983       0.00000
                        -----------------------------------------
Total Dipole Moment    :      0.98678       0.54909      -0.00000
                        -----------------------------------------
Magnitude (a.u.)       :      1.12927
Magnitude (Debye)      :      2.87037

Rotational constants in cm-1:     1.965077     0.455258     0.369625
Rotational constants in MHz : 58911.519390 13648.294854 11081.089378

                             ****ORCA TERMINATED NORMALLY****
TOTAL RUN TIME: 0 days 0 hours 0 minutes 41 seconds 654 msec
