                         Program Version 5.0.3 -  RELEASE  -
|  1> ! PBEh-3c def2/J TightSCF DefGrid3
|  2>
|  3> %maxcore 60000
|  4>
|  5> %pal
|  6> nprocs 4
|  7> end
|  8>
|  9> *xyzfile 0 1 C6.xyz
| 10>
| 11>                          ****END OF INPUT****

CARTESIAN COORDINATES (ANGSTROEM)
---------------------------------
  C     -2.997215   -0.665353   -0.397930
  C     -1.587821   -0.939579    0.151056
  C     -0.514097   -0.116792   -0.573989
  C      0.897013   -0.233881    0.016908
  C      1.484859    1.164276   -0.212120
  O      2.531959    1.425717    0.717878
  C      0.251058    2.055792   -0.025311
  O     -3.487781    0.595183    0.058864
  O      1.571535   -1.293789   -0.634766
  O     -1.567022   -0.720493    1.557839
  O     -0.847991    1.296392   -0.551629
  C      2.716858   -1.782654    0.060727
  H     -3.694399   -1.415026   -0.014014
  H     -2.997288   -0.722214   -1.495994
  H     -1.339793   -1.996155   -0.016267
  H     -0.480260   -0.439808   -1.623985
  H      0.843197   -0.415762    1.099696
  H      1.858976    1.222287   -1.243958
  H      2.989274    2.239150    0.468371
  H      0.300952    3.003086   -0.571952
  H      0.103428    2.261673    1.043762
  H     -2.855558    1.269441   -0.243419
  H     -2.214497   -0.018951    1.735830
  H      3.498623   -1.018957    0.142022
  H      2.446657   -2.122939    1.070215
  H      3.089330   -2.630646   -0.517828

 Total Charge           Charge          ....    0
 Multiplicity           Mult            ....    1
 Number of Electrons    NEL             ....   96
 Basis Dimension        Dim             ....  208

ORBITAL ENERGIES
----------------

  NO   OCC          E(Eh)            E(eV)
   0   2.0000     -19.514193      -531.0082
   1   2.0000     -19.506276      -530.7928
   2   2.0000     -19.500522      -530.6362
   3   2.0000     -19.485801      -530.2356
   4   2.0000     -19.483562      -530.1747
   5   2.0000     -10.502259      -285.7810
   6   2.0000     -10.496835      -285.6334
   7   2.0000     -10.495915      -285.6084
   8   2.0000     -10.494874      -285.5800
   9   2.0000     -10.491149      -285.4787
  10   2.0000     -10.484638      -285.3015
  11   2.0000     -10.476259      -285.0735
  12   2.0000      -1.165276       -31.7088
  13   2.0000      -1.142517       -31.0895
  14   2.0000      -1.133843       -30.8534
  15   2.0000      -1.128649       -30.7121
  16   2.0000      -1.104612       -30.0580
  17   2.0000      -0.875260       -23.8170
  18   2.0000      -0.858044       -23.3486
  19   2.0000      -0.800521       -21.7833
  20   2.0000      -0.755391       -20.5552
  21   2.0000      -0.713621       -19.4186
  22   2.0000      -0.670784       -18.2530
  23   2.0000      -0.658404       -17.9161
  24   2.0000      -0.608292       -16.5525
  25   2.0000      -0.589220       -16.0335
  26   2.0000      -0.567108       -15.4318
  27   2.0000      -0.551585       -15.0094
  28   2.0000      -0.543102       -14.7786
  29   2.0000      -0.526226       -14.3193
  30   2.0000      -0.523860       -14.2550
  31   2.0000      -0.512901       -13.9567
  32   2.0000      -0.499625       -13.5955
  33   2.0000      -0.488778       -13.3003
  34   2.0000      -0.469100       -12.7649
  35   2.0000      -0.467880       -12.7317
  36   2.0000      -0.449091       -12.2204
  37   2.0000      -0.433860       -11.8059
  38   2.0000      -0.416314       -11.3285
  39   2.0000      -0.405473       -11.0335
  40   2.0000      -0.394406       -10.7323
  41   2.0000      -0.382511       -10.4086
  42   2.0000      -0.368048       -10.0151
  43   2.0000      -0.349200        -9.5022
  44   2.0000      -0.344346        -9.3701
  45   2.0000      -0.329302        -8.9608
  46   2.0000      -0.310861        -8.4590
  47   2.0000      -0.301542        -8.2054
  48   0.0000       0.088608         2.4111
  49   0.0000       0.119193         3.2434
  50   0.0000       0.131754         3.5852
  51   0.0000       0.163294         4.4434
  52   0.0000       0.164589         4.4787

MULLIKEN ATOMIC CHARGES
-----------------------
   0 C :   -0.193219
   1 C :   -0.014983
   2 C :    0.043715
   3 C :    0.004821
   4 C :   -0.025978
   5 O :   -0.627710
   6 C :   -0.158526
   7 O :   -0.649100
   8 O :   -0.481967
   9 O :   -0.640992
  10 O :   -0.522074
  11 C :   -0.378003
  12 H :    0.229581
  13 H :    0.190210
  14 H :    0.224513
  15 H :    0.223052
  16 H :    0.240332
  17 H :    0.210759
  18 H :    0.419364
  19 H :    0.208332
  20 H :    0.211680
  21 H :    0.435735
  22 H :    0.425548
  23 H :    0.211947
  24 H :    0.196501
  25 H :    0.216462
Sum of atomic charges:   -0.0000000

LOEWDIN ATOMIC CHARGES
----------------------
   0 C :   -0.101689
   1 C :   -0.050575
   2 C :   -0.017645
   3 C :   -0.020706
   4 C :   -0.044512
   5 O :   -0.394998
   6 C :   -0.089863
   7 O :   -0.422418
   8 O :   -0.255867
   9 O :   -0.402194
  10 O :   -0.273773
  11 C :   -0.182472
  12 H :    0.127224
  13 H :    0.107335
  14 H :    0.129458
  15 H :    0.125154
  16 H :    0.133982
  17 H :    0.115258
  18 H :    0.314349
  19 H :    0.119093
  20 H :    0.117642
  21 H :    0.309573
  22 H :    0.313275
  23 H :    0.113700
  24 H :    0.108576
  25 H :    0.122093

  Mayer bond orders larger than 0.100000
B(  0-C ,  1-C ) :   0.9427 B(  0-C ,  7-O ) :   1.0224 B(  0-C , 12-H ) :   0.9126
B(  0-C , 13-H ) :   0.9016 B(  1-C ,  2-C ) :   0.9168 B(  1-C ,  9-O ) :   1.0207
B(  1-C , 14-H ) :   0.8910 B(  2-C ,  3-C ) :   0.9557 B(  2-C , 10-O ) :   0.9158
B(  2-C , 15-H ) :   0.8886 B(  3-C ,  4-C ) :   0.9481 B(  3-C ,  8-O ) :   0.9646
B(  3-C , 16-H ) :   0.8636 B(  4-C ,  5-O ) :   1.0216 B(  4-C ,  6-C ) :   0.9343
B(  4-C , 17-H ) :   0.8855 B(  5-O , 18-H ) :   0.7879 B(  6-C , 10-O ) :   0.9613
B(  6-C , 19-H ) :   0.9147 B(  6-C , 20-H ) :   0.8925 B(  7-O , 21-H ) :   0.7364
B(  8-O , 11-C ) :   0.9546 B(  9-O , 22-H ) :   0.7562 B( 11-C , 23-H ) :   0.9067
B( 11-C , 24-H ) :   0.9148 B( 11-C , 25-H ) :   0.9294

Dispersion correction           -0.014357283
FINAL SINGLE POINT ENERGY      -649.848237355714

DIPOLE MOMENT
-------------
                                X             Y             Z
Electronic contribution:     -2.19481       2.37189       0.09884
Nuclear contribution   :      3.22132      -1.74235      -0.61625
                        -----------------------------------------
Total Dipole Moment    :      1.02651       0.62954      -0.51741
                        -----------------------------------------
Magnitude (a.u.)       :      1.31063
Magnitude (Debye)      :      3.33135

Rotational constants in cm-1:     0.049327     0.020831     0.016969
Rotational constants in MHz :  1478.781836   624.503553   508.707627

                             ****ORCA TERMINATED NORMALLY****
TOTAL RUN TIME: 0 days 0 hours 2 minutes 43 seconds 842 msec
