                         Program Version 5.0.3 -  RELEASE  -
|  1> ! PBEh-3c def2/J TightSCF DefGrid3
|  2>
|  3> %maxcore 60000
|  4>
|  5> %pal
|  6> nprocs 4
|  7> end
|  8>
|  9> *xyzfile 0 1 B30.xyz
| 10>
| 11>                          ****END OF INPUT****

CARTESIAN COORDINATES (ANGSTROEM)
---------------------------------
  C      1.925538   -0.344065    0.380533
  H      2.171565   -1.304903   -0.071290
  O      2.348134    0.634893   -0.564793
  C      0.431726   -0.275896    0.677703
  H      0.195657   -1.030802    1.435210
  H      0.211793    0.700307    1.122182
  C     -0.432805   -0.490859   -0.562179
  H     -0.200153   -1.468025   -0.996749
  H     -0.188307    0.261431   -1.311887
  H      2.186325    1.499293   -0.176589
  H      2.497884   -0.257648    1.309244
  C     -1.927197   -0.439292   -0.271047
  H     -2.488843   -0.625322   -1.185021
  H     -2.199555   -1.219011    0.448782
  O     -2.362635    0.840111    0.187961
  H     -2.053926    0.945320    1.090714

 Total Charge           Charge          ....    0
 Multiplicity           Mult            ....    1
 Number of Electrons    NEL             ....   50
 Basis Dimension        Dim             ....  110

ORBITAL ENERGIES
----------------

  NO   OCC          E(Eh)            E(eV)
   0   2.0000     -19.487255      -530.2752
   1   2.0000     -19.484056      -530.1881
   2   2.0000     -10.484490      -285.2975
   3   2.0000     -10.479572      -285.1636
   4   2.0000     -10.442054      -284.1427
   5   2.0000     -10.430819      -283.8370
   6   2.0000      -1.123902       -30.5829
   7   2.0000      -1.120016       -30.4772
   8   2.0000      -0.883702       -24.0468
   9   2.0000      -0.800494       -21.7826
  10   2.0000      -0.714334       -19.4380
  11   2.0000      -0.660147       -17.9635
  12   2.0000      -0.573894       -15.6165
  13   2.0000      -0.559711       -15.2305
  14   2.0000      -0.534726       -14.5506
  15   2.0000      -0.511961       -13.9312
  16   2.0000      -0.490576       -13.3493
  17   2.0000      -0.467829       -12.7303
  18   2.0000      -0.438944       -11.9443
  19   2.0000      -0.418718       -11.3939
  20   2.0000      -0.395374       -10.7587
  21   2.0000      -0.382451       -10.4070
  22   2.0000      -0.370717       -10.0877
  23   2.0000      -0.329853        -8.9758
  24   2.0000      -0.320620        -8.7245
  25   0.0000       0.117748         3.2041
  26   0.0000       0.124995         3.4013
  27   0.0000       0.165528         4.5043
  28   0.0000       0.175175         4.7668
  29   0.0000       0.190096         5.1728

MULLIKEN ATOMIC CHARGES
-----------------------
   0 C :   -0.153212
   1 H :    0.209263
   2 O :   -0.619428
   3 C :   -0.472834
   4 H :    0.207595
   5 H :    0.190927
   6 C :   -0.426136
   7 H :    0.202906
   8 H :    0.240811
   9 H :    0.410022
  10 H :    0.191840
  11 C :   -0.161201
  12 H :    0.220473
  13 H :    0.174037
  14 O :   -0.626772
  15 H :    0.411709
Sum of atomic charges:    0.0000000

LOEWDIN ATOMIC CHARGES
----------------------
   0 C :   -0.092098
   1 H :    0.119536
   2 O :   -0.410579
   3 C :   -0.272742
   4 H :    0.124442
   5 H :    0.112065
   6 C :   -0.264299
   7 H :    0.125798
   8 H :    0.137811
   9 H :    0.306300
  10 H :    0.100388
  11 C :   -0.093266
  12 H :    0.121871
  13 H :    0.095626
  14 O :   -0.415120
  15 H :    0.304267

  Mayer bond orders larger than 0.100000
B(  0-C ,  1-H ) :   0.9158 B(  0-C ,  2-O ) :   1.0193 B(  0-C ,  3-C ) :   0.9750
B(  0-C , 10-H ) :   0.9150 B(  2-O ,  9-H ) :   0.7946 B(  3-C ,  4-H ) :   0.9105
B(  3-C ,  5-H ) :   0.9161 B(  3-C ,  6-C ) :   0.9726 B(  6-C ,  7-H ) :   0.9130
B(  6-C ,  8-H ) :   0.9025 B(  6-C , 11-C ) :   0.9654 B( 11-C , 12-H ) :   0.9208
B( 11-C , 13-H ) :   0.9151 B( 11-C , 14-O ) :   1.0146 B( 14-O , 15-H ) :   0.7928

Dispersion correction           -0.006593397
FINAL SINGLE POINT ENERGY      -308.207210203658

DIPOLE MOMENT
-------------
                                X             Y             Z
Electronic contribution:     -0.00387       2.33253      -0.82253
Nuclear contribution   :      0.13776      -2.58001       1.72826
                        -----------------------------------------
Total Dipole Moment    :      0.13389      -0.24748       0.90573
                        -----------------------------------------
Magnitude (a.u.)       :      0.94843
Magnitude (Debye)      :      2.41072

Rotational constants in cm-1:     0.263209     0.050984     0.049784
Rotational constants in MHz :  7890.799305  1528.473110  1492.478690

                             ****ORCA TERMINATED NORMALLY****
TOTAL RUN TIME: 0 days 0 hours 1 minutes 38 seconds 202 msec
