                         Program Version 5.0.3 -  RELEASE  -
|  1> ! PBEh-3c def2/J TightSCF DefGrid3
|  2>
|  3> %maxcore 60000
|  4>
|  5> %pal
|  6> nprocs 4
|  7> end
|  8>
|  9> *xyzfile 0 1 bzAr.xyz
| 10>
| 11>                          ****END OF INPUT****

CARTESIAN COORDINATES (ANGSTROEM)
---------------------------------
  C     -1.198802    0.692129   -0.278836
  C     -1.198802   -0.692129   -0.278836
  C      0.000000   -1.384258   -0.278836
  C      1.198802   -0.692129   -0.278836
  C      1.198802    0.692129   -0.278836
  C      0.000000    1.384258   -0.278836
  H     -2.133155   -1.231578   -0.278836
  H      0.000000   -2.463155   -0.278836
  H      2.133155   -1.231578   -0.278836
  H      2.133155    1.231578   -0.278836
  H      0.000000    2.463155   -0.278836
  H     -2.133155    1.231578   -0.278836
  Ar     0.000000    0.000000    3.346028

 Total Charge           Charge          ....    0
 Multiplicity           Mult            ....    1
 Number of Electrons    NEL             ....   60
 Basis Dimension        Dim             ....  120

ORBITAL ENERGIES
----------------

  NO   OCC          E(Eh)            E(eV)
   0   2.0000    -115.880678     -3153.2736
   1   2.0000     -11.439589      -311.2870
   2   2.0000     -10.445707      -284.2421
   3   2.0000     -10.445463      -284.2355
   4   2.0000     -10.445461      -284.2354
   5   2.0000     -10.444804      -284.2176
   6   2.0000     -10.444803      -284.2175
   7   2.0000     -10.444554      -284.2108
   8   2.0000      -8.914348      -242.5717
   9   2.0000      -8.914347      -242.5717
  10   2.0000      -8.914242      -242.5689
  11   2.0000      -1.037361       -28.2280
  12   2.0000      -0.957086       -26.0436
  13   2.0000      -0.838002       -22.8032
  14   2.0000      -0.838002       -22.8032
  15   2.0000      -0.680289       -18.5116
  16   2.0000      -0.680289       -18.5116
  17   2.0000      -0.594862       -16.1870
  18   2.0000      -0.524284       -14.2665
  19   2.0000      -0.511199       -13.9104
  20   2.0000      -0.482751       -13.1363
  21   2.0000      -0.482749       -13.1363
  22   2.0000      -0.459651       -12.5077
  23   2.0000      -0.458351       -12.4724
  24   2.0000      -0.458348       -12.4723
  25   2.0000      -0.421680       -11.4745
  26   2.0000      -0.397974       -10.8294
  27   2.0000      -0.397973       -10.8294
  28   2.0000      -0.293762        -7.9937
  29   2.0000      -0.293759        -7.9936
  30   0.0000       0.021341         0.5807
  31   0.0000       0.021341         0.5807
  32   0.0000       0.141235         3.8432
  33   0.0000       0.201203         5.4750
  34   0.0000       0.202448         5.5089

MULLIKEN ATOMIC CHARGES
-----------------------
   0 C :   -0.219520
   1 C :   -0.219519
   2 C :   -0.219537
   3 C :   -0.219519
   4 C :   -0.219519
   5 C :   -0.219538
   6 H :    0.219053
   7 H :    0.219067
   8 H :    0.219053
   9 H :    0.219053
  10 H :    0.219067
  11 H :    0.219054
  12 Ar:    0.002804
Sum of atomic charges:    0.0000000

LOEWDIN ATOMIC CHARGES
----------------------
   0 C :   -0.135980
   1 C :   -0.135980
   2 C :   -0.135987
   3 C :   -0.135980
   4 C :   -0.135980
   5 C :   -0.135987
   6 H :    0.135276
   7 H :    0.135276
   8 H :    0.135276
   9 H :    0.135276
  10 H :    0.135276
  11 H :    0.135276
  12 Ar:    0.004239

  Mayer bond orders larger than 0.100000
B(  0-C ,  1-C ) :   1.4285 B(  0-C ,  5-C ) :   1.4285 B(  0-C , 11-H ) :   0.9202
B(  1-C ,  2-C ) :   1.4285 B(  1-C ,  6-H ) :   0.9202 B(  2-C ,  3-C ) :   1.4285
B(  2-C ,  7-H ) :   0.9202 B(  3-C ,  4-C ) :   1.4285 B(  3-C ,  8-H ) :   0.9202
B(  4-C ,  5-C ) :   1.4285 B(  4-C ,  9-H ) :   0.9202 B(  5-C , 10-H ) :   0.9202

Dispersion correction           -0.006869801
FINAL SINGLE POINT ENERGY      -758.701904216865

DIPOLE MOMENT
-------------
                                X             Y             Z
Electronic contribution:     -0.00000       0.00000      15.76359
Nuclear contribution   :      0.00000       0.00000     -15.76785
                        -----------------------------------------
Total Dipole Moment    :     -0.00000       0.00000      -0.00426
                        -----------------------------------------
Magnitude (a.u.)       :      0.00426
Magnitude (Debye)      :      0.01082

Rotational constants in cm-1:     0.096448     0.038781     0.038781
Rotational constants in MHz :  2891.440489  1162.630436  1162.630419

                             ****ORCA TERMINATED NORMALLY****
TOTAL RUN TIME: 0 days 0 hours 1 minutes 29 seconds 133 msec
