                         Program Version 5.0.3 -  RELEASE  -
|  1> ! PBEh-3c def2/J TightSCF DefGrid3
|  2>
|  3> %maxcore 60000
|  4>
|  5> %pal
|  6> nprocs 4
|  7> end
|  8>
|  9> *xyzfile 0 1 32.xyz
| 10>
| 11>                          ****END OF INPUT****

CARTESIAN COORDINATES (ANGSTROEM)
---------------------------------
  Si     0.426967   -0.095689   -1.749308
  H     -0.615589   -0.532868    1.540994
  N      1.447337    0.479568    1.388678
  H      0.901774   -1.696557    0.856622
  F     -2.457159    0.968582    0.497730
  B      0.446792   -0.511311    0.974919
  F     -0.997295   -2.248546   -0.330919
  B      0.353722   -1.748344   -0.443138
  B      0.854611    1.371198    0.398902
  H     -1.606054    3.138397   -0.962130
  H      2.421244    0.231158    1.216806
  H      1.143855   -2.571279   -0.799704
  H     -0.996255    0.538964   -1.495677
  Al    -1.093218    1.903245   -0.124322
  Li    -1.960671   -0.759350    0.309341
  S      1.729939    1.532834   -1.278796

 Total Charge           Charge          ....    0
 Multiplicity           Mult            ....    1
 Number of Electrons    NEL             ....   92
 Basis Dimension        Dim             ....  165

ORBITAL ENERGIES
----------------

  NO   OCC          E(Eh)            E(eV)
   0   2.0000     -89.576235     -2437.4933
   1   2.0000     -66.764863     -1816.7643
   2   2.0000     -56.617044     -1540.6281
   3   2.0000     -25.124999      -683.6860
   4   2.0000     -25.086855      -682.6480
   5   2.0000     -14.632956      -398.1830
   6   2.0000      -8.216023      -223.5694
   7   2.0000      -7.034937      -191.4304
   8   2.0000      -7.011036      -190.7800
   9   2.0000      -6.999115      -190.4556
  10   2.0000      -6.105733      -166.1454
  11   2.0000      -6.103573      -166.0867
  12   2.0000      -6.099874      -165.9860
  13   2.0000      -5.538949      -150.7225
  14   2.0000      -4.352906      -118.4486
  15   2.0000      -3.829445      -104.2045
  16   2.0000      -3.829071      -104.1943
  17   2.0000      -3.827388      -104.1485
  18   2.0000      -2.845204       -77.4219
  19   2.0000      -2.842032       -77.3356
  20   2.0000      -2.837113       -77.2018
  21   2.0000      -2.142446       -58.2989
  22   2.0000      -1.339053       -36.4375
  23   2.0000      -1.285757       -34.9872
  24   2.0000      -0.977296       -26.5936
  25   2.0000      -0.810153       -22.0454
  26   2.0000      -0.714331       -19.4379
  27   2.0000      -0.625145       -17.0111
  28   2.0000      -0.603963       -16.4347
  29   2.0000      -0.585710       -15.9380
  30   2.0000      -0.561992       -15.2926
  31   2.0000      -0.556981       -15.1562
  32   2.0000      -0.531356       -14.4589
  33   2.0000      -0.519745       -14.1430
  34   2.0000      -0.507429       -13.8078
  35   2.0000      -0.502183       -13.6651
  36   2.0000      -0.476430       -12.9643
  37   2.0000      -0.449432       -12.2297
  38   2.0000      -0.434350       -11.8193
  39   2.0000      -0.407457       -11.0875
  40   2.0000      -0.380735       -10.3603
  41   2.0000      -0.370416       -10.0795
  42   2.0000      -0.342394        -9.3170
  43   2.0000      -0.318729        -8.6731
  44   2.0000      -0.283386        -7.7113
  45   2.0000      -0.246085        -6.6963
  46   0.0000      -0.048889        -1.3303
  47   0.0000      -0.012119        -0.3298
  48   0.0000      -0.006345        -0.1727
  49   0.0000       0.003862         0.1051
  50   0.0000       0.030928         0.8416

MULLIKEN ATOMIC CHARGES
-----------------------
   0 Si:    0.093517
   1 H :    0.014437
   2 N :   -0.552739
   3 H :    0.087759
   4 F :   -0.540616
   5 B :   -0.169364
   6 F :   -0.386903
   7 B :    0.109151
   8 B :   -0.030591
   9 H :   -0.085606
  10 H :    0.349981
  11 H :    0.079686
  12 H :   -0.114019
  13 Al:    0.761831
  14 Li:    0.687987
  15 S :   -0.304512
Sum of atomic charges:   -0.0000000

LOEWDIN ATOMIC CHARGES
----------------------
   0 Si:    0.149569
   1 H :    0.058063
   2 N :   -0.331582
   3 H :    0.144152
   4 F :   -0.256900
   5 B :   -0.135656
   6 F :   -0.194545
   7 B :   -0.104010
   8 B :   -0.231397
   9 H :   -0.064601
  10 H :    0.268247
  11 H :    0.037383
  12 H :    0.013398
  13 Al:    0.328570
  14 Li:    0.298155
  15 S :    0.021155

  Mayer bond orders larger than 0.100000
B(  0-Si,  5-B ) :   0.3129 B(  0-Si,  7-B ) :   0.7295 B(  0-Si,  8-B ) :   0.1983
B(  0-Si, 12-H ) :   0.6807 B(  0-Si, 13-Al) :   0.1687 B(  0-Si, 15-S ) :   1.0549
B(  1-H ,  5-B ) :   0.8919 B(  2-N ,  5-B ) :   1.1024 B(  2-N ,  8-B ) :   1.0576
B(  2-N , 10-H ) :   0.8153 B(  3-H ,  5-B ) :   0.5283 B(  3-H ,  7-B ) :   0.3463
B(  4-F , 13-Al) :   0.5822 B(  4-F , 14-Li) :   0.2540 B(  5-B ,  7-B ) :   0.4630
B(  5-B ,  8-B ) :   0.2001 B(  6-F ,  7-B ) :   0.7635 B(  6-F , 14-Li) :   0.2021
B(  7-B , 11-H ) :   0.9422 B(  8-B , 13-Al) :   0.8140 B(  8-B , 15-S ) :   0.9087
B(  9-H , 13-Al) :   0.9506 B( 12-H , 13-Al) :   0.1988

Dispersion correction           -0.011198511
FINAL SINGLE POINT ENERGY     -1268.636108591440

DIPOLE MOMENT
-------------
                                X             Y             Z
Electronic contribution:     -6.62730      -1.17038       1.38443
Nuclear contribution   :      5.77144       0.05905      -0.65344
                        -----------------------------------------
Total Dipole Moment    :     -0.85586      -1.11133       0.73099
                        -----------------------------------------
Magnitude (a.u.)       :      1.58174
Magnitude (Debye)      :      4.02046

Rotational constants in cm-1:     0.035879     0.030428     0.023408
Rotational constants in MHz :  1075.612873   912.219003   701.756555

                             ****ORCA TERMINATED NORMALLY****
TOTAL RUN TIME: 0 days 0 hours 3 minutes 10 seconds 45 msec
