                         Program Version 5.0.3 -  RELEASE  -
|  1> ! PBEh-3c def2/J TightSCF DefGrid3
|  2>
|  3> %maxcore 60000
|  4>
|  5> %pal
|  6> nprocs 4
|  7> end
|  8>
|  9> *xyzfile 0 1 E27.xyz
| 10>
| 11>                          ****END OF INPUT****

CARTESIAN COORDINATES (ANGSTROEM)
---------------------------------
  O     -0.194061    0.797393   -1.247545
  C      0.262472   -0.385982   -0.580464
  C     -0.321171   -0.354551    0.817350
  O      0.133592    0.768687    1.558611
  H      0.312285    0.922633   -2.056165
  H     -0.048289    1.548113    1.018186
  H     -0.076344   -1.288704   -1.105042
  H      1.356796   -0.399135   -0.520104
  H     -0.008166   -1.244484    1.366562
  H     -1.417114   -0.363970    0.748611

 Total Charge           Charge          ....    0
 Multiplicity           Mult            ....    1
 Number of Electrons    NEL             ....   34
 Basis Dimension        Dim             ....   72

ORBITAL ENERGIES
----------------

  NO   OCC          E(Eh)            E(eV)
   0   2.0000     -19.497204      -530.5459
   1   2.0000     -19.477581      -530.0119
   2   2.0000     -10.486975      -285.3651
   3   2.0000     -10.478902      -285.1454
   4   2.0000      -1.136041       -30.9132
   5   2.0000      -1.107834       -30.1457
   6   2.0000      -0.825286       -22.4572
   7   2.0000      -0.689843       -18.7716
   8   2.0000      -0.596801       -16.2398
   9   2.0000      -0.553830       -15.0705
  10   2.0000      -0.522906       -14.2290
  11   2.0000      -0.480724       -13.0812
  12   2.0000      -0.459178       -12.4949
  13   2.0000      -0.411370       -11.1939
  14   2.0000      -0.382180       -10.3997
  15   2.0000      -0.339631        -9.2418
  16   2.0000      -0.319956        -8.7064
  17   0.0000       0.115644         3.1468
  18   0.0000       0.168805         4.5934
  19   0.0000       0.176061         4.7909
  20   0.0000       0.212848         5.7919
  21   0.0000       0.219131         5.9628

MULLIKEN ATOMIC CHARGES
-----------------------
   0 O :   -0.646896
   1 C :   -0.186403
   2 C :   -0.159870
   3 O :   -0.629900
   4 H :    0.423835
   5 H :    0.421475
   6 H :    0.183286
   7 H :    0.195347
   8 H :    0.206478
   9 H :    0.192646
Sum of atomic charges:    0.0000000

LOEWDIN ATOMIC CHARGES
----------------------
   0 O :   -0.427917
   1 C :   -0.115338
   2 C :   -0.105162
   3 O :   -0.412914
   4 H :    0.312663
   5 H :    0.311953
   6 H :    0.103408
   7 H :    0.106612
   8 H :    0.121110
   9 H :    0.105584

  Mayer bond orders larger than 0.100000
B(  0-O ,  1-C ) :   0.9964 B(  0-O ,  4-H ) :   0.7889 B(  1-C ,  2-C ) :   0.9661
B(  1-C ,  6-H ) :   0.8982 B(  1-C ,  7-H ) :   0.9044 B(  2-C ,  3-O ) :   1.0330
B(  2-C ,  8-H ) :   0.9144 B(  2-C ,  9-H ) :   0.9027 B(  3-O ,  5-H ) :   0.7770

Dispersion correction           -0.003072294
FINAL SINGLE POINT ENERGY      -229.753459547476

DIPOLE MOMENT
-------------
                                X             Y             Z
Electronic contribution:     -0.01090       1.85542       0.25067
Nuclear contribution   :      0.25243      -2.14887      -1.17224
                        -----------------------------------------
Total Dipole Moment    :      0.24154      -0.29345      -0.92157
                        -----------------------------------------
Magnitude (a.u.)       :      0.99686
Magnitude (Debye)      :      2.53382

Rotational constants in cm-1:     0.513249     0.184953     0.152992
Rotational constants in MHz : 15386.816595  5544.757350  4586.595193

                             ****ORCA TERMINATED NORMALLY****
TOTAL RUN TIME: 0 days 0 hours 0 minutes 54 seconds 56 msec
