                         Program Version 5.0.3 -  RELEASE  -
|  1> ! PBEh-3c def2/J TightSCF DefGrid3
|  2>
|  3> %maxcore 60000
|  4>
|  5> %pal
|  6> nprocs 4
|  7> end
|  8>
|  9> *xyzfile 0 1 i3e.xyz
| 10>
| 11>                          ****END OF INPUT****

CARTESIAN COORDINATES (ANGSTROEM)
---------------------------------
  C      1.232702   -0.335203    1.255044
  C     -0.157003    0.158960    1.705377
  C     -1.210951   -0.238600    0.675300
  C     -0.795133    0.254804   -0.710134
  C      0.619545   -0.251960   -1.050584
  O      1.537869    0.195518   -0.033765
  O     -0.542301   -0.413660    2.957259
  O     -2.497664    0.324315    0.962615
  O     -1.703190   -0.207685   -1.719754
  C      1.137062    0.287402   -2.392609
  O      0.516091   -0.339309   -3.509595
  H      0.184686   -0.255139    3.577646
  H     -2.750235    0.014238    1.843889
  H     -0.442051   -0.264335   -3.373345
  H     -2.592981    0.046961   -1.434405
  O      2.236387    0.057464    2.156426
  H      2.318679    1.022257    2.086875
  H      1.251535   -1.436912    1.239345
  H     -0.117417    1.261339    1.770300
  H     -1.274776   -1.339658    0.650192
  H     -0.769446    1.357354   -0.697205
  H      0.608308   -1.354399   -1.090327
  H      1.001164    1.383982   -2.407621
  H      2.209122    0.072265   -2.460921

 Total Charge           Charge          ....    0
 Multiplicity           Mult            ....    1
 Number of Electrons    NEL             ....   96
 Basis Dimension        Dim             ....  204

ORBITAL ENERGIES
----------------

  NO   OCC          E(Eh)            E(eV)
   0   2.0000     -19.523254      -531.2548
   1   2.0000     -19.522173      -531.2253
   2   2.0000     -19.514502      -531.0166
   3   2.0000     -19.513514      -530.9897
   4   2.0000     -19.509828      -530.8894
   5   2.0000     -19.476933      -529.9943
   6   2.0000     -10.559716      -287.3445
   7   2.0000     -10.510297      -285.9997
   8   2.0000     -10.509904      -285.9890
   9   2.0000     -10.509547      -285.9793
  10   2.0000     -10.507785      -285.9314
  11   2.0000     -10.484753      -285.3046
  12   2.0000      -1.197563       -32.5874
  13   2.0000      -1.158986       -31.5376
  14   2.0000      -1.148366       -31.2486
  15   2.0000      -1.128903       -30.7190
  16   2.0000      -1.127919       -30.6922
  17   2.0000      -1.110080       -30.2068
  18   2.0000      -0.887497       -24.1500
  19   2.0000      -0.861479       -23.4420
  20   2.0000      -0.769728       -20.9454
  21   2.0000      -0.735564       -20.0157
  22   2.0000      -0.701197       -19.0806
  23   2.0000      -0.674958       -18.3665
  24   2.0000      -0.625643       -17.0246
  25   2.0000      -0.615610       -16.7516
  26   2.0000      -0.590886       -16.0788
  27   2.0000      -0.576382       -15.6841
  28   2.0000      -0.564343       -15.3566
  29   2.0000      -0.557180       -15.1616
  30   2.0000      -0.538309       -14.6481
  31   2.0000      -0.511339       -13.9142
  32   2.0000      -0.508741       -13.8435
  33   2.0000      -0.488334       -13.2882
  34   2.0000      -0.473607       -12.8875
  35   2.0000      -0.457550       -12.4506
  36   2.0000      -0.448480       -12.2037
  37   2.0000      -0.444723       -12.1015
  38   2.0000      -0.433062       -11.7842
  39   2.0000      -0.422724       -11.5029
  40   2.0000      -0.407870       -11.0987
  41   2.0000      -0.387731       -10.5507
  42   2.0000      -0.373783       -10.1712
  43   2.0000      -0.358276        -9.7492
  44   2.0000      -0.349945        -9.5225
  45   2.0000      -0.343870        -9.3572
  46   2.0000      -0.326886        -8.8950
  47   2.0000      -0.316623        -8.6157
  48   0.0000       0.082793         2.2529
  49   0.0000       0.102162         2.7800
  50   0.0000       0.129664         3.5283
  51   0.0000       0.144724         3.9381
  52   0.0000       0.145406         3.9567

MULLIKEN ATOMIC CHARGES
-----------------------
   0 C :    0.257148
   1 C :   -0.027068
   2 C :   -0.006445
   3 C :    0.040313
   4 C :   -0.012737
   5 O :   -0.494183
   6 O :   -0.644125
   7 O :   -0.651642
   8 O :   -0.661092
   9 C :   -0.157827
  10 O :   -0.636907
  11 H :    0.430211
  12 H :    0.437242
  13 H :    0.434344
  14 H :    0.442583
  15 O :   -0.620772
  16 H :    0.420673
  17 H :    0.209788
  18 H :    0.195670
  19 H :    0.210292
  20 H :    0.205644
  21 H :    0.220043
  22 H :    0.177541
  23 H :    0.231308
Sum of atomic charges:    0.0000000

LOEWDIN ATOMIC CHARGES
----------------------
   0 C :    0.073031
   1 C :   -0.063858
   2 C :   -0.038624
   3 C :   -0.030829
   4 C :   -0.028271
   5 O :   -0.250649
   6 O :   -0.401989
   7 O :   -0.405270
   8 O :   -0.399757
   9 C :   -0.086012
  10 O :   -0.412547
  11 H :    0.320539
  12 H :    0.324938
  13 H :    0.310516
  14 H :    0.326942
  15 O :   -0.367162
  16 H :    0.319137
  17 H :    0.112138
  18 H :    0.110034
  19 H :    0.118974
  20 H :    0.115282
  21 H :    0.120960
  22 H :    0.101740
  23 H :    0.130737

  Mayer bond orders larger than 0.100000
B(  0-C ,  1-C ) :   0.8982 B(  0-C ,  5-O ) :   0.9645 B(  0-C , 15-O ) :   1.0546
B(  0-C , 17-H ) :   0.8783 B(  1-C ,  2-C ) :   0.9341 B(  1-C ,  6-O ) :   1.0087
B(  1-C , 18-H ) :   0.8793 B(  2-C ,  3-C ) :   0.9546 B(  2-C ,  7-O ) :   1.0078
B(  2-C , 19-H ) :   0.8795 B(  3-C ,  4-C ) :   0.9175 B(  3-C ,  8-O ) :   0.9701
B(  3-C , 20-H ) :   0.8794 B(  4-C ,  5-O ) :   0.9178 B(  4-C ,  9-C ) :   0.9642
B(  4-C , 21-H ) :   0.8751 B(  6-O , 11-H ) :   0.7700 B(  7-O , 12-H ) :   0.7706
B(  8-O , 14-H ) :   0.7617 B(  9-C , 10-O ) :   1.0458 B(  9-C , 22-H ) :   0.9002
B(  9-C , 23-H ) :   0.9097 B( 10-O , 13-H ) :   0.7459 B( 15-O , 16-H ) :   0.7797

Dispersion correction           -0.013571514
FINAL SINGLE POINT ENERGY      -685.712239085997

DIPOLE MOMENT
-------------
                                X             Y             Z
Electronic contribution:      0.00018      -0.32010       1.89822
Nuclear contribution   :     -0.50207       0.91919      -0.67437
                        -----------------------------------------
Total Dipole Moment    :     -0.50189       0.59908       1.22385
                        -----------------------------------------
Magnitude (a.u.)       :      1.45210
Magnitude (Debye)      :      3.69094

Rotational constants in cm-1:     0.043046     0.024142     0.016196
Rotational constants in MHz :  1290.477684   723.755262   485.556181

                             ****ORCA TERMINATED NORMALLY****
TOTAL RUN TIME: 0 days 0 hours 2 minutes 13 seconds 574 msec
