                         Program Version 5.0.3 -  RELEASE  -
|  1> ! PBEh-3c def2/J TightSCF DefGrid3
|  2>
|  3> %maxcore 60000
|  4>
|  5> %pal
|  6> nprocs 4
|  7> end
|  8>
|  9> *xyzfile 1 1 sugar2.xyz
| 10>
| 11>                          ****END OF INPUT****

CARTESIAN COORDINATES (ANGSTROEM)
---------------------------------
  C     -2.798661   -0.855958   -0.037853
  C     -1.437555   -1.017992    0.635197
  C     -0.283795   -0.735838   -0.345871
  C      1.051093   -0.296340    0.262049
  C      1.044472    1.244708    0.095267
  O      0.218116    1.882647    1.032541
  C      0.405307    1.410046   -1.262436
  O     -2.877184    0.513843   -0.475416
  O      2.056475   -0.867496   -0.509443
  O     -1.372751   -0.342418    1.843560
  O     -0.634822    0.380887   -1.270928
  C      3.321675   -0.940261    0.111506
  H     -2.906244   -1.539278   -0.887285
  H     -3.590632   -1.061278    0.684382
  H     -1.342161   -2.083066    0.877227
  H     -0.139275   -1.601026   -0.995690
  H      1.116469   -0.585424    1.320826
  H      2.063058    1.647549    0.093959
  H      0.720922    2.191384    1.790210
  H     -0.072466    2.376542   -1.420723
  H      1.083763    1.184713   -2.083218
  H     -1.628373    0.678405   -1.081220
  H     -1.291810    0.610246    1.724576
  H      3.739701    0.047390    0.339283
  H      3.280477   -1.522207    1.039124
  H      3.993092   -1.439747   -0.582962
  H     -3.718894    0.719968   -0.896662

 Total Charge           Charge          ....    1
 Multiplicity           Mult            ....    1
 Number of Electrons    NEL             ....   96
 Basis Dimension        Dim             ....  210

ORBITAL ENERGIES
----------------

  NO   OCC          E(Eh)            E(eV)
   0   2.0000     -19.758812      -537.6646
   1   2.0000     -19.706953      -536.2534
   2   2.0000     -19.662093      -535.0328
   3   2.0000     -19.645699      -534.5866
   4   2.0000     -19.631784      -534.2080
   5   2.0000     -10.680047      -290.6189
   6   2.0000     -10.670095      -290.3480
   7   2.0000     -10.663048      -290.1563
   8   2.0000     -10.662002      -290.1278
   9   2.0000     -10.656907      -289.9892
  10   2.0000     -10.656700      -289.9836
  11   2.0000     -10.604165      -288.5540
  12   2.0000      -1.404567       -38.2202
  13   2.0000      -1.335619       -36.3440
  14   2.0000      -1.308447       -35.6047
  15   2.0000      -1.297322       -35.3019
  16   2.0000      -1.282486       -34.8982
  17   2.0000      -1.052625       -28.6434
  18   2.0000      -1.041930       -28.3524
  19   2.0000      -0.983755       -26.7693
  20   2.0000      -0.908493       -24.7214
  21   2.0000      -0.893972       -24.3262
  22   2.0000      -0.869830       -23.6693
  23   2.0000      -0.833762       -22.6878
  24   2.0000      -0.814945       -22.1758
  25   2.0000      -0.783769       -21.3274
  26   2.0000      -0.771264       -20.9872
  27   2.0000      -0.732796       -19.9404
  28   2.0000      -0.721072       -19.6214
  29   2.0000      -0.707628       -19.2555
  30   2.0000      -0.699267       -19.0280
  31   2.0000      -0.687546       -18.7091
  32   2.0000      -0.678967       -18.4756
  33   2.0000      -0.661756       -18.0073
  34   2.0000      -0.648940       -17.6586
  35   2.0000      -0.637832       -17.3563
  36   2.0000      -0.617242       -16.7960
  37   2.0000      -0.612804       -16.6753
  38   2.0000      -0.601554       -16.3691
  39   2.0000      -0.579412       -15.7666
  40   2.0000      -0.566044       -15.4028
  41   2.0000      -0.556162       -15.1339
  42   2.0000      -0.543721       -14.7954
  43   2.0000      -0.533806       -14.5256
  44   2.0000      -0.521429       -14.1888
  45   2.0000      -0.504838       -13.7373
  46   2.0000      -0.478248       -13.0138
  47   2.0000      -0.451677       -12.2907
  48   0.0000      -0.072332        -1.9683
  49   0.0000      -0.049402        -1.3443
  50   0.0000      -0.030047        -0.8176
  51   0.0000      -0.019850        -0.5402
  52   0.0000      -0.004016        -0.1093

MULLIKEN ATOMIC CHARGES
-----------------------
   0 C :   -0.219924
   1 C :   -0.026863
   2 C :   -0.019338
   3 C :   -0.025984
   4 C :   -0.029250
   5 O :   -0.642271
   6 C :   -0.200639
   7 O :   -0.681636
   8 O :   -0.467156
   9 O :   -0.606949
  10 O :   -0.580849
  11 C :   -0.402975
  12 H :    0.242224
  13 H :    0.293809
  14 H :    0.285841
  15 H :    0.316952
  16 H :    0.286551
  17 H :    0.277755
  18 H :    0.459240
  19 H :    0.298288
  20 H :    0.301459
  21 H :    0.529329
  22 H :    0.441717
  23 H :    0.199502
  24 H :    0.220735
  25 H :    0.264399
  26 H :    0.486035
Sum of atomic charges:    1.0000000

LOEWDIN ATOMIC CHARGES
----------------------
   0 C :   -0.095366
   1 C :   -0.049462
   2 C :    0.005987
   3 C :   -0.033384
   4 C :   -0.045720
   5 O :   -0.377765
   6 C :   -0.059722
   7 O :   -0.379424
   8 O :   -0.233120
   9 O :   -0.365159
  10 O :   -0.176426
  11 C :   -0.186299
  12 H :    0.131583
  13 H :    0.157099
  14 H :    0.159859
  15 H :    0.170744
  16 H :    0.146789
  17 H :    0.144573
  18 H :    0.339889
  19 H :    0.163602
  20 H :    0.163600
  21 H :    0.374176
  22 H :    0.316641
  23 H :    0.107637
  24 H :    0.120172
  25 H :    0.146519
  26 H :    0.352975

  Mayer bond orders larger than 0.100000
B(  0-C ,  1-C ) :   0.9392 B(  0-C ,  7-O ) :   0.8738 B(  0-C , 12-H ) :   0.8871
B(  0-C , 13-H ) :   0.8854 B(  1-C ,  2-C ) :   0.9188 B(  1-C ,  9-O ) :   1.0824
B(  1-C , 14-H ) :   0.8724 B(  2-C ,  3-C ) :   0.9473 B(  2-C , 10-O ) :   0.7308
B(  2-C , 15-H ) :   0.8690 B(  3-C ,  4-C ) :   0.8962 B(  3-C ,  8-O ) :   0.9525
B(  3-C , 16-H ) :   0.8701 B(  4-C ,  5-O ) :   0.9883 B(  4-C ,  6-C ) :   0.9286
B(  4-C , 17-H ) :   0.8849 B(  5-O , 18-H ) :   0.7578 B(  6-C , 10-O ) :   0.7849
B(  6-C , 19-H ) :   0.8933 B(  6-C , 20-H ) :   0.8820 B(  7-O , 21-H ) :   0.2484
B(  7-O , 26-H ) :   0.7362 B(  8-O , 11-C ) :   0.9316 B(  9-O , 22-H ) :   0.7254
B( 10-O , 21-H ) :   0.4759 B( 11-C , 23-H ) :   0.9089 B( 11-C , 24-H ) :   0.9079
B( 11-C , 25-H ) :   0.9154

Dispersion correction           -0.015700248
FINAL SINGLE POINT ENERGY      -650.197786841517

DIPOLE MOMENT
-------------
                                X             Y             Z
Electronic contribution:     -3.77761       1.78075      -0.43383
Nuclear contribution   :      3.14583      -1.14937      -0.32737
                        -----------------------------------------
Total Dipole Moment    :     -0.63178       0.63137      -0.76120
                        -----------------------------------------
Magnitude (a.u.)       :      1.17354
Magnitude (Debye)      :      2.98291

Rotational constants in cm-1:     0.049391     0.022392     0.021079
Rotational constants in MHz :  1480.700947   671.297748   631.919696

                             ****ORCA TERMINATED NORMALLY****
TOTAL RUN TIME: 0 days 0 hours 2 minutes 41 seconds 439 msec
