                         Program Version 5.0.3 -  RELEASE  -
|  1> ! PBEh-3c def2/J TightSCF DefGrid3
|  2>
|  3> %maxcore 60000
|  4>
|  5> %pal
|  6> nprocs 4
|  7> end
|  8>
|  9> *xyzfile 0 1 ILE_xaj.xyz
| 10>
| 11>                          ****END OF INPUT****

CARTESIAN COORDINATES (ANGSTROEM)
---------------------------------
  N     -0.187046    1.110241    0.397863
  C      0.198943   -0.159461   -0.202510
  C     -0.799444   -1.218075    0.278933
  O     -0.587779   -1.930538    1.255233
  C      1.638940   -0.528469    0.132994
  C      2.596323    0.594154   -0.268734
  C      1.991650   -1.838507   -0.564941
  C      4.040982    0.336476    0.143566
  H      0.141552    1.317566    1.326467
  H      0.094895   -0.027563   -1.281292
  H      1.695612   -0.686902    1.214629
  H      2.263836    1.533420    0.174569
  H      2.537928    0.730854   -1.352699
  H      1.298903   -2.628557   -0.285794
  H      1.959117   -1.706863   -1.648594
  H      2.992985   -2.168654   -0.297855
  H      4.106395    0.136903    1.213579
  H      4.666371    1.200879   -0.073516
  H      4.466589   -0.516238   -0.380938
  N     -1.938323   -1.249820   -0.451943
  H     -2.089923   -0.466225   -1.074270
  C     -3.062990   -2.054335   -0.022602
  H     -3.716971   -2.237707   -0.870028
  H     -2.688099   -2.999629    0.357534
  H     -3.632595   -1.570741    0.771891
  C     -1.153277    1.891111   -0.148638
  O     -1.722762    1.596052   -1.199052
  C     -1.471335    3.160643    0.599428
  H     -2.532122    3.166752    0.837945
  H     -1.275700    4.004437   -0.058081
  H     -0.893784    3.277198    1.513018

 Total Charge           Charge          ....    0
 Multiplicity           Mult            ....    1
 Number of Electrons    NEL             ....  102
 Basis Dimension        Dim             ....  231

ORBITAL ENERGIES
----------------

  NO   OCC          E(Eh)            E(eV)
   0   2.0000     -19.469706      -529.7976
   1   2.0000     -19.453066      -529.3448
   2   2.0000     -14.677102      -399.3842
   3   2.0000     -14.649941      -398.6452
   4   2.0000     -10.562060      -287.4083
   5   2.0000     -10.537597      -286.7426
   6   2.0000     -10.486624      -285.3555
   7   2.0000     -10.458959      -284.6027
   8   2.0000     -10.451902      -284.4107
   9   2.0000     -10.447709      -284.2966
  10   2.0000     -10.435727      -283.9706
  11   2.0000     -10.425544      -283.6935
  12   2.0000     -10.420463      -283.5552
  13   2.0000      -1.155916       -31.4541
  14   2.0000      -1.135079       -30.8871
  15   2.0000      -1.038719       -28.2650
  16   2.0000      -1.012044       -27.5391
  17   2.0000      -0.913584       -24.8599
  18   2.0000      -0.854772       -23.2595
  19   2.0000      -0.822892       -22.3920
  20   2.0000      -0.797975       -21.7140
  21   2.0000      -0.760193       -20.6859
  22   2.0000      -0.714895       -19.4533
  23   2.0000      -0.673509       -18.3271
  24   2.0000      -0.643515       -17.5109
  25   2.0000      -0.639530       -17.4025
  26   2.0000      -0.595386       -16.2013
  27   2.0000      -0.571280       -15.5453
  28   2.0000      -0.556298       -15.1376
  29   2.0000      -0.529542       -14.4096
  30   2.0000      -0.521800       -14.1989
  31   2.0000      -0.511896       -13.9294
  32   2.0000      -0.502746       -13.6804
  33   2.0000      -0.489633       -13.3236
  34   2.0000      -0.481160       -13.0930
  35   2.0000      -0.472842       -12.8667
  36   2.0000      -0.468365       -12.7449
  37   2.0000      -0.458611       -12.4794
  38   2.0000      -0.443568       -12.0701
  39   2.0000      -0.437803       -11.9132
  40   2.0000      -0.433394       -11.7932
  41   2.0000      -0.425357       -11.5745
  42   2.0000      -0.413793       -11.2599
  43   2.0000      -0.409571       -11.1450
  44   2.0000      -0.382262       -10.4019
  45   2.0000      -0.377853       -10.2819
  46   2.0000      -0.374002       -10.1771
  47   2.0000      -0.335146        -9.1198
  48   2.0000      -0.322243        -8.7687
  49   2.0000      -0.298418        -8.1204
  50   2.0000      -0.288117        -7.8401
  51   0.0000       0.041609         1.1322
  52   0.0000       0.065883         1.7928
  53   0.0000       0.111902         3.0450
  54   0.0000       0.135268         3.6808
  55   0.0000       0.156156         4.2492

MULLIKEN ATOMIC CHARGES
-----------------------
   0 N :   -0.624575
   1 C :   -0.182227
   2 C :    0.555969
   3 O :   -0.437702
   4 C :   -0.252208
   5 C :   -0.396895
   6 C :   -0.655320
   7 C :   -0.648118
   8 H :    0.364366
   9 H :    0.259951
  10 H :    0.228661
  11 H :    0.208993
  12 H :    0.207741
  13 H :    0.259526
  14 H :    0.201474
  15 H :    0.227793
  16 H :    0.210346
  17 H :    0.223688
  18 H :    0.218381
  19 N :   -0.640932
  20 H :    0.397883
  21 C :   -0.492613
  22 H :    0.220614
  23 H :    0.250744
  24 H :    0.218623
  25 C :    0.540143
  26 O :   -0.459087
  27 C :   -0.745587
  28 H :    0.260166
  29 H :    0.264063
  30 H :    0.216140
Sum of atomic charges:    0.0000000

LOEWDIN ATOMIC CHARGES
----------------------
   0 N :   -0.208847
   1 C :   -0.088031
   2 C :    0.102075
   3 O :   -0.284349
   4 C :   -0.155642
   5 C :   -0.239369
   6 C :   -0.351723
   7 C :   -0.361264
   8 H :    0.260742
   9 H :    0.146102
  10 H :    0.132445
  11 H :    0.118843
  12 H :    0.122991
  13 H :    0.144352
  14 H :    0.122549
  15 H :    0.130514
  16 H :    0.124668
  17 H :    0.128484
  18 H :    0.125751
  19 N :   -0.246543
  20 H :    0.266387
  21 C :   -0.254857
  22 H :    0.125912
  23 H :    0.143921
  24 H :    0.119596
  25 C :    0.112852
  26 O :   -0.300979
  27 C :   -0.384542
  28 H :    0.157977
  29 H :    0.160720
  30 H :    0.129266

  Mayer bond orders larger than 0.100000
B(  0-N ,  1-C ) :   0.9114 B(  0-N ,  8-H ) :   0.8183 B(  0-N , 25-C ) :   1.1658
B(  1-C ,  2-C ) :   0.8830 B(  1-C ,  4-C ) :   0.9804 B(  1-C ,  9-H ) :   0.8779
B(  2-C ,  3-O ) :   1.9589 B(  2-C , 19-N ) :   1.1697 B(  4-C ,  5-C ) :   0.9731
B(  4-C ,  6-C ) :   0.9907 B(  4-C , 10-H ) :   0.8899 B(  5-C ,  7-C ) :   0.9969
B(  5-C , 11-H ) :   0.9205 B(  5-C , 12-H ) :   0.9165 B(  6-C , 13-H ) :   0.9056
B(  6-C , 14-H ) :   0.9247 B(  6-C , 15-H ) :   0.9254 B(  7-C , 16-H ) :   0.9286
B(  7-C , 17-H ) :   0.9301 B(  7-C , 18-H ) :   0.9252 B( 19-N , 20-H ) :   0.7572
B( 19-N , 21-C ) :   0.9626 B( 21-C , 22-H ) :   0.9256 B( 21-C , 23-H ) :   0.9098
B( 21-C , 24-H ) :   0.9183 B( 25-C , 26-O ) :   1.9004 B( 25-C , 27-C ) :   0.9319
B( 27-C , 28-H ) :   0.9081 B( 27-C , 29-H ) :   0.9065 B( 27-C , 30-H ) :   0.9215

Dispersion correction           -0.018435712
FINAL SINGLE POINT ENERGY      -612.479193332958

DIPOLE MOMENT
-------------
                                X             Y             Z
Electronic contribution:     -9.48116       0.17299       0.11708
Nuclear contribution   :      9.62851       0.76184       0.11828
                        -----------------------------------------
Total Dipole Moment    :      0.14735       0.93483       0.23537
                        -----------------------------------------
Magnitude (a.u.)       :      0.97521
Magnitude (Debye)      :      2.47877

Rotational constants in cm-1:     0.029198     0.020007     0.013396
Rotational constants in MHz :   875.327230   599.788153   401.614480

                             ****ORCA TERMINATED NORMALLY****
TOTAL RUN TIME: 0 days 0 hours 4 minutes 17 seconds 520 msec
