                         Program Version 5.0.3 -  RELEASE  -
|  1> ! PBEh-3c def2/J TightSCF DefGrid3
|  2>
|  3> %maxcore 60000
|  4>
|  5> %pal
|  6> nprocs 4
|  7> end
|  8>
|  9> *xyzfile 0 1 E4.xyz
| 10>
| 11>                          ****END OF INPUT****

CARTESIAN COORDINATES (ANGSTROEM)
---------------------------------
  C     -1.958481   -0.089863    0.000000
  C     -0.538292    0.390586    0.000000
  C      0.538292   -0.390586    0.000000
  C      1.958481    0.089863    0.000000
  H     -2.012161   -1.180547    0.000000
  H     -2.500754    0.276059   -0.878057
  H     -2.500754    0.276059    0.878057
  H     -0.398791    1.470868    0.000000
  H      0.398791   -1.470868    0.000000
  H      2.012161    1.180547    0.000000
  H      2.500754   -0.276059    0.878057
  H      2.500754   -0.276059   -0.878057

 Total Charge           Charge          ....    0
 Multiplicity           Mult            ....    1
 Number of Electrons    NEL             ....   32
 Basis Dimension        Dim             ....   76

ORBITAL ENERGIES
----------------

  NO   OCC          E(Eh)            E(eV)
   0   2.0000     -10.436893      -284.0023
   1   2.0000     -10.435924      -283.9759
   2   2.0000     -10.428305      -283.7686
   3   2.0000     -10.428289      -283.7682
   4   2.0000      -0.886933       -24.1347
   5   2.0000      -0.810665       -22.0593
   6   2.0000      -0.719555       -19.5801
   7   2.0000      -0.612229       -16.6596
   8   2.0000      -0.500870       -13.6294
   9   2.0000      -0.498319       -13.5599
  10   2.0000      -0.469897       -12.7866
  11   2.0000      -0.454472       -12.3668
  12   2.0000      -0.424859       -11.5610
  13   2.0000      -0.412124       -11.2145
  14   2.0000      -0.387982       -10.5575
  15   2.0000      -0.282109        -7.6766
  16   0.0000       0.060376         1.6429
  17   0.0000       0.168951         4.5974
  18   0.0000       0.172727         4.7001
  19   0.0000       0.180607         4.9146
  20   0.0000       0.207093         5.6353

MULLIKEN ATOMIC CHARGES
-----------------------
   0 C :   -0.682461
   1 C :   -0.183397
   2 C :   -0.183398
   3 C :   -0.682461
   4 H :    0.220292
   5 H :    0.222270
   6 H :    0.222270
   7 H :    0.201026
   8 H :    0.201026
   9 H :    0.220292
  10 H :    0.222270
  11 H :    0.222270
Sum of atomic charges:    0.0000000

LOEWDIN ATOMIC CHARGES
----------------------
   0 C :   -0.358155
   1 C :   -0.161617
   2 C :   -0.161617
   3 C :   -0.358155
   4 H :    0.130741
   5 H :    0.132794
   6 H :    0.132794
   7 H :    0.123444
   8 H :    0.123444
   9 H :    0.130741
  10 H :    0.132794
  11 H :    0.132794

  Mayer bond orders larger than 0.100000
B(  0-C ,  1-C ) :   0.9979 B(  0-C ,  4-H ) :   0.9314 B(  0-C ,  5-H ) :   0.9178
B(  0-C ,  6-H ) :   0.9178 B(  1-C ,  2-C ) :   1.9105 B(  1-C ,  7-H ) :   0.9217
B(  2-C ,  3-C ) :   0.9979 B(  2-C ,  8-H ) :   0.9217 B(  3-C ,  9-H ) :   0.9314
B(  3-C , 10-H ) :   0.9178 B(  3-C , 11-H ) :   0.9178

Dispersion correction           -0.004150867
FINAL SINGLE POINT ENERGY      -156.872809766227

DIPOLE MOMENT
-------------
                                X             Y             Z
Electronic contribution:      0.00000      -0.00000       0.00000
Nuclear contribution   :      0.00000       0.00000       0.00000
                        -----------------------------------------
Total Dipole Moment    :      0.00000      -0.00000       0.00000
                        -----------------------------------------
Magnitude (a.u.)       :      0.00000
Magnitude (Debye)      :      0.00000

Rotational constants in cm-1:     1.166958     0.124038     0.116957
Rotational constants in MHz : 34984.512378  3718.558884  3506.269758

                             ****ORCA TERMINATED NORMALLY****
TOTAL RUN TIME: 0 days 0 hours 0 minutes 58 seconds 746 msec
