                         Program Version 5.0.3 -  RELEASE  -
|  1> ! PBEh-3c def2/J TightSCF DefGrid3
|  2>
|  3> %maxcore 60000
|  4>
|  5> %pal
|  6> nprocs 4
|  7> end
|  8>
|  9> *xyzfile 0 1 CH4.xyz
| 10>
| 11>                          ****END OF INPUT****

CARTESIAN COORDINATES (ANGSTROEM)
---------------------------------
  C      0.000000    0.000000    0.000000
  H      0.627837   -0.627837    0.627837
  H     -0.627837    0.627837    0.627837
  H     -0.627837   -0.627837   -0.627837
  H      0.627837    0.627837   -0.627837

 Total Charge           Charge          ....    0
 Multiplicity           Mult            ....    1
 Number of Electrons    NEL             ....   10
 Basis Dimension        Dim             ....   23

ORBITAL ENERGIES
----------------

  NO   OCC          E(Eh)            E(eV)
   0   2.0000     -10.414033      -283.3802
   1   2.0000      -0.775015       -21.0892
   2   2.0000      -0.445235       -12.1155
   3   2.0000      -0.445235       -12.1155
   4   2.0000      -0.445235       -12.1155
   5   0.0000       0.174757         4.7554
   6   0.0000       0.219017         5.9598
   7   0.0000       0.219017         5.9598
   8   0.0000       0.219017         5.9598
   9   0.0000       0.507672        13.8145

MULLIKEN ATOMIC CHARGES
-----------------------
   0 C :   -0.880562
   1 H :    0.220140
   2 H :    0.220140
   3 H :    0.220140
   4 H :    0.220140
Sum of atomic charges:    0.0000000

LOEWDIN ATOMIC CHARGES
----------------------
   0 C :   -0.522509
   1 H :    0.130627
   2 H :    0.130627
   3 H :    0.130627
   4 H :    0.130627

  Mayer bond orders larger than 0.100000
B(  0-C ,  1-H ) :   0.9369 B(  0-C ,  2-H ) :   0.9369 B(  0-C ,  3-H ) :   0.9369
B(  0-C ,  4-H ) :   0.9369

Dispersion correction           -0.000682756
FINAL SINGLE POINT ENERGY       -40.426625697385

DIPOLE MOMENT
-------------
                                X             Y             Z
Electronic contribution:     -0.00000       0.00000       0.00000
Nuclear contribution   :      0.00000       0.00000       0.00000
                        -----------------------------------------
Total Dipole Moment    :     -0.00000       0.00000       0.00000
                        -----------------------------------------
Magnitude (a.u.)       :      0.00000
Magnitude (Debye)      :      0.00000

Rotational constants in cm-1:     5.303378     5.303378     5.303378
Rotational constants in MHz : 158991.267824 158991.267824 158991.267824

                             ****ORCA TERMINATED NORMALLY****
TOTAL RUN TIME: 0 days 0 hours 0 minutes 58 seconds 995 msec
