                         Program Version 5.0.3 -  RELEASE  -
|  1> ! PBEh-3c def2/J TightSCF DefGrid3
|  2>
|  3> %maxcore 60000
|  4>
|  5> %pal
|  6> nprocs 4
|  7> end
|  8>
|  9> *xyzfile 0 1 22.xyz
| 10>
| 11>                          ****END OF INPUT****

CARTESIAN COORDINATES (ANGSTROEM)
---------------------------------
  C     -2.048619    0.948531   -0.144119
  C     -1.504594    0.032773    0.759225
  C     -2.189092   -1.144825    1.052599
  C     -3.415834   -1.418458    0.453818
  C     -3.955886   -0.499170   -0.444871
  C     -3.278563    0.677646   -0.745381
  C      1.995463    0.971189    0.113781
  C      1.548891    0.254371   -0.993184
  C      2.200225   -0.922292   -1.348580
  C      3.290056   -1.381876   -0.610632
  C      3.728172   -0.655005    0.492876
  C      3.080972    0.523035    0.860281
  H     -3.684680    1.398120   -1.441528
  H     -0.565325    2.149337   -0.042229
  H      1.742773    2.533435    1.193943
  H     -0.552164    0.241342    1.228488
  H     -1.756626   -1.847461    1.752074
  H     -3.943980   -2.332702    0.684026
  H     -4.908587   -0.697609   -0.916901
  H      0.703039    0.621483   -1.557627
  H      1.850634   -1.480288   -2.205953
  H      3.791511   -2.296469   -0.892435
  H      4.572252   -1.000325    1.073495
  H      3.418374    1.087723    1.721181
  O     -1.430017    2.114538   -0.478889
  O      1.311605    2.122958    0.436545

 Total Charge           Charge          ....    0
 Multiplicity           Mult            ....    1
 Number of Electrons    NEL             ....  100
 Basis Dimension        Dim             ....  234

ORBITAL ENERGIES
----------------

  NO   OCC          E(Eh)            E(eV)
   0   2.0000     -19.555581      -532.1344
   1   2.0000     -19.504745      -530.7511
   2   2.0000     -10.527143      -286.4581
   3   2.0000     -10.499219      -285.6983
   4   2.0000     -10.463914      -284.7376
   5   2.0000     -10.462881      -284.7095
   6   2.0000     -10.460294      -284.6391
   7   2.0000     -10.454490      -284.4811
   8   2.0000     -10.452790      -284.4349
   9   2.0000     -10.441712      -284.1334
  10   2.0000     -10.440542      -284.1016
  11   2.0000     -10.435202      -283.9563
  12   2.0000     -10.431134      -283.8456
  13   2.0000     -10.430876      -283.8386
  14   2.0000      -1.196799       -32.5665
  15   2.0000      -1.152903       -31.3721
  16   2.0000      -0.963515       -26.2186
  17   2.0000      -0.938476       -25.5372
  18   2.0000      -0.852947       -23.2099
  19   2.0000      -0.842442       -22.9240
  20   2.0000      -0.828880       -22.5550
  21   2.0000      -0.815976       -22.2038
  22   2.0000      -0.718291       -19.5457
  23   2.0000      -0.694887       -18.9088
  24   2.0000      -0.688489       -18.7347
  25   2.0000      -0.667097       -18.1526
  26   2.0000      -0.630177       -17.1480
  27   2.0000      -0.602467       -16.3940
  28   2.0000      -0.580118       -15.7858
  29   2.0000      -0.559374       -15.2213
  30   2.0000      -0.544594       -14.8191
  31   2.0000      -0.520357       -14.1596
  32   2.0000      -0.512858       -13.9556
  33   2.0000      -0.497860       -13.5475
  34   2.0000      -0.496904       -13.5214
  35   2.0000      -0.490162       -13.3380
  36   2.0000      -0.476640       -12.9700
  37   2.0000      -0.471622       -12.8335
  38   2.0000      -0.458626       -12.4798
  39   2.0000      -0.436780       -11.8854
  40   2.0000      -0.428512       -11.6604
  41   2.0000      -0.410813       -11.1788
  42   2.0000      -0.408490       -11.1156
  43   2.0000      -0.406169       -11.0524
  44   2.0000      -0.381742       -10.3877
  45   2.0000      -0.379713       -10.3325
  46   2.0000      -0.307211        -8.3596
  47   2.0000      -0.286179        -7.7873
  48   2.0000      -0.280725        -7.6389
  49   2.0000      -0.252231        -6.8636
  50   0.0000       0.003818         0.1039
  51   0.0000       0.020552         0.5592
  52   0.0000       0.028457         0.7744
  53   0.0000       0.045543         1.2393
  54   0.0000       0.095342         2.5944

MULLIKEN ATOMIC CHARGES
-----------------------
   0 C :    0.344437
   1 C :   -0.346876
   2 C :   -0.206760
   3 C :   -0.246741
   4 C :   -0.208770
   5 C :   -0.298679
   6 C :    0.369185
   7 C :   -0.292024
   8 C :   -0.207162
   9 C :   -0.237355
  10 C :   -0.209674
  11 C :   -0.341595
  12 H :    0.232521
  13 H :    0.460341
  14 H :    0.441663
  15 H :    0.230843
  16 H :    0.216780
  17 H :    0.212478
  18 H :    0.215559
  19 H :    0.264942
  20 H :    0.231497
  21 H :    0.224369
  22 H :    0.227315
  23 H :    0.221039
  24 O :   -0.639678
  25 O :   -0.657656
Sum of atomic charges:    0.0000000

LOEWDIN ATOMIC CHARGES
----------------------
   0 C :    0.062877
   1 C :   -0.194483
   2 C :   -0.123282
   3 C :   -0.169435
   4 C :   -0.124081
   5 C :   -0.168544
   6 C :    0.055777
   7 C :   -0.157998
   8 C :   -0.112604
   9 C :   -0.154522
  10 C :   -0.119127
  11 C :   -0.190821
  12 H :    0.143747
  13 H :    0.317132
  14 H :    0.332107
  15 H :    0.137187
  16 H :    0.134941
  17 H :    0.132809
  18 H :    0.134895
  19 H :    0.155217
  20 H :    0.142625
  21 H :    0.138627
  22 H :    0.139869
  23 H :    0.134691
  24 O :   -0.326599
  25 O :   -0.321007

  Mayer bond orders larger than 0.100000
B(  0-C ,  1-C ) :   1.3481 B(  0-C ,  5-C ) :   1.3661 B(  0-C , 24-O ) :   1.1031
B(  1-C ,  2-C ) :   1.4249 B(  1-C , 15-H ) :   0.9056 B(  2-C ,  3-C ) :   1.4352
B(  2-C , 16-H ) :   0.9213 B(  3-C ,  4-C ) :   1.4174 B(  3-C , 17-H ) :   0.9211
B(  4-C ,  5-C ) :   1.4482 B(  4-C , 18-H ) :   0.9218 B(  5-C , 12-H ) :   0.9108
B(  6-C ,  7-C ) :   1.3700 B(  6-C , 11-C ) :   1.3608 B(  6-C , 25-O ) :   0.9609
B(  7-C ,  8-C ) :   1.4494 B(  7-C , 19-H ) :   0.8893 B(  8-C ,  9-C ) :   1.4173
B(  8-C , 20-H ) :   0.9168 B(  9-C , 10-C ) :   1.4375 B(  9-C , 21-H ) :   0.9175
B( 10-C , 11-C ) :   1.4290 B( 10-C , 22-H ) :   0.9169 B( 11-C , 23-H ) :   0.9145
B( 13-H , 24-O ) :   0.6987 B( 14-H , 25-O ) :   0.7730

Dispersion correction           -0.015985005
FINAL SINGLE POINT ENERGY      -613.599607663441

DIPOLE MOMENT
-------------
                                X             Y             Z
Electronic contribution:      0.13643       3.36659      -0.28878
Nuclear contribution   :      1.09280      -3.54499       0.96277
                        -----------------------------------------
Total Dipole Moment    :      1.22923      -0.17841       0.67399
                        -----------------------------------------
Magnitude (a.u.)       :      1.41318
Magnitude (Debye)      :      3.59203

Rotational constants in cm-1:     0.042870     0.011870     0.010585
Rotational constants in MHz :  1285.209752   355.858642   317.324199

                             ****ORCA TERMINATED NORMALLY****
TOTAL RUN TIME: 0 days 0 hours 2 minutes 53 seconds 784 msec
