                         Program Version 5.0.3 -  RELEASE  -
|  1> ! PBEh-3c def2/J TightSCF DefGrid3
|  2>
|  3> %maxcore 60000
|  4>
|  5> %pal
|  6> nprocs 4
|  7> end
|  8>
|  9> *xyzfile 0 1 CO_2NHC3H7_2.xyz
| 10>
| 11>                          ****END OF INPUT****

CARTESIAN COORDINATES (ANGSTROEM)
---------------------------------
  C     -0.348681   -0.034520    0.007456
  O     -1.576876   -0.104129    0.040016
  N      0.383425   -0.071332   -1.171894
  H      1.371920   -0.292787   -1.095678
  N      0.435534    0.087503    1.147372
  H      1.385654    0.424231    1.019448
  C     -0.256189   -0.384602   -2.442948
  H     -0.143002   -1.458173   -2.687056
  H     -1.329646   -0.204532   -2.295983
  C     -0.169764    0.340097    2.448565
  H     -0.189258    1.424077    2.671571
  H     -1.215704    0.015188    2.366809
  C      0.549004   -0.406215    3.575162
  H      1.612451   -0.110437    3.592925
  H      0.531123   -1.484713    3.352312
  C      0.289041    0.467180   -3.592308
  H      1.379487    0.316993   -3.676807
  H      0.140918    1.530280   -3.345224
  C     -0.378093    0.133983   -4.928617
  H      0.031124    0.747730   -5.743029
  H     -0.227538   -0.921903   -5.199432
  H     -1.462491    0.314141   -4.887048
  C     -0.079436   -0.135276    4.943798
  H      0.453930   -0.671406    5.740897
  H     -0.056295    0.936929    5.190386
  H     -1.130640   -0.458308    4.969307

 Total Charge           Charge          ....    0
 Multiplicity           Mult            ....    1
 Number of Electrons    NEL             ....   80
 Basis Dimension        Dim             ....  182

ORBITAL ENERGIES
----------------

  NO   OCC          E(Eh)            E(eV)
   0   2.0000     -19.440684      -529.0079
   1   2.0000     -14.650045      -398.6480
   2   2.0000     -14.649936      -398.6450
   3   2.0000     -10.562848      -287.4297
   4   2.0000     -10.466270      -284.8017
   5   2.0000     -10.466221      -284.8004
   6   2.0000     -10.439129      -284.0631
   7   2.0000     -10.438916      -284.0573
   8   2.0000     -10.430120      -283.8180
   9   2.0000     -10.430011      -283.8150
  10   2.0000      -1.137553       -30.9544
  11   2.0000      -1.019377       -27.7387
  12   2.0000      -0.994657       -27.0660
  13   2.0000      -0.874148       -23.7868
  14   2.0000      -0.859118       -23.3778
  15   2.0000      -0.778106       -21.1733
  16   2.0000      -0.740607       -20.1529
  17   2.0000      -0.670616       -18.2484
  18   2.0000      -0.662993       -18.0410
  19   2.0000      -0.649877       -17.6841
  20   2.0000      -0.615089       -16.7374
  21   2.0000      -0.555773       -15.1234
  22   2.0000      -0.524919       -14.2838
  23   2.0000      -0.522509       -14.2182
  24   2.0000      -0.506898       -13.7934
  25   2.0000      -0.492060       -13.3896
  26   2.0000      -0.477504       -12.9935
  27   2.0000      -0.467092       -12.7102
  28   2.0000      -0.448815       -12.2129
  29   2.0000      -0.432675       -11.7737
  30   2.0000      -0.428903       -11.6710
  31   2.0000      -0.423801       -11.5322
  32   2.0000      -0.410159       -11.1610
  33   2.0000      -0.398668       -10.8483
  34   2.0000      -0.389693       -10.6041
  35   2.0000      -0.381932       -10.3929
  36   2.0000      -0.380877       -10.3642
  37   2.0000      -0.314334        -8.5535
  38   2.0000      -0.295096        -8.0300
  39   2.0000      -0.287101        -7.8124
  40   0.0000       0.098862         2.6902
  41   0.0000       0.113794         3.0965
  42   0.0000       0.138816         3.7774
  43   0.0000       0.141138         3.8406
  44   0.0000       0.163339         4.4447

MULLIKEN ATOMIC CHARGES
-----------------------
   0 C :    0.728338
   1 O :   -0.470110
   2 N :   -0.677655
   3 H :    0.334698
   4 N :   -0.677306
   5 H :    0.334316
   6 C :   -0.243271
   7 H :    0.199133
   8 H :    0.259820
   9 C :   -0.242288
  10 H :    0.199005
  11 H :    0.259316
  12 C :   -0.425248
  13 H :    0.194102
  14 H :    0.223060
  15 C :   -0.424277
  16 H :    0.194140
  17 H :    0.222958
  18 C :   -0.643588
  19 H :    0.222362
  20 H :    0.209231
  21 H :    0.217476
  22 C :   -0.643470
  23 H :    0.222392
  24 H :    0.209413
  25 H :    0.217453
Sum of atomic charges:   -0.0000000

LOEWDIN ATOMIC CHARGES
----------------------
   0 C :    0.145164
   1 O :   -0.311551
   2 N :   -0.279412
   3 H :    0.243404
   4 N :   -0.279885
   5 H :    0.243211
   6 C :   -0.145910
   7 H :    0.109354
   8 H :    0.149840
   9 C :   -0.145661
  10 H :    0.109164
  11 H :    0.149513
  12 C :   -0.254901
  13 H :    0.114403
  14 H :    0.128296
  15 C :   -0.254957
  16 H :    0.114436
  17 H :    0.128280
  18 C :   -0.362765
  19 H :    0.129345
  20 H :    0.124043
  21 H :    0.127883
  22 C :   -0.362661
  23 H :    0.129350
  24 H :    0.124135
  25 H :    0.127883

  Mayer bond orders larger than 0.100000
B(  0-C ,  1-O ) :   1.9193 B(  0-C ,  2-N ) :   1.0629 B(  0-C ,  4-N ) :   1.0621
B(  2-N ,  3-H ) :   0.8361 B(  2-N ,  6-C ) :   0.9384 B(  4-N ,  5-H ) :   0.8361
B(  4-N ,  9-C ) :   0.9387 B(  6-C ,  7-H ) :   0.9154 B(  6-C ,  8-H ) :   0.8894
B(  6-C , 15-C ) :   0.9759 B(  9-C , 10-H ) :   0.9151 B(  9-C , 11-H ) :   0.8898
B(  9-C , 12-C ) :   0.9761 B( 12-C , 13-H ) :   0.9234 B( 12-C , 14-H ) :   0.9144
B( 12-C , 22-C ) :   0.9876 B( 15-C , 16-H ) :   0.9236 B( 15-C , 17-H ) :   0.9146
B( 15-C , 18-C ) :   0.9873 B( 18-C , 19-H ) :   0.9301 B( 18-C , 20-H ) :   0.9278
B( 18-C , 21-H ) :   0.9262 B( 22-C , 23-H ) :   0.9301 B( 22-C , 24-H ) :   0.9278
B( 22-C , 25-H ) :   0.9262

Dispersion correction           -0.012259534
FINAL SINGLE POINT ENERGY      -460.142538506032

DIPOLE MOMENT
-------------
                                X             Y             Z
Electronic contribution:     -1.38591      -0.17195       0.02698
Nuclear contribution   :      2.86885       0.26227      -0.06655
                        -----------------------------------------
Total Dipole Moment    :      1.48294       0.09032      -0.03957
                        -----------------------------------------
Magnitude (a.u.)       :      1.48622
Magnitude (Debye)      :      3.77766

Rotational constants in cm-1:     0.196270     0.012545     0.012126
Rotational constants in MHz :  5884.021484   376.077478   363.518603

                             ****ORCA TERMINATED NORMALLY****
TOTAL RUN TIME: 0 days 0 hours 2 minutes 10 seconds 684 msec
