                         Program Version 5.0.3 -  RELEASE  -
|  1> ! PBEh-3c def2/J TightSCF DefGrid3
|  2>
|  3> %maxcore 60000
|  4>
|  5> %pal
|  6> nprocs 4
|  7> end
|  8>
|  9> *xyzfile 0 1 04A.xyz
| 10>
| 11>                          ****END OF INPUT****

CARTESIAN COORDINATES (ANGSTROEM)
---------------------------------
  O      0.000000    0.000000   -0.396361
  H      0.756295    0.000000    0.198180
  H     -0.756295    0.000000    0.198180

 Total Charge           Charge          ....    0
 Multiplicity           Mult            ....    1
 Number of Electrons    NEL             ....   10
 Basis Dimension        Dim             ....   19

ORBITAL ENERGIES
----------------

  NO   OCC          E(Eh)            E(eV)
   0   2.0000     -19.474952      -529.9404
   1   2.0000      -1.102446       -29.9991
   2   2.0000      -0.579694       -15.7743
   3   2.0000      -0.435871       -11.8607
   4   2.0000      -0.356599        -9.7035
   5   0.0000       0.130757         3.5581
   6   0.0000       0.208502         5.6736
   7   0.0000       0.870375        23.6841
   8   0.0000       0.981561        26.7096
   9   0.0000       0.991471        26.9793

MULLIKEN ATOMIC CHARGES
-----------------------
   0 O :   -0.815306
   1 H :    0.407653
   2 H :    0.407653
Sum of atomic charges:    0.0000000

LOEWDIN ATOMIC CHARGES
----------------------
   0 O :   -0.596993
   1 H :    0.298496
   2 H :    0.298496

  Mayer bond orders larger than 0.100000
B(  0-O ,  1-H ) :   0.8164 B(  0-O ,  2-H ) :   0.8164

Dispersion correction           -0.000209589
FINAL SINGLE POINT ENERGY       -76.257974807623

DIPOLE MOMENT
-------------
                                X             Y             Z
Electronic contribution:     -0.00000       0.00000      -0.13451
Nuclear contribution   :      0.00000       0.00000       0.98975
                        -----------------------------------------
Total Dipole Moment    :     -0.00000       0.00000       0.85523
                        -----------------------------------------
Magnitude (a.u.)       :      0.85523
Magnitude (Debye)      :      2.17383

Rotational constants in cm-1:    26.636904    14.619226     9.438862
Rotational constants in MHz : 798554.290504 438273.363879 282969.962629

                             ****ORCA TERMINATED NORMALLY****
TOTAL RUN TIME: 0 days 0 hours 0 minutes 37 seconds 663 msec
