                         Program Version 5.0.3 -  RELEASE  -
|  1> ! PBEh-3c def2/J TightSCF DefGrid3
|  2>
|  3> %maxcore 60000
|  4>
|  5> %pal
|  6> nprocs 4
|  7> end
|  8>
|  9> *xyzfile 0 1 al2me6.xyz
| 10>
| 11>                          ****END OF INPUT****

CARTESIAN COORDINATES (ANGSTROEM)
---------------------------------
  C      0.000000    2.412333   -1.620845
  Al     0.000000    1.307566    0.009443
  C      0.000000    2.058525    1.833234
  C     -1.692308    0.000000   -0.222996
  Al     0.000000   -1.307566    0.009443
  C      0.000000   -2.412333   -1.620845
  C      1.692308    0.000000   -0.222996
  C      0.000000   -2.058525    1.833234
  H      0.876499   -2.688480    2.007086
  H      0.000000   -1.288088    2.607309
  H     -0.876499   -2.688480    2.007086
  H      0.877170   -3.062852   -1.664474
  H     -0.877170   -3.062852   -1.664474
  H      0.000000   -1.807463   -2.530428
  H      0.876499    2.688480    2.007086
  H     -0.876499    2.688480    2.007086
  H      0.000000    1.288088    2.607309
  H      0.877170    3.062852   -1.664474
  H      0.000000    1.807463   -2.530428
  H     -0.877170    3.062852   -1.664474
  H      1.984993    0.000000   -1.272980
  H      2.197903   -0.847825    0.256019
  H      2.197903    0.847825    0.256019
  H     -1.984993    0.000000   -1.272980
  H     -2.197903    0.847825    0.256019
  H     -2.197903   -0.847825    0.256019

 Total Charge           Charge          ....    0
 Multiplicity           Mult            ....    1
 Number of Electrons    NEL             ....   80
 Basis Dimension        Dim             ....  162

ORBITAL ENERGIES
----------------

  NO   OCC          E(Eh)            E(eV)
   0   2.0000     -56.587678     -1539.8290
   1   2.0000     -56.587654     -1539.8284
   2   2.0000     -10.435534      -283.9653
   3   2.0000     -10.435504      -283.9645
   4   2.0000     -10.395254      -282.8692
   5   2.0000     -10.395236      -282.8687
   6   2.0000     -10.393927      -282.8331
   7   2.0000     -10.393907      -282.8326
   8   2.0000      -4.321389      -117.5910
   9   2.0000      -4.321336      -117.5895
  10   2.0000      -2.813377       -76.5559
  11   2.0000      -2.813279       -76.5532
  12   2.0000      -2.810893       -76.4883
  13   2.0000      -2.810262       -76.4711
  14   2.0000      -2.807061       -76.3840
  15   2.0000      -2.807009       -76.3826
  16   2.0000      -0.804288       -21.8858
  17   2.0000      -0.787953       -21.4413
  18   2.0000      -0.747263       -20.3341
  19   2.0000      -0.742895       -20.2152
  20   2.0000      -0.739985       -20.1360
  21   2.0000      -0.737891       -20.0790
  22   2.0000      -0.502094       -13.6627
  23   2.0000      -0.493688       -13.4339
  24   2.0000      -0.483182       -13.1481
  25   2.0000      -0.475473       -12.9383
  26   2.0000      -0.474030       -12.8990
  27   2.0000      -0.440263       -11.9802
  28   2.0000      -0.435447       -11.8491
  29   2.0000      -0.433524       -11.7968
  30   2.0000      -0.428882       -11.6705
  31   2.0000      -0.427495       -11.6327
  32   2.0000      -0.425475       -11.5778
  33   2.0000      -0.424877       -11.5615
  34   2.0000      -0.421655       -11.4738
  35   2.0000      -0.357890        -9.7387
  36   2.0000      -0.335098        -9.1185
  37   2.0000      -0.333047        -9.0627
  38   2.0000      -0.308990        -8.4080
  39   2.0000      -0.307679        -8.3724
  40   0.0000       0.064863         1.7650
  41   0.0000       0.071768         1.9529
  42   0.0000       0.083676         2.2769
  43   0.0000       0.088105         2.3975
  44   0.0000       0.111763         3.0412

MULLIKEN ATOMIC CHARGES
-----------------------
   0 C :   -1.034808
   1 Al:    1.014452
   2 C :   -1.044974
   3 C :   -1.179171
   4 Al:    1.014450
   5 C :   -1.034807
   6 C :   -1.179171
   7 C :   -1.044974
   8 H :    0.229434
   9 H :    0.233104
  10 H :    0.229434
  11 H :    0.231431
  12 H :    0.231431
  13 H :    0.227633
  14 H :    0.229434
  15 H :    0.229434
  16 H :    0.233104
  17 H :    0.231431
  18 H :    0.227633
  19 H :    0.231430
  20 H :    0.290961
  21 H :    0.285537
  22 H :    0.285537
  23 H :    0.290961
  24 H :    0.285537
  25 H :    0.285537
Sum of atomic charges:   -0.0000000

LOEWDIN ATOMIC CHARGES
----------------------
   0 C :   -0.628983
   1 Al:    0.449801
   2 C :   -0.632871
   3 C :   -0.588033
   4 Al:    0.449801
   5 C :   -0.628983
   6 C :   -0.588033
   7 C :   -0.632871
   8 H :    0.142875
   9 H :    0.142976
  10 H :    0.142875
  11 H :    0.144346
  12 H :    0.144346
  13 H :    0.141856
  14 H :    0.142875
  15 H :    0.142875
  16 H :    0.142976
  17 H :    0.144346
  18 H :    0.141856
  19 H :    0.144346
  20 H :    0.169866
  21 H :    0.185474
  22 H :    0.185474
  23 H :    0.169866
  24 H :    0.185474
  25 H :    0.185474

  Mayer bond orders larger than 0.100000
B(  0-C ,  1-Al) :   0.8742 B(  0-C , 17-H ) :   0.9071 B(  0-C , 18-H ) :   0.9069
B(  0-C , 19-H ) :   0.9071 B(  1-Al,  2-C ) :   0.8670 B(  1-Al,  3-C ) :   0.4586
B(  1-Al,  4-Al) :   0.1261 B(  1-Al,  6-C ) :   0.4586 B(  2-C , 14-H ) :   0.9079
B(  2-C , 15-H ) :   0.9079 B(  2-C , 16-H ) :   0.9070 B(  3-C ,  4-Al) :   0.4586
B(  3-C , 23-H ) :   0.8783 B(  3-C , 24-H ) :   0.8483 B(  3-C , 25-H ) :   0.8483
B(  4-Al,  5-C ) :   0.8742 B(  4-Al,  6-C ) :   0.4586 B(  4-Al,  7-C ) :   0.8670
B(  5-C , 11-H ) :   0.9071 B(  5-C , 12-H ) :   0.9071 B(  5-C , 13-H ) :   0.9069
B(  6-C , 20-H ) :   0.8783 B(  6-C , 21-H ) :   0.8483 B(  6-C , 22-H ) :   0.8483
B(  7-C ,  8-H ) :   0.9079 B(  7-C ,  9-H ) :   0.9070 B(  7-C , 10-H ) :   0.9079

Dispersion correction           -0.013347644
FINAL SINGLE POINT ENERGY      -723.227177900303

DIPOLE MOMENT
-------------
                                X             Y             Z
Electronic contribution:     -0.00000      -0.00000      -0.02985
Nuclear contribution   :     -0.00000      -0.00000      -0.04179
                        -----------------------------------------
Total Dipole Moment    :     -0.00000      -0.00000      -0.07164
                        -----------------------------------------
Magnitude (a.u.)       :      0.07164
Magnitude (Debye)      :      0.18211

Rotational constants in cm-1:     0.055268     0.032666     0.027355
Rotational constants in MHz :  1656.898712   979.295220   820.096115

                             ****ORCA TERMINATED NORMALLY****
TOTAL RUN TIME: 0 days 0 hours 1 minutes 56 seconds 572 msec
