                         Program Version 5.0.3 -  RELEASE  -
|  1> ! PBEh-3c def2/J TightSCF DefGrid3
|  2>
|  3> %maxcore 60000
|  4>
|  5> %pal
|  6> nprocs 4
|  7> end
|  8>
|  9> *xyzfile 1 1 i24e.xyz
| 10>
| 11>                          ****END OF INPUT****

CARTESIAN COORDINATES (ANGSTROEM)
---------------------------------
  C     -0.184878   -0.331534    0.058245
  C      0.511802    0.866368   -0.525953
  C      0.403303   -1.671307   -0.241550
  C     -0.011404    2.236884    0.026187
  C      0.477076    0.818984   -2.076937
  C     -0.442413    2.083895    1.496029
  H      0.851682    2.914843   -0.001233
  C     -1.121751    2.903218   -0.801805
  C     -1.614114    1.102203    1.619232
  H      0.397987    1.715998    2.100112
  H     -0.731656    3.060624    1.899987
  C     -1.265375   -0.241078    0.954045
  H     -1.860321    0.908029    2.669116
  H     -2.507996    1.555448    1.172978
  H     -1.303337   -1.114862    1.622105
  Si    -2.983294   -0.968604   -0.050410
  C      1.868990   -1.722703    0.282427
  C      2.703653   -0.604943   -0.355835
  C      2.028764    0.745527   -0.072257
  H     -0.185365   -2.468928    0.217963
  H      0.427229   -1.836247   -1.326813
  H      1.861026   -1.612514    1.374549
  H      2.284528   -2.709704    0.049795
  C      4.150071   -0.605716    0.123111
  H      2.718232   -0.769176   -1.440988
  H      2.080030    0.955031    1.002147
  H      2.559589    1.552135   -0.591059
  C     -4.209400   -0.927989    1.384924
  C     -3.474660    0.176065   -1.463846
  C     -2.650092   -2.724342   -0.650516
  H     -5.178309   -1.302672    1.023730
  H     -3.887099   -1.572316    2.212955
  H     -4.363267    0.086812    1.769115
  H     -4.332070   -0.290782   -1.972027
  H     -3.800147    1.162891   -1.116456
  H     -2.680829    0.305332   -2.208226
  H     -3.599995   -3.124129   -1.035990
  H     -1.919795   -2.767708   -1.466526
  H     -2.318129   -3.390573    0.155469
  H      1.016579    1.693254   -2.457593
  H      0.962585   -0.079320   -2.465472
  H     -0.548433    0.858737   -2.456131
  H     -1.425614    3.837026   -0.313626
  H     -0.781514    3.149297   -1.812391
  H     -2.005532    2.266237   -0.891145
  C      5.150362   -0.673014   -0.762833
  C      4.398630   -0.524417    1.610325
  H      6.190782   -0.666117   -0.442525
  H      4.958453   -0.739066   -1.833324
  H      3.992651   -1.403546    2.131549
  H      5.471390   -0.472479    1.822717
  H      3.921395    0.360953    2.054654

 Total Charge           Charge          ....    1
 Multiplicity           Mult            ....    1
 Number of Electrons    NEL             ....  154
 Basis Dimension        Dim             ....  354

ORBITAL ENERGIES
----------------

  NO   OCC          E(Eh)            E(eV)
   0   2.0000     -66.908420     -1820.6707
   1   2.0000     -10.674307      -290.4627
   2   2.0000     -10.613701      -288.8135
   3   2.0000     -10.611498      -288.7535
   4   2.0000     -10.595563      -288.3199
   5   2.0000     -10.583330      -287.9871
   6   2.0000     -10.576088      -287.7900
   7   2.0000     -10.575434      -287.7722
   8   2.0000     -10.573624      -287.7229
   9   2.0000     -10.569412      -287.6083
  10   2.0000     -10.567456      -287.5551
  11   2.0000     -10.563926      -287.4591
  12   2.0000     -10.557580      -287.2864
  13   2.0000     -10.557383      -287.2810
  14   2.0000     -10.554915      -287.2138
  15   2.0000     -10.553814      -287.1839
  16   2.0000     -10.543654      -286.9074
  17   2.0000     -10.528399      -286.4923
  18   2.0000     -10.525569      -286.4153
  19   2.0000      -5.676358      -154.4616
  20   2.0000      -3.970740      -108.0493
  21   2.0000      -3.966085      -107.9227
  22   2.0000      -3.966032      -107.9212
  23   2.0000      -1.118119       -30.4256
  24   2.0000      -1.046015       -28.4635
  25   2.0000      -1.027372       -27.9562
  26   2.0000      -1.002891       -27.2901
  27   2.0000      -0.964596       -26.2480
  28   2.0000      -0.939786       -25.5729
  29   2.0000      -0.936409       -25.4810
  30   2.0000      -0.905423       -24.6378
  31   2.0000      -0.899845       -24.4860
  32   2.0000      -0.896220       -24.3874
  33   2.0000      -0.887575       -24.1522
  34   2.0000      -0.864483       -23.5238
  35   2.0000      -0.839710       -22.8497
  36   2.0000      -0.817746       -22.2520
  37   2.0000      -0.810527       -22.0556
  38   2.0000      -0.764170       -20.7941
  39   2.0000      -0.709776       -19.3140
  40   2.0000      -0.692711       -18.8496
  41   2.0000      -0.691678       -18.8215
  42   2.0000      -0.680349       -18.5132
  43   2.0000      -0.665571       -18.1111
  44   2.0000      -0.649780       -17.6814
  45   2.0000      -0.642605       -17.4862
  46   2.0000      -0.634498       -17.2656
  47   2.0000      -0.620127       -16.8745
  48   2.0000      -0.614937       -16.7333
  49   2.0000      -0.608334       -16.5536
  50   2.0000      -0.603951       -16.4344
  51   2.0000      -0.601455       -16.3664
  52   2.0000      -0.599738       -16.3197
  53   2.0000      -0.596487       -16.2312
  54   2.0000      -0.588388       -16.0108
  55   2.0000      -0.581188       -15.8149
  56   2.0000      -0.576376       -15.6840
  57   2.0000      -0.573442       -15.6042
  58   2.0000      -0.570495       -15.5240
  59   2.0000      -0.562885       -15.3169
  60   2.0000      -0.562107       -15.2957
  61   2.0000      -0.552305       -15.0290
  62   2.0000      -0.551664       -15.0116
  63   2.0000      -0.547143       -14.8885
  64   2.0000      -0.537722       -14.6321
  65   2.0000      -0.524349       -14.2683
  66   2.0000      -0.519144       -14.1266
  67   2.0000      -0.518412       -14.1067
  68   2.0000      -0.499238       -13.5849
  69   2.0000      -0.498208       -13.5569
  70   2.0000      -0.494556       -13.4576
  71   2.0000      -0.493250       -13.4220
  72   2.0000      -0.488453       -13.2915
  73   2.0000      -0.480793       -13.0830
  74   2.0000      -0.477547       -12.9947
  75   2.0000      -0.462581       -12.5875
  76   2.0000      -0.387720       -10.5504
  77   0.0000      -0.208029        -5.6608
  78   0.0000      -0.059225        -1.6116
  79   0.0000      -0.052342        -1.4243
  80   0.0000      -0.039242        -1.0678
  81   0.0000      -0.021007        -0.5716

MULLIKEN ATOMIC CHARGES
-----------------------
   0 C :    0.360349
   1 C :   -0.168020
   2 C :   -0.530816
   3 C :   -0.236532
   4 C :   -0.652019
   5 C :   -0.440989
   6 H :    0.259076
   7 C :   -0.664835
   8 C :   -0.443905
   9 H :    0.236824
  10 H :    0.264043
  11 C :   -0.613672
  12 H :    0.273932
  13 H :    0.249843
  14 H :    0.320276
  15 Si:    0.979775
  16 C :   -0.419539
  17 C :   -0.336630
  18 C :   -0.405126
  19 H :    0.269232
  20 H :    0.270573
  21 H :    0.237507
  22 H :    0.280569
  23 C :    0.207202
  24 H :    0.236002
  25 H :    0.241886
  26 H :    0.272733
  27 C :   -0.933839
  28 C :   -0.955028
  29 C :   -0.943611
  30 H :    0.272130
  31 H :    0.257942
  32 H :    0.267011
  33 H :    0.280160
  34 H :    0.262355
  35 H :    0.257748
  36 H :    0.280776
  37 H :    0.257375
  38 H :    0.256054
  39 H :    0.264259
  40 H :    0.243649
  41 H :    0.247064
  42 H :    0.253273
  43 H :    0.248466
  44 H :    0.213648
  45 C :   -0.532393
  46 C :   -0.712358
  47 H :    0.236807
  48 H :    0.221407
  49 H :    0.228823
  50 H :    0.259565
  51 H :    0.220978
Sum of atomic charges:    1.0000000

LOEWDIN ATOMIC CHARGES
----------------------
   0 C :    0.173006
   1 C :   -0.084845
   2 C :   -0.229626
   3 C :   -0.140083
   4 C :   -0.326343
   5 C :   -0.224785
   6 H :    0.143808
   7 C :   -0.353778
   8 C :   -0.227335
   9 H :    0.130687
  10 H :    0.146925
  11 C :   -0.263081
  12 H :    0.153502
  13 H :    0.136841
  14 H :    0.187024
  15 Si:    0.668866
  16 C :   -0.207060
  17 C :   -0.143029
  18 C :   -0.194521
  19 H :    0.147506
  20 H :    0.157931
  21 H :    0.134596
  22 H :    0.154743
  23 C :   -0.059553
  24 H :    0.132899
  25 H :    0.133187
  26 H :    0.152391
  27 C :   -0.552811
  28 C :   -0.559608
  29 C :   -0.561683
  30 H :    0.169925
  31 H :    0.159391
  32 H :    0.160121
  33 H :    0.172187
  34 H :    0.158960
  35 H :    0.153025
  36 H :    0.172027
  37 H :    0.155796
  38 H :    0.156826
  39 H :    0.152844
  40 H :    0.135215
  41 H :    0.134346
  42 H :    0.144862
  43 H :    0.140241
  44 H :    0.120988
  45 C :   -0.256993
  46 C :   -0.349169
  47 H :    0.142559
  48 H :    0.134099
  49 H :    0.135803
  50 H :    0.150238
  51 H :    0.130935

  Mayer bond orders larger than 0.100000
B(  0-C ,  1-C ) :   0.9789 B(  0-C ,  2-C ) :   0.9844 B(  0-C , 11-C ) :   1.3123
B(  1-C ,  3-C ) :   0.9306 B(  1-C ,  4-C ) :   0.9695 B(  1-C , 18-C ) :   0.9164
B(  2-C , 16-C ) :   0.9319 B(  2-C , 19-H ) :   0.9021 B(  2-C , 20-H ) :   0.8786
B(  3-C ,  5-C ) :   0.9698 B(  3-C ,  6-H ) :   0.8972 B(  3-C ,  7-C ) :   0.9855
B(  4-C , 39-H ) :   0.9050 B(  4-C , 40-H ) :   0.9045 B(  4-C , 41-H ) :   0.9019
B(  5-C ,  8-C ) :   0.9746 B(  5-C ,  9-H ) :   0.9084 B(  5-C , 10-H ) :   0.9078
B(  7-C , 42-H ) :   0.9139 B(  7-C , 43-H ) :   0.9159 B(  7-C , 44-H ) :   0.9081
B(  8-C , 11-C ) :   0.9251 B(  8-C , 12-H ) :   0.9028 B(  8-C , 13-H ) :   0.8961
B( 11-C , 14-H ) :   0.8441 B( 11-C , 15-Si) :   0.5569 B( 15-Si, 27-C ) :   0.9910
B( 15-Si, 28-C ) :   0.9818 B( 15-Si, 29-C ) :   0.9887 B( 16-C , 17-C ) :   0.9552
B( 16-C , 21-H ) :   0.9053 B( 16-C , 22-H ) :   0.9012 B( 17-C , 18-C ) :   0.9471
B( 17-C , 23-C ) :   0.9836 B( 17-C , 24-H ) :   0.9040 B( 18-C , 25-H ) :   0.8980
B( 18-C , 26-H ) :   0.8957 B( 23-C , 45-C ) :   1.8729 B( 23-C , 46-C ) :   0.9576
B( 27-C , 30-H ) :   0.8903 B( 27-C , 31-H ) :   0.8972 B( 27-C , 32-H ) :   0.8931
B( 28-C , 33-H ) :   0.8833 B( 28-C , 34-H ) :   0.8943 B( 28-C , 35-H ) :   0.8900
B( 29-C , 36-H ) :   0.8848 B( 29-C , 37-H ) :   0.8960 B( 29-C , 38-H ) :   0.8968
B( 45-C , 47-H ) :   0.9225 B( 45-C , 48-H ) :   0.9287 B( 46-C , 49-H ) :   0.9114
B( 46-C , 50-H ) :   0.9188 B( 46-C , 51-H ) :   0.9129

Dispersion correction           -0.039714285
FINAL SINGLE POINT ENERGY      -993.180985731936

DIPOLE MOMENT
-------------
                                X             Y             Z
Electronic contribution:      1.06014      -2.38896       1.17961
Nuclear contribution   :     -2.57092       1.92402      -1.10229
                        -----------------------------------------
Total Dipole Moment    :     -1.51078      -0.46494       0.07732
                        -----------------------------------------
Magnitude (a.u.)       :      1.58260
Magnitude (Debye)      :      4.02264

Rotational constants in cm-1:     0.018697     0.007269     0.006506
Rotational constants in MHz :   560.514009   217.927216   195.059310

                             ****ORCA TERMINATED NORMALLY****
TOTAL RUN TIME: 0 days 0 hours 7 minutes 6 seconds 82 msec
