                         Program Version 5.0.3 -  RELEASE  -
|  1> ! PBEh-3c def2/J TightSCF DefGrid3
|  2>
|  3> %maxcore 60000
|  4>
|  5> %pal
|  6> nprocs 4
|  7> end
|  8>
|  9> *xyzfile 0 2 pr.xyz
| 10>
| 11>                          ****END OF INPUT****

CARTESIAN COORDINATES (ANGSTROEM)
---------------------------------
  C     -1.096406    0.360909   -0.145645
  C      0.424903    0.360642   -0.169992
  C      1.025128   -0.853972    0.426888
  H      0.477562   -1.788993    0.442744
  H      2.062372   -0.870554    0.736835
  H     -1.502288    1.258370   -0.617178
  H     -1.470393    0.318916    0.879966
  H     -1.494206   -0.506191   -0.679475
  H      0.808779    1.252625    0.339837
  H      0.764550    0.468248   -1.213979

 Total Charge           Charge          ....    0
 Multiplicity           Mult            ....    2
 Number of Electrons    NEL             ....   25
 Basis Dimension        Dim             ....   59

ORBITAL ENERGIES
----------------
                 SPIN UP ORBITALS
  NO   OCC          E(Eh)            E(eV)
   0   1.0000     -10.439390      -284.0703
   1   1.0000     -10.436314      -283.9865
   2   1.0000     -10.423780      -283.6455
   3   1.0000      -0.876804       -23.8591
   4   1.0000      -0.757424       -20.6106
   5   1.0000      -0.654637       -17.8136
   6   1.0000      -0.515332       -14.0229
   7   1.0000      -0.502166       -13.6646
   8   1.0000      -0.464808       -12.6481
   9   1.0000      -0.410582       -11.1725
  10   1.0000      -0.403193       -10.9714
  11   1.0000      -0.393339       -10.7033
  12   1.0000      -0.249553        -6.7907
  13   0.0000       0.154500         4.2042
  14   0.0000       0.181123         4.9286
  15   0.0000       0.203443         5.5360
  16   0.0000       0.204846         5.5741
  17   0.0000       0.218244         5.9387

                 SPIN DOWN ORBITALS
  NO   OCC          E(Eh)            E(eV)
   0   1.0000     -10.437610      -284.0218
   1   1.0000     -10.423520      -283.6384
   2   1.0000     -10.423482      -283.6374
   3   1.0000      -0.864992       -23.5376
   4   1.0000      -0.734883       -19.9972
   5   1.0000      -0.635243       -17.2858
   6   1.0000      -0.507795       -13.8178
   7   1.0000      -0.492580       -13.4038
   8   1.0000      -0.458030       -12.4636
   9   1.0000      -0.402452       -10.9513
  10   1.0000      -0.395917       -10.7734
  11   1.0000      -0.388512       -10.5720
  12   0.0000      -0.001345        -0.0366
  13   0.0000       0.157063         4.2739
  14   0.0000       0.194473         5.2919
  15   0.0000       0.206541         5.6203
  16   0.0000       0.209473         5.7001

MULLIKEN ATOMIC CHARGES AND SPIN POPULATIONS
--------------------------------------------
   0 C :   -0.643417    0.008798
   1 C :   -0.436894   -0.099267
   2 C :   -0.431272    1.126921
   3 H :    0.209434   -0.061897
   4 H :    0.214210   -0.062283
   5 H :    0.218147   -0.000257
   6 H :    0.218487    0.001387
   7 H :    0.211407   -0.000727
   8 H :    0.219181    0.024069
   9 H :    0.220717    0.063256
Sum of atomic charges         :   -0.0000000

LOEWDIN ATOMIC CHARGES AND SPIN POPULATIONS
-------------------------------------------
   0 C :   -0.361516    0.009481
   1 C :   -0.265976   -0.024851
   2 C :   -0.259000    0.997903
   3 H :    0.125286   -0.029673
   4 H :    0.125396   -0.029524
   5 H :    0.126207   -0.000391
   6 H :    0.127164    0.000134
   7 H :    0.124728   -0.000294
   8 H :    0.128339    0.020840
   9 H :    0.129372    0.056374

  Mayer bond orders larger than 0.100000
B(  0-C ,  1-C ) :   0.9894 B(  0-C ,  5-H ) :   0.9309 B(  0-C ,  6-H ) :   0.9279
B(  0-C ,  7-H ) :   0.9289 B(  1-C ,  2-C ) :   1.0089 B(  1-C ,  8-H ) :   0.9136
B(  1-C ,  9-H ) :   0.8999 B(  2-C ,  3-H ) :   0.9259 B(  2-C ,  4-H ) :   0.9255

Dispersion correction           -0.003079164
FINAL SINGLE POINT ENERGY      -118.207236302093

DIPOLE MOMENT
-------------
                                X             Y             Z
Electronic contribution:      0.91560      -0.28143       0.21653
Nuclear contribution   :     -0.92478       0.34630      -0.29094
                        -----------------------------------------
Total Dipole Moment    :     -0.00918       0.06487      -0.07440
                        -----------------------------------------
Magnitude (a.u.)       :      0.09914
Magnitude (Debye)      :      0.25199

Rotational constants in cm-1:     1.104853     0.302532     0.261947
Rotational constants in MHz : 33122.667394  9069.688786  7852.982762

                             ****ORCA TERMINATED NORMALLY****
TOTAL RUN TIME: 0 days 0 hours 1 minutes 56 seconds 647 msec
