                         Program Version 5.0.3 -  RELEASE  -
|  1> ! PBEh-3c def2/J TightSCF DefGrid3
|  2>
|  3> %maxcore 60000
|  4>
|  5> %pal
|  6> nprocs 4
|  7> end
|  8>
|  9> *xyzfile 0 1 29.xyz
| 10>
| 11>                          ****END OF INPUT****

CARTESIAN COORDINATES (ANGSTROEM)
---------------------------------
  N     -0.309671    2.295475   -0.584065
  C      0.727849    1.439780   -0.890382
  C      0.327473    0.132866   -0.708641
  C     -1.035819    0.192235   -0.260534
  C     -1.979501   -0.793154    0.086298
  C     -3.236406   -0.386518    0.498485
  C     -3.583571    0.981168    0.572110
  C     -2.674312    1.968845    0.228188
  C     -1.402659    1.558961   -0.190819
  H     -0.258962    3.297278   -0.611683
  H      1.677151    1.831660   -1.217255
  H     -1.745812   -1.849097    0.050765
  H     -4.572370    1.245381    0.922136
  H     -2.941221    3.015809    0.292625
  O     -4.161558   -1.338900    0.887815
  C     -5.146623   -1.582158   -0.113265
  H     -4.683724   -1.960449   -1.027864
  H     -5.706222   -0.673892   -0.347637
  H     -5.823895   -2.330508    0.289768
  C      1.119887   -1.117688   -0.964708
  C      2.623286   -0.883160   -1.055751
  N      3.126671   -0.358826    0.203107
  C      4.460926   -0.308428    0.469595
  C      4.837844    0.313002    1.799967
  H      0.786680   -1.583372   -1.896027
  H      0.922799   -1.840214   -0.168051
  H      2.855810   -0.199335   -1.877323
  H      3.143207   -1.815952   -1.266402
  H      2.481304    0.113513    0.811568
  O      5.300653   -0.747524   -0.304385
  H      5.383334   -0.425217    2.384532
  H      3.979075    0.658450    2.372838
  H      5.508378    1.149975    1.614991

 Total Charge           Charge          ....    0
 Multiplicity           Mult            ....    1
 Number of Electrons    NEL             ....  124
 Basis Dimension        Dim             ....  287

ORBITAL ENERGIES
----------------

  NO   OCC          E(Eh)            E(eV)
   0   2.0000     -19.506801      -530.8071
   1   2.0000     -19.444590      -529.1142
   2   2.0000     -14.692086      -399.7920
   3   2.0000     -14.653849      -398.7515
   4   2.0000     -10.539137      -286.7845
   5   2.0000     -10.496714      -285.6301
   6   2.0000     -10.486777      -285.3597
   7   2.0000     -10.485687      -285.3300
   8   2.0000     -10.482161      -285.2341
   9   2.0000     -10.473189      -284.9900
  10   2.0000     -10.457871      -284.5731
  11   2.0000     -10.452493      -284.4268
  12   2.0000     -10.451341      -284.3954
  13   2.0000     -10.450809      -284.3810
  14   2.0000     -10.448503      -284.3182
  15   2.0000     -10.446585      -284.2660
  16   2.0000     -10.437231      -284.0115
  17   2.0000      -1.155279       -31.4367
  18   2.0000      -1.131366       -30.7860
  19   2.0000      -1.094598       -29.7855
  20   2.0000      -1.016628       -27.6639
  21   2.0000      -0.942303       -25.6414
  22   2.0000      -0.905285       -24.6341
  23   2.0000      -0.854783       -23.2598
  24   2.0000      -0.834081       -22.6965
  25   2.0000      -0.820141       -22.3172
  26   2.0000      -0.800821       -21.7914
  27   2.0000      -0.768656       -20.9162
  28   2.0000      -0.725650       -19.7459
  29   2.0000      -0.705043       -19.1852
  30   2.0000      -0.667924       -18.1751
  31   2.0000      -0.653532       -17.7835
  32   2.0000      -0.634176       -17.2568
  33   2.0000      -0.618369       -16.8267
  34   2.0000      -0.574510       -15.6332
  35   2.0000      -0.563436       -15.3319
  36   2.0000      -0.555494       -15.1158
  37   2.0000      -0.534854       -14.5541
  38   2.0000      -0.524335       -14.2679
  39   2.0000      -0.520722       -14.1696
  40   2.0000      -0.518487       -14.1088
  41   2.0000      -0.502715       -13.6796
  42   2.0000      -0.497457       -13.5365
  43   2.0000      -0.491430       -13.3725
  44   2.0000      -0.489556       -13.3215
  45   2.0000      -0.472570       -12.8593
  46   2.0000      -0.469251       -12.7690
  47   2.0000      -0.459702       -12.5091
  48   2.0000      -0.452756       -12.3201
  49   2.0000      -0.437480       -11.9044
  50   2.0000      -0.436276       -11.8717
  51   2.0000      -0.426703       -11.6112
  52   2.0000      -0.407655       -11.0928
  53   2.0000      -0.396904       -10.8003
  54   2.0000      -0.391829       -10.6622
  55   2.0000      -0.379390       -10.3237
  56   2.0000      -0.328809        -8.9473
  57   2.0000      -0.325964        -8.8699
  58   2.0000      -0.301127        -8.1941
  59   2.0000      -0.294214        -8.0060
  60   2.0000      -0.259860        -7.0712
  61   2.0000      -0.247776        -6.7423
  62   0.0000      -0.000529        -0.0144
  63   0.0000       0.044972         1.2237
  64   0.0000       0.070108         1.9077
  65   0.0000       0.083734         2.2785
  66   0.0000       0.118825         3.2334

MULLIKEN ATOMIC CHARGES
-----------------------
   0 N :   -0.703543
   1 C :   -0.058777
   2 C :   -0.032398
   3 C :    0.072285
   4 C :   -0.426214
   5 C :    0.360731
   6 C :   -0.311452
   7 C :   -0.262512
   8 C :    0.364061
   9 H :    0.360425
  10 H :    0.252788
  11 H :    0.219712
  12 H :    0.229277
  13 H :    0.215981
  14 O :   -0.485581
  15 C :   -0.377077
  16 H :    0.203179
  17 H :    0.198119
  18 H :    0.220900
  19 C :   -0.519540
  20 C :   -0.264226
  21 N :   -0.637877
  22 C :    0.521171
  23 C :   -0.749896
  24 H :    0.244902
  25 H :    0.232291
  26 H :    0.218381
  27 H :    0.258241
  28 H :    0.367594
  29 O :   -0.432194
  30 H :    0.258522
  31 H :    0.210338
  32 H :    0.252389
Sum of atomic charges:    0.0000000

LOEWDIN ATOMIC CHARGES
----------------------
   0 N :   -0.157243
   1 C :   -0.092480
   2 C :   -0.113850
   3 C :   -0.056236
   4 C :   -0.149218
   5 C :    0.043014
   6 C :   -0.157145
   7 C :   -0.153390
   8 C :    0.013643
   9 H :    0.262771
  10 H :    0.139580
  11 H :    0.145478
  12 H :    0.142848
  13 H :    0.137548
  14 O :   -0.220378
  15 C :   -0.172307
  16 H :    0.110788
  17 H :    0.107833
  18 H :    0.124453
  19 C :   -0.233203
  20 C :   -0.135304
  21 N :   -0.249181
  22 C :    0.102922
  23 C :   -0.391455
  24 H :    0.143306
  25 H :    0.137001
  26 H :    0.118526
  27 H :    0.142098
  28 H :    0.256083
  29 O :   -0.282209
  30 H :    0.156683
  31 H :    0.125661
  32 H :    0.153363

  Mayer bond orders larger than 0.100000
B(  0-N ,  1-C ) :   1.1293 B(  0-N ,  8-C ) :   1.0133 B(  0-N ,  9-H ) :   0.8325
B(  1-C ,  2-C ) :   1.5479 B(  1-C , 10-H ) :   0.9052 B(  2-C ,  3-C ) :   1.2522
B(  2-C , 19-C ) :   0.9620 B(  3-C ,  4-C ) :   1.2434 B(  3-C ,  8-C ) :   1.2428
B(  4-C ,  5-C ) :   1.4817 B(  4-C , 11-H ) :   0.9281 B(  5-C ,  6-C ) :   1.3191
B(  5-C , 14-O ) :   0.9539 B(  6-C ,  7-C ) :   1.4848 B(  6-C , 12-H ) :   0.9121
B(  7-C ,  8-C ) :   1.2890 B(  7-C , 13-H ) :   0.9201 B( 14-O , 15-C ) :   0.9511
B( 15-C , 16-H ) :   0.9122 B( 15-C , 17-H ) :   0.9119 B( 15-C , 18-H ) :   0.9283
B( 19-C , 20-C ) :   0.9962 B( 19-C , 24-H ) :   0.9069 B( 19-C , 25-H ) :   0.9068
B( 20-C , 21-N ) :   0.9285 B( 20-C , 26-H ) :   0.9059 B( 20-C , 27-H ) :   0.9017
B( 21-N , 22-C ) :   1.1419 B( 21-N , 28-H ) :   0.8091 B( 22-C , 23-C ) :   0.9279
B( 22-C , 29-O ) :   1.9854 B( 23-C , 30-H ) :   0.9106 B( 23-C , 31-H ) :   0.9220
B( 23-C , 32-H ) :   0.9125

Dispersion correction           -0.020916671
FINAL SINGLE POINT ENERGY      -763.323533601926

DIPOLE MOMENT
-------------
                                X             Y             Z
Electronic contribution:     -2.26464       3.32409      -0.49861
Nuclear contribution   :      1.03394      -1.98693       0.44493
                        -----------------------------------------
Total Dipole Moment    :     -1.23070       1.33716      -0.05368
                        -----------------------------------------
Magnitude (a.u.)       :      1.81810
Magnitude (Debye)      :      4.62124

Rotational constants in cm-1:     0.035208     0.006429     0.005964
Rotational constants in MHz :  1055.505723   192.735236   178.809165

                             ****ORCA TERMINATED NORMALLY****
TOTAL RUN TIME: 0 days 0 hours 4 minutes 19 seconds 940 msec
