                         Program Version 5.0.3 -  RELEASE  -
|  1> ! PBEh-3c def2/J TightSCF DefGrid3
|  2>
|  3> %maxcore 60000
|  4>
|  5> %pal
|  6> nprocs 4
|  7> end
|  8>
|  9> *xyzfile 0 1 P8.xyz
| 10>
| 11>                          ****END OF INPUT****

CARTESIAN COORDINATES (ANGSTROEM)
---------------------------------
  C     -0.200127   -0.425647    0.000000
  C     -1.420598    0.073334   -0.749193
  C     -1.420598    0.073334    0.749193
  C      1.037934    0.374099    0.000000
  C      2.273992   -0.119141    0.000000
  H     -0.050279   -1.499881    0.000000
  H     -1.336539    1.024524   -1.260283
  H     -2.025343   -0.660142   -1.267201
  H     -2.025343   -0.660142    1.267201
  H     -1.336539    1.024524    1.260283
  H      0.900529    1.454419    0.000000
  H      2.461095   -1.187778    0.000000
  H      3.141817    0.528497    0.000000

 Total Charge           Charge          ....    0
 Multiplicity           Mult            ....    1
 Number of Electrons    NEL             ....   38
 Basis Dimension        Dim             ....   91

ORBITAL ENERGIES
----------------

  NO   OCC          E(Eh)            E(eV)
   0   2.0000     -10.451766      -284.4070
   1   2.0000     -10.446287      -284.2579
   2   2.0000     -10.443050      -284.1698
   3   2.0000     -10.442782      -284.1625
   4   2.0000     -10.427486      -283.7463
   5   2.0000      -0.959396       -26.1065
   6   2.0000      -0.849680       -23.1210
   7   2.0000      -0.694777       -18.9058
   8   2.0000      -0.676988       -18.4218
   9   2.0000      -0.626410       -17.0455
  10   2.0000      -0.551216       -14.9993
  11   2.0000      -0.537944       -14.6382
  12   2.0000      -0.480064       -13.0632
  13   2.0000      -0.452111       -12.3026
  14   2.0000      -0.421863       -11.4795
  15   2.0000      -0.394438       -10.7332
  16   2.0000      -0.381796       -10.3892
  17   2.0000      -0.347899        -9.4668
  18   2.0000      -0.278741        -7.5849
  19   0.0000       0.048525         1.3204
  20   0.0000       0.148333         4.0363
  21   0.0000       0.151974         4.1354
  22   0.0000       0.173512         4.7215
  23   0.0000       0.176967         4.8155

MULLIKEN ATOMIC CHARGES
-----------------------
   0 C :   -0.292987
   1 C :   -0.451844
   2 C :   -0.451844
   3 C :   -0.097108
   4 C :   -0.506178
   5 H :    0.232053
   6 H :    0.233309
   7 H :    0.238185
   8 H :    0.238185
   9 H :    0.233309
  10 H :    0.203943
  11 H :    0.207933
  12 H :    0.213045
Sum of atomic charges:   -0.0000000

LOEWDIN ATOMIC CHARGES
----------------------
   0 C :   -0.156970
   1 C :   -0.250384
   2 C :   -0.250384
   3 C :   -0.125301
   4 C :   -0.286633
   5 H :    0.136680
   6 H :    0.135460
   7 H :    0.137420
   8 H :    0.137420
   9 H :    0.135460
  10 H :    0.127679
  11 H :    0.127861
  12 H :    0.131692

  Mayer bond orders larger than 0.100000
B(  0-C ,  1-C ) :   0.9169 B(  0-C ,  2-C ) :   0.9169 B(  0-C ,  3-C ) :   1.0329
B(  0-C ,  5-H ) :   0.9174 B(  1-C ,  2-C ) :   0.9358 B(  1-C ,  6-H ) :   0.9246
B(  1-C ,  7-H ) :   0.9231 B(  2-C ,  8-H ) :   0.9231 B(  2-C ,  9-H ) :   0.9246
B(  3-C ,  4-C ) :   1.9125 B(  3-C , 10-H ) :   0.9203 B(  4-C , 11-H ) :   0.9318
B(  4-C , 12-H ) :   0.9296

Dispersion correction           -0.005113590
FINAL SINGLE POINT ENERGY      -194.856080649741

DIPOLE MOMENT
-------------
                                X             Y             Z
Electronic contribution:      0.37134      -0.06090       0.00000
Nuclear contribution   :     -0.58193       0.05165       0.00000
                        -----------------------------------------
Total Dipole Moment    :     -0.21059      -0.00925       0.00000
                        -----------------------------------------
Magnitude (a.u.)       :      0.21080
Magnitude (Debye)      :      0.53580

Rotational constants in cm-1:     0.508120     0.101626     0.097699
Rotational constants in MHz : 15233.049553  3046.679123  2928.928582

                             ****ORCA TERMINATED NORMALLY****
TOTAL RUN TIME: 0 days 0 hours 1 minutes 7 seconds 359 msec
