                         Program Version 5.0.3 -  RELEASE  -
|  1> ! PBEh-3c def2/J TightSCF DefGrid3
|  2>
|  3> %maxcore 60000
|  4>
|  5> %pal
|  6> nprocs 4
|  7> end
|  8>
|  9> *xyzfile 0 1 na8.xyz
| 10>
| 11>                          ****END OF INPUT****

CARTESIAN COORDINATES (ANGSTROEM)
---------------------------------
  Na     2.076310    2.076310   -2.076310
  Na     1.267094   -1.267094   -1.267094
  Na    -2.076310   -2.076310   -2.076310
  Na     2.076310   -2.076310    2.076310
  Na     1.267094    1.267094    1.267094
  Na    -2.076310    2.076310    2.076310
  Na    -1.267094   -1.267094    1.267094
  Na    -1.267094    1.267094   -1.267094

 Total Charge           Charge          ....    0
 Multiplicity           Mult            ....    1
 Number of Electrons    NEL             ....   88
 Basis Dimension        Dim             ....  120

ORBITAL ENERGIES
----------------

  NO   OCC          E(Eh)            E(eV)
   0   2.0000     -38.929126     -1059.3154
   1   2.0000     -38.929126     -1059.3154
   2   2.0000     -38.929126     -1059.3154
   3   2.0000     -38.928996     -1059.3118
   4   2.0000     -38.928481     -1059.2978
   5   2.0000     -38.928481     -1059.2978
   6   2.0000     -38.928481     -1059.2978
   7   2.0000     -38.928412     -1059.2959
   8   2.0000      -2.370532       -64.5055
   9   2.0000      -2.370532       -64.5055
  10   2.0000      -2.370532       -64.5055
  11   2.0000      -2.370531       -64.5054
  12   2.0000      -2.367275       -64.4168
  13   2.0000      -2.367268       -64.4166
  14   2.0000      -2.367268       -64.4166
  15   2.0000      -2.367268       -64.4166
  16   2.0000      -1.243896       -33.8481
  17   2.0000      -1.243896       -33.8481
  18   2.0000      -1.243896       -33.8481
  19   2.0000      -1.243893       -33.8481
  20   2.0000      -1.243893       -33.8481
  21   2.0000      -1.243887       -33.8479
  22   2.0000      -1.243887       -33.8479
  23   2.0000      -1.243887       -33.8479
  24   2.0000      -1.243770       -33.8447
  25   2.0000      -1.243770       -33.8447
  26   2.0000      -1.243770       -33.8447
  27   2.0000      -1.243730       -33.8436
  28   2.0000      -1.242150       -33.8006
  29   2.0000      -1.241518       -33.7834
  30   2.0000      -1.241518       -33.7834
  31   2.0000      -1.241518       -33.7834
  32   2.0000      -1.240825       -33.7646
  33   2.0000      -1.240825       -33.7646
  34   2.0000      -1.240778       -33.7633
  35   2.0000      -1.240778       -33.7633
  36   2.0000      -1.240778       -33.7633
  37   2.0000      -1.240581       -33.7579
  38   2.0000      -1.240581       -33.7579
  39   2.0000      -1.240581       -33.7579
  40   2.0000      -0.209141        -5.6910
  41   2.0000      -0.138685        -3.7738
  42   2.0000      -0.138685        -3.7738
  43   2.0000      -0.138685        -3.7738
  44   0.0000      -0.037645        -1.0244
  45   0.0000      -0.036180        -0.9845
  46   0.0000      -0.036180        -0.9845
  47   0.0000      -0.036180        -0.9845
  48   0.0000      -0.019038        -0.5180

MULLIKEN ATOMIC CHARGES
-----------------------
   0 Na:   -0.016048
   1 Na:    0.016048
   2 Na:   -0.016048
   3 Na:   -0.016049
   4 Na:    0.016049
   5 Na:   -0.016048
   6 Na:    0.016048
   7 Na:    0.016048
Sum of atomic charges:   -0.0000000

LOEWDIN ATOMIC CHARGES
----------------------
   0 Na:    0.094746
   1 Na:   -0.094746
   2 Na:    0.094746
   3 Na:    0.094746
   4 Na:   -0.094746
   5 Na:    0.094746
   6 Na:   -0.094746
   7 Na:   -0.094746

  Mayer bond orders larger than 0.100000
B(  0-Na,  1-Na) :   0.2988 B(  0-Na,  4-Na) :   0.2988 B(  0-Na,  7-Na) :   0.2988
B(  1-Na,  2-Na) :   0.2988 B(  1-Na,  3-Na) :   0.2988 B(  1-Na,  4-Na) :   0.1971
B(  1-Na,  6-Na) :   0.1971 B(  1-Na,  7-Na) :   0.1971 B(  2-Na,  6-Na) :   0.2988
B(  2-Na,  7-Na) :   0.2988 B(  3-Na,  4-Na) :   0.2987 B(  3-Na,  6-Na) :   0.2988
B(  4-Na,  5-Na) :   0.2988 B(  4-Na,  6-Na) :   0.1971 B(  4-Na,  7-Na) :   0.1971
B(  5-Na,  6-Na) :   0.2988 B(  5-Na,  7-Na) :   0.2988 B(  6-Na,  7-Na) :   0.1971

Dispersion correction           -0.003636704
FINAL SINGLE POINT ENERGY     -1296.281772512156

DIPOLE MOMENT
-------------
                                X             Y             Z
Electronic contribution:      0.00000      -0.00000       0.00000
Nuclear contribution   :     -0.00000       0.00000       0.00000
                        -----------------------------------------
Total Dipole Moment    :      0.00000      -0.00000       0.00000
                        -----------------------------------------
Magnitude (a.u.)       :      0.00000
Magnitude (Debye)      :      0.00000

Rotational constants in cm-1:     0.015492     0.015492     0.015492
Rotational constants in MHz :   464.426867   464.426867   464.426867

                             ****ORCA TERMINATED NORMALLY****
TOTAL RUN TIME: 0 days 0 hours 1 minutes 15 seconds 361 msec
