                         Program Version 5.0.3 -  RELEASE  -
|  1> ! PBEh-3c def2/J TightSCF DefGrid3
|  2>
|  3> %maxcore 60000
|  4>
|  5> %pal
|  6> nprocs 4
|  7> end
|  8>
|  9> *xyzfile 0 1 R26.xyz
| 10>
| 11>                          ****END OF INPUT****

CARTESIAN COORDINATES (ANGSTROEM)
---------------------------------
  C      0.000000    0.183665    0.000000
  C      1.352893   -0.311559    0.000000
  C      0.384215   -1.201725    0.000000
  C     -0.896179    1.161109    0.000000
  C     -0.055283   -2.605909    0.000000
  C     -0.543777    2.621061    0.000000
  H      2.410360   -0.114803    0.000000
  H     -1.946916    0.895570    0.000000
  H     -0.676871   -2.802031    0.876341
  H     -0.676871   -2.802031   -0.876341
  H      0.538034    2.761293    0.000000
  H     -0.943512    3.138466   -0.877462
  H      0.788073   -3.294780    0.000000
  H     -0.943512    3.138466    0.877462

 Total Charge           Charge          ....    0
 Multiplicity           Mult            ....    1
 Number of Electrons    NEL             ....   44
 Basis Dimension        Dim             ....  106

ORBITAL ENERGIES
----------------

  NO   OCC          E(Eh)            E(eV)
   0   2.0000     -10.485309      -285.3198
   1   2.0000     -10.470939      -284.9287
   2   2.0000     -10.460035      -284.6320
   3   2.0000     -10.457769      -284.5704
   4   2.0000     -10.410822      -283.2929
   5   2.0000     -10.405904      -283.1590
   6   2.0000      -1.002375       -27.2760
   7   2.0000      -0.842496       -22.9255
   8   2.0000      -0.824835       -22.4449
   9   2.0000      -0.715481       -19.4692
  10   2.0000      -0.634034       -17.2530
  11   2.0000      -0.574550       -15.6343
  12   2.0000      -0.526065       -14.3149
  13   2.0000      -0.504052       -13.7160
  14   2.0000      -0.499084       -13.5808
  15   2.0000      -0.453044       -12.3280
  16   2.0000      -0.445831       -12.1317
  17   2.0000      -0.416718       -11.3395
  18   2.0000      -0.401245       -10.9184
  19   2.0000      -0.391531       -10.6541
  20   2.0000      -0.338301        -9.2056
  21   2.0000      -0.224870        -6.1190
  22   0.0000       0.029211         0.7949
  23   0.0000       0.107491         2.9250
  24   0.0000       0.153956         4.1894
  25   0.0000       0.167327         4.5532
  26   0.0000       0.173318         4.7162

MULLIKEN ATOMIC CHARGES
-----------------------
   0 C :    0.223397
   1 C :   -0.290675
   2 C :    0.144399
   3 C :   -0.409814
   4 C :   -0.771405
   5 C :   -0.674797
   6 H :    0.215716
   7 H :    0.192128
   8 H :    0.249934
   9 H :    0.249934
  10 H :    0.212040
  11 H :    0.209399
  12 H :    0.240347
  13 H :    0.209399
Sum of atomic charges:   -0.0000000

LOEWDIN ATOMIC CHARGES
----------------------
   0 C :   -0.029522
   1 C :   -0.103208
   2 C :    0.012990
   3 C :   -0.272319
   4 C :   -0.357464
   5 C :   -0.350789
   6 H :    0.147600
   7 H :    0.126236
   8 H :    0.155201
   9 H :    0.155201
  10 H :    0.125998
  11 H :    0.122435
  12 H :    0.145206
  13 H :    0.122436

  Mayer bond orders larger than 0.100000
B(  0-C ,  1-C ) :   0.9668 B(  0-C ,  2-C ) :   0.9356 B(  0-C ,  3-C ) :   1.7741
B(  1-C ,  2-C ) :   1.6895 B(  1-C ,  6-H ) :   0.9256 B(  2-C ,  4-C ) :   0.9757
B(  3-C ,  5-C ) :   0.9989 B(  3-C ,  7-H ) :   0.9255 B(  4-C ,  8-H ) :   0.9092
B(  4-C ,  9-H ) :   0.9092 B(  4-C , 12-H ) :   0.9206 B(  5-C , 10-H ) :   0.9381
B(  5-C , 11-H ) :   0.9242 B(  5-C , 13-H ) :   0.9242

Dispersion correction           -0.005664434
FINAL SINGLE POINT ENERGY      -232.821511338071

DIPOLE MOMENT
-------------
                                X             Y             Z
Electronic contribution:      1.87533      -1.76535      -0.00000
Nuclear contribution   :     -1.49659       0.94892       0.00000
                        -----------------------------------------
Total Dipole Moment    :      0.37874      -0.81643      -0.00000
                        -----------------------------------------
Magnitude (a.u.)       :      0.90000
Magnitude (Debye)      :      2.28763

Rotational constants in cm-1:     0.379832     0.063277     0.055345
Rotational constants in MHz : 11387.068007  1896.985093  1659.196216

                             ****ORCA TERMINATED NORMALLY****
TOTAL RUN TIME: 0 days 0 hours 1 minutes 5 seconds 816 msec
