                         Program Version 5.0.3 -  RELEASE  -
|  1> ! PBEh-3c def2/J TightSCF DefGrid3
|  2>
|  3> %maxcore 60000
|  4>
|  5> %pal
|  6> nprocs 4
|  7> end
|  8>
|  9> *xyzfile 0 1 01a.xyz
| 10>
| 11>                          ****END OF INPUT****

CARTESIAN COORDINATES (ANGSTROEM)
---------------------------------
  N      0.000000    0.000000   -0.288533
  H     -0.468067    0.810716    0.096178
  H     -0.468067   -0.810716    0.096178
  H      0.936134    0.000000    0.096178

 Total Charge           Charge          ....    0
 Multiplicity           Mult            ....    1
 Number of Electrons    NEL             ....   10
 Basis Dimension        Dim             ....   21

ORBITAL ENERGIES
----------------

  NO   OCC          E(Eh)            E(eV)
   0   2.0000     -14.596388      -397.1879
   1   2.0000      -0.935779       -25.4638
   2   2.0000      -0.510597       -13.8940
   3   2.0000      -0.510595       -13.8940
   4   2.0000      -0.307085        -8.3562
   5   0.0000       0.141869         3.8605
   6   0.0000       0.225739         6.1427
   7   0.0000       0.225739         6.1427
   8   0.0000       0.761679        20.7263
   9   0.0000       0.761680        20.7264

MULLIKEN ATOMIC CHARGES
-----------------------
   0 N :   -0.941579
   1 H :    0.313859
   2 H :    0.313859
   3 H :    0.313861
Sum of atomic charges:   -0.0000000

LOEWDIN ATOMIC CHARGES
----------------------
   0 N :   -0.648241
   1 H :    0.216080
   2 H :    0.216080
   3 H :    0.216081

  Mayer bond orders larger than 0.100000
B(  0-N ,  1-H ) :   0.8807 B(  0-N ,  2-H ) :   0.8807 B(  0-N ,  3-H ) :   0.8807

Dispersion correction           -0.000444563
FINAL SINGLE POINT ENERGY       -56.428127451193

DIPOLE MOMENT
-------------
                                X             Y             Z
Electronic contribution:      0.00001      -0.00000      -0.13262
Nuclear contribution   :      0.00000       0.00000       0.89015
                        -----------------------------------------
Total Dipole Moment    :      0.00001      -0.00000       0.75753
                        -----------------------------------------
Magnitude (a.u.)       :      0.75753
Magnitude (Debye)      :      1.92548

Rotational constants in cm-1:     9.956513     9.956512     6.361201
Rotational constants in MHz : 298488.738134 298488.723528 190703.995792

                             ****ORCA TERMINATED NORMALLY****
TOTAL RUN TIME: 0 days 0 hours 1 minutes 43 seconds 466 msec
