                         Program Version 5.0.3 -  RELEASE  -
|  1> ! PBEh-3c def2/J TightSCF DefGrid3
|  2>
|  3> %maxcore 60000
|  4>
|  5> %pal
|  6> nprocs 4
|  7> end
|  8>
|  9> *xyzfile 1 1 231A.xyz
| 10>
| 11>                          ****END OF INPUT****

CARTESIAN COORDINATES (ANGSTROEM)
---------------------------------
  C      0.794160    1.240240    1.841300
  C      0.042400   -0.000630    1.360300
  N      0.020090   -0.043900   -0.156310
  H      0.978510   -0.044340   -0.536290
  H     -0.462900   -0.880910   -0.515350
  H     -0.459550    0.785950   -0.536760
  H     -0.995150   -0.015710    1.713030
  H      0.533600   -0.923060    1.690080
  H      0.826110    1.249050    2.937160
  H      1.824110    1.248700    1.465070
  H      0.297740    2.161580    1.509080

 Total Charge           Charge          ....    1
 Multiplicity           Mult            ....    1
 Number of Electrons    NEL             ....   26
 Basis Dimension        Dim             ....   61

ORBITAL ENERGIES
----------------

  NO   OCC          E(Eh)            E(eV)
   0   2.0000     -14.973495      -407.4495
   1   2.0000     -10.700610      -291.1784
   2   2.0000     -10.619841      -288.9806
   3   2.0000      -1.311536       -35.6887
   4   2.0000      -1.050569       -28.5874
   5   2.0000      -0.916863       -24.9491
   6   2.0000      -0.861940       -23.4546
   7   2.0000      -0.851520       -23.1710
   8   2.0000      -0.755655       -20.5624
   9   2.0000      -0.699363       -19.0306
  10   2.0000      -0.636505       -17.3202
  11   2.0000      -0.621756       -16.9188
  12   2.0000      -0.601744       -16.3743
  13   0.0000      -0.126295        -3.4367
  14   0.0000      -0.062719        -1.7067
  15   0.0000      -0.060426        -1.6443
  16   0.0000      -0.038529        -1.0484
  17   0.0000      -0.000939        -0.0255

MULLIKEN ATOMIC CHARGES
-----------------------
   0 C :   -0.662171
   1 C :   -0.356795
   2 N :   -0.784953
   3 H :    0.455360
   4 H :    0.462527
   5 H :    0.455265
   6 H :    0.310791
   7 H :    0.308211
   8 H :    0.305638
   9 H :    0.251719
  10 H :    0.254407
Sum of atomic charges:    1.0000000

LOEWDIN ATOMIC CHARGES
----------------------
   0 C :   -0.370355
   1 C :   -0.149883
   2 N :   -0.218301
   3 H :    0.310050
   4 H :    0.312163
   5 H :    0.309990
   6 H :    0.165662
   7 H :    0.164112
   8 H :    0.179072
   9 H :    0.148149
  10 H :    0.149340

  Mayer bond orders larger than 0.100000
B(  0-C ,  1-C ) :   0.9762 B(  0-C ,  8-H ) :   0.8910 B(  0-C ,  9-H ) :   0.9061
B(  0-C , 10-H ) :   0.9055 B(  1-C ,  2-N ) :   0.8127 B(  1-C ,  6-H ) :   0.8777
B(  1-C ,  7-H ) :   0.8790 B(  2-N ,  3-H ) :   0.7713 B(  2-N ,  4-H ) :   0.7696
B(  2-N ,  5-H ) :   0.7715

Dispersion correction           -0.003516591
FINAL SINGLE POINT ENERGY      -135.239017218300

DIPOLE MOMENT
-------------
                                X             Y             Z
Electronic contribution:     -0.63932      -1.03282      -1.47403
Nuclear contribution   :      0.28461       0.44540       0.06904
                        -----------------------------------------
Total Dipole Moment    :     -0.35471      -0.58742      -1.40499
                        -----------------------------------------
Magnitude (a.u.)       :      1.56361
Magnitude (Debye)      :      3.97439

Rotational constants in cm-1:     0.970224     0.277630     0.244527
Rotational constants in MHz : 29086.593510  8323.129165  7330.733376

                             ****ORCA TERMINATED NORMALLY****
TOTAL RUN TIME: 0 days 0 hours 0 minutes 52 seconds 811 msec
