                         Program Version 5.0.3 -  RELEASE  -
|  1> ! PBEh-3c def2/J TightSCF DefGrid3
|  2>
|  3> %maxcore 60000
|  4>
|  5> %pal
|  6> nprocs 4
|  7> end
|  8>
|  9> *xyzfile 0 1 12.xyz
| 10>
| 11>                          ****END OF INPUT****

CARTESIAN COORDINATES (ANGSTROEM)
---------------------------------
  C     -1.246809   -1.171504   -0.696139
  C     -1.246809   -1.171504    0.696139
  C      0.731913   -2.264905    0.696729
  C      0.731913   -2.264905   -0.696729
  C     -0.337623    2.080379    1.130046
  C      0.854406    1.359665    1.130631
  C      0.854406    1.359665   -1.130631
  C     -0.337623    2.080379   -1.130046
  H      1.549181   -2.712512    1.247561
  H      1.549181   -2.712512   -1.247561
  H     -2.063057   -0.722003   -1.247280
  H     -2.063057   -0.722003    1.247280
  H     -0.809996    2.364621    2.061865
  H      1.321239    1.067379    2.062399
  H      1.321239    1.067379   -2.062399
  H     -0.809996    2.364621   -2.061865
  N      1.470559    0.991078    0.000000
  N     -0.258571   -1.723260    1.414480
  N     -0.258571   -1.723260   -1.414480
  N     -0.951926    2.453202    0.000000

 Total Charge           Charge          ....    0
 Multiplicity           Mult            ....    1
 Number of Electrons    NEL             ....   84
 Basis Dimension        Dim             ....  196

ORBITAL ENERGIES
----------------

  NO   OCC          E(Eh)            E(eV)
   0   2.0000     -14.664643      -399.0452
   1   2.0000     -14.664099      -399.0304
   2   2.0000     -14.663781      -399.0218
   3   2.0000     -14.663651      -399.0182
   4   2.0000     -10.495233      -285.5898
   5   2.0000     -10.495180      -285.5884
   6   2.0000     -10.494886      -285.5804
   7   2.0000     -10.494489      -285.5696
   8   2.0000     -10.494470      -285.5690
   9   2.0000     -10.494307      -285.5646
  10   2.0000     -10.494074      -285.5583
  11   2.0000     -10.493507      -285.5428
  12   2.0000      -1.093561       -29.7573
  13   2.0000      -1.089771       -29.6542
  14   2.0000      -1.013594       -27.5813
  15   2.0000      -1.012919       -27.5629
  16   2.0000      -0.873072       -23.7575
  17   2.0000      -0.872354       -23.7380
  18   2.0000      -0.746197       -20.3050
  19   2.0000      -0.745503       -20.2862
  20   2.0000      -0.738785       -20.1033
  21   2.0000      -0.737608       -20.0713
  22   2.0000      -0.602364       -16.3911
  23   2.0000      -0.600152       -16.3310
  24   2.0000      -0.586003       -15.9460
  25   2.0000      -0.585423       -15.9302
  26   2.0000      -0.557173       -15.1615
  27   2.0000      -0.556848       -15.1526
  28   2.0000      -0.503705       -13.7065
  29   2.0000      -0.501885       -13.6570
  30   2.0000      -0.500747       -13.6260
  31   2.0000      -0.470063       -12.7911
  32   2.0000      -0.448198       -12.1961
  33   2.0000      -0.447186       -12.1685
  34   2.0000      -0.381481       -10.3806
  35   2.0000      -0.379754       -10.3336
  36   2.0000      -0.379111       -10.3161
  37   2.0000      -0.378999       -10.3131
  38   2.0000      -0.317887        -8.6501
  39   2.0000      -0.315999        -8.5988
  40   2.0000      -0.309117        -8.4115
  41   2.0000      -0.308112        -8.3842
  42   0.0000      -0.034268        -0.9325
  43   0.0000      -0.026779        -0.7287
  44   0.0000      -0.007201        -0.1960
  45   0.0000       0.003416         0.0930
  46   0.0000       0.162799         4.4300

MULLIKEN ATOMIC CHARGES
-----------------------
   0 C :   -0.090527
   1 C :   -0.090526
   2 C :   -0.079009
   3 C :   -0.079009
   4 C :   -0.094878
   5 C :   -0.084602
   6 C :   -0.084602
   7 C :   -0.094878
   8 H :    0.240159
   9 H :    0.240159
  10 H :    0.244153
  11 H :    0.244153
  12 H :    0.241133
  13 H :    0.246088
  14 H :    0.246088
  15 H :    0.241133
  16 N :   -0.308483
  17 N :   -0.313509
  18 N :   -0.313509
  19 N :   -0.309534
Sum of atomic charges:    0.0000000

LOEWDIN ATOMIC CHARGES
----------------------
   0 C :   -0.083508
   1 C :   -0.083508
   2 C :   -0.079032
   3 C :   -0.079032
   4 C :   -0.087853
   5 C :   -0.077594
   6 C :   -0.077594
   7 C :   -0.087853
   8 H :    0.136439
   9 H :    0.136439
  10 H :    0.137359
  11 H :    0.137359
  12 H :    0.136377
  13 H :    0.139284
  14 H :    0.139284
  15 H :    0.136377
  16 N :   -0.109455
  17 N :   -0.110705
  18 N :   -0.110705
  19 N :   -0.112080

  Mayer bond orders larger than 0.100000
B(  0-C ,  1-C ) :   1.3520 B(  0-C ,  2-C ) :   0.1037 B(  0-C , 10-H ) :   0.9065
B(  0-C , 18-N ) :   1.4842 B(  1-C ,  3-C ) :   0.1037 B(  1-C , 11-H ) :   0.9065
B(  1-C , 17-N ) :   1.4842 B(  2-C ,  3-C ) :   1.3358 B(  2-C ,  8-H ) :   0.9090
B(  2-C , 17-N ) :   1.5058 B(  3-C ,  9-H ) :   0.9090 B(  3-C , 18-N ) :   1.5058
B(  4-C ,  5-C ) :   1.3423 B(  4-C ,  6-C ) :   0.1042 B(  4-C , 12-H ) :   0.9088
B(  4-C , 19-N ) :   1.4993 B(  5-C ,  7-C ) :   0.1042 B(  5-C , 13-H ) :   0.9059
B(  5-C , 16-N ) :   1.4943 B(  6-C ,  7-C ) :   1.3423 B(  6-C , 14-H ) :   0.9059
B(  6-C , 16-N ) :   1.4943 B(  7-C , 15-H ) :   0.9088 B(  7-C , 19-N ) :   1.4993

Dispersion correction           -0.013859569
FINAL SINGLE POINT ENERGY      -527.462762955878

DIPOLE MOMENT
-------------
                                X             Y             Z
Electronic contribution:      0.07934      -0.02932       0.00000
Nuclear contribution   :     -0.00779      -0.00712       0.00000
                        -----------------------------------------
Total Dipole Moment    :      0.07155      -0.03644       0.00000
                        -----------------------------------------
Magnitude (a.u.)       :      0.08030
Magnitude (Debye)      :      0.20410

Rotational constants in cm-1:     0.056615     0.025980     0.024812
Rotational constants in MHz :  1697.280277   778.855274   743.832216

                             ****ORCA TERMINATED NORMALLY****
TOTAL RUN TIME: 0 days 0 hours 2 minutes 2 seconds 463 msec
