                         Program Version 5.0.3 -  RELEASE  -
|  1> ! PBEh-3c def2/J TightSCF DefGrid3
|  2>
|  3> %maxcore 60000
|  4>
|  5> %pal
|  6> nprocs 4
|  7> end
|  8>
|  9> *xyzfile 0 1 i19p.xyz
| 10>
| 11>                          ****END OF INPUT****

CARTESIAN COORDINATES (ANGSTROEM)
---------------------------------
  C      2.069713    1.442594    0.034254
  C      0.899257    1.532494   -0.998376
  C      0.163397    0.182934   -0.774680
  C      1.003259   -0.449190    0.401615
  C      2.322177   -0.943330   -0.274696
  C      3.063814    0.378375   -0.541654
  O      1.429770    0.727750    1.103931
  C      0.337489   -1.422695    1.342543
  C      2.688359    2.733482    0.510298
  C      3.662638   -0.666059    0.392153
  N     -1.145125    0.672608   -0.350392
  N     -1.170788    2.043241   -0.271468
  N     -0.089459    2.574533   -0.609037
  H      1.243562    1.732720   -2.015535
  H      0.083633   -0.462059   -1.651640
  Cl     2.121110   -2.287999   -1.415805
  Cl     3.872651    0.837719   -2.049742
  H      0.086867   -2.347834    0.815425
  H     -0.581595   -0.981985    1.740246
  H      1.021047   -1.649636    2.167179
  H      3.177052    3.238620   -0.329903
  H      3.430063    2.522355    1.287419
  H      1.904042    3.385469    0.906359
  Cl     3.870165   -0.426301    2.170372
  Cl     5.066548   -1.581075   -0.227294
  C     -2.321528   -1.439591   -0.627989
  C     -3.489427   -2.198413   -0.520217
  C     -4.668877   -1.627519   -0.036122
  C     -4.666904   -0.278466    0.340937
  C     -3.510817    0.493659    0.243084
  C     -2.323590   -0.085931   -0.245889
  H     -1.413553   -1.903827   -0.999827
  H     -3.469487   -3.244521   -0.819337
  H     -5.575315   -2.222307    0.047998
  H     -5.576914    0.181746    0.720926
  H     -3.513234    1.538440    0.534862

 Total Charge           Charge          ....    0
 Multiplicity           Mult            ....    1
 Number of Electrons    NEL             ....  200
 Basis Dimension        Dim             ....  383

ORBITAL ENERGIES
----------------

  NO   OCC          E(Eh)            E(eV)
   0   2.0000    -102.335895     -2784.7013
   1   2.0000    -102.333382     -2784.6329
   2   2.0000    -102.328767     -2784.5073
   3   2.0000    -102.322085     -2784.3255
   4   2.0000     -19.538920      -531.6810
   5   2.0000     -14.742165      -401.1547
   6   2.0000     -14.719333      -400.5334
   7   2.0000     -14.686523      -399.6406
   8   2.0000     -10.613534      -288.8089
   9   2.0000     -10.566912      -287.5403
  10   2.0000     -10.566571      -287.5310
  11   2.0000     -10.554850      -287.2121
  12   2.0000     -10.554528      -287.2033
  13   2.0000     -10.520212      -286.2695
  14   2.0000     -10.514209      -286.1062
  15   2.0000     -10.506638      -285.9002
  16   2.0000     -10.463497      -284.7262
  17   2.0000     -10.462935      -284.7109
  18   2.0000     -10.461322      -284.6670
  19   2.0000     -10.457249      -284.5562
  20   2.0000     -10.454034      -284.4687
  21   2.0000     -10.451686      -284.4048
  22   2.0000     -10.449007      -284.3319
  23   2.0000      -9.801952      -266.7247
  24   2.0000      -9.799576      -266.6600
  25   2.0000      -9.795275      -266.5430
  26   2.0000      -9.788403      -266.3560
  27   2.0000      -7.490059      -203.8149
  28   2.0000      -7.487718      -203.7512
  29   2.0000      -7.483708      -203.6420
  30   2.0000      -7.481085      -203.5707
  31   2.0000      -7.481052      -203.5698
  32   2.0000      -7.478682      -203.5053
  33   2.0000      -7.478625      -203.5037
  34   2.0000      -7.476697      -203.4513
  35   2.0000      -7.474124      -203.3812
  36   2.0000      -7.474082      -203.3801
  37   2.0000      -7.467434      -203.1992
  38   2.0000      -7.467220      -203.1934
  39   2.0000      -1.222818       -33.2746
  40   2.0000      -1.199215       -32.6323
  41   2.0000      -1.068814       -29.0839
  42   2.0000      -1.042785       -28.3756
  43   2.0000      -0.978177       -26.6176
  44   2.0000      -0.973764       -26.4975
  45   2.0000      -0.954287       -25.9675
  46   2.0000      -0.925112       -25.1736
  47   2.0000      -0.922758       -25.1095
  48   2.0000      -0.905176       -24.6311
  49   2.0000      -0.902210       -24.5504
  50   2.0000      -0.849543       -23.1172
  51   2.0000      -0.845509       -23.0075
  52   2.0000      -0.834199       -22.6997
  53   2.0000      -0.761464       -20.7205
  54   2.0000      -0.759386       -20.6639
  55   2.0000      -0.724583       -19.7169
  56   2.0000      -0.719810       -19.5870
  57   2.0000      -0.683630       -18.6025
  58   2.0000      -0.653212       -17.7748
  59   2.0000      -0.651450       -17.7268
  60   2.0000      -0.632969       -17.2240
  61   2.0000      -0.624878       -17.0038
  62   2.0000      -0.615729       -16.7548
  63   2.0000      -0.583086       -15.8666
  64   2.0000      -0.579312       -15.7639
  65   2.0000      -0.564314       -15.3558
  66   2.0000      -0.548734       -14.9318
  67   2.0000      -0.525467       -14.2987
  68   2.0000      -0.522144       -14.2083
  69   2.0000      -0.521159       -14.1815
  70   2.0000      -0.512345       -13.9416
  71   2.0000      -0.505057       -13.7433
  72   2.0000      -0.495190       -13.4748
  73   2.0000      -0.491897       -13.3852
  74   2.0000      -0.490564       -13.3489
  75   2.0000      -0.487976       -13.2785
  76   2.0000      -0.481429       -13.1003
  77   2.0000      -0.462835       -12.5944
  78   2.0000      -0.453788       -12.3482
  79   2.0000      -0.450092       -12.2476
  80   2.0000      -0.442342       -12.0367
  81   2.0000      -0.435899       -11.8614
  82   2.0000      -0.433231       -11.7888
  83   2.0000      -0.428178       -11.6513
  84   2.0000      -0.427034       -11.6202
  85   2.0000      -0.419479       -11.4146
  86   2.0000      -0.412574       -11.2267
  87   2.0000      -0.407295       -11.0831
  88   2.0000      -0.401232       -10.9181
  89   2.0000      -0.394445       -10.7334
  90   2.0000      -0.391392       -10.6503
  91   2.0000      -0.378964       -10.3121
  92   2.0000      -0.370280       -10.0758
  93   2.0000      -0.355713        -9.6795
  94   2.0000      -0.344378        -9.3710
  95   2.0000      -0.339311        -9.2331
  96   2.0000      -0.337733        -9.1902
  97   2.0000      -0.328686        -8.9440
  98   2.0000      -0.304436        -8.2841
  99   2.0000      -0.258228        -7.0268
 100   0.0000      -0.028153        -0.7661
 101   0.0000      -0.017014        -0.4630
 102   0.0000       0.005986         0.1629
 103   0.0000       0.016229         0.4416
 104   0.0000       0.030357         0.8260

MULLIKEN ATOMIC CHARGES
-----------------------
   0 C :    0.225885
   1 C :   -0.133464
   2 C :   -0.091986
   3 C :    0.238755
   4 C :   -0.008152
   5 C :   -0.009871
   6 O :   -0.454197
   7 C :   -0.673222
   8 C :   -0.658532
   9 C :   -0.100414
  10 N :   -0.446948
  11 N :    0.024570
  12 N :   -0.186074
  13 H :    0.276685
  14 H :    0.278522
  15 Cl:   -0.036770
  16 Cl:   -0.031656
  17 H :    0.226769
  18 H :    0.264559
  19 H :    0.257724
  20 H :    0.230654
  21 H :    0.246598
  22 H :    0.264698
  23 Cl:   -0.025987
  24 Cl:    0.019502
  25 C :   -0.304619
  26 C :   -0.212898
  27 C :   -0.239093
  28 C :   -0.210646
  29 C :   -0.291828
  30 C :    0.397382
  31 H :    0.227713
  32 H :    0.224944
  33 H :    0.223028
  34 H :    0.227016
  35 H :    0.261357
Sum of atomic charges:    0.0000000

LOEWDIN ATOMIC CHARGES
----------------------
   0 C :    0.050104
   1 C :   -0.088698
   2 C :   -0.071861
   3 C :    0.047486
   4 C :   -0.147664
   5 C :   -0.147402
   6 O :   -0.210100
   7 C :   -0.348486
   8 C :   -0.346948
   9 C :   -0.173359
  10 N :   -0.053581
  11 N :    0.028420
  12 N :   -0.117891
  13 H :    0.148130
  14 H :    0.143056
  15 Cl:    0.096664
  16 Cl:    0.101261
  17 H :    0.142133
  18 H :    0.155804
  19 H :    0.151233
  20 H :    0.145622
  21 H :    0.148019
  22 H :    0.157371
  23 Cl:    0.071556
  24 Cl:    0.102650
  25 C :   -0.173340
  26 C :   -0.121413
  27 C :   -0.155098
  28 C :   -0.118438
  29 C :   -0.154511
  30 C :    0.028937
  31 H :    0.137381
  32 H :    0.139557
  33 H :    0.138274
  34 H :    0.140561
  35 H :    0.154570

  Mayer bond orders larger than 0.100000
B(  0-C ,  1-C ) :   0.9008 B(  0-C ,  5-C ) :   0.8652 B(  0-C ,  6-O ) :   0.9326
B(  0-C ,  8-C ) :   1.0129 B(  1-C ,  2-C ) :   0.9326 B(  1-C , 12-N ) :   1.0144
B(  1-C , 13-H ) :   0.8785 B(  2-C ,  3-C ) :   0.9005 B(  2-C , 10-N ) :   0.9254
B(  2-C , 14-H ) :   0.8722 B(  3-C ,  4-C ) :   0.8672 B(  3-C ,  6-O ) :   0.9379
B(  3-C ,  7-C ) :   1.0141 B(  4-C ,  5-C ) :   0.7962 B(  4-C ,  9-C ) :   0.7963
B(  4-C , 15-Cl) :   1.0977 B(  5-C ,  9-C ) :   0.7981 B(  5-C , 16-Cl) :   1.1068
B(  7-C , 17-H ) :   0.9090 B(  7-C , 18-H ) :   0.9022 B(  7-C , 19-H ) :   0.9062
B(  8-C , 20-H ) :   0.9106 B(  8-C , 21-H ) :   0.9101 B(  8-C , 22-H ) :   0.9012
B(  9-C , 23-Cl) :   1.0789 B(  9-C , 24-Cl) :   1.1103 B( 10-N , 11-N ) :   1.1371
B( 10-N , 12-N ) :   0.1144 B( 10-N , 30-C ) :   0.8949 B( 11-N , 12-N ) :   1.8047
B( 25-C , 26-C ) :   1.4353 B( 25-C , 30-C ) :   1.3404 B( 25-C , 31-H ) :   0.9038
B( 26-C , 27-C ) :   1.4332 B( 26-C , 32-H ) :   0.9181 B( 27-C , 28-C ) :   1.4069
B( 27-C , 33-H ) :   0.9179 B( 28-C , 29-C ) :   1.4437 B( 28-C , 34-H ) :   0.9184
B( 29-C , 30-C ) :   1.3490 B( 29-C , 35-H ) :   0.8949

Dispersion correction           -0.033822583
FINAL SINGLE POINT ENERGY     -2655.848140586861

DIPOLE MOMENT
-------------
                                X             Y             Z
Electronic contribution:     36.19184      -6.23296      -5.59410
Nuclear contribution   :    -36.53352       5.61961       5.35887
                        -----------------------------------------
Total Dipole Moment    :     -0.34169      -0.61335      -0.23523
                        -----------------------------------------
Magnitude (a.u.)       :      0.74046
Magnitude (Debye)      :      1.88210

Rotational constants in cm-1:     0.012765     0.004508     0.004133
Rotational constants in MHz :   382.692593   135.156964   123.904734

                             ****ORCA TERMINATED NORMALLY****
TOTAL RUN TIME: 0 days 0 hours 7 minutes 8 seconds 274 msec
