                         Program Version 5.0.3 -  RELEASE  -
|  1> ! PBEh-3c def2/J TightSCF DefGrid3
|  2>
|  3> %maxcore 60000
|  4>
|  5> %pal
|  6> nprocs 4
|  7> end
|  8>
|  9> *xyzfile 0 1 ALA_xab.xyz
| 10>
| 11>                          ****END OF INPUT****

CARTESIAN COORDINATES (ANGSTROEM)
---------------------------------
  N      1.407046   -1.266053   -1.937135
  H      1.850072   -0.468241   -1.509182
  C     -0.033624   -1.392693   -1.740036
  H     -0.568570   -1.017644   -2.612635
  C     -0.440963   -2.843378   -1.488997
  C     -0.479918   -0.552310   -0.555202
  H     -1.515660   -2.891874   -1.322739
  H     -0.181165   -3.451878   -2.349204
  H      0.069897   -3.232990   -0.608728
  O     -1.566682    0.005521   -0.528847
  C      1.992453   -1.730972   -3.088692
  C      3.428843   -1.306601   -3.287127
  H      3.877220   -0.888431   -2.389215
  H      3.465485   -0.564953   -4.083118
  H      4.002534   -2.169709   -3.612101
  O      1.401880   -2.438261   -3.890341
  N      0.408692   -0.491017    0.479924
  H      1.155919   -1.165248    0.487403
  C      0.007235    0.116923    1.734263
  H      0.888221    0.284990    2.346457
  H     -0.472316    1.067376    1.522867
  H     -0.702000   -0.504859    2.280582

 Total Charge           Charge          ....    0
 Multiplicity           Mult            ....    1
 Number of Electrons    NEL             ....   78
 Basis Dimension        Dim             ....  174

ORBITAL ENERGIES
----------------

  NO   OCC          E(Eh)            E(eV)
   0   2.0000     -19.465612      -529.6862
   1   2.0000     -19.465115      -529.6727
   2   2.0000     -14.672690      -399.2642
   3   2.0000     -14.670964      -399.2172
   4   2.0000     -10.556598      -287.2596
   5   2.0000     -10.552799      -287.1563
   6   2.0000     -10.491719      -285.4942
   7   2.0000     -10.474681      -285.0306
   8   2.0000     -10.449101      -284.3345
   9   2.0000     -10.431037      -283.8429
  10   2.0000      -1.154142       -31.4058
  11   2.0000      -1.147948       -31.2373
  12   2.0000      -1.043179       -28.3864
  13   2.0000      -1.020635       -27.7729
  14   2.0000      -0.879382       -23.9292
  15   2.0000      -0.823634       -22.4122
  16   2.0000      -0.799413       -21.7531
  17   2.0000      -0.727746       -19.8030
  18   2.0000      -0.664582       -18.0842
  19   2.0000      -0.651515       -17.7286
  20   2.0000      -0.614060       -16.7094
  21   2.0000      -0.568200       -15.4615
  22   2.0000      -0.545267       -14.8375
  23   2.0000      -0.522972       -14.2308
  24   2.0000      -0.520155       -14.1541
  25   2.0000      -0.508718       -13.8429
  26   2.0000      -0.494141       -13.4463
  27   2.0000      -0.480103       -13.0643
  28   2.0000      -0.468310       -12.7434
  29   2.0000      -0.461603       -12.5609
  30   2.0000      -0.458436       -12.4747
  31   2.0000      -0.442380       -12.0378
  32   2.0000      -0.430595       -11.7171
  33   2.0000      -0.417498       -11.3607
  34   2.0000      -0.401837       -10.9346
  35   2.0000      -0.327302        -8.9063
  36   2.0000      -0.318635        -8.6705
  37   2.0000      -0.312204        -8.4955
  38   2.0000      -0.305288        -8.3073
  39   0.0000       0.041849         1.1388
  40   0.0000       0.056195         1.5291
  41   0.0000       0.109072         2.9680
  42   0.0000       0.131427         3.5763
  43   0.0000       0.166206         4.5227

MULLIKEN ATOMIC CHARGES
-----------------------
   0 N :   -0.663329
   1 H :    0.360143
   2 C :   -0.180147
   3 H :    0.279596
   4 C :   -0.642878
   5 C :    0.510406
   6 H :    0.240116
   7 H :    0.277999
   8 H :    0.197620
   9 O :   -0.410679
  10 C :    0.528071
  11 C :   -0.755480
  12 H :    0.214430
  13 H :    0.258081
  14 H :    0.266665
  15 O :   -0.417172
  16 N :   -0.638161
  17 H :    0.361770
  18 C :   -0.491169
  19 H :    0.217305
  20 H :    0.257157
  21 H :    0.229655
Sum of atomic charges:    0.0000000

LOEWDIN ATOMIC CHARGES
----------------------
   0 N :   -0.259438
   1 H :    0.253393
   2 C :   -0.091183
   3 H :    0.149132
   4 C :   -0.352572
   5 C :    0.104617
   6 H :    0.141458
   7 H :    0.154220
   8 H :    0.121567
   9 O :   -0.256927
  10 C :    0.111675
  11 C :   -0.391164
  12 H :    0.128660
  13 H :    0.157542
  14 H :    0.159848
  15 O :   -0.263032
  16 N :   -0.261968
  17 H :    0.252711
  18 C :   -0.254681
  19 H :    0.124911
  20 H :    0.146471
  21 H :    0.124762

  Mayer bond orders larger than 0.100000
B(  0-N ,  1-H ) :   0.8123 B(  0-N ,  2-C ) :   0.8920 B(  0-N , 10-C ) :   1.1182
B(  2-C ,  3-H ) :   0.8835 B(  2-C ,  4-C ) :   0.9723 B(  2-C ,  5-C ) :   0.9275
B(  4-C ,  6-H ) :   0.9131 B(  4-C ,  7-H ) :   0.8956 B(  4-C ,  8-H ) :   0.9258
B(  5-C ,  9-O ) :   2.0089 B(  5-C , 16-N ) :   1.1127 B( 10-C , 11-C ) :   0.9297
B( 10-C , 15-O ) :   1.9939 B( 11-C , 12-H ) :   0.9217 B( 11-C , 13-H ) :   0.9067
B( 11-C , 14-H ) :   0.9100 B( 16-N , 17-H ) :   0.8147 B( 16-N , 18-C ) :   0.9531
B( 18-C , 19-H ) :   0.9263 B( 18-C , 20-H ) :   0.9082 B( 18-C , 21-H ) :   0.9155

Dispersion correction           -0.011566962
FINAL SINGLE POINT ENERGY      -494.785918064921

DIPOLE MOMENT
-------------
                                X             Y             Z
Electronic contribution:     -2.64222       0.97760      -3.56978
Nuclear contribution   :      4.20788      -0.70098       4.81718
                        -----------------------------------------
Total Dipole Moment    :      1.56566       0.27662       1.24740
                        -----------------------------------------
Magnitude (a.u.)       :      2.02084
Magnitude (Debye)      :      5.13657

Rotational constants in cm-1:     0.080822     0.024103     0.020850
Rotational constants in MHz :  2422.980130   722.581209   625.069269

                             ****ORCA TERMINATED NORMALLY****
TOTAL RUN TIME: 0 days 0 hours 2 minutes 26 seconds 883 msec
