                         Program Version 5.0.3 -  RELEASE  -
|  1> ! PBEh-3c def2/J TightSCF DefGrid3
|  2>
|  3> %maxcore 60000
|  4>
|  5> %pal
|  6> nprocs 4
|  7> end
|  8>
|  9> *xyzfile 0 1 51A.xyz
| 10>
| 11>                          ****END OF INPUT****

CARTESIAN COORDINATES (ANGSTROEM)
---------------------------------
  C      0.000000    0.000000   -0.605923
  H      0.000000    0.000000   -1.667940
  C      0.000000    0.000000    0.605923
  H      0.000000    0.000000    1.667940

 Total Charge           Charge          ....    0
 Multiplicity           Mult            ....    1
 Number of Electrons    NEL             ....   14
 Basis Dimension        Dim             ....   34

ORBITAL ENERGIES
----------------

  NO   OCC          E(Eh)            E(eV)
   0   2.0000     -10.458912      -284.6015
   1   2.0000     -10.456552      -284.5372
   2   2.0000      -0.840098       -22.8602
   3   2.0000      -0.639588       -17.4041
   4   2.0000      -0.560256       -15.2453
   5   2.0000      -0.337862        -9.1937
   6   2.0000      -0.337862        -9.1937
   7   0.0000       0.068266         1.8576
   8   0.0000       0.068266         1.8576
   9   0.0000       0.161000         4.3810
  10   0.0000       0.209068         5.6890
  11   0.0000       0.424022        11.5382

MULLIKEN ATOMIC CHARGES
-----------------------
   0 C :   -0.237849
   1 H :    0.237849
   2 C :   -0.237849
   3 H :    0.237849
Sum of atomic charges:   -0.0000000

LOEWDIN ATOMIC CHARGES
----------------------
   0 C :   -0.163116
   1 H :    0.163116
   2 C :   -0.163116
   3 H :    0.163116

  Mayer bond orders larger than 0.100000
B(  0-C ,  1-H ) :   0.9277 B(  0-C ,  2-C ) :   2.8371 B(  2-C ,  3-H ) :   0.9277

Dispersion correction           -0.000698040
FINAL SINGLE POINT ENERGY       -77.142143010980

DIPOLE MOMENT
-------------
                                X             Y             Z
Electronic contribution:      0.00000      -0.00000       0.00000
Nuclear contribution   :      0.00000       0.00000      -0.00000
                        -----------------------------------------
Total Dipole Moment    :      0.00000      -0.00000       0.00000
                        -----------------------------------------
Magnitude (a.u.)       :      0.00000
Magnitude (Debye)      :      0.00000

Rotational constants in cm-1:     0.000000     1.168393     1.168393
Rotational constants in MHz :     0.000000 35027.549191 35027.549191

                             ****ORCA TERMINATED NORMALLY****
TOTAL RUN TIME: 0 days 0 hours 0 minutes 56 seconds 194 msec
