                         Program Version 5.0.3 -  RELEASE  -
|  1> ! PBEh-3c def2/J TightSCF DefGrid3
|  2>
|  3> %maxcore 60000
|  4>
|  5> %pal
|  6> nprocs 4
|  7> end
|  8>
|  9> *xyzfile 0 1 6c.xyz
| 10>
| 11>                          ****END OF INPUT****

CARTESIAN COORDINATES (ANGSTROEM)
---------------------------------
  N      0.156611   -1.517814    0.043797
  C      0.993343   -0.437797   -0.033580
  C      0.564436    0.882040   -0.064884
  C     -0.814328    1.249795   -0.051314
  N     -1.588639    0.081734    0.008482
  C     -1.100043   -1.204980    0.053391
  N      1.694565    1.641979   -0.130323
  C      2.740138    0.768315   -0.133804
  N      2.359053   -0.494019   -0.075272
  O     -1.317806    2.361461   -0.093139
  N     -2.065258   -2.194407    0.045990
  H     -2.584638    0.229671   -0.060800
  H      3.760914    1.105908   -0.179770
  H     -2.872641   -2.018987    0.621511
  H     -1.657260   -3.099076    0.220269
  H      1.731553    2.646180   -0.170554

 Total Charge           Charge          ....    0
 Multiplicity           Mult            ....    1
 Number of Electrons    NEL             ....   78
 Basis Dimension        Dim             ....  175

ORBITAL ENERGIES
----------------

  NO   OCC          E(Eh)            E(eV)
   0   2.0000     -19.469186      -529.7835
   1   2.0000     -14.711093      -400.3092
   2   2.0000     -14.703547      -400.1038
   3   2.0000     -14.668371      -399.1467
   4   2.0000     -14.631311      -398.1382
   5   2.0000     -14.629552      -398.0903
   6   2.0000     -10.577742      -287.8350
   7   2.0000     -10.569556      -287.6123
   8   2.0000     -10.521504      -286.3047
   9   2.0000     -10.508136      -285.9409
  10   2.0000     -10.479904      -285.1727
  11   2.0000      -1.169587       -31.8261
  12   2.0000      -1.139900       -31.0183
  13   2.0000      -1.116639       -30.3853
  14   2.0000      -1.015836       -27.6423
  15   2.0000      -1.014315       -27.6009
  16   2.0000      -0.974686       -26.5226
  17   2.0000      -0.861141       -23.4328
  18   2.0000      -0.755738       -20.5647
  19   2.0000      -0.743849       -20.2412
  20   2.0000      -0.700390       -19.0586
  21   2.0000      -0.679114       -18.4796
  22   2.0000      -0.626392       -17.0450
  23   2.0000      -0.608886       -16.5686
  24   2.0000      -0.578877       -15.7520
  25   2.0000      -0.558299       -15.1921
  26   2.0000      -0.544546       -14.8179
  27   2.0000      -0.527877       -14.3643
  28   2.0000      -0.501081       -13.6351
  29   2.0000      -0.492944       -13.4137
  30   2.0000      -0.490741       -13.3537
  31   2.0000      -0.451927       -12.2976
  32   2.0000      -0.375243       -10.2109
  33   2.0000      -0.364547        -9.9198
  34   2.0000      -0.346241        -9.4217
  35   2.0000      -0.337803        -9.1921
  36   2.0000      -0.322379        -8.7724
  37   2.0000      -0.320503        -8.7213
  38   2.0000      -0.256488        -6.9794
  39   0.0000      -0.000588        -0.0160
  40   0.0000       0.036090         0.9821
  41   0.0000       0.082538         2.2460
  42   0.0000       0.105307         2.8656
  43   0.0000       0.125991         3.4284

MULLIKEN ATOMIC CHARGES
-----------------------
   0 N :   -0.441767
   1 C :    0.320710
   2 C :    0.101689
   3 C :    0.509817
   4 N :   -0.718168
   5 C :    0.625202
   6 N :   -0.639403
   7 C :    0.119647
   8 N :   -0.391342
   9 O :   -0.414456
  10 N :   -0.809294
  11 H :    0.380733
  12 H :    0.245542
  13 H :    0.349499
  14 H :    0.376677
  15 H :    0.384915
Sum of atomic charges:   -0.0000000

LOEWDIN ATOMIC CHARGES
----------------------
   0 N :   -0.205903
   1 C :    0.040730
   2 C :   -0.110778
   3 C :    0.104236
   4 N :   -0.193035
   5 C :    0.129808
   6 N :   -0.126835
   7 C :   -0.004959
   8 N :   -0.175188
   9 O :   -0.274191
  10 N :   -0.387763
  11 H :    0.274741
  12 H :    0.136507
  13 H :    0.248557
  14 H :    0.265575
  15 H :    0.278498

  Mayer bond orders larger than 0.100000
B(  0-N ,  1-C ) :   1.2535 B(  0-N ,  5-C ) :   1.6853 B(  1-C ,  2-C ) :   1.3033
B(  1-C ,  8-N ) :   1.3731 B(  2-C ,  3-C ) :   1.0606 B(  2-C ,  6-N ) :   1.0078
B(  3-C ,  4-N ) :   0.9818 B(  3-C ,  9-O ) :   2.0320 B(  4-N ,  5-C ) :   1.0849
B(  4-N , 11-H ) :   0.8068 B(  5-C , 10-N ) :   1.0911 B(  6-N ,  7-C ) :   1.2293
B(  6-N , 15-H ) :   0.8117 B(  7-C ,  8-N ) :   1.6035 B(  7-C , 12-H ) :   0.9090
B( 10-N , 13-H ) :   0.8370 B( 10-N , 14-H ) :   0.8280

Dispersion correction           -0.009570136
FINAL SINGLE POINT ENERGY      -541.397621283217

DIPOLE MOMENT
-------------
                                X             Y             Z
Electronic contribution:      1.30400       1.71890      -0.14861
Nuclear contribution   :     -1.96737      -1.57613       0.56881
                        -----------------------------------------
Total Dipole Moment    :     -0.66337       0.14276       0.42020
                        -----------------------------------------
Magnitude (a.u.)       :      0.79813
Magnitude (Debye)      :      2.02869

Rotational constants in cm-1:     0.064284     0.037607     0.023749
Rotational constants in MHz :  1927.184515  1127.422046   711.964595

                             ****ORCA TERMINATED NORMALLY****
TOTAL RUN TIME: 0 days 0 hours 2 minutes 16 seconds 53 msec
