                         Program Version 5.0.3 -  RELEASE  -
|  1> ! PBEh-3c def2/J TightSCF DefGrid3
|  2>
|  3> %maxcore 60000
|  4>
|  5> %pal
|  6> nprocs 4
|  7> end
|  8>
|  9> *xyzfile 0 2 RKT01.xyz
| 10>
| 11>                          ****END OF INPUT****

CARTESIAN COORDINATES (ANGSTROEM)
---------------------------------
  H      0.000000    0.000000   -0.256616
  Cl     0.000000    0.000000    1.287265
  H      0.000000    0.000000   -1.030649

 Total Charge           Charge          ....    0
 Multiplicity           Mult            ....    2
 Number of Electrons    NEL             ....   19
 Basis Dimension        Dim             ....   22

ORBITAL ENERGIES
----------------
                 SPIN UP ORBITALS
  NO   OCC          E(Eh)            E(eV)
   0   1.0000    -102.310907     -2784.0213
   1   1.0000      -9.777340      -266.0549
   2   1.0000      -7.474056      -203.3794
   3   1.0000      -7.454595      -202.8498
   4   1.0000      -7.454595      -202.8498
   5   1.0000      -0.924021       -25.1439
   6   1.0000      -0.606460       -16.5026
   7   1.0000      -0.380832       -10.3630
   8   1.0000      -0.380832       -10.3630
   9   1.0000      -0.372752       -10.1431
  10   0.0000       0.188910         5.1405
  11   0.0000       0.502004        13.6602
  12   0.0000       0.740213        20.1422
  13   0.0000       0.787370        21.4254
  14   0.0000       0.787370        21.4254

                 SPIN DOWN ORBITALS
  NO   OCC          E(Eh)            E(eV)
   0   1.0000    -102.304821     -2783.8557
   1   1.0000      -9.771442      -265.8944
   2   1.0000      -7.452382      -202.7896
   3   1.0000      -7.451082      -202.7542
   4   1.0000      -7.451082      -202.7542
   5   1.0000      -0.876162       -23.8416
   6   1.0000      -0.541409       -14.7325
   7   1.0000      -0.367595       -10.0028
   8   1.0000      -0.367595       -10.0028
   9   0.0000      -0.156599        -4.2613
  10   0.0000       0.227161         6.1814
  11   0.0000       0.521932        14.2025
  12   0.0000       0.790211        21.5027
  13   0.0000       0.835254        22.7284

MULLIKEN ATOMIC CHARGES AND SPIN POPULATIONS
--------------------------------------------
   0 H :    0.005233   -0.121846
   1 Cl:   -0.137022    0.711625
   2 H :    0.131789    0.410220
Sum of atomic charges         :   -0.0000000

LOEWDIN ATOMIC CHARGES AND SPIN POPULATIONS
-------------------------------------------
   0 H :    0.054258   -0.053176
   1 Cl:   -0.119699    0.692703
   2 H :    0.065441    0.360473

  Mayer bond orders larger than 0.100000
B(  0-H ,  1-Cl) :   0.3041 B(  0-H ,  2-H ) :   0.6653 B(  1-Cl,  2-H ) :   0.1259

Dispersion correction           -0.000381224
FINAL SINGLE POINT ENERGY      -460.791791076212

DIPOLE MOMENT
-------------
                                X             Y             Z
Electronic contribution:      0.00000      -0.00000       3.04293
Nuclear contribution   :      0.00000       0.00000      -3.56755
                        -----------------------------------------
Total Dipole Moment    :      0.00000      -0.00000      -0.52462
                        -----------------------------------------
Magnitude (a.u.)       :      0.52462
Magnitude (Debye)      :      1.33348

Rotational constants in cm-1:     0.000000     2.273782     2.273782
Rotational constants in MHz :     0.000000 68166.270122 68166.270122

                             ****ORCA TERMINATED NORMALLY****
TOTAL RUN TIME: 0 days 0 hours 0 minutes 45 seconds 891 msec
