                         Program Version 5.0.3 -  RELEASE  -
|  1> ! PBEh-3c def2/J TightSCF DefGrid3
|  2>
|  3> %maxcore 60000
|  4>
|  5> %pal
|  6> nprocs 4
|  7> end
|  8>
|  9> *xyzfile 0 1 PH3.xyz
| 10>
| 11>                          ****END OF INPUT****

CARTESIAN COORDINATES (ANGSTROEM)
---------------------------------
  P      0.000000    0.000000    0.127949
  H      0.000000    1.193386   -0.639744
  H      1.033503   -0.596693   -0.639744
  H     -1.033503   -0.596693   -0.639744

 Total Charge           Charge          ....    0
 Multiplicity           Mult            ....    1
 Number of Electrons    NEL             ....   18
 Basis Dimension        Dim             ....   24

ORBITAL ENERGIES
----------------

  NO   OCC          E(Eh)            E(eV)
   0   2.0000     -77.728486     -2115.0996
   1   2.0000      -6.809093      -185.2848
   2   2.0000      -4.899223      -133.3146
   3   2.0000      -4.899222      -133.3146
   4   2.0000      -4.897284      -133.2619
   5   2.0000      -0.718170       -19.5424
   6   2.0000      -0.435796       -11.8586
   7   2.0000      -0.435795       -11.8586
   8   2.0000      -0.316824        -8.6212
   9   0.0000       0.070876         1.9286
  10   0.0000       0.070878         1.9287
  11   0.0000       0.162253         4.4151
  12   0.0000       0.384806        10.4711
  13   0.0000       0.513723        13.9791

MULLIKEN ATOMIC CHARGES
-----------------------
   0 P :   -0.257916
   1 H :    0.085970
   2 H :    0.085973
   3 H :    0.085973
Sum of atomic charges:   -0.0000000

LOEWDIN ATOMIC CHARGES
----------------------
   0 P :   -0.093661
   1 H :    0.031218
   2 H :    0.031222
   3 H :    0.031222

  Mayer bond orders larger than 0.100000
B(  0-P ,  1-H ) :   0.9630 B(  0-P ,  2-H ) :   0.9630 B(  0-P ,  3-H ) :   0.9630

Dispersion correction           -0.000715452
FINAL SINGLE POINT ENERGY      -342.730759483321

DIPOLE MOMENT
-------------
                                X             Y             Z
Electronic contribution:     -0.00000       0.00001       1.62338
Nuclear contribution   :      0.00000      -0.00000      -2.02952
                        -----------------------------------------
Total Dipole Moment    :     -0.00000       0.00001      -0.40614
                        -----------------------------------------
Magnitude (a.u.)       :      0.40614
Magnitude (Debye)      :      1.03231

Rotational constants in cm-1:     4.463205     4.463203     3.914291
Rotational constants in MHz : 133803.525637 133803.471723 117347.498130

                             ****ORCA TERMINATED NORMALLY****
TOTAL RUN TIME: 0 days 0 hours 0 minutes 25 seconds 238 msec
