                         Program Version 5.0.3 -  RELEASE  -
|  1> ! PBEh-3c def2/J TightSCF DefGrid3
|  2>
|  3> %maxcore 60000
|  4>
|  5> %pal
|  6> nprocs 4
|  7> end
|  8>
|  9> *xyzfile 0 1 22A.xyz
| 10>
| 11>                          ****END OF INPUT****

CARTESIAN COORDINATES (ANGSTROEM)
---------------------------------
  C      0.546501    0.193829    0.000000
  O      1.193066    1.233030    0.000000
  O      1.082041   -1.017454    0.000000
  H      2.073472   -0.951173    0.000000
  C     -0.951328    0.154104    0.000000
  H     -1.346560    1.162557    0.000000
  H     -1.298596   -0.387446   -0.876725
  H     -1.298596   -0.387446    0.876725

 Total Charge           Charge          ....    0
 Multiplicity           Mult            ....    1
 Number of Electrons    NEL             ....   32
 Basis Dimension        Dim             ....   68

ORBITAL ENERGIES
----------------

  NO   OCC          E(Eh)            E(eV)
   0   2.0000     -19.551424      -532.0213
   1   2.0000     -19.478870      -530.0470
   2   2.0000     -10.583650      -287.9958
   3   2.0000     -10.446787      -284.2715
   4   2.0000      -1.223942       -33.3052
   5   2.0000      -1.116719       -30.3875
   6   2.0000      -0.848278       -23.0828
   7   2.0000      -0.695069       -18.9138
   8   2.0000      -0.557390       -15.1673
   9   2.0000      -0.548979       -14.9385
  10   2.0000      -0.535910       -14.5829
  11   2.0000      -0.470739       -12.8095
  12   2.0000      -0.452950       -12.3254
  13   2.0000      -0.449375       -12.2281
  14   2.0000      -0.372632       -10.1398
  15   2.0000      -0.330751        -9.0002
  16   0.0000       0.047557         1.2941
  17   0.0000       0.113845         3.0979
  18   0.0000       0.167262         4.5514
  19   0.0000       0.207815         5.6549
  20   0.0000       0.221027         6.0145

MULLIKEN ATOMIC CHARGES
-----------------------
   0 C :    0.507207
   1 O :   -0.409015
   2 O :   -0.568167
   3 H :    0.446147
   4 C :   -0.738272
   5 H :    0.261210
   6 H :    0.250445
   7 H :    0.250445
Sum of atomic charges:   -0.0000000

LOEWDIN ATOMIC CHARGES
----------------------
   0 C :    0.122298
   1 O :   -0.253065
   2 O :   -0.283672
   3 H :    0.340909
   4 C :   -0.389744
   5 H :    0.153870
   6 H :    0.154702
   7 H :    0.154702

  Mayer bond orders larger than 0.100000
B(  0-C ,  1-O ) :   2.0500 B(  0-C ,  2-O ) :   1.1674 B(  0-C ,  4-C ) :   0.9375
B(  2-O ,  3-H ) :   0.7540 B(  4-C ,  5-H ) :   0.9174 B(  4-C ,  6-H ) :   0.9060
B(  4-C ,  7-H ) :   0.9060

Dispersion correction           -0.002312462
FINAL SINGLE POINT ENERGY      -228.600430535182

DIPOLE MOMENT
-------------
                                X             Y             Z
Electronic contribution:      3.36516       0.24759       0.00000
Nuclear contribution   :     -3.58858      -0.97015       0.00000
                        -----------------------------------------
Total Dipole Moment    :     -0.22342      -0.72256       0.00000
                        -----------------------------------------
Magnitude (a.u.)       :      0.75631
Magnitude (Debye)      :      1.92239

Rotational constants in cm-1:     0.375688     0.321219     0.178856
Rotational constants in MHz : 11262.838761  9629.903223  5361.977000

                             ****ORCA TERMINATED NORMALLY****
TOTAL RUN TIME: 0 days 0 hours 1 minutes 10 seconds 698 msec
