                         Program Version 5.0.3 -  RELEASE  -
|  1> ! PBEh-3c def2/J TightSCF DefGrid3
|  2>
|  3> %maxcore 60000
|  4>
|  5> %pal
|  6> nprocs 4
|  7> end
|  8>
|  9> *xyzfile 2 1 ch2o_2+.xyz
| 10>
| 11>                          ****END OF INPUT****

CARTESIAN COORDINATES (ANGSTROEM)
---------------------------------
  C      0.000000    0.000000   -0.239241
  O      0.000000    0.000000   -1.366869
  H      0.797656    0.000000    0.803055
  H     -0.797656    0.000000    0.803055

 Total Charge           Charge          ....    2
 Multiplicity           Mult            ....    1
 Number of Electrons    NEL             ....   14
 Basis Dimension        Dim             ....   34

ORBITAL ENERGIES
----------------

  NO   OCC          E(Eh)            E(eV)
   0   2.0000     -20.341310      -553.5152
   1   2.0000     -11.294036      -307.3264
   2   2.0000      -1.959743       -53.3273
   3   2.0000      -1.400191       -38.1011
   4   2.0000      -1.256634       -34.1948
   5   2.0000      -1.208395       -32.8821
   6   2.0000      -1.192498       -32.4495
   7   0.0000      -0.844535       -22.9810
   8   0.0000      -0.662982       -18.0407
   9   0.0000      -0.574347       -15.6288
  10   0.0000      -0.457904       -12.4602
  11   0.0000      -0.274319        -7.4646

MULLIKEN ATOMIC CHARGES
-----------------------
   0 C :    0.158808
   1 O :    0.389929
   2 H :    0.725631
   3 H :    0.725631
Sum of atomic charges:    2.0000000

LOEWDIN ATOMIC CHARGES
----------------------
   0 C :    0.313564
   1 O :    0.553179
   2 H :    0.566628
   3 H :    0.566628

  Mayer bond orders larger than 0.100000
B(  0-C ,  1-O ) :   2.6396 B(  0-C ,  2-H ) :   0.3739 B(  0-C ,  3-H ) :   0.3739

Dispersion correction           -0.000616222
FINAL SINGLE POINT ENERGY      -113.034022096069

DIPOLE MOMENT
-------------
                                X             Y             Z
Electronic contribution:     -0.00000       0.00000       0.52053
Nuclear contribution   :      0.00000       0.00000       2.94297
                        -----------------------------------------
Total Dipole Moment    :     -0.00000       0.00000       3.46350
                        -----------------------------------------
Magnitude (a.u.)       :      3.46350
Magnitude (Debye)      :      8.80352

Rotational constants in cm-1:    13.142400     1.197969     1.097893
Rotational constants in MHz : 393999.225357 35914.218351 32914.007266

                             ****ORCA TERMINATED NORMALLY****
TOTAL RUN TIME: 0 days 0 hours 0 minutes 32 seconds 820 msec
