                         Program Version 5.0.3 -  RELEASE  -
|  1> ! PBEh-3c def2/J TightSCF DefGrid3
|  2>
|  3> %maxcore 60000
|  4>
|  5> %pal
|  6> nprocs 4
|  7> end
|  8>
|  9> *xyzfile 1 1 23.xyz
| 10>
| 11>                          ****END OF INPUT****

CARTESIAN COORDINATES (ANGSTROEM)
---------------------------------
  Na    -0.621348   -0.836491   -0.103923
  O      0.726080    0.978748    0.121012
  H      1.689024    0.994173    0.173258
  H      0.471923    1.907466    0.177926

 Total Charge           Charge          ....    1
 Multiplicity           Mult            ....    1
 Number of Electrons    NEL             ....   20
 Basis Dimension        Dim             ....   34

ORBITAL ENERGIES
----------------

  NO   OCC          E(Eh)            E(eV)
   0   2.0000     -39.188832     -1066.3823
   1   2.0000     -19.702042      -536.1198
   2   2.0000      -2.624275       -71.4102
   3   2.0000      -1.499172       -40.7945
   4   2.0000      -1.498760       -40.7833
   5   2.0000      -1.497227       -40.7416
   6   2.0000      -1.322034       -35.9744
   7   2.0000      -0.797920       -21.7125
   8   2.0000      -0.681605       -18.5474
   9   2.0000      -0.583331       -15.8733
  10   0.0000      -0.188137        -5.1195
  11   0.0000      -0.107217        -2.9175
  12   0.0000      -0.104155        -2.8342
  13   0.0000      -0.102453        -2.7879
  14   0.0000      -0.039133        -1.0649

MULLIKEN ATOMIC CHARGES
-----------------------
   0 Na:    0.880303
   1 O :   -0.842648
   2 H :    0.481036
   3 H :    0.481309
Sum of atomic charges:    1.0000000

LOEWDIN ATOMIC CHARGES
----------------------
   0 Na:    0.736471
   1 O :   -0.445409
   2 H :    0.354420
   3 H :    0.354518

  Mayer bond orders larger than 0.100000
B(  0-Na,  1-O ) :   0.2342 B(  1-O ,  2-H ) :   0.7486 B(  1-O ,  3-H ) :   0.7484

Dispersion correction           -0.000533992
FINAL SINGLE POINT ENERGY      -238.126876163899

DIPOLE MOMENT
-------------
                                X             Y             Z
Electronic contribution:     -3.04847      -4.10462      -0.50717
Nuclear contribution   :      2.61860       3.51795       0.42876
                        -----------------------------------------
Total Dipole Moment    :     -0.42987      -0.58668      -0.07841
                        -----------------------------------------
Magnitude (a.u.)       :      0.73152
Magnitude (Debye)      :      1.85938

Rotational constants in cm-1:    14.445246     0.301846     0.295668
Rotational constants in MHz : 433057.587411  9049.117399  8863.907322

                             ****ORCA TERMINATED NORMALLY****
TOTAL RUN TIME: 0 days 0 hours 0 minutes 26 seconds 560 msec
