                         Program Version 5.0.3 -  RELEASE  -
|  1> ! PBEh-3c def2/J TightSCF DefGrid3
|  2>
|  3> %maxcore 60000
|  4>
|  5> %pal
|  6> nprocs 4
|  7> end
|  8>
|  9> *xyzfile 0 1 33.xyz
| 10>
| 11>                          ****END OF INPUT****

CARTESIAN COORDINATES (ANGSTROEM)
---------------------------------
  C     -0.342790    0.121149    0.000000
  O      1.079091    0.198515    0.000000
  H     -0.728361   -0.385128   -0.890712
  H     -0.728361   -0.385128    0.890712
  H     -0.713347    1.144491    0.000000
  H      1.433769   -0.693899    0.000000

 Total Charge           Charge          ....    0
 Multiplicity           Mult            ....    1
 Number of Electrons    NEL             ....   18
 Basis Dimension        Dim             ....   38

ORBITAL ENERGIES
----------------

  NO   OCC          E(Eh)            E(eV)
   0   2.0000     -19.481884      -530.1290
   1   2.0000     -10.474414      -285.0233
   2   2.0000      -1.115747       -30.3610
   3   2.0000      -0.760478       -20.6936
   4   2.0000      -0.565665       -15.3925
   5   2.0000      -0.496556       -13.5120
   6   2.0000      -0.479284       -13.0420
   7   2.0000      -0.387193       -10.5361
   8   2.0000      -0.325285        -8.8515
   9   0.0000       0.130704         3.5566
  10   0.0000       0.192856         5.2479
  11   0.0000       0.218390         5.9427
  12   0.0000       0.232276         6.3205
  13   0.0000       0.238050         6.4777

MULLIKEN ATOMIC CHARGES
-----------------------
   0 C :   -0.368702
   1 O :   -0.630004
   2 H :    0.183792
   3 H :    0.183792
   4 H :    0.218367
   5 H :    0.412755
Sum of atomic charges:   -0.0000000

LOEWDIN ATOMIC CHARGES
----------------------
   0 C :   -0.196586
   1 O :   -0.426563
   2 H :    0.097626
   3 H :    0.097626
   4 H :    0.122603
   5 H :    0.305295

  Mayer bond orders larger than 0.100000
B(  0-C ,  1-O ) :   1.0135 B(  0-C ,  2-H ) :   0.9180 B(  0-C ,  3-H ) :   0.9180
B(  0-C ,  4-H ) :   0.9245 B(  1-O ,  5-H ) :   0.7967

Dispersion correction           -0.001080009
FINAL SINGLE POINT ENERGY      -115.466960307797

DIPOLE MOMENT
-------------
                                X             Y             Z
Electronic contribution:      1.78469       0.19960       0.00000
Nuclear contribution   :     -2.13339      -0.80361       0.00000
                        -----------------------------------------
Total Dipole Moment    :     -0.34870      -0.60401       0.00000
                        -----------------------------------------
Magnitude (a.u.)       :      0.69743
Magnitude (Debye)      :      1.77274

Rotational constants in cm-1:     4.287889     0.822618     0.794225
Rotational constants in MHz : 128547.690546 24661.457339 23810.257719

                             ****ORCA TERMINATED NORMALLY****
TOTAL RUN TIME: 0 days 0 hours 0 minutes 17 seconds 593 msec
