                         Program Version 5.0.3 -  RELEASE  -
|  1> ! PBEh-3c def2/J TightSCF DefGrid3
|  2>
|  3> %maxcore 60000
|  4>
|  5> %pal
|  6> nprocs 4
|  7> end
|  8>
|  9> *xyzfile 0 1 sbh3_hbr.xyz
| 10>
| 11>                          ****END OF INPUT****

CARTESIAN COORDINATES (ANGSTROEM)
---------------------------------
  Sb     0.000000    0.000000    0.714742
  H      0.000000    0.000000   -2.105971
  Br     0.000000    0.000000   -3.528826
  H      0.699827    1.212136    1.640018
  H      0.699827   -1.212136    1.640018
  H     -1.399654    0.000000    1.640018

 Total Charge           Charge          ....    0
 Multiplicity           Mult            ....    1
 Number of Electrons    NEL             ....   62
 Basis Dimension        Dim             ....   66

ORBITAL ENERGIES
----------------

  NO   OCC          E(Eh)            E(eV)
   0   2.0000    -484.519439    -13184.4442
   1   2.0000     -63.183708     -1719.3161
   2   2.0000     -56.887587     -1547.9899
   3   2.0000     -56.885871     -1547.9433
   4   2.0000     -56.885871     -1547.9433
   5   2.0000      -9.013309      -245.2646
   6   2.0000      -6.787546      -184.6985
   7   2.0000      -6.775418      -184.3685
   8   2.0000      -6.775418      -184.3685
   9   2.0000      -5.952978      -161.9888
  10   2.0000      -4.139402      -112.6389
  11   2.0000      -4.139402      -112.6389
  12   2.0000      -4.134357      -112.5016
  13   2.0000      -2.801490       -76.2324
  14   2.0000      -2.797258       -76.1173
  15   2.0000      -2.797258       -76.1173
  16   2.0000      -2.787117       -75.8413
  17   2.0000      -2.787115       -75.8412
  18   2.0000      -1.412351       -38.4320
  19   2.0000      -1.412350       -38.4320
  20   2.0000      -1.407081       -38.2886
  21   2.0000      -1.407081       -38.2886
  22   2.0000      -1.403737       -38.1976
  23   2.0000      -0.861890       -23.4532
  24   2.0000      -0.666211       -18.1285
  25   2.0000      -0.488132       -13.2828
  26   2.0000      -0.407188       -11.0802
  27   2.0000      -0.407186       -11.0801
  28   2.0000      -0.340898        -9.2763
  29   2.0000      -0.340898        -9.2763
  30   2.0000      -0.318087        -8.6556
  31   0.0000       0.016626         0.4524
  32   0.0000       0.016627         0.4525
  33   0.0000       0.042417         1.1542
  34   0.0000       0.127622         3.4728
  35   0.0000       0.252507         6.8711

MULLIKEN ATOMIC CHARGES
-----------------------
   0 Sb:   -0.037120
   1 H :    0.242719
   2 Br:   -0.278870
   3 H :    0.024418
   4 H :    0.024418
   5 H :    0.024436
Sum of atomic charges:    0.0000000

LOEWDIN ATOMIC CHARGES
----------------------
   0 Sb:   -0.016705
   1 H :    0.165163
   2 Br:   -0.196311
   3 H :    0.015948
   4 H :    0.015948
   5 H :    0.015958

  Mayer bond orders larger than 0.100000
B(  0-Sb,  3-H ) :   0.9803 B(  0-Sb,  4-H ) :   0.9803 B(  0-Sb,  5-H ) :   0.9803
B(  1-H ,  2-Br) :   0.8637

Dispersion correction           -0.001589917
FINAL SINGLE POINT ENERGY     -2815.647903753050

DIPOLE MOMENT
-------------
                                X             Y             Z
Electronic contribution:     -0.00003      -0.00000      88.42658
Nuclear contribution   :     -0.00000       0.00000     -87.59039
                        -----------------------------------------
Total Dipole Moment    :     -0.00003      -0.00000       0.83619
                        -----------------------------------------
Magnitude (a.u.)       :      0.83619
Magnitude (Debye)      :      2.12542

Rotational constants in cm-1:     2.845600     0.018871     0.018871
Rotational constants in MHz : 85308.935424   565.733178   565.733178

                             ****ORCA TERMINATED NORMALLY****
TOTAL RUN TIME: 0 days 0 hours 1 minutes 17 seconds 735 msec
