                         Program Version 5.0.3 -  RELEASE  -
|  1> ! PBEh-3c def2/J TightSCF DefGrid3
|  2>
|  3> %maxcore 60000
|  4>
|  5> %pal
|  6> nprocs 4
|  7> end
|  8>
|  9> *xyzfile 0 2 hcots.xyz
| 10>
| 11>                          ****END OF INPUT****

CARTESIAN COORDINATES (ANGSTROEM)
---------------------------------
  H     -1.086333    0.937979    0.000000
  C      0.543166    0.098476    0.000000
  O      0.543166   -1.036455    0.000000

 Total Charge           Charge          ....    0
 Multiplicity           Mult            ....    2
 Number of Electrons    NEL             ....   15
 Basis Dimension        Dim             ....   32

ORBITAL ENERGIES
----------------
                 SPIN UP ORBITALS
  NO   OCC          E(Eh)            E(eV)
   0   1.0000     -19.601042      -533.3715
   1   1.0000     -10.577340      -287.8241
   2   1.0000      -1.274543       -34.6821
   3   1.0000      -0.651022       -17.7152
   4   1.0000      -0.547879       -14.9085
   5   1.0000      -0.530181       -14.4270
   6   1.0000      -0.483598       -13.1594
   7   1.0000      -0.316197        -8.6042
   8   0.0000       0.006122         0.1666
   9   0.0000       0.042774         1.1639
  10   0.0000       0.274681         7.4744
  11   0.0000       0.498188        13.5564
  12   0.0000       0.521417        14.1885

                 SPIN DOWN ORBITALS
  NO   OCC          E(Eh)            E(eV)
   0   1.0000     -19.597789      -533.2829
   1   1.0000     -10.574025      -287.7339
   2   1.0000      -1.268518       -34.5181
   3   1.0000      -0.643168       -17.5015
   4   1.0000      -0.527345       -14.3498
   5   1.0000      -0.525443       -14.2980
   6   1.0000      -0.443934       -12.0801
   7   0.0000      -0.069284        -1.8853
   8   0.0000       0.012228         0.3327
   9   0.0000       0.089125         2.4252
  10   0.0000       0.278209         7.5704
  11   0.0000       0.502175        13.6649

MULLIKEN ATOMIC CHARGES AND SPIN POPULATIONS
--------------------------------------------
   0 H :    0.027401    0.829191
   1 C :    0.111798    0.083850
   2 O :   -0.139199    0.086959
Sum of atomic charges         :   -0.0000000

LOEWDIN ATOMIC CHARGES AND SPIN POPULATIONS
-------------------------------------------
   0 H :    0.036540    0.758429
   1 C :   -0.046226    0.149130
   2 O :    0.009685    0.092441

  Mayer bond orders larger than 0.100000
B(  0-H ,  1-C ) :   0.2522 B(  1-C ,  2-O ) :   2.4448

Dispersion correction           -0.000528735
FINAL SINGLE POINT ENERGY      -113.561868531297

DIPOLE MOMENT
-------------
                                X             Y             Z
Electronic contribution:      1.42587      -1.26820       0.00000
Nuclear contribution   :     -1.47482       1.33934       0.00000
                        -----------------------------------------
Total Dipole Moment    :     -0.04894       0.07114       0.00000
                        -----------------------------------------
Magnitude (a.u.)       :      0.08635
Magnitude (Debye)      :      0.21948

Rotational constants in cm-1:     8.570547     1.452354     1.241903
Rotational constants in MHz : 256938.535148 43540.478750 37231.308385

                             ****ORCA TERMINATED NORMALLY****
TOTAL RUN TIME: 0 days 0 hours 0 minutes 16 seconds 611 msec
