                         Program Version 5.0.3 -  RELEASE  -
|  1> ! PBEh-3c def2/J TightSCF DefGrid3
|  2>
|  3> %maxcore 60000
|  4>
|  5> %pal
|  6> nprocs 4
|  7> end
|  8>
|  9> *xyzfile 0 1 68.xyz
| 10>
| 11>                          ****END OF INPUT****

CARTESIAN COORDINATES (ANGSTROEM)
---------------------------------
  N      0.000000    0.000000   -0.021186
  N      0.000000    0.000000   -1.142448
  O      0.000000    0.000000    1.163635

 Total Charge           Charge          ....    0
 Multiplicity           Mult            ....    1
 Number of Electrons    NEL             ....   22
 Basis Dimension        Dim             ....   45

ORBITAL ENERGIES
----------------

  NO   OCC          E(Eh)            E(eV)
   0   2.0000     -19.595283      -533.2148
   1   2.0000     -14.882163      -404.9643
   2   2.0000     -14.745580      -401.2476
   3   2.0000      -1.366115       -37.1739
   4   2.0000      -1.201625       -32.6979
   5   2.0000      -0.677159       -18.4264
   6   2.0000      -0.637246       -17.3403
   7   2.0000      -0.637246       -17.3403
   8   2.0000      -0.546514       -14.8714
   9   2.0000      -0.395361       -10.7583
  10   2.0000      -0.395361       -10.7583
  11   0.0000       0.023180         0.6308
  12   0.0000       0.023180         0.6308
  13   0.0000       0.205909         5.6031
  14   0.0000       0.459873        12.5138
  15   0.0000       0.662878        18.0378

MULLIKEN ATOMIC CHARGES
-----------------------
   0 N :    0.450245
   1 N :   -0.102106
   2 O :   -0.348139
Sum of atomic charges:   -0.0000000

LOEWDIN ATOMIC CHARGES
----------------------
   0 N :    0.244609
   1 N :   -0.072981
   2 O :   -0.171628

  Mayer bond orders larger than 0.100000
B(  0-N ,  1-N ) :   2.4670 B(  0-N ,  2-O ) :   1.7648 B(  1-N ,  2-O ) :   0.4079

Dispersion correction           -0.000549013
FINAL SINGLE POINT ENERGY      -184.265496420361

DIPOLE MOMENT
-------------
                                X             Y             Z
Electronic contribution:      0.00000       0.00000      -0.08980
Nuclear contribution   :      0.00000       0.00000       0.00944
                        -----------------------------------------
Total Dipole Moment    :      0.00000       0.00000      -0.08036
                        -----------------------------------------
Magnitude (a.u.)       :      0.08036
Magnitude (Debye)      :      0.20426

Rotational constants in cm-1:     0.000000     0.423247     0.423247
Rotational constants in MHz :     0.000000 12688.616340 12688.616340

                             ****ORCA TERMINATED NORMALLY****
TOTAL RUN TIME: 0 days 0 hours 0 minutes 25 seconds 197 msec
