                         Program Version 5.0.3 -  RELEASE  -
|  1> ! PBEh-3c def2/J TightSCF DefGrid3
|  2>
|  3> %maxcore 60000
|  4>
|  5> %pal
|  6> nprocs 4
|  7> end
|  8>
|  9> *xyzfile 0 1 PCl3.xyz
| 10>
| 11>                          ****END OF INPUT****

CARTESIAN COORDINATES (ANGSTROEM)
---------------------------------
  P      0.014453   -0.416227    0.399624
  Cl    -0.228489    0.696133   -1.331969
  Cl    -0.952865    0.809264    1.762975
  Cl     1.990902   -0.008170    0.862371

 Total Charge           Charge          ....    0
 Multiplicity           Mult            ....    1
 Number of Electrons    NEL             ....   66
 Basis Dimension        Dim             ....   72

ORBITAL ENERGIES
----------------

  NO   OCC          E(Eh)            E(eV)
   0   2.0000    -102.328868     -2784.5101
   1   2.0000    -102.328420     -2784.4979
   2   2.0000    -102.328008     -2784.4867
   3   2.0000     -77.888335     -2119.4494
   4   2.0000      -9.796948      -266.5885
   5   2.0000      -9.796474      -266.5756
   6   2.0000      -9.796062      -266.5644
   7   2.0000      -7.483871      -203.6465
   8   2.0000      -7.483399      -203.6336
   9   2.0000      -7.483008      -203.6230
  10   2.0000      -7.476531      -203.4468
  11   2.0000      -7.476199      -203.4377
  12   2.0000      -7.476056      -203.4338
  13   2.0000      -7.475731      -203.4250
  14   2.0000      -7.475621      -203.4220
  15   2.0000      -7.475320      -203.4138
  16   2.0000      -6.953850      -189.2239
  17   2.0000      -5.043522      -137.2412
  18   2.0000      -5.043496      -137.2405
  19   2.0000      -5.040610      -137.1620
  20   2.0000      -0.999366       -27.1941
  21   2.0000      -0.932975       -25.3876
  22   2.0000      -0.931911       -25.3586
  23   2.0000      -0.683952       -18.6113
  24   2.0000      -0.514577       -14.0024
  25   2.0000      -0.513675       -13.9778
  26   2.0000      -0.473886       -12.8951
  27   2.0000      -0.422117       -11.4864
  28   2.0000      -0.421568       -11.4715
  29   2.0000      -0.389657       -10.6031
  30   2.0000      -0.388787       -10.5794
  31   2.0000      -0.379714       -10.3325
  32   2.0000      -0.337258        -9.1773
  33   0.0000      -0.028582        -0.7778
  34   0.0000      -0.026763        -0.7282
  35   0.0000      -0.022636        -0.6159
  36   0.0000       0.276086         7.5127
  37   0.0000       0.392445        10.6790

MULLIKEN ATOMIC CHARGES
-----------------------
   0 P :    0.619748
   1 Cl:   -0.206730
   2 Cl:   -0.207253
   3 Cl:   -0.205765
Sum of atomic charges:   -0.0000000

LOEWDIN ATOMIC CHARGES
----------------------
   0 P :    0.303993
   1 Cl:   -0.101591
   2 Cl:   -0.102250
   3 Cl:   -0.100153

  Mayer bond orders larger than 0.100000
B(  0-P ,  1-Cl) :   1.0360 B(  0-P ,  2-Cl) :   1.0350 B(  0-P ,  3-Cl) :   1.0375

Dispersion correction           -0.002539790
FINAL SINGLE POINT ENERGY     -1720.121043473310

DIPOLE MOMENT
-------------
                                X             Y             Z
Electronic contribution:     -0.02986      -0.13606      -0.00631
Nuclear contribution   :     -0.05521      -0.19788      -0.00681
                        -----------------------------------------
Total Dipole Moment    :     -0.08508      -0.33393      -0.01312
                        -----------------------------------------
Magnitude (a.u.)       :      0.34485
Magnitude (Debye)      :      0.87654

Rotational constants in cm-1:     0.084035     0.082968     0.046772
Rotational constants in MHz :  2519.296952  2487.324015  1402.202843

                             ****ORCA TERMINATED NORMALLY****
TOTAL RUN TIME: 0 days 0 hours 0 minutes 39 seconds 529 msec
