                         Program Version 5.0.3 -  RELEASE  -
|  1> ! PBEh-3c def2/J TightSCF DefGrid3
|  2>
|  3> %maxcore 60000
|  4>
|  5> %pal
|  6> nprocs 4
|  7> end
|  8>
|  9> *xyzfile 1 1 h2s2o72.xyz
| 10>
| 11>                          ****END OF INPUT****

CARTESIAN COORDINATES (ANGSTROEM)
---------------------------------
  O     -1.972745    1.006195   -0.478264
  S     -1.454951   -0.338169    0.114838
  O     -1.045989   -0.084614    1.451421
  O     -2.141314   -1.474595   -0.389609
  O      0.105989   -0.389032   -0.710628
  S      1.853251   -0.092461    0.185794
  O      1.465828    1.308774    0.703550
  O      1.854074   -1.108415    1.169848
  O      2.631765    0.018850   -0.986707
  H     -2.549829    0.907353   -1.258169
  H      1.105595    1.313197    1.614399
  H      0.148326   -1.067083   -1.416474

 Total Charge           Charge          ....    1
 Multiplicity           Mult            ....    1
 Number of Electrons    NEL             ....   90
 Basis Dimension        Dim             ....  147

ORBITAL ENERGIES
----------------

  NO   OCC          E(Eh)            E(eV)
   0   2.0000     -90.119928     -2452.2879
   1   2.0000     -90.108919     -2451.9883
   2   2.0000     -19.821494      -539.3703
   3   2.0000     -19.817430      -539.2597
   4   2.0000     -19.787519      -538.4458
   5   2.0000     -19.772447      -538.0356
   6   2.0000     -19.768836      -537.9374
   7   2.0000     -19.742162      -537.2115
   8   2.0000     -19.737551      -537.0861
   9   2.0000      -8.720316      -237.2919
  10   2.0000      -8.705958      -236.9012
  11   2.0000      -6.614590      -179.9921
  12   2.0000      -6.611343      -179.9038
  13   2.0000      -6.608455      -179.8252
  14   2.0000      -6.600363      -179.6050
  15   2.0000      -6.597444      -179.5256
  16   2.0000      -6.594579      -179.4476
  17   2.0000      -1.547224       -42.1021
  18   2.0000      -1.525975       -41.5239
  19   2.0000      -1.424756       -38.7696
  20   2.0000      -1.408488       -38.3269
  21   2.0000      -1.404267       -38.2121
  22   2.0000      -1.389780       -37.8178
  23   2.0000      -1.378820       -37.5196
  24   2.0000      -1.006426       -27.3862
  25   2.0000      -0.992959       -27.0198
  26   2.0000      -0.907305       -24.6890
  27   2.0000      -0.899054       -24.4645
  28   2.0000      -0.845074       -22.9956
  29   2.0000      -0.824536       -22.4368
  30   2.0000      -0.800958       -21.7952
  31   2.0000      -0.783550       -21.3215
  32   2.0000      -0.755199       -20.5500
  33   2.0000      -0.740661       -20.1544
  34   2.0000      -0.716809       -19.5054
  35   2.0000      -0.711880       -19.3712
  36   2.0000      -0.687720       -18.7138
  37   2.0000      -0.674502       -18.3541
  38   2.0000      -0.658232       -17.9114
  39   2.0000      -0.652913       -17.7667
  40   2.0000      -0.644179       -17.5290
  41   2.0000      -0.629320       -17.1247
  42   2.0000      -0.621993       -16.9253
  43   2.0000      -0.618891       -16.8409
  44   2.0000      -0.604901       -16.4602
  45   0.0000      -0.256787        -6.9875
  46   0.0000      -0.183156        -4.9839
  47   0.0000      -0.160657        -4.3717
  48   0.0000      -0.132103        -3.5947
  49   0.0000      -0.087112        -2.3704

MULLIKEN ATOMIC CHARGES
-----------------------
   0 O :   -0.625756
   1 S :    1.662843
   2 O :   -0.522647
   3 O :   -0.482453
   4 O :   -0.779066
   5 S :    1.630090
   6 O :   -0.604377
   7 O :   -0.424775
   8 O :   -0.423946
   9 H :    0.512283
  10 H :    0.528258
  11 H :    0.529546
Sum of atomic charges:    1.0000000

LOEWDIN ATOMIC CHARGES
----------------------
   0 O :   -0.404012
   1 S :    1.340268
   2 O :   -0.442669
   3 O :   -0.415060
   4 O :   -0.491006
   5 S :    1.359561
   6 O :   -0.372402
   7 O :   -0.360402
   8 O :   -0.352292
   9 H :    0.375906
  10 H :    0.385581
  11 H :    0.376528

  Mayer bond orders larger than 0.100000
B(  0-O ,  1-S ) :   1.1123 B(  0-O ,  9-H ) :   0.6953 B(  1-S ,  2-O ) :   1.8290
B(  1-S ,  3-O ) :   1.8686 B(  1-S ,  4-O ) :   0.5997 B(  4-O ,  5-S ) :   0.3649
B(  4-O , 11-H ) :   0.6829 B(  5-S ,  6-O ) :   1.1418 B(  5-S ,  7-O ) :   1.8986
B(  5-S ,  8-O ) :   1.9015 B(  6-O , 10-H ) :   0.6728 B(  7-O ,  8-O ) :   0.1216

Dispersion correction           -0.006903008
FINAL SINGLE POINT ENERGY     -1322.289887821463

DIPOLE MOMENT
-------------
                                X             Y             Z
Electronic contribution:      1.22215      -0.78925       0.49456
Nuclear contribution   :     -1.62636       1.47044      -1.32303
                        -----------------------------------------
Total Dipole Moment    :     -0.40421       0.68119      -0.82846
                        -----------------------------------------
Magnitude (a.u.)       :      1.14620
Magnitude (Debye)      :      2.91340

Rotational constants in cm-1:     0.084082     0.026490     0.026280
Rotational constants in MHz :  2520.727833   794.143911   787.847284

                             ****ORCA TERMINATED NORMALLY****
TOTAL RUN TIME: 0 days 0 hours 1 minutes 54 seconds 412 msec
