                         Program Version 5.0.3 -  RELEASE  -
|  1> ! PBEh-3c def2/J TightSCF DefGrid3
|  2>
|  3> %maxcore 60000
|  4>
|  5> %pal
|  6> nprocs 4
|  7> end
|  8>
|  9> *xyzfile 0 1 B25.xyz
| 10>
| 11>                          ****END OF INPUT****

CARTESIAN COORDINATES (ANGSTROEM)
---------------------------------
  C     -0.466737    1.887282   -0.023508
  H     -1.102447    1.905735    0.861314
  O      0.283724    3.096660    0.023599
  C      0.411539    0.643534   -0.006295
  H      1.061697    0.652320   -0.887093
  H      1.061833    0.688780    0.869926
  C     -0.411539   -0.643534    0.006295
  H     -1.061833   -0.688780   -0.869926
  H     -1.061697   -0.652320    0.887093
  H      0.820377    3.132962   -0.772687
  H     -1.123307    1.868388   -0.899859
  C      0.466737   -1.887282    0.023508
  H      1.102447   -1.905735   -0.861314
  H      1.123307   -1.868388    0.899859
  O     -0.283724   -3.096660   -0.023599
  H     -0.820377   -3.132962    0.772687

 Total Charge           Charge          ....    0
 Multiplicity           Mult            ....    1
 Number of Electrons    NEL             ....   50
 Basis Dimension        Dim             ....  110

ORBITAL ENERGIES
----------------

  NO   OCC          E(Eh)            E(eV)
   0   2.0000     -19.486197      -530.2464
   1   2.0000     -19.486191      -530.2462
   2   2.0000     -10.483127      -285.2604
   3   2.0000     -10.483088      -285.2593
   4   2.0000     -10.440472      -284.0997
   5   2.0000     -10.440256      -284.0938
   6   2.0000      -1.123280       -30.5660
   7   2.0000      -1.122802       -30.5530
   8   2.0000      -0.890882       -24.2421
   9   2.0000      -0.797167       -21.6920
  10   2.0000      -0.708963       -19.2919
  11   2.0000      -0.671972       -18.2853
  12   2.0000      -0.582886       -15.8611
  13   2.0000      -0.560217       -15.2443
  14   2.0000      -0.538632       -14.6569
  15   2.0000      -0.507453       -13.8085
  16   2.0000      -0.475102       -12.9282
  17   2.0000      -0.472002       -12.8438
  18   2.0000      -0.457189       -12.4408
  19   2.0000      -0.408474       -11.1151
  20   2.0000      -0.400557       -10.8997
  21   2.0000      -0.388130       -10.5616
  22   2.0000      -0.374198       -10.1825
  23   2.0000      -0.334320        -9.0973
  24   2.0000      -0.318251        -8.6601
  25   0.0000       0.122032         3.3206
  26   0.0000       0.124042         3.3754
  27   0.0000       0.142945         3.8897
  28   0.0000       0.172633         4.6976
  29   0.0000       0.184090         5.0093

MULLIKEN ATOMIC CHARGES
-----------------------
   0 C :   -0.129787
   1 H :    0.207473
   2 O :   -0.621373
   3 C :   -0.466210
   4 H :    0.198274
   5 H :    0.224974
   6 C :   -0.466210
   7 H :    0.224974
   8 H :    0.198274
   9 H :    0.408508
  10 H :    0.178142
  11 C :   -0.129787
  12 H :    0.207473
  13 H :    0.178142
  14 O :   -0.621373
  15 H :    0.408508
Sum of atomic charges:   -0.0000000

LOEWDIN ATOMIC CHARGES
----------------------
   0 C :   -0.094560
   1 H :    0.119012
   2 O :   -0.409615
   3 C :   -0.265909
   4 H :    0.117743
   5 H :    0.129557
   6 C :   -0.265909
   7 H :    0.129557
   8 H :    0.117743
   9 H :    0.305958
  10 H :    0.097813
  11 C :   -0.094560
  12 H :    0.119012
  13 H :    0.097813
  14 O :   -0.409615
  15 H :    0.305958

  Mayer bond orders larger than 0.100000
B(  0-C ,  1-H ) :   0.9133 B(  0-C ,  2-O ) :   1.0256 B(  0-C ,  3-C ) :   0.9831
B(  0-C , 10-H ) :   0.9094 B(  2-O ,  9-H ) :   0.7952 B(  3-C ,  4-H ) :   0.9186
B(  3-C ,  5-H ) :   0.9092 B(  3-C ,  6-C ) :   0.9571 B(  6-C ,  7-H ) :   0.9092
B(  6-C ,  8-H ) :   0.9186 B(  6-C , 11-C ) :   0.9831 B( 11-C , 12-H ) :   0.9133
B( 11-C , 13-H ) :   0.9094 B( 11-C , 14-O ) :   1.0256 B( 14-O , 15-H ) :   0.7952

Dispersion correction           -0.006388355
FINAL SINGLE POINT ENERGY      -308.206933094479

DIPOLE MOMENT
-------------
                                X             Y             Z
Electronic contribution:      0.00000       0.00000       0.00000
Nuclear contribution   :      0.00000       0.00000       0.00000
                        -----------------------------------------
Total Dipole Moment    :      0.00000       0.00000       0.00000
                        -----------------------------------------
Magnitude (a.u.)       :      0.00000
Magnitude (Debye)      :      0.00000

Rotational constants in cm-1:     0.565381     0.037784     0.036556
Rotational constants in MHz : 16949.682714  1132.737078  1095.919842

                             ****ORCA TERMINATED NORMALLY****
TOTAL RUN TIME: 0 days 0 hours 1 minutes 29 seconds 227 msec
