                         Program Version 5.0.3 -  RELEASE  -
|  1> ! PBEh-3c def2/J TightSCF DefGrid3
|  2>
|  3> %maxcore 60000
|  4>
|  5> %pal
|  6> nprocs 4
|  7> end
|  8>
|  9> *xyzfile 0 1 H_tgt.xyz
| 10>
| 11>                          ****END OF INPUT****

CARTESIAN COORDINATES (ANGSTROEM)
---------------------------------
  C      0.682860    2.933641   -0.299855
  C      0.682860    1.413421   -0.397684
  C     -0.030294    0.762385    0.781690
  C      0.030294   -0.762385    0.781690
  C     -0.682860   -1.413421   -0.397684
  C     -0.682860   -2.933641   -0.299855
  H      1.184777    3.263159    0.609744
  H     -0.336592    3.318399   -0.272167
  H      1.189961    3.392235   -1.147316
  H      1.711326    1.045692   -0.438688
  H      0.208312    1.111198   -1.332103
  H     -1.076627    1.082141    0.789224
  H      0.412482    1.139528    1.707154
  H     -0.412482   -1.139528    1.707154
  H      1.076627   -1.082141    0.789224
  H     -0.208312   -1.111198   -1.332103
  H     -1.711326   -1.045692   -0.438688
  H     -1.189961   -3.392235   -1.147316
  H     -1.184777   -3.263159    0.609744
  H      0.336592   -3.318399   -0.272167

 Total Charge           Charge          ....    0
 Multiplicity           Mult            ....    1
 Number of Electrons    NEL             ....   50
 Basis Dimension        Dim             ....  118

ORBITAL ENERGIES
----------------

  NO   OCC          E(Eh)            E(eV)
   0   2.0000     -10.426234      -283.7122
   1   2.0000     -10.426213      -283.7117
   2   2.0000     -10.425147      -283.6827
   3   2.0000     -10.424911      -283.6763
   4   2.0000     -10.418676      -283.5066
   5   2.0000     -10.418669      -283.5064
   6   2.0000      -0.898587       -24.4518
   7   2.0000      -0.853822       -23.2337
   8   2.0000      -0.790991       -21.5240
   9   2.0000      -0.711941       -19.3729
  10   2.0000      -0.669063       -18.2061
  11   2.0000      -0.630582       -17.1590
  12   2.0000      -0.529005       -14.3949
  13   2.0000      -0.513911       -13.9842
  14   2.0000      -0.493767       -13.4361
  15   2.0000      -0.467886       -12.7318
  16   2.0000      -0.463360       -12.6087
  17   2.0000      -0.442598       -12.0437
  18   2.0000      -0.412572       -11.2267
  19   2.0000      -0.406573       -11.0634
  20   2.0000      -0.395919       -10.7735
  21   2.0000      -0.378049       -10.2872
  22   2.0000      -0.365984        -9.9589
  23   2.0000      -0.359931        -9.7942
  24   2.0000      -0.355147        -9.6641
  25   0.0000       0.138776         3.7763
  26   0.0000       0.150333         4.0908
  27   0.0000       0.173961         4.7337
  28   0.0000       0.183322         4.9884
  29   0.0000       0.184565         5.0223

MULLIKEN ATOMIC CHARGES
-----------------------
   0 C :   -0.637109
   1 C :   -0.417301
   2 C :   -0.404393
   3 C :   -0.404394
   4 C :   -0.417301
   5 C :   -0.637109
   6 H :    0.208345
   7 H :    0.208968
   8 H :    0.218383
   9 H :    0.203627
  10 H :    0.210741
  11 H :    0.199930
  12 H :    0.208809
  13 H :    0.208809
  14 H :    0.199930
  15 H :    0.210741
  16 H :    0.203627
  17 H :    0.218383
  18 H :    0.208345
  19 H :    0.208968
Sum of atomic charges:    0.0000000

LOEWDIN ATOMIC CHARGES
----------------------
   0 C :   -0.361395
   1 C :   -0.248202
   2 C :   -0.240522
   3 C :   -0.240523
   4 C :   -0.248202
   5 C :   -0.361395
   6 H :    0.122807
   7 H :    0.123508
   8 H :    0.125611
   9 H :    0.118803
  10 H :    0.119961
  11 H :    0.118376
  12 H :    0.121053
  13 H :    0.121053
  14 H :    0.118376
  15 H :    0.119960
  16 H :    0.118803
  17 H :    0.125611
  18 H :    0.122807
  19 H :    0.123508

  Mayer bond orders larger than 0.100000
B(  0-C ,  1-C ) :   0.9981 B(  0-C ,  6-H ) :   0.9298 B(  0-C ,  7-H ) :   0.9294
B(  0-C ,  8-H ) :   0.9326 B(  1-C ,  2-C ) :   0.9819 B(  1-C ,  9-H ) :   0.9207
B(  1-C , 10-H ) :   0.9179 B(  2-C ,  3-C ) :   0.9993 B(  2-C , 11-H ) :   0.9183
B(  2-C , 12-H ) :   0.9234 B(  3-C ,  4-C ) :   0.9819 B(  3-C , 13-H ) :   0.9234
B(  3-C , 14-H ) :   0.9183 B(  4-C ,  5-C ) :   0.9981 B(  4-C , 15-H ) :   0.9179
B(  4-C , 16-H ) :   0.9207 B(  5-C , 17-H ) :   0.9326 B(  5-C , 18-H ) :   0.9298
B(  5-C , 19-H ) :   0.9294

Dispersion correction           -0.008757691
FINAL SINGLE POINT ENERGY      -236.560807627523

DIPOLE MOMENT
-------------
                                X             Y             Z
Electronic contribution:      0.00000      -0.00000       0.43695
Nuclear contribution   :     -0.00000       0.00000      -0.44014
                        -----------------------------------------
Total Dipole Moment    :      0.00000      -0.00000      -0.00319
                        -----------------------------------------
Magnitude (a.u.)       :      0.00319
Magnitude (Debye)      :      0.00811

Rotational constants in cm-1:     0.341648     0.044102     0.041790
Rotational constants in MHz : 10242.345690  1322.157619  1252.832151

                             ****ORCA TERMINATED NORMALLY****
TOTAL RUN TIME: 0 days 0 hours 1 minutes 32 seconds 900 msec
