                         Program Version 5.0.3 -  RELEASE  -
|  1> ! PBEh-3c def2/J TightSCF DefGrid3
|  2>
|  3> %maxcore 60000
|  4>
|  5> %pal
|  6> nprocs 4
|  7> end
|  8>
|  9> *xyzfile 0 2 teme.xyz
| 10>
| 11>                          ****END OF INPUT****

CARTESIAN COORDINATES (ANGSTROEM)
---------------------------------
  Te    -1.885524   -0.363926    0.000000
  C      0.215054    0.025011    0.000000
  H      0.670201   -0.385556    0.897066
  H      0.670201   -0.385556   -0.897066
  H      0.330068    1.110027    0.000000

 Total Charge           Charge          ....    0
 Multiplicity           Mult            ....    2
 Number of Electrons    NEL             ....   33
 Basis Dimension        Dim             ....   47

ORBITAL ENERGIES
----------------
                 SPIN UP ORBITALS
  NO   OCC          E(Eh)            E(eV)
   0   1.0000     -10.464799      -284.7617
   1   1.0000      -6.502123      -176.9318
   2   1.0000      -4.598134      -125.1216
   3   1.0000      -4.591229      -124.9337
   4   1.0000      -4.577534      -124.5610
   5   1.0000      -1.705882       -46.4194
   6   1.0000      -1.704859       -46.3916
   7   1.0000      -1.692478       -46.0547
   8   1.0000      -1.688016       -45.9332
   9   1.0000      -1.685455       -45.8636
  10   1.0000      -0.811065       -22.0702
  11   1.0000      -0.655658       -17.8414
  12   1.0000      -0.487283       -13.2596
  13   1.0000      -0.485267       -13.2048
  14   1.0000      -0.370005       -10.0684
  15   1.0000      -0.294814        -8.0223
  16   1.0000      -0.255187        -6.9440
  17   0.0000       0.019211         0.5228
  18   0.0000       0.157601         4.2885
  19   0.0000       0.181007         4.9255
  20   0.0000       0.188466         5.1284
  21   0.0000       0.280227         7.6254

                 SPIN DOWN ORBITALS
  NO   OCC          E(Eh)            E(eV)
   0   1.0000     -10.465246      -284.7738
   1   1.0000      -6.497873      -176.8161
   2   1.0000      -4.589830      -124.8956
   3   1.0000      -4.588177      -124.8506
   4   1.0000      -4.576239      -124.5258
   5   1.0000      -1.699310       -46.2406
   6   1.0000      -1.698489       -46.2182
   7   1.0000      -1.686892       -45.9027
   8   1.0000      -1.686228       -45.8846
   9   1.0000      -1.682746       -45.7899
  10   1.0000      -0.805384       -21.9156
  11   1.0000      -0.618449       -16.8288
  12   1.0000      -0.484594       -13.1865
  13   1.0000      -0.480244       -13.0681
  14   1.0000      -0.361707        -9.8425
  15   1.0000      -0.241998        -6.5851
  16   0.0000      -0.117563        -3.1991
  17   0.0000       0.029604         0.8056
  18   0.0000       0.160562         4.3691
  19   0.0000       0.186626         5.0783
  20   0.0000       0.189882         5.1670

MULLIKEN ATOMIC CHARGES AND SPIN POPULATIONS
--------------------------------------------
   0 Te:    0.083303    1.016621
   1 C :   -0.864936   -0.044450
   2 H :    0.261771    0.004787
   3 H :    0.261771    0.004787
   4 H :    0.258091    0.018255
Sum of atomic charges         :   -0.0000000

LOEWDIN ATOMIC CHARGES AND SPIN POPULATIONS
-------------------------------------------
   0 Te:    0.087512    0.991905
   1 C :   -0.529028   -0.018904
   2 H :    0.144723    0.004327
   3 H :    0.144723    0.004327
   4 H :    0.152069    0.018345

  Mayer bond orders larger than 0.100000
B(  0-Te,  1-C ) :   1.0209 B(  1-C ,  2-H ) :   0.8978 B(  1-C ,  3-H ) :   0.8978
B(  1-C ,  4-H ) :   0.8976

Dispersion correction           -0.001336670
FINAL SINGLE POINT ENERGY      -307.848001541841

DIPOLE MOMENT
-------------
                                X             Y             Z
Electronic contribution:    -22.92578      -4.33603      -0.00000
Nuclear contribution   :     23.40340       4.44059       0.00000
                        -----------------------------------------
Total Dipole Moment    :      0.47762       0.10455      -0.00000
                        -----------------------------------------
Magnitude (a.u.)       :      0.48893
Magnitude (Debye)      :      1.24277

Rotational constants in cm-1:     5.264445     0.250108     0.249951
Rotational constants in MHz : 157824.098346  7498.056231  7493.331994

                             ****ORCA TERMINATED NORMALLY****
TOTAL RUN TIME: 0 days 0 hours 1 minutes 59 seconds 860 msec
