                         Program Version 5.0.3 -  RELEASE  -
|  1> ! PBEh-3c def2/J TightSCF DefGrid3
|  2>
|  3> %maxcore 60000
|  4>
|  5> %pal
|  6> nprocs 4
|  7> end
|  8>
|  9> *xyzfile 0 1 01.xyz
| 10>
| 11>                          ****END OF INPUT****

CARTESIAN COORDINATES (ANGSTROEM)
---------------------------------
  N     -1.578718   -0.046611    0.000000
  N      1.578718    0.046611    0.000000
  H     -2.158622    0.136396    0.809565
  H     -0.849471    0.658193    0.000000
  H     -2.158622    0.136396   -0.809565
  H      2.158622   -0.136396   -0.809565
  H      0.849471   -0.658193    0.000000
  H      2.158622   -0.136396    0.809565

 Total Charge           Charge          ....    0
 Multiplicity           Mult            ....    1
 Number of Electrons    NEL             ....   20
 Basis Dimension        Dim             ....   42

ORBITAL ENERGIES
----------------

  NO   OCC          E(Eh)            E(eV)
   0   2.0000     -14.590989      -397.0410
   1   2.0000     -14.590957      -397.0401
   2   2.0000      -0.932667       -25.3791
   3   2.0000      -0.925893       -25.1948
   4   2.0000      -0.518442       -14.1075
   5   2.0000      -0.506214       -13.7748
   6   2.0000      -0.504058       -13.7161
   7   2.0000      -0.487213       -13.2577
   8   2.0000      -0.305879        -8.3234
   9   2.0000      -0.303136        -8.2487
  10   0.0000       0.136420         3.7122
  11   0.0000       0.172138         4.6841
  12   0.0000       0.225789         6.1440
  13   0.0000       0.232729         6.3329
  14   0.0000       0.239150         6.5076

MULLIKEN ATOMIC CHARGES
-----------------------
   0 N :   -0.969254
   1 N :   -0.969254
   2 H :    0.313307
   3 H :    0.342640
   4 H :    0.313307
   5 H :    0.313307
   6 H :    0.342640
   7 H :    0.313307
Sum of atomic charges:   -0.0000000

LOEWDIN ATOMIC CHARGES
----------------------
   0 N :   -0.658549
   1 N :   -0.658549
   2 H :    0.215500
   3 H :    0.227549
   4 H :    0.215500
   5 H :    0.215500
   6 H :    0.227549
   7 H :    0.215500

  Mayer bond orders larger than 0.100000
B(  0-N ,  2-H ) :   0.8810 B(  0-N ,  3-H ) :   0.8442 B(  0-N ,  4-H ) :   0.8810
B(  1-N ,  5-H ) :   0.8810 B(  1-N ,  6-H ) :   0.8442 B(  1-N ,  7-H ) :   0.8810

Dispersion correction           -0.001485950
FINAL SINGLE POINT ENERGY      -112.863462169056

DIPOLE MOMENT
-------------
                                X             Y             Z
Electronic contribution:     -0.00000       0.00000      -0.00000
Nuclear contribution   :      0.00000       0.00000       0.00000
                        -----------------------------------------
Total Dipole Moment    :     -0.00000       0.00000      -0.00000
                        -----------------------------------------
Magnitude (a.u.)       :      0.00000
Magnitude (Debye)      :      0.00000

Rotational constants in cm-1:     4.617167     0.185101     0.181839
Rotational constants in MHz : 138419.193175  5549.203290  5451.393747

                             ****ORCA TERMINATED NORMALLY****
TOTAL RUN TIME: 0 days 0 hours 1 minutes 47 seconds 789 msec
