                         Program Version 5.0.3 -  RELEASE  -
|  1> ! PBEh-3c def2/J TightSCF DefGrid3
|  2>
|  3> %maxcore 60000
|  4>
|  5> %pal
|  6> nprocs 4
|  7> end
|  8>
|  9> *xyzfile 1 2 6e.xyz
| 10>
| 11>                          ****END OF INPUT****

CARTESIAN COORDINATES (ANGSTROEM)
---------------------------------
  C     -2.543265   -0.526590    0.493556
  C     -1.085826   -0.921626    0.379195
  O     -0.705382   -1.985403    0.754008
  C     -0.109103    0.093580   -0.250582
  C      1.343620   -0.088586    0.122127
  C      2.168649    0.984561   -0.574818
  H     -2.822007   -0.009771   -0.426086
  H     -2.589952    0.177872    1.331347
  H     -3.162914   -1.398349    0.687280
  H     -0.515621    1.076972    0.005163
  H     -0.299042   -0.073049   -1.323162
  H      1.679550   -1.087397   -0.167331
  H      1.462887   -0.006460    1.205420
  H      2.094804    0.908413   -1.661153
  H      3.218691    0.865418   -0.299039
  H      1.864911    1.990414   -0.275925

 Total Charge           Charge          ....    1
 Multiplicity           Mult            ....    2
 Number of Electrons    NEL             ....   47
 Basis Dimension        Dim             ....  110

ORBITAL ENERGIES
----------------
                 SPIN UP ORBITALS
  NO   OCC          E(Eh)            E(eV)
   0   1.0000     -19.870021      -540.6908
   1   1.0000     -10.824200      -294.5414
   2   1.0000     -10.690066      -290.8915
   3   1.0000     -10.685189      -290.7588
   4   1.0000     -10.619728      -288.9775
   5   1.0000     -10.577327      -287.8237
   6   1.0000      -1.522236       -41.4221
   7   1.0000      -1.127632       -30.6844
   8   1.0000      -1.071533       -29.1579
   9   1.0000      -0.983412       -26.7600
  10   1.0000      -0.884727       -24.0746
  11   1.0000      -0.853512       -23.2252
  12   1.0000      -0.833234       -22.6735
  13   1.0000      -0.798148       -21.7187
  14   1.0000      -0.774293       -21.0696
  15   1.0000      -0.719116       -19.5682
  16   1.0000      -0.692522       -18.8445
  17   1.0000      -0.689533       -18.7631
  18   1.0000      -0.656487       -17.8639
  19   1.0000      -0.647378       -17.6161
  20   1.0000      -0.629884       -17.1400
  21   1.0000      -0.578668       -15.7464
  22   1.0000      -0.564864       -15.3707
  23   1.0000      -0.554630       -15.0923
  24   0.0000      -0.246133        -6.6976
  25   0.0000      -0.065273        -1.7762
  26   0.0000      -0.031282        -0.8512
  27   0.0000      -0.013011        -0.3540
  28   0.0000      -0.010806        -0.2940

                 SPIN DOWN ORBITALS
  NO   OCC          E(Eh)            E(eV)
   0   1.0000     -19.846012      -540.0375
   1   1.0000     -10.825701      -294.5823
   2   1.0000     -10.686647      -290.7985
   3   1.0000     -10.681808      -290.6668
   4   1.0000     -10.619737      -288.9777
   5   1.0000     -10.577086      -287.8172
   6   1.0000      -1.471217       -40.0339
   7   1.0000      -1.111285       -30.2396
   8   1.0000      -1.059141       -28.8207
   9   1.0000      -0.972352       -26.4590
  10   1.0000      -0.863388       -23.4940
  11   1.0000      -0.845909       -23.0184
  12   1.0000      -0.786283       -21.3958
  13   1.0000      -0.762607       -20.7516
  14   1.0000      -0.750627       -20.4256
  15   1.0000      -0.712756       -19.3951
  16   1.0000      -0.683667       -18.6035
  17   1.0000      -0.680313       -18.5123
  18   1.0000      -0.652874       -17.7656
  19   1.0000      -0.628403       -17.0997
  20   1.0000      -0.582634       -15.8543
  21   1.0000      -0.565571       -15.3900
  22   1.0000      -0.554759       -15.0958
  23   0.0000      -0.389311       -10.5937
  24   0.0000      -0.241115        -6.5611
  25   0.0000      -0.062417        -1.6985
  26   0.0000      -0.027638        -0.7521
  27   0.0000      -0.009959        -0.2710

MULLIKEN ATOMIC CHARGES AND SPIN POPULATIONS
--------------------------------------------
   0 C :   -0.717434    0.149533
   1 C :    0.407907   -0.101809
   2 O :    0.012514    0.774162
   3 C :   -0.536734    0.172543
   4 C :   -0.451055    0.003458
   5 C :   -0.652422    0.006684
   6 H :    0.318937   -0.000710
   7 H :    0.330543   -0.004167
   8 H :    0.334241   -0.003430
   9 H :    0.316167   -0.000905
  10 H :    0.334698   -0.002680
  11 H :    0.267797   -0.000521
  12 H :    0.268791    0.001400
  13 H :    0.242606   -0.000413
  14 H :    0.282151    0.006387
  15 H :    0.241292    0.000468
Sum of atomic charges         :    1.0000000

LOEWDIN ATOMIC CHARGES AND SPIN POPULATIONS
-------------------------------------------
   0 C :   -0.318103    0.125440
   1 C :    0.193342   -0.004140
   2 O :    0.202039    0.724833
   3 C :   -0.208605    0.140858
   4 C :   -0.246701    0.004015
   5 C :   -0.352391    0.008202
   6 H :    0.196494   -0.000123
   7 H :    0.207891   -0.002994
   8 H :    0.193153   -0.002914
   9 H :    0.182426    0.000259
  10 H :    0.200387   -0.001198
  11 H :    0.150713   -0.000143
  12 H :    0.151403    0.001367
  13 H :    0.142425   -0.000306
  14 H :    0.163114    0.006161
  15 H :    0.142412    0.000683

  Mayer bond orders larger than 0.100000
B(  0-C ,  1-C ) :   0.8824 B(  0-C ,  6-H ) :   0.8627 B(  0-C ,  7-H ) :   0.8440
B(  0-C ,  8-H ) :   0.8699 B(  1-C ,  2-O ) :   1.8996 B(  1-C ,  3-C ) :   0.8220
B(  3-C ,  4-C ) :   0.9387 B(  3-C ,  9-H ) :   0.8619 B(  3-C , 10-H ) :   0.8292
B(  4-C ,  5-C ) :   0.9783 B(  4-C , 11-H ) :   0.8959 B(  4-C , 12-H ) :   0.8969
B(  5-C , 13-H ) :   0.9142 B(  5-C , 14-H ) :   0.9003 B(  5-C , 15-H ) :   0.9133

Dispersion correction           -0.006692812
FINAL SINGLE POINT ENERGY      -270.849040223717

DIPOLE MOMENT
-------------
                                X             Y             Z
Electronic contribution:     -3.72945      -5.83738       2.28647
Nuclear contribution   :      2.28807       6.06108      -2.29178
                        -----------------------------------------
Total Dipole Moment    :     -1.44138       0.22371      -0.00531
                        -----------------------------------------
Magnitude (a.u.)       :      1.45865
Magnitude (Debye)      :      3.70759

Rotational constants in cm-1:     0.278591     0.059863     0.051614
Rotational constants in MHz :  8351.940105  1794.658952  1547.350426

                             ****ORCA TERMINATED NORMALLY****
TOTAL RUN TIME: 0 days 0 hours 3 minutes 29 seconds 11 msec
