                         Program Version 5.0.3 -  RELEASE  -
|  1> ! PBEh-3c def2/J TightSCF DefGrid3
|  2>
|  3> %maxcore 60000
|  4>
|  5> %pal
|  6> nprocs 4
|  7> end
|  8>
|  9> *xyzfile 0 1 lif.xyz
| 10>
| 11>                          ****END OF INPUT****

CARTESIAN COORDINATES (ANGSTROEM)
---------------------------------
  Li     0.000000    0.000000    0.782465
  F      0.000000    0.000000   -0.782465

 Total Charge           Charge          ....    0
 Multiplicity           Mult            ....    1
 Number of Electrons    NEL             ....   12
 Basis Dimension        Dim             ....   24

ORBITAL ENERGIES
----------------

  NO   OCC          E(Eh)            E(eV)
   0   2.0000     -24.899507      -677.5500
   1   2.0000      -2.092461       -56.9388
   2   2.0000      -1.085196       -29.5297
   3   2.0000      -0.333204        -9.0669
   4   2.0000      -0.315065        -8.5734
   5   2.0000      -0.315065        -8.5733
   6   0.0000      -0.025881        -0.7043
   7   0.0000       0.073975         2.0130
   8   0.0000       0.096006         2.6124
   9   0.0000       0.096006         2.6125
  10   0.0000       0.206319         5.6142

MULLIKEN ATOMIC CHARGES
-----------------------
   0 Li:    0.656756
   1 F :   -0.656756
Sum of atomic charges:   -0.0000000

LOEWDIN ATOMIC CHARGES
----------------------
   0 Li:    0.497886
   1 F :   -0.497886

  Mayer bond orders larger than 0.100000
B(  0-Li,  1-F ) :   0.6675

Dispersion correction           -0.000106136
FINAL SINGLE POINT ENERGY      -107.196577584676

DIPOLE MOMENT
-------------
                                X             Y             Z
Electronic contribution:     -0.00000      -0.00000       2.87094
Nuclear contribution   :      0.00000       0.00000      -0.62420
                        -----------------------------------------
Total Dipole Moment    :     -0.00000      -0.00000       2.24674
                        -----------------------------------------
Magnitude (a.u.)       :      2.24674
Magnitude (Debye)      :      5.71076

Rotational constants in cm-1:     0.000000     1.354037     1.354037
Rotational constants in MHz :     0.000000 40593.003303 40593.003303

                             ****ORCA TERMINATED NORMALLY****
TOTAL RUN TIME: 0 days 0 hours 0 minutes 15 seconds 529 msec
