                         Program Version 5.0.3 -  RELEASE  -
|  1> ! PBEh-3c def2/J TightSCF DefGrid3
|  2>
|  3> %maxcore 60000
|  4>
|  5> %pal
|  6> nprocs 4
|  7> end
|  8>
|  9> *xyzfile 0 1 P4.xyz
| 10>
| 11>                          ****END OF INPUT****

CARTESIAN COORDINATES (ANGSTROEM)
---------------------------------
  C      0.000000   -1.590034   -0.403175
  C      0.000000   -0.666635    0.779220
  C      0.000000    0.666635    0.779220
  C      0.000000    1.590034   -0.403175
  H      0.000000   -1.061800   -1.356553
  H     -0.877487   -2.244592   -0.383212
  H      0.877487   -2.244592   -0.383212
  H      0.000000   -1.163074    1.746932
  H      0.000000    1.163074    1.746932
  H      0.000000    1.061800   -1.356553
  H     -0.877487    2.244592   -0.383212
  H      0.877487    2.244592   -0.383212

 Total Charge           Charge          ....    0
 Multiplicity           Mult            ....    1
 Number of Electrons    NEL             ....   32
 Basis Dimension        Dim             ....   76

ORBITAL ENERGIES
----------------

  NO   OCC          E(Eh)            E(eV)
   0   2.0000     -10.437257      -284.0122
   1   2.0000     -10.436329      -283.9870
   2   2.0000     -10.428688      -283.7790
   3   2.0000     -10.428653      -283.7781
   4   2.0000      -0.886252       -24.1161
   5   2.0000      -0.806036       -21.9334
   6   2.0000      -0.733269       -19.9533
   7   2.0000      -0.590748       -16.0751
   8   2.0000      -0.538578       -14.6555
   9   2.0000      -0.471253       -12.8234
  10   2.0000      -0.469325       -12.7710
  11   2.0000      -0.453728       -12.3466
  12   2.0000      -0.437301       -11.8996
  13   2.0000      -0.413486       -11.2515
  14   2.0000      -0.380289       -10.3482
  15   2.0000      -0.281967        -7.6727
  16   0.0000       0.060971         1.6591
  17   0.0000       0.150754         4.1022
  18   0.0000       0.169595         4.6149
  19   0.0000       0.197202         5.3661
  20   0.0000       0.205777         5.5995

MULLIKEN ATOMIC CHARGES
-----------------------
   0 C :   -0.692128
   1 C :   -0.186143
   2 C :   -0.186143
   3 C :   -0.692128
   4 H :    0.220842
   5 H :    0.225147
   6 H :    0.225147
   7 H :    0.207135
   8 H :    0.207135
   9 H :    0.220842
  10 H :    0.225147
  11 H :    0.225147
Sum of atomic charges:    0.0000000

LOEWDIN ATOMIC CHARGES
----------------------
   0 C :   -0.362719
   1 C :   -0.164006
   2 C :   -0.164006
   3 C :   -0.362719
   4 H :    0.128650
   5 H :    0.134979
   6 H :    0.134979
   7 H :    0.128117
   8 H :    0.128117
   9 H :    0.128650
  10 H :    0.134979
  11 H :    0.134979

  Mayer bond orders larger than 0.100000
B(  0-C ,  1-C ) :   0.9944 B(  0-C ,  4-H ) :   0.9251 B(  0-C ,  5-H ) :   0.9175
B(  0-C ,  6-H ) :   0.9175 B(  1-C ,  2-C ) :   1.9230 B(  1-C ,  7-H ) :   0.9212
B(  2-C ,  3-C ) :   0.9944 B(  2-C ,  8-H ) :   0.9212 B(  3-C ,  9-H ) :   0.9251
B(  3-C , 10-H ) :   0.9175 B(  3-C , 11-H ) :   0.9175

Dispersion correction           -0.004296638
FINAL SINGLE POINT ENERGY      -156.871507610728

DIPOLE MOMENT
-------------
                                X             Y             Z
Electronic contribution:     -0.00000       0.00000       1.73801
Nuclear contribution   :      0.00000      -0.00000      -1.81255
                        -----------------------------------------
Total Dipole Moment    :     -0.00000       0.00000      -0.07454
                        -----------------------------------------
Magnitude (a.u.)       :      0.07454
Magnitude (Debye)      :      0.18946

Rotational constants in cm-1:     0.546811     0.168869     0.135461
Rotational constants in MHz : 16392.979887  5062.569491  4061.016395

                             ****ORCA TERMINATED NORMALLY****
TOTAL RUN TIME: 0 days 0 hours 0 minutes 53 seconds 187 msec
