                         Program Version 5.0.3 -  RELEASE  -
|  1> ! PBEh-3c def2/J TightSCF DefGrid3
|  2>
|  3> %maxcore 60000
|  4>
|  5> %pal
|  6> nprocs 4
|  7> end
|  8>
|  9> *xyzfile 0 2 n2h.xyz
| 10>
| 11>                          ****END OF INPUT****

CARTESIAN COORDINATES (ANGSTROEM)
---------------------------------
  H     -1.103742   -0.804886    0.000000
  N     -0.547160    0.085383    0.000000
  N      0.626583   -0.027465    0.000000

 Total Charge           Charge          ....    0
 Multiplicity           Mult            ....    2
 Number of Electrons    NEL             ....   15
 Basis Dimension        Dim             ....   32

ORBITAL ENERGIES
----------------
                 SPIN UP ORBITALS
  NO   OCC          E(Eh)            E(eV)
   0   1.0000     -14.717698      -400.4889
   1   1.0000     -14.715310      -400.4239
   2   1.0000      -1.180148       -32.1135
   3   1.0000      -0.753542       -20.5049
   4   1.0000      -0.558755       -15.2045
   5   1.0000      -0.485184       -13.2025
   6   1.0000      -0.476587       -12.9686
   7   1.0000      -0.269206        -7.3255
   8   0.0000      -0.004086        -0.1112
   9   0.0000       0.130956         3.5635
  10   0.0000       0.413942        11.2639
  11   0.0000       0.692750        18.8507
  12   0.0000       0.720254        19.5991

                 SPIN DOWN ORBITALS
  NO   OCC          E(Eh)            E(eV)
   0   1.0000     -14.714478      -400.4013
   1   1.0000     -14.696170      -399.9031
   2   1.0000      -1.156329       -31.4653
   3   1.0000      -0.717745       -19.5308
   4   1.0000      -0.497379       -13.5344
   5   1.0000      -0.466794       -12.7021
   6   1.0000      -0.435992       -11.8640
   7   0.0000      -0.016658        -0.4533
   8   0.0000       0.012702         0.3456
   9   0.0000       0.153135         4.1670
  10   0.0000       0.430036        11.7019
  11   0.0000       0.700490        19.0613

MULLIKEN ATOMIC CHARGES AND SPIN POPULATIONS
--------------------------------------------
   0 H :    0.333219    0.147160
   1 N :   -0.277355    0.060146
   2 N :   -0.055864    0.792694
Sum of atomic charges         :    0.0000000

LOEWDIN ATOMIC CHARGES AND SPIN POPULATIONS
-------------------------------------------
   0 H :    0.222015    0.118523
   1 N :   -0.168601    0.139111
   2 N :   -0.053415    0.742366

  Mayer bond orders larger than 0.100000
B(  0-H ,  1-N ) :   0.7755 B(  1-N ,  2-N ) :   2.3210

Dispersion correction           -0.000429093
FINAL SINGLE POINT ENERGY      -109.783519584521

DIPOLE MOMENT
-------------
                                X             Y             Z
Electronic contribution:      0.48183       0.20221       0.00000
Nuclear contribution   :     -1.03506      -0.75480       0.00000
                        -----------------------------------------
Total Dipole Moment    :     -0.55323      -0.55260       0.00000
                        -----------------------------------------
Magnitude (a.u.)       :      0.78194
Magnitude (Debye)      :      1.98753

Rotational constants in cm-1:    22.015859     1.543642     1.442501
Rotational constants in MHz : 660018.848707 46277.223597 43245.093719

                             ****ORCA TERMINATED NORMALLY****
TOTAL RUN TIME: 0 days 0 hours 1 minutes 8 seconds 51 msec
