                         Program Version 5.0.3 -  RELEASE  -
|  1> ! PBEh-3c def2/J TightSCF DefGrid3
|  2>
|  3> %maxcore 60000
|  4>
|  5> %pal
|  6> nprocs 4
|  7> end
|  8>
|  9> *xyzfile 0 1 9b.xyz
| 10>
| 11>                          ****END OF INPUT****

CARTESIAN COORDINATES (ANGSTROEM)
---------------------------------
  C     -0.349127    0.207459    0.000000
  S     -1.164428   -1.184174    0.000000
  O      0.978489    0.342425    0.000000
  H     -0.818660    1.185372    0.000000
  H      1.353726   -0.551082    0.000000

 Total Charge           Charge          ....    0
 Multiplicity           Mult            ....    1
 Number of Electrons    NEL             ....   32
 Basis Dimension        Dim             ....   52

ORBITAL ENERGIES
----------------

  NO   OCC          E(Eh)            E(eV)
   0   2.0000     -89.566520     -2437.2289
   1   2.0000     -19.571893      -532.5783
   2   2.0000     -10.576580      -287.8034
   3   2.0000      -8.208425      -223.3626
   4   2.0000      -6.098559      -165.9502
   5   2.0000      -6.096703      -165.8997
   6   2.0000      -6.090966      -165.7436
   7   2.0000      -1.221924       -33.2503
   8   2.0000      -0.872385       -23.7388
   9   2.0000      -0.733213       -19.9517
  10   2.0000      -0.576150       -15.6778
  11   2.0000      -0.547331       -14.8936
  12   2.0000      -0.499912       -13.6033
  13   2.0000      -0.428580       -11.6623
  14   2.0000      -0.324291        -8.8244
  15   2.0000      -0.288352        -7.8465
  16   0.0000      -0.032985        -0.8976
  17   0.0000       0.108084         2.9411
  18   0.0000       0.153541         4.1781
  19   0.0000       0.205150         5.5824
  20   0.0000       0.273373         7.4389

MULLIKEN ATOMIC CHARGES
-----------------------
   0 C :   -0.042436
   1 S :   -0.153313
   2 O :   -0.508942
   3 H :    0.258188
   4 H :    0.446503
Sum of atomic charges:    0.0000000

LOEWDIN ATOMIC CHARGES
----------------------
   0 C :   -0.126943
   1 S :   -0.060236
   2 O :   -0.275545
   3 H :    0.130517
   4 H :    0.332207

  Mayer bond orders larger than 0.100000
B(  0-C ,  1-S ) :   1.8299 B(  0-C ,  2-O ) :   1.2068 B(  0-C ,  3-H ) :   0.8602
B(  1-S ,  2-O ) :   0.1264 B(  2-O ,  4-H ) :   0.7481

Dispersion correction           -0.001436657
FINAL SINGLE POINT ENERGY      -512.012156750424

DIPOLE MOMENT
-------------
                                X             Y             Z
Electronic contribution:     -0.78462      -1.23870      -0.00000
Nuclear contribution   :      1.30993       1.51489       0.00000
                        -----------------------------------------
Total Dipole Moment    :      0.52531       0.27619      -0.00000
                        -----------------------------------------
Magnitude (a.u.)       :      0.59349
Magnitude (Debye)      :      1.50854

Rotational constants in cm-1:     2.167218     0.211105     0.192367
Rotational constants in MHz : 64971.562895  6328.773237  5767.017531

                             ****ORCA TERMINATED NORMALLY****
TOTAL RUN TIME: 0 days 0 hours 1 minutes 10 seconds 949 msec
