                         Program Version 5.0.3 -  RELEASE  -
|  1> ! PBEh-3c def2/J TightSCF DefGrid3
|  2>
|  3> %maxcore 60000
|  4>
|  5> %pal
|  6> nprocs 4
|  7> end
|  8>
|  9> *xyzfile 0 1 3.xyz
| 10>
| 11>                          ****END OF INPUT****

CARTESIAN COORDINATES (ANGSTROEM)
---------------------------------
  N      0.133671    3.219427    0.345463
  C     -1.133804    2.951209   -0.130310
  C     -1.200463    1.658071   -0.599700
  C      0.109772    1.098190   -0.409593
  C      0.663989   -0.156917   -0.701587
  C      1.993242   -0.395147   -0.376317
  C      2.787576    0.608822    0.223113
  C      2.258150    1.864926    0.502112
  C      0.919816    2.099894    0.183507
  H      0.443265    4.104826    0.701268
  H     -1.898799    3.710895   -0.104010
  H      0.088205   -0.937840   -1.180219
  H      3.820242    0.416859    0.470025
  H      2.878104    2.628116    0.954770
  O      2.455584   -1.654887   -0.668812
  C      3.818792   -1.922434   -0.387309
  H      4.033062   -1.832800    0.680055
  H      4.479992   -1.256822   -0.946429
  H      3.991334   -2.947232   -0.702196
  C     -2.403045    0.941934   -1.133587
  C     -3.191395    0.216021   -0.030703
  N     -2.383815   -0.708977    0.746565
  C     -2.045927   -1.936607    0.253904
  C     -1.060055   -2.723557    1.092855
  H     -2.098641    0.207771   -1.880747
  H     -3.076863    1.645980   -1.627823
  H     -4.006550   -0.352606   -0.475376
  H     -3.613124    0.946414    0.660621
  H     -1.817044   -0.333271    1.486484
  O     -2.510181   -2.373617   -0.791469
  H     -0.955705   -2.328035    2.101819
  H     -0.085910   -2.701173    0.604340
  H     -1.393477   -3.757433    1.139296

 Total Charge           Charge          ....    0
 Multiplicity           Mult            ....    1
 Number of Electrons    NEL             ....  124
 Basis Dimension        Dim             ....  287

ORBITAL ENERGIES
----------------

  NO   OCC          E(Eh)            E(eV)
   0   2.0000     -19.519665      -531.1571
   1   2.0000     -19.442232      -529.0500
   2   2.0000     -14.684966      -399.5982
   3   2.0000     -14.647905      -398.5898
   4   2.0000     -10.534646      -286.6623
   5   2.0000     -10.500698      -285.7385
   6   2.0000     -10.487432      -285.3775
   7   2.0000     -10.479934      -285.1735
   8   2.0000     -10.477883      -285.1177
   9   2.0000     -10.466627      -284.8114
  10   2.0000     -10.454351      -284.4773
  11   2.0000     -10.446222      -284.2562
  12   2.0000     -10.445662      -284.2409
  13   2.0000     -10.440541      -284.1016
  14   2.0000     -10.437087      -284.0076
  15   2.0000     -10.436657      -283.9959
  16   2.0000     -10.427567      -283.7485
  17   2.0000      -1.166750       -31.7489
  18   2.0000      -1.127489       -30.6805
  19   2.0000      -1.086927       -29.5768
  20   2.0000      -1.009904       -27.4809
  21   2.0000      -0.938332       -25.5333
  22   2.0000      -0.895739       -24.3743
  23   2.0000      -0.847712       -23.0674
  24   2.0000      -0.835834       -22.7442
  25   2.0000      -0.814010       -22.1503
  26   2.0000      -0.793420       -21.5900
  27   2.0000      -0.771898       -21.0044
  28   2.0000      -0.719147       -19.5690
  29   2.0000      -0.702539       -19.1170
  30   2.0000      -0.664444       -18.0805
  31   2.0000      -0.645729       -17.5712
  32   2.0000      -0.625673       -17.0254
  33   2.0000      -0.608706       -16.5637
  34   2.0000      -0.576261       -15.6808
  35   2.0000      -0.562561       -15.3081
  36   2.0000      -0.556646       -15.1471
  37   2.0000      -0.530458       -14.4345
  38   2.0000      -0.529577       -14.4105
  39   2.0000      -0.523210       -14.2373
  40   2.0000      -0.506959       -13.7951
  41   2.0000      -0.496112       -13.4999
  42   2.0000      -0.491775       -13.3819
  43   2.0000      -0.487161       -13.2563
  44   2.0000      -0.476589       -12.9686
  45   2.0000      -0.465318       -12.6620
  46   2.0000      -0.456537       -12.4230
  47   2.0000      -0.448898       -12.2151
  48   2.0000      -0.446579       -12.1520
  49   2.0000      -0.440128       -11.9765
  50   2.0000      -0.430593       -11.7170
  51   2.0000      -0.415591       -11.3088
  52   2.0000      -0.400790       -10.9060
  53   2.0000      -0.398195       -10.8354
  54   2.0000      -0.391632       -10.6569
  55   2.0000      -0.377063       -10.2604
  56   2.0000      -0.352988        -9.6053
  57   2.0000      -0.319666        -8.6986
  58   2.0000      -0.299108        -8.1391
  59   2.0000      -0.289604        -7.8805
  60   2.0000      -0.248906        -6.7731
  61   2.0000      -0.233531        -6.3547
  62   0.0000       0.002765         0.0752
  63   0.0000       0.057977         1.5776
  64   0.0000       0.073046         1.9877
  65   0.0000       0.090303         2.4573
  66   0.0000       0.123650         3.3647

MULLIKEN ATOMIC CHARGES
-----------------------
   0 N :   -0.703037
   1 C :   -0.055499
   2 C :    0.011220
   3 C :    0.063252
   4 C :   -0.459947
   5 C :    0.398055
   6 C :   -0.362548
   7 C :   -0.259717
   8 C :    0.359779
   9 H :    0.357261
  10 H :    0.237617
  11 H :    0.250944
  12 H :    0.230903
  13 H :    0.213641
  14 O :   -0.471218
  15 C :   -0.404460
  16 H :    0.201188
  17 H :    0.205527
  18 H :    0.241310
  19 C :   -0.538808
  20 C :   -0.275171
  21 N :   -0.615356
  22 C :    0.510373
  23 C :   -0.754354
  24 H :    0.259284
  25 H :    0.226232
  26 H :    0.254514
  27 H :    0.215373
  28 H :    0.361817
  29 O :   -0.434509
  30 H :    0.210590
  31 H :    0.269304
  32 H :    0.256439
Sum of atomic charges:   -0.0000000

LOEWDIN ATOMIC CHARGES
----------------------
   0 N :   -0.162939
   1 C :   -0.082942
   2 C :   -0.108708
   3 C :   -0.053512
   4 C :   -0.162137
   5 C :    0.055636
   6 C :   -0.193091
   7 C :   -0.151265
   8 C :    0.003564
   9 H :    0.260799
  10 H :    0.134499
  11 H :    0.154671
  12 H :    0.140027
  13 H :    0.136211
  14 O :   -0.195371
  15 C :   -0.180633
  16 H :    0.110593
  17 H :    0.112996
  18 H :    0.130987
  19 C :   -0.236878
  20 C :   -0.142160
  21 N :   -0.241166
  22 C :    0.103970
  23 C :   -0.391976
  24 H :    0.147851
  25 H :    0.135222
  26 H :    0.141896
  27 H :    0.120786
  28 H :    0.256601
  29 O :   -0.285283
  30 H :    0.127694
  31 H :    0.160530
  32 H :    0.153526

  Mayer bond orders larger than 0.100000
B(  0-N ,  1-C ) :   1.1319 B(  0-N ,  8-C ) :   1.0036 B(  0-N ,  9-H ) :   0.8343
B(  1-C ,  2-C ) :   1.5606 B(  1-C , 10-H ) :   0.9123 B(  2-C ,  3-C ) :   1.2420
B(  2-C , 19-C ) :   0.9492 B(  3-C ,  4-C ) :   1.3009 B(  3-C ,  8-C ) :   1.2277
B(  4-C ,  5-C ) :   1.4334 B(  4-C ,  7-C ) :   0.1011 B(  4-C , 11-H ) :   0.9013
B(  5-C ,  6-C ) :   1.2830 B(  5-C , 14-O ) :   1.0073 B(  6-C ,  7-C ) :   1.4735
B(  6-C , 12-H ) :   0.9057 B(  7-C ,  8-C ) :   1.3154 B(  7-C , 13-H ) :   0.9207
B( 14-O , 15-C ) :   0.9579 B( 15-C , 16-H ) :   0.9081 B( 15-C , 17-H ) :   0.9076
B( 15-C , 18-H ) :   0.9230 B( 19-C , 20-C ) :   0.9591 B( 19-C , 24-H ) :   0.9066
B( 19-C , 25-H ) :   0.9238 B( 20-C , 21-N ) :   0.9591 B( 20-C , 26-H ) :   0.9015
B( 20-C , 27-H ) :   0.9225 B( 21-N , 22-C ) :   1.1369 B( 21-N , 28-H ) :   0.8218
B( 22-C , 23-C ) :   0.9341 B( 22-C , 29-O ) :   1.9765 B( 23-C , 30-H ) :   0.9226
B( 23-C , 31-H ) :   0.8951 B( 23-C , 32-H ) :   0.9130

Dispersion correction           -0.022650237
FINAL SINGLE POINT ENERGY      -763.329946489751

DIPOLE MOMENT
-------------
                                X             Y             Z
Electronic contribution:     -0.61110       5.65681      -1.94039
Nuclear contribution   :      1.59319      -3.93010       3.32778
                        -----------------------------------------
Total Dipole Moment    :      0.98209       1.72671       1.38739
                        -----------------------------------------
Magnitude (a.u.)       :      2.42299
Magnitude (Debye)      :      6.15875

Rotational constants in cm-1:     0.018634     0.014250     0.008881
Rotational constants in MHz :   558.629822   427.194900   266.249762

                             ****ORCA TERMINATED NORMALLY****
TOTAL RUN TIME: 0 days 0 hours 4 minutes 46 seconds 398 msec
