                         Program Version 5.0.3 -  RELEASE  -
|  1> ! PBEh-3c def2/J TightSCF DefGrid3
|  2>
|  3> %maxcore 60000
|  4>
|  5> %pal
|  6> nprocs 4
|  7> end
|  8>
|  9> *xyzfile 0 1 nh2-bh2.xyz
| 10>
| 11>                          ****END OF INPUT****

CARTESIAN COORDINATES (ANGSTROEM)
---------------------------------
  N      0.000000    0.000000    0.609505
  B      0.000000    0.000000   -0.775408
  H      0.000000    0.840593    1.160422
  H      0.000000   -0.840593    1.160422
  H      0.000000    1.046345   -1.355171
  H      0.000000   -1.046345   -1.355171

 Total Charge           Charge          ....    0
 Multiplicity           Mult            ....    1
 Number of Electrons    NEL             ....   16
 Basis Dimension        Dim             ....   38

ORBITAL ENERGIES
----------------

  NO   OCC          E(Eh)            E(eV)
   0   2.0000     -14.634978      -398.2380
   1   2.0000      -6.943268      -188.9359
   2   2.0000      -0.963690       -26.2233
   3   2.0000      -0.590613       -16.0714
   4   2.0000      -0.575957       -15.6726
   5   2.0000      -0.443245       -12.0613
   6   2.0000      -0.364356        -9.9146
   7   2.0000      -0.350599        -9.5403
   8   0.0000       0.045142         1.2284
   9   0.0000       0.128508         3.4969
  10   0.0000       0.179490         4.8842
  11   0.0000       0.233318         6.3489
  12   0.0000       0.250582         6.8187

MULLIKEN ATOMIC CHARGES
-----------------------
   0 N :   -0.712879
   1 B :   -0.025105
   2 H :    0.355308
   3 H :    0.355308
   4 H :    0.013684
   5 H :    0.013684
Sum of atomic charges:    0.0000000

LOEWDIN ATOMIC CHARGES
----------------------
   0 N :   -0.365194
   1 B :   -0.126813
   2 H :    0.248946
   3 H :    0.248946
   4 H :   -0.002942
   5 H :   -0.002942

  Mayer bond orders larger than 0.100000
B(  0-N ,  1-B ) :   1.4597 B(  0-N ,  2-H ) :   0.8367 B(  0-N ,  3-H ) :   0.8367
B(  1-B ,  4-H ) :   0.9854 B(  1-B ,  5-H ) :   0.9854

Dispersion correction           -0.001185983
FINAL SINGLE POINT ENERGY       -81.848601816546

DIPOLE MOMENT
-------------
                                X             Y             Z
Electronic contribution:      0.00000       0.00000       0.59569
Nuclear contribution   :      0.00000       0.00000       0.24884
                        -----------------------------------------
Total Dipole Moment    :      0.00000       0.00000       0.84454
                        -----------------------------------------
Magnitude (a.u.)       :      0.84454
Magnitude (Debye)      :      2.14664

Rotational constants in cm-1:     4.641817     0.930423     0.775066
Rotational constants in MHz : 139158.168171 27893.391935 23235.899882

                             ****ORCA TERMINATED NORMALLY****
TOTAL RUN TIME: 0 days 0 hours 0 minutes 38 seconds 605 msec
