                         Program Version 5.0.3 -  RELEASE  -
|  1> ! PBEh-3c def2/J TightSCF DefGrid3
|  2>
|  3> %maxcore 60000
|  4>
|  5> %pal
|  6> nprocs 4
|  7> end
|  8>
|  9> *xyzfile 1 1 228A.xyz
| 10>
| 11>                          ****END OF INPUT****

CARTESIAN COORDINATES (ANGSTROEM)
---------------------------------
  C     -0.125010    1.397210    1.913740
  C      0.007990   -0.032420    1.379390
  N      0.028150   -0.049020   -0.151600
  H      0.986570   -0.049470   -0.531580
  H     -0.454840   -0.886040   -0.510630
  H     -0.451490    0.780830   -0.532050
  H     -0.834510   -0.668930    1.720700
  H      0.928130   -0.508880    1.709570
  H     -0.029120    1.368280    3.002980
  H      0.676250    2.066300    1.462180
  H     -1.110490    1.847370    1.695510

 Total Charge           Charge          ....    1
 Multiplicity           Mult            ....    1
 Number of Electrons    NEL             ....   26
 Basis Dimension        Dim             ....   61

ORBITAL ENERGIES
----------------

  NO   OCC          E(Eh)            E(eV)
   0   2.0000     -14.972395      -407.4196
   1   2.0000     -10.701712      -291.2084
   2   2.0000     -10.623850      -289.0897
   3   2.0000      -1.308135       -35.5962
   4   2.0000      -1.047864       -28.5138
   5   2.0000      -0.913431       -24.8557
   6   2.0000      -0.859936       -23.4000
   7   2.0000      -0.848296       -23.0833
   8   2.0000      -0.753988       -20.5171
   9   2.0000      -0.696223       -18.9452
  10   2.0000      -0.635673       -17.2975
  11   2.0000      -0.621031       -16.8991
  12   2.0000      -0.593924       -16.1615
  13   0.0000      -0.125933        -3.4268
  14   0.0000      -0.072240        -1.9657
  15   0.0000      -0.067222        -1.8292
  16   0.0000      -0.045583        -1.2404
  17   0.0000       0.002727         0.0742

MULLIKEN ATOMIC CHARGES
-----------------------
   0 C :   -0.673814
   1 C :   -0.334558
   2 N :   -0.797941
   3 H :    0.460020
   4 H :    0.461434
   5 H :    0.459278
   6 H :    0.305221
   7 H :    0.307726
   8 H :    0.305679
   9 H :    0.244700
  10 H :    0.262255
Sum of atomic charges:    1.0000000

LOEWDIN ATOMIC CHARGES
----------------------
   0 C :   -0.372383
   1 C :   -0.147723
   2 N :   -0.224735
   3 H :    0.312674
   4 H :    0.313085
   5 H :    0.310488
   6 H :    0.165267
   7 H :    0.163890
   8 H :    0.178222
   9 H :    0.148771
  10 H :    0.152443

  Mayer bond orders larger than 0.100000
B(  0-C ,  1-C ) :   0.9739 B(  0-C ,  8-H ) :   0.8891 B(  0-C ,  9-H ) :   0.9111
B(  0-C , 10-H ) :   0.9013 B(  1-C ,  2-N ) :   0.7838 B(  1-C ,  6-H ) :   0.8849
B(  1-C ,  7-H ) :   0.8817 B(  2-N ,  3-H ) :   0.7737 B(  2-N ,  4-H ) :   0.7735
B(  2-N ,  5-H ) :   0.7692

Dispersion correction           -0.003493878
FINAL SINGLE POINT ENERGY      -135.234043646301

DIPOLE MOMENT
-------------
                                X             Y             Z
Electronic contribution:      0.12090      -1.16707      -1.54176
Nuclear contribution   :     -0.05911       0.49701       0.10412
                        -----------------------------------------
Total Dipole Moment    :      0.06178      -0.67006      -1.43764
                        -----------------------------------------
Magnitude (a.u.)       :      1.58733
Magnitude (Debye)      :      4.03467

Rotational constants in cm-1:     0.965810     0.272063     0.240165
Rotational constants in MHz : 28954.249730  8156.231038  7199.970822

                             ****ORCA TERMINATED NORMALLY****
TOTAL RUN TIME: 0 days 0 hours 0 minutes 57 seconds 920 msec
