                         Program Version 5.0.3 -  RELEASE  -
|  1> ! PBEh-3c def2/J TightSCF DefGrid3
|  2>
|  3> %maxcore 60000
|  4>
|  5> %pal
|  6> nprocs 4
|  7> end
|  8>
|  9> *xyzfile 0 1 dimethylbutane.xyz
| 10>
| 11>                          ****END OF INPUT****

CARTESIAN COORDINATES (ANGSTROEM)
---------------------------------
  C     -1.288382   -0.698338   -1.312413
  H     -1.026496   -1.764349   -1.327787
  H     -0.873475   -0.235889   -2.222813
  H     -2.384160   -0.628215   -1.376800
  C     -0.773633    0.017043   -0.053787
  H     -1.169609   -0.522239    0.828318
  C      0.773636   -0.017241    0.053668
  H      1.169621    0.521578   -0.828716
  C      1.288507    0.698715    1.311918
  H      0.873359    0.236970    2.222565
  H      2.384255    0.628246    1.376445
  H      1.026996    1.764825    1.326610
  C     -1.329988    1.448891   -0.019071
  H     -1.106902    1.965932    0.923677
  H     -0.910875    2.051275   -0.841491
  H     -2.423383    1.442873   -0.138790
  C      1.329860   -1.449156    0.019634
  H      2.423298   -1.443166    0.138955
  H      0.910984   -2.050979    0.842585
  H      1.106385   -1.966776   -0.922706

 Total Charge           Charge          ....    0
 Multiplicity           Mult            ....    1
 Number of Electrons    NEL             ....   50
 Basis Dimension        Dim             ....  118

ORBITAL ENERGIES
----------------

  NO   OCC          E(Eh)            E(eV)
   0   2.0000     -10.440610      -284.1035
   1   2.0000     -10.440414      -284.0981
   2   2.0000     -10.421883      -283.5938
   3   2.0000     -10.421867      -283.5934
   4   2.0000     -10.421826      -283.5923
   5   2.0000     -10.421783      -283.5911
   6   2.0000      -0.906949       -24.6793
   7   2.0000      -0.830124       -22.5888
   8   2.0000      -0.768727       -20.9181
   9   2.0000      -0.742726       -20.2106
  10   2.0000      -0.678108       -18.4523
  11   2.0000      -0.611873       -16.6499
  12   2.0000      -0.513768       -13.9803
  13   2.0000      -0.511275       -13.9125
  14   2.0000      -0.483606       -13.1596
  15   2.0000      -0.475337       -12.9346
  16   2.0000      -0.441589       -12.0162
  17   2.0000      -0.437429       -11.9030
  18   2.0000      -0.426086       -11.5944
  19   2.0000      -0.410511       -11.1706
  20   2.0000      -0.403837       -10.9890
  21   2.0000      -0.385669       -10.4946
  22   2.0000      -0.362632        -9.8677
  23   2.0000      -0.358151        -9.7458
  24   2.0000      -0.349814        -9.5189
  25   0.0000       0.125801         3.4232
  26   0.0000       0.164295         4.4707
  27   0.0000       0.178161         4.8480
  28   0.0000       0.180442         4.9101
  29   0.0000       0.181538         4.9399

MULLIKEN ATOMIC CHARGES
-----------------------
   0 C :   -0.634922
   1 H :    0.219070
   2 H :    0.203636
   3 H :    0.215316
   4 C :   -0.201494
   5 H :    0.195543
   6 C :   -0.201497
   7 H :    0.195542
   8 C :   -0.634944
   9 H :    0.203636
  10 H :    0.215318
  11 H :    0.219084
  12 C :   -0.635078
  13 H :    0.218932
  14 H :    0.203639
  15 H :    0.215360
  16 C :   -0.635054
  17 H :    0.215357
  18 H :    0.203639
  19 H :    0.218918
Sum of atomic charges:   -0.0000000

LOEWDIN ATOMIC CHARGES
----------------------
   0 C :   -0.354029
   1 H :    0.124910
   2 H :    0.122912
   3 H :    0.125348
   4 C :   -0.154448
   5 H :    0.116257
   6 C :   -0.154448
   7 H :    0.116257
   8 C :   -0.354034
   9 H :    0.122912
  10 H :    0.125348
  11 H :    0.124918
  12 C :   -0.354066
  13 H :    0.124867
  14 H :    0.122913
  15 H :    0.125336
  16 C :   -0.354062
  17 H :    0.125335
  18 H :    0.122913
  19 H :    0.124859

  Mayer bond orders larger than 0.100000
B(  0-C ,  1-H ) :   0.9269 B(  0-C ,  2-H ) :   0.9269 B(  0-C ,  3-H ) :   0.9294
B(  0-C ,  4-C ) :   0.9879 B(  4-C ,  5-H ) :   0.9073 B(  4-C ,  6-C ) :   0.9617
B(  4-C , 12-C ) :   0.9876 B(  6-C ,  7-H ) :   0.9073 B(  6-C ,  8-C ) :   0.9879
B(  6-C , 16-C ) :   0.9876 B(  8-C ,  9-H ) :   0.9269 B(  8-C , 10-H ) :   0.9294
B(  8-C , 11-H ) :   0.9269 B( 12-C , 13-H ) :   0.9270 B( 12-C , 14-H ) :   0.9269
B( 12-C , 15-H ) :   0.9294 B( 16-C , 17-H ) :   0.9294 B( 16-C , 18-H ) :   0.9269
B( 16-C , 19-H ) :   0.9270

Dispersion correction           -0.009592594
FINAL SINGLE POINT ENERGY      -236.562877539437

DIPOLE MOMENT
-------------
                                X             Y             Z
Electronic contribution:     -0.00000      -0.00021      -0.00013
Nuclear contribution   :      0.00000       0.00023       0.00014
                        -----------------------------------------
Total Dipole Moment    :     -0.00000       0.00001       0.00001
                        -----------------------------------------
Magnitude (a.u.)       :      0.00002
Magnitude (Debye)      :      0.00004

Rotational constants in cm-1:     0.139822     0.095445     0.062101
Rotational constants in MHz :  4191.758310  2861.361741  1861.729201

                             ****ORCA TERMINATED NORMALLY****
TOTAL RUN TIME: 0 days 0 hours 1 minutes 20 seconds 977 msec
