                         Program Version 5.0.3 -  RELEASE  -
|  1> ! PBEh-3c def2/J TightSCF DefGrid3
|  2>
|  3> %maxcore 60000
|  4>
|  5> %pal
|  6> nprocs 4
|  7> end
|  8>
|  9> *xyzfile 0 1 cis-2-pentene.xyz
| 10>
| 11>                          ****END OF INPUT****

CARTESIAN COORDINATES (ANGSTROEM)
---------------------------------
  C      0.450213   -2.151407    0.119845
  H      1.083858   -2.392563    0.986232
  H      1.115219   -1.958981   -0.734025
  H     -0.154722   -3.040141   -0.111050
  C     -0.442041   -0.932698    0.409546
  H     -1.080190   -0.724549   -0.461437
  H     -1.127726   -1.187666    1.237344
  C      0.350934    0.283993    0.795094
  H      1.021441    0.141921    1.650618
  C      0.340388    1.495611    0.218539
  H      0.998605    2.259178    0.646880
  C     -0.478215    1.947858   -0.954268
  H     -1.156786    2.767434   -0.666189
  H      0.168101    2.347515   -1.752220
  H     -1.089079    1.144495   -1.384910

 Total Charge           Charge          ....    0
 Multiplicity           Mult            ....    1
 Number of Electrons    NEL             ....   40
 Basis Dimension        Dim             ....   95

ORBITAL ENERGIES
----------------

  NO   OCC          E(Eh)            E(eV)
   0   2.0000     -10.439705      -284.0788
   1   2.0000     -10.438147      -284.0364
   2   2.0000     -10.436677      -283.9964
   3   2.0000     -10.431438      -283.8539
   4   2.0000     -10.427262      -283.7402
   5   2.0000      -0.892668       -24.2907
   6   2.0000      -0.834791       -22.7158
   7   2.0000      -0.759770       -20.6744
   8   2.0000      -0.689438       -18.7605
   9   2.0000      -0.590012       -16.0550
  10   2.0000      -0.538413       -14.6510
  11   2.0000      -0.489899       -13.3308
  12   2.0000      -0.481922       -13.1138
  13   2.0000      -0.461073       -12.5464
  14   2.0000      -0.433510       -11.7964
  15   2.0000      -0.420669       -11.4470
  16   2.0000      -0.416101       -11.3227
  17   2.0000      -0.388778       -10.5792
  18   2.0000      -0.370478       -10.0812
  19   2.0000      -0.280718        -7.6387
  20   0.0000       0.055759         1.5173
  21   0.0000       0.144752         3.9389
  22   0.0000       0.164299         4.4708
  23   0.0000       0.176166         4.7937
  24   0.0000       0.203775         5.5450

MULLIKEN ATOMIC CHARGES
-----------------------
   0 C :   -0.633988
   1 H :    0.209195
   2 H :    0.220307
   3 H :    0.216466
   4 C :   -0.475448
   5 H :    0.215426
   6 H :    0.220244
   7 C :   -0.163003
   8 H :    0.203910
   9 C :   -0.198545
  10 H :    0.206985
  11 C :   -0.690474
  12 H :    0.224793
  13 H :    0.223301
  14 H :    0.220833
Sum of atomic charges:    0.0000000

LOEWDIN ATOMIC CHARGES
----------------------
   0 C :   -0.358521
   1 H :    0.123908
   2 H :    0.128143
   3 H :    0.125631
   4 C :   -0.245246
   5 H :    0.124038
   6 H :    0.130245
   7 C :   -0.158045
   8 H :    0.127658
   9 C :   -0.162198
  10 H :    0.128315
  11 C :   -0.362126
  12 H :    0.135223
  13 H :    0.134223
  14 H :    0.128751

  Mayer bond orders larger than 0.100000
B(  0-C ,  1-H ) :   0.9299 B(  0-C ,  2-H ) :   0.9273 B(  0-C ,  3-H ) :   0.9295
B(  0-C ,  4-C ) :   0.9769 B(  4-C ,  5-H ) :   0.9165 B(  4-C ,  6-H ) :   0.9120
B(  4-C ,  7-C ) :   0.9871 B(  7-C ,  8-H ) :   0.9184 B(  7-C ,  9-C ) :   1.9181
B(  9-C , 10-H ) :   0.9214 B(  9-C , 11-C ) :   0.9925 B( 11-C , 12-H ) :   0.9165
B( 11-C , 13-H ) :   0.9179 B( 11-C , 14-H ) :   0.9235

Dispersion correction           -0.005979190
FINAL SINGLE POINT ENERGY      -196.098099222090

DIPOLE MOMENT
-------------
                                X             Y             Z
Electronic contribution:      0.47900       1.53788       1.35751
Nuclear contribution   :     -0.53329      -1.55050      -1.41891
                        -----------------------------------------
Total Dipole Moment    :     -0.05429      -0.01262      -0.06141
                        -----------------------------------------
Magnitude (a.u.)       :      0.08293
Magnitude (Debye)      :      0.21080

Rotational constants in cm-1:     0.380654     0.084106     0.076950
Rotational constants in MHz : 11411.724816  2521.421127  2306.917572

                             ****ORCA TERMINATED NORMALLY****
TOTAL RUN TIME: 0 days 0 hours 1 minutes 20 seconds 269 msec
