                         Program Version 5.0.3 -  RELEASE  -
|  1> ! PBEh-3c def2/J TightSCF DefGrid3
|  2>
|  3> %maxcore 60000
|  4>
|  5> %pal
|  6> nprocs 4
|  7> end
|  8>
|  9> *xyzfile 0 1 B49.xyz
| 10>
| 11>                          ****END OF INPUT****

CARTESIAN COORDINATES (ANGSTROEM)
---------------------------------
  C      1.731692    0.018473    0.557370
  H      1.270028   -0.416935    1.449109
  O      2.101125   -1.001551   -0.366483
  C      0.824983    1.080867   -0.057809
  H      0.635609    1.848839    0.698284
  H      1.366761    1.561209   -0.873975
  C     -0.506265    0.547254   -0.592587
  H     -0.333539   -0.192141   -1.377689
  H     -1.062683    1.360730   -1.059986
  H      1.304317   -1.481866   -0.605438
  H      2.668297    0.476658    0.870681
  C     -1.392223   -0.067290    0.476849
  H     -0.912491   -0.943945    0.923648
  H     -1.564340    0.661570    1.276428
  O     -2.618681   -0.437276   -0.148807
  H     -3.180633   -0.839322    0.518328

 Total Charge           Charge          ....    0
 Multiplicity           Mult            ....    1
 Number of Electrons    NEL             ....   50
 Basis Dimension        Dim             ....  110

ORBITAL ENERGIES
----------------

  NO   OCC          E(Eh)            E(eV)
   0   2.0000     -19.488990      -530.3224
   1   2.0000     -19.484023      -530.1872
   2   2.0000     -10.487184      -285.3708
   3   2.0000     -10.480662      -285.1933
   4   2.0000     -10.436554      -283.9931
   5   2.0000     -10.436320      -283.9867
   6   2.0000      -1.125733       -30.6328
   7   2.0000      -1.120474       -30.4897
   8   2.0000      -0.886419       -24.1207
   9   2.0000      -0.798186       -21.7197
  10   2.0000      -0.718942       -19.5634
  11   2.0000      -0.648971       -17.6594
  12   2.0000      -0.582715       -15.8565
  13   2.0000      -0.567850       -15.4520
  14   2.0000      -0.545952       -14.8561
  15   2.0000      -0.498140       -13.5551
  16   2.0000      -0.489665       -13.3245
  17   2.0000      -0.477690       -12.9986
  18   2.0000      -0.425307       -11.5732
  19   2.0000      -0.418615       -11.3911
  20   2.0000      -0.399592       -10.8734
  21   2.0000      -0.384418       -10.4605
  22   2.0000      -0.370584       -10.0841
  23   2.0000      -0.330671        -8.9980
  24   2.0000      -0.322658        -8.7800
  25   0.0000       0.103455         2.8151
  26   0.0000       0.123363         3.3569
  27   0.0000       0.163406         4.4465
  28   0.0000       0.173395         4.7183
  29   0.0000       0.192644         5.2421

MULLIKEN ATOMIC CHARGES
-----------------------
   0 C :   -0.162680
   1 H :    0.175727
   2 O :   -0.625015
   3 C :   -0.457214
   4 H :    0.203975
   5 H :    0.237155
   6 C :   -0.471732
   7 H :    0.214757
   8 H :    0.245052
   9 H :    0.415133
  10 H :    0.221480
  11 C :   -0.134606
  12 H :    0.170265
  13 H :    0.179240
  14 O :   -0.627609
  15 H :    0.416072
Sum of atomic charges:    0.0000000

LOEWDIN ATOMIC CHARGES
----------------------
   0 C :   -0.096397
   1 H :    0.093912
   2 O :   -0.412494
   3 C :   -0.265664
   4 H :    0.124640
   5 H :    0.134658
   6 C :   -0.259627
   7 H :    0.123966
   8 H :    0.138699
   9 H :    0.305642
  10 H :    0.122455
  11 C :   -0.092923
  12 H :    0.092206
  13 H :    0.097864
  14 O :   -0.415620
  15 H :    0.308682

  Mayer bond orders larger than 0.100000
B(  0-C ,  1-H ) :   0.9110 B(  0-C ,  2-O ) :   1.0213 B(  0-C ,  3-C ) :   0.9600
B(  0-C , 10-H ) :   0.9176 B(  2-O ,  9-H ) :   0.7878 B(  3-C ,  4-H ) :   0.9100
B(  3-C ,  5-H ) :   0.9150 B(  3-C ,  6-C ) :   0.9723 B(  6-C ,  7-H ) :   0.9094
B(  6-C ,  8-H ) :   0.9126 B(  6-C , 11-C ) :   0.9816 B( 11-C , 12-H ) :   0.9058
B( 11-C , 13-H ) :   0.9044 B( 11-C , 14-O ) :   1.0204 B( 14-O , 15-H ) :   0.7932

Dispersion correction           -0.006723751
FINAL SINGLE POINT ENERGY      -308.205443925535

DIPOLE MOMENT
-------------
                                X             Y             Z
Electronic contribution:     -0.73931      -2.02805      -1.11836
Nuclear contribution   :      0.19085       2.09655       1.88727
                        -----------------------------------------
Total Dipole Moment    :     -0.54846       0.06850       0.76891
                        -----------------------------------------
Magnitude (a.u.)       :      0.94695
Magnitude (Debye)      :      2.40696

Rotational constants in cm-1:     0.231887     0.055823     0.051440
Rotational constants in MHz :  6951.802642  1673.527342  1542.118655

                             ****ORCA TERMINATED NORMALLY****
TOTAL RUN TIME: 0 days 0 hours 1 minutes 37 seconds 813 msec
