                         Program Version 5.0.3 -  RELEASE  -
|  1> ! PBEh-3c def2/J TightSCF DefGrid3
|  2>
|  3> %maxcore 60000
|  4>
|  5> %pal
|  6> nprocs 4
|  7> end
|  8>
|  9> *xyzfile 0 1 B20.xyz
| 10>
| 11>                          ****END OF INPUT****

CARTESIAN COORDINATES (ANGSTROEM)
---------------------------------
  C     -0.178629    1.853230    0.598602
  H      0.280378    2.381063    1.432950
  O      0.181623    2.594935   -0.564276
  C      0.314750    0.411438    0.560954
  H      1.402406    0.417851    0.449859
  H      0.081451   -0.044238    1.527630
  C     -0.314750   -0.411438   -0.560954
  H     -0.081451    0.044238   -1.527630
  H     -1.402406   -0.417851   -0.449859
  H     -0.368714    2.287393   -1.288297
  H     -1.263031    1.872125    0.750056
  C      0.178629   -1.853230   -0.598602
  H     -0.280378   -2.381063   -1.432950
  H      1.263031   -1.872125   -0.750056
  O     -0.181623   -2.594935    0.564276
  H      0.368714   -2.287393    1.288297

 Total Charge           Charge          ....    0
 Multiplicity           Mult            ....    1
 Number of Electrons    NEL             ....   50
 Basis Dimension        Dim             ....  110

ORBITAL ENERGIES
----------------

  NO   OCC          E(Eh)            E(eV)
   0   2.0000     -19.487102      -530.2710
   1   2.0000     -19.487102      -530.2710
   2   2.0000     -10.484074      -285.2862
   3   2.0000     -10.484040      -285.2852
   4   2.0000     -10.439853      -284.0828
   5   2.0000     -10.439629      -284.0767
   6   2.0000      -1.124166       -30.5901
   7   2.0000      -1.123067       -30.5602
   8   2.0000      -0.886542       -24.1240
   9   2.0000      -0.804128       -21.8814
  10   2.0000      -0.717126       -19.5140
  11   2.0000      -0.656518       -17.8648
  12   2.0000      -0.585044       -15.9199
  13   2.0000      -0.564945       -15.3729
  14   2.0000      -0.537554       -14.6276
  15   2.0000      -0.511811       -13.9271
  16   2.0000      -0.480748       -13.0818
  17   2.0000      -0.466211       -12.6863
  18   2.0000      -0.457653       -12.4534
  19   2.0000      -0.414324       -11.2743
  20   2.0000      -0.399948       -10.8831
  21   2.0000      -0.387119       -10.5340
  22   2.0000      -0.370009       -10.0685
  23   2.0000      -0.331136        -9.0107
  24   2.0000      -0.324277        -8.8240
  25   0.0000       0.113203         3.0804
  26   0.0000       0.129035         3.5112
  27   0.0000       0.157781         4.2934
  28   0.0000       0.164119         4.4659
  29   0.0000       0.187386         5.0990

MULLIKEN ATOMIC CHARGES
-----------------------
   0 C :   -0.155997
   1 H :    0.219659
   2 O :   -0.625440
   3 C :   -0.451427
   4 H :    0.221299
   5 H :    0.196302
   6 C :   -0.451427
   7 H :    0.196302
   8 H :    0.221299
   9 H :    0.414440
  10 H :    0.181165
  11 C :   -0.155997
  12 H :    0.219659
  13 H :    0.181165
  14 O :   -0.625440
  15 H :    0.414440
Sum of atomic charges:    0.0000000

LOEWDIN ATOMIC CHARGES
----------------------
   0 C :   -0.091503
   1 H :    0.121628
   2 O :   -0.413035
   3 C :   -0.270862
   4 H :    0.127766
   5 H :    0.120545
   6 C :   -0.270861
   7 H :    0.120545
   8 H :    0.127766
   9 H :    0.306007
  10 H :    0.099453
  11 C :   -0.091503
  12 H :    0.121628
  13 H :    0.099453
  14 O :   -0.413035
  15 H :    0.306007

  Mayer bond orders larger than 0.100000
B(  0-C ,  1-H ) :   0.9206 B(  0-C ,  2-O ) :   1.0201 B(  0-C ,  3-C ) :   0.9709
B(  0-C , 10-H ) :   0.9134 B(  2-O ,  9-H ) :   0.7903 B(  3-C ,  4-H ) :   0.9100
B(  3-C ,  5-H ) :   0.9080 B(  3-C ,  6-C ) :   0.9774 B(  6-C ,  7-H ) :   0.9080
B(  6-C ,  8-H ) :   0.9100 B(  6-C , 11-C ) :   0.9709 B( 11-C , 12-H ) :   0.9206
B( 11-C , 13-H ) :   0.9134 B( 11-C , 14-O ) :   1.0201 B( 14-O , 15-H ) :   0.7903

Dispersion correction           -0.006623264
FINAL SINGLE POINT ENERGY      -308.207278444042

DIPOLE MOMENT
-------------
                                X             Y             Z
Electronic contribution:     -0.00000      -0.00000      -0.00000
Nuclear contribution   :      0.00000       0.00000      -0.00000
                        -----------------------------------------
Total Dipole Moment    :     -0.00000      -0.00000      -0.00000
                        -----------------------------------------
Magnitude (a.u.)       :      0.00000
Magnitude (Debye)      :      0.00000

Rotational constants in cm-1:     0.327947     0.049055     0.045360
Rotational constants in MHz :  9831.609391  1470.620559  1359.847434

                             ****ORCA TERMINATED NORMALLY****
TOTAL RUN TIME: 0 days 0 hours 1 minutes 32 seconds 307 msec
