                         Program Version 5.0.3 -  RELEASE  -
|  1> ! PBEh-3c def2/J TightSCF DefGrid3
|  2>
|  3> %maxcore 60000
|  4>
|  5> %pal
|  6> nprocs 4
|  7> end
|  8>
|  9> *xyzfile 0 1 FI_FMe.xyz
| 10>
| 11>                          ****END OF INPUT****

CARTESIAN COORDINATES (ANGSTROEM)
---------------------------------
  F     -0.626435    2.319788    0.000000
  I      0.000000    0.491729    0.000000
  F      0.818183   -2.043613    0.000000
  C     -0.117699   -3.088914    0.000000
  H     -1.114431   -2.651530    0.000000
  H      0.047446   -3.681099    0.896813
  H      0.047446   -3.681099   -0.896813

 Total Charge           Charge          ....    0
 Multiplicity           Mult            ....    1
 Number of Electrons    NEL             ....   52
 Basis Dimension        Dim             ....   77

ORBITAL ENERGIES
----------------

  NO   OCC          E(Eh)            E(eV)
   0   2.0000     -25.119049      -683.5241
   1   2.0000     -25.065725      -682.0731
   2   2.0000     -10.537644      -286.7439
   3   2.0000      -7.129543      -194.0047
   4   2.0000      -5.120390      -139.3329
   5   2.0000      -5.092300      -138.5685
   6   2.0000      -5.092164      -138.5648
   7   2.0000      -2.073129       -56.4127
   8   2.0000      -2.064154       -56.1685
   9   2.0000      -2.064009       -56.1645
  10   2.0000      -2.040401       -55.5221
  11   2.0000      -2.040400       -55.5221
  12   2.0000      -1.345441       -36.6113
  13   2.0000      -1.257101       -34.2075
  14   2.0000      -0.816567       -22.2199
  15   2.0000      -0.767060       -20.8728
  16   2.0000      -0.591581       -16.0977
  17   2.0000      -0.582697       -15.8560
  18   2.0000      -0.582273       -15.8445
  19   2.0000      -0.490340       -13.3428
  20   2.0000      -0.472577       -12.8595
  21   2.0000      -0.472550       -12.8587
  22   2.0000      -0.443995       -12.0817
  23   2.0000      -0.441820       -12.0225
  24   2.0000      -0.308220        -8.3871
  25   2.0000      -0.307047        -8.3552
  26   0.0000      -0.063163        -1.7187
  27   0.0000       0.113646         3.0925
  28   0.0000       0.155225         4.2239
  29   0.0000       0.190975         5.1967
  30   0.0000       0.192213         5.2304

MULLIKEN ATOMIC CHARGES
-----------------------
   0 F :   -0.473507
   1 I :    0.420188
   2 F :   -0.368817
   3 C :   -0.229016
   4 H :    0.215268
   5 H :    0.217941
   6 H :    0.217941
Sum of atomic charges:   -0.0000000

LOEWDIN ATOMIC CHARGES
----------------------
   0 F :   -0.427901
   1 I :    0.373246
   2 F :   -0.249882
   3 C :   -0.070301
   4 H :    0.123947
   5 H :    0.125445
   6 H :    0.125445

  Mayer bond orders larger than 0.100000
B(  0-F ,  1-I ) :   0.8153 B(  1-I ,  2-F ) :   0.1006 B(  2-F ,  3-C ) :   0.8661
B(  3-C ,  4-H ) :   0.9141 B(  3-C ,  5-H ) :   0.9163 B(  3-C ,  6-H ) :   0.9163

Dispersion correction           -0.001765019
FINAL SINGLE POINT ENERGY      -536.816248260395

DIPOLE MOMENT
-------------
                                X             Y             Z
Electronic contribution:      0.49313      35.33263      -0.00000
Nuclear contribution   :     -0.65615     -37.18820       0.00000
                        -----------------------------------------
Total Dipole Moment    :     -0.16302      -1.85557      -0.00000
                        -----------------------------------------
Magnitude (a.u.)       :      1.86271
Magnitude (Debye)      :      4.73464

Rotational constants in cm-1:     1.107392     0.045740     0.044300
Rotational constants in MHz : 33198.789682  1371.257765  1328.087478

                             ****ORCA TERMINATED NORMALLY****
TOTAL RUN TIME: 0 days 0 hours 1 minutes 26 seconds 63 msec
