                         Program Version 5.0.3 -  RELEASE  -
|  1> ! PBEh-3c def2/J TightSCF DefGrid3
|  2>
|  3> %maxcore 60000
|  4>
|  5> %pal
|  6> nprocs 4
|  7> end
|  8>
|  9> *xyzfile 0 1 p4.xyz
| 10>
| 11>                          ****END OF INPUT****

CARTESIAN COORDINATES (ANGSTROEM)
---------------------------------
  P     -0.347996   -0.061331   -1.299258
  P      1.312908   -0.270682    0.126246
  P     -0.251275    1.234908    0.474129
  P     -0.713637   -0.902895    0.698884

 Total Charge           Charge          ....    0
 Multiplicity           Mult            ....    1
 Number of Electrons    NEL             ....   60
 Basis Dimension        Dim             ....   72

ORBITAL ENERGIES
----------------

  NO   OCC          E(Eh)            E(eV)
   0   2.0000     -77.774093     -2116.3406
   1   2.0000     -77.774090     -2116.3406
   2   2.0000     -77.774087     -2116.3405
   3   2.0000     -77.774051     -2116.3395
   4   2.0000      -6.849572      -186.3863
   5   2.0000      -6.849456      -186.3832
   6   2.0000      -6.849453      -186.3831
   7   2.0000      -6.849451      -186.3830
   8   2.0000      -4.939646      -134.4146
   9   2.0000      -4.939169      -134.4016
  10   2.0000      -4.939167      -134.4016
  11   2.0000      -4.939165      -134.4015
  12   2.0000      -4.938125      -134.3732
  13   2.0000      -4.938121      -134.3731
  14   2.0000      -4.938088      -134.3722
  15   2.0000      -4.938084      -134.3721
  16   2.0000      -4.938082      -134.3720
  17   2.0000      -4.937967      -134.3689
  18   2.0000      -4.937966      -134.3689
  19   2.0000      -4.937956      -134.3686
  20   2.0000      -0.910447       -24.7745
  21   2.0000      -0.613201       -16.6861
  22   2.0000      -0.613200       -16.6860
  23   2.0000      -0.613199       -16.6860
  24   2.0000      -0.401235       -10.9182
  25   2.0000      -0.344503        -9.3744
  26   2.0000      -0.344502        -9.3744
  27   2.0000      -0.344502        -9.3744
  28   2.0000      -0.315337        -8.5807
  29   2.0000      -0.315336        -8.5807
  30   0.0000      -0.011049        -0.3007
  31   0.0000      -0.011049        -0.3007
  32   0.0000      -0.011047        -0.3006
  33   0.0000       0.019736         0.5370
  34   0.0000       0.019737         0.5371

MULLIKEN ATOMIC CHARGES
-----------------------
   0 P :   -0.000003
   1 P :   -0.000005
   2 P :    0.000000
   3 P :    0.000008
Sum of atomic charges:    0.0000000

LOEWDIN ATOMIC CHARGES
----------------------
   0 P :   -0.000007
   1 P :   -0.000003
   2 P :    0.000000
   3 P :    0.000009

  Mayer bond orders larger than 0.100000
B(  0-P ,  1-P ) :   0.9880 B(  0-P ,  2-P ) :   0.9880 B(  0-P ,  3-P ) :   0.9880
B(  1-P ,  2-P ) :   0.9880 B(  1-P ,  3-P ) :   0.9880 B(  2-P ,  3-P ) :   0.9880

Dispersion correction           -0.003135379
FINAL SINGLE POINT ENERGY     -1363.847242911518

DIPOLE MOMENT
-------------
                                X             Y             Z
Electronic contribution:     -0.00002      -0.00001       0.00004
Nuclear contribution   :     -0.00000       0.00000      -0.00000
                        -----------------------------------------
Total Dipole Moment    :     -0.00002      -0.00001       0.00004
                        -----------------------------------------
Magnitude (a.u.)       :      0.00005
Magnitude (Debye)      :      0.00013

Rotational constants in cm-1:     0.112577     0.112577     0.112577
Rotational constants in MHz :  3374.964992  3374.964898  3374.964818

                             ****ORCA TERMINATED NORMALLY****
TOTAL RUN TIME: 0 days 0 hours 0 minutes 46 seconds 172 msec
