                         Program Version 5.0.3 -  RELEASE  -
|  1> ! PBEh-3c def2/J TightSCF DefGrid3
|  2>
|  3> %maxcore 60000
|  4>
|  5> %pal
|  6> nprocs 4
|  7> end
|  8>
|  9> *xyzfile 1 1 h2p.xyz
| 10>
| 11>                          ****END OF INPUT****

CARTESIAN COORDINATES (ANGSTROEM)
---------------------------------
  H     -0.254136   -0.440176    0.000000
  H     -0.254136    0.440176    0.000000
  H      0.508272    0.000000    0.000000

 Total Charge           Charge          ....    1
 Multiplicity           Mult            ....    1
 Number of Electrons    NEL             ....    2
 Basis Dimension        Dim             ....    6

ORBITAL ENERGIES
----------------

  NO   OCC          E(Eh)            E(eV)
   0   2.0000      -1.092982       -29.7416
   1   0.0000      -0.295577        -8.0431
   2   0.0000      -0.295577        -8.0431
   3   0.0000       0.257828         7.0159
   4   0.0000       0.646367        17.5886
   5   0.0000       0.646368        17.5886

MULLIKEN ATOMIC CHARGES
-----------------------
   0 H :    0.333333
   1 H :    0.333333
   2 H :    0.333334
Sum of atomic charges:    1.0000000

LOEWDIN ATOMIC CHARGES
----------------------
   0 H :    0.333333
   1 H :    0.333333
   2 H :    0.333334

  Mayer bond orders larger than 0.100000
B(  0-H ,  1-H ) :   0.4444 B(  0-H ,  2-H ) :   0.4444 B(  1-H ,  2-H ) :   0.4444

Dispersion correction           -0.000179980
FINAL SINGLE POINT ENERGY        -1.322654156132

DIPOLE MOMENT
-------------
                                X             Y             Z
Electronic contribution:      0.00000       0.00000      -0.00000
Nuclear contribution   :      0.00000       0.00000       0.00000
                        -----------------------------------------
Total Dipole Moment    :      0.00000       0.00000       0.00000
                        -----------------------------------------
Magnitude (a.u.)       :      0.00000
Magnitude (Debye)      :      0.00000

Rotational constants in cm-1:    43.157220    43.157216    21.578609
Rotational constants in MHz : 1293820.892353 1293820.788758 646910.420278

                             ****ORCA TERMINATED NORMALLY****
TOTAL RUN TIME: 0 days 0 hours 0 minutes 19 seconds 933 msec
