                         Program Version 5.0.3 -  RELEASE  -
|  1> ! PBEh-3c def2/J TightSCF DefGrid3
|  2>
|  3> %maxcore 60000
|  4>
|  5> %pal
|  6> nprocs 4
|  7> end
|  8>
|  9> *xyzfile 0 2 P4.xyz
| 10>
| 11>                          ****END OF INPUT****

CARTESIAN COORDINATES (ANGSTROEM)
---------------------------------
  F     -1.866557    0.004945    0.000000
  C     -0.667282    0.543377    0.000000
  C      0.513776   -0.024597    0.000000
  H      0.613743   -1.107410    0.000000
  H      1.406321    0.583684    0.000000

 Total Charge           Charge          ....    0
 Multiplicity           Mult            ....    2
 Number of Electrons    NEL             ....   23
 Basis Dimension        Dim             ....   49

ORBITAL ENERGIES
----------------
                 SPIN UP ORBITALS
  NO   OCC          E(Eh)            E(eV)
   0   1.0000     -25.147714      -684.3041
   1   1.0000     -10.563887      -287.4580
   2   1.0000     -10.453389      -284.4512
   3   1.0000      -1.392360       -37.8880
   4   1.0000      -0.876037       -23.8382
   5   1.0000      -0.696292       -18.9471
   6   1.0000      -0.590916       -16.0796
   7   1.0000      -0.570101       -15.5132
   8   1.0000      -0.569658       -15.5012
   9   1.0000      -0.491810       -13.3828
  10   1.0000      -0.328926        -8.9505
  11   1.0000      -0.326928        -8.8962
  12   0.0000       0.042050         1.1442
  13   0.0000       0.153013         4.1637
  14   0.0000       0.181763         4.9460
  15   0.0000       0.286401         7.7934
  16   0.0000       0.307815         8.3761

                 SPIN DOWN ORBITALS
  NO   OCC          E(Eh)            E(eV)
   0   1.0000     -25.142080      -684.1508
   1   1.0000     -10.543738      -286.9097
   2   1.0000     -10.454058      -284.4694
   3   1.0000      -1.377597       -37.4863
   4   1.0000      -0.856118       -23.2962
   5   1.0000      -0.677289       -18.4300
   6   1.0000      -0.559063       -15.2129
   7   1.0000      -0.557991       -15.1837
   8   1.0000      -0.543263       -14.7829
   9   1.0000      -0.482591       -13.1320
  10   1.0000      -0.319194        -8.6857
  11   0.0000      -0.051469        -1.4006
  12   0.0000       0.066938         1.8215
  13   0.0000       0.169499         4.6123
  14   0.0000       0.187558         5.1037
  15   0.0000       0.295032         8.0282

MULLIKEN ATOMIC CHARGES AND SPIN POPULATIONS
--------------------------------------------
   0 F :   -0.246184    0.083788
   1 C :    0.350402    1.023748
   2 C :   -0.605073   -0.194638
   3 H :    0.250897    0.070351
   4 H :    0.249958    0.016751
Sum of atomic charges         :    0.0000000

LOEWDIN ATOMIC CHARGES AND SPIN POPULATIONS
-------------------------------------------
   0 F :   -0.105415    0.129759
   1 C :    0.160091    0.901499
   2 C :   -0.368398   -0.096906
   3 H :    0.155055    0.054681
   4 H :    0.158667    0.010967

  Mayer bond orders larger than 0.100000
B(  0-F ,  1-C ) :   1.0985 B(  1-C ,  2-C ) :   1.8777 B(  2-C ,  3-H ) :   0.8963
B(  2-C ,  4-H ) :   0.9073

Dispersion correction           -0.001040342
FINAL SINGLE POINT ENERGY      -176.772764277320

DIPOLE MOMENT
-------------
                                X             Y             Z
Electronic contribution:     -3.98137       0.52589      -0.00000
Nuclear contribution   :      4.36842      -0.61819       0.00000
                        -----------------------------------------
Total Dipole Moment    :      0.38705      -0.09230      -0.00000
                        -----------------------------------------
Magnitude (a.u.)       :      0.39790
Magnitude (Debye)      :      1.01139

Rotational constants in cm-1:     3.842238     0.340818     0.313050
Rotational constants in MHz : 115187.401691 10217.468370  9384.991451

                             ****ORCA TERMINATED NORMALLY****
TOTAL RUN TIME: 0 days 0 hours 3 minutes 8 seconds 726 msec
