                         Program Version 5.0.3 -  RELEASE  -
|  1> ! PBEh-3c def2/J TightSCF DefGrid3
|  2>
|  3> %maxcore 60000
|  4>
|  5> %pal
|  6> nprocs 4
|  7> end
|  8>
|  9> *xyzfile 0 1 TS3.xyz
| 10>
| 11>                          ****END OF INPUT****

CARTESIAN COORDINATES (ANGSTROEM)
---------------------------------
  H      0.810957    2.508566    0.264712
  C      0.802534    1.425477    0.168402
  C      0.802528   -1.425477   -0.168397
  C     -0.401181    0.709438   -0.014176
  C      1.981962    0.702429    0.105775
  C      1.981958   -0.702434   -0.105773
  C     -0.401183   -0.709434    0.014190
  C     -1.740319    1.105048   -0.302703
  H      2.935070    1.219914    0.179463
  H      2.935065   -1.219922   -0.179471
  H     -2.208645   -0.714596    1.196426
  H      0.810947   -2.508565   -0.264712
  H     -2.208642    0.714585   -1.196420
  H     -2.180360    2.031078    0.075448
  H     -2.180366   -2.031066   -0.075463
  C     -1.740324   -1.105042    0.302703

 Total Charge           Charge          ....    0
 Multiplicity           Mult            ....    1
 Number of Electrons    NEL             ....   56
 Basis Dimension        Dim             ....  136

ORBITAL ENERGIES
----------------

  NO   OCC          E(Eh)            E(eV)
   0   2.0000     -10.463056      -284.7142
   1   2.0000     -10.463035      -284.7137
   2   2.0000     -10.453928      -284.4658
   3   2.0000     -10.453439      -284.4525
   4   2.0000     -10.450332      -284.3680
   5   2.0000     -10.450311      -284.3674
   6   2.0000     -10.449163      -284.3362
   7   2.0000     -10.448750      -284.3249
   8   2.0000      -0.966020       -26.2868
   9   2.0000      -0.881364       -23.9831
  10   2.0000      -0.845705       -23.0128
  11   2.0000      -0.762397       -20.7459
  12   2.0000      -0.742784       -20.2122
  13   2.0000      -0.663490       -18.0545
  14   2.0000      -0.638122       -17.3642
  15   2.0000      -0.570628       -15.5276
  16   2.0000      -0.532224       -14.4826
  17   2.0000      -0.518370       -14.1056
  18   2.0000      -0.501760       -13.6536
  19   2.0000      -0.484015       -13.1707
  20   2.0000      -0.466974       -12.7070
  21   2.0000      -0.453225       -12.3329
  22   2.0000      -0.412022       -11.2117
  23   2.0000      -0.400264       -10.8917
  24   2.0000      -0.391756       -10.6602
  25   2.0000      -0.311841        -8.4856
  26   2.0000      -0.281313        -7.6549
  27   2.0000      -0.245663        -6.6848
  28   0.0000      -0.037828        -1.0294
  29   0.0000       0.030949         0.8422
  30   0.0000       0.031530         0.8580
  31   0.0000       0.152527         4.1505
  32   0.0000       0.166062         4.5188

MULLIKEN ATOMIC CHARGES
-----------------------
   0 H :    0.215134
   1 C :   -0.268597
   2 C :   -0.268595
   3 C :    0.112299
   4 C :   -0.227450
   5 C :   -0.227451
   6 C :    0.112297
   7 C :   -0.542018
   8 H :    0.219845
   9 H :    0.219845
  10 H :    0.268442
  11 H :    0.215134
  12 H :    0.268443
  13 H :    0.222345
  14 H :    0.222345
  15 C :   -0.542019
Sum of atomic charges:    0.0000000

LOEWDIN ATOMIC CHARGES
----------------------
   0 H :    0.138225
   1 C :   -0.133047
   2 C :   -0.133047
   3 C :   -0.058712
   4 C :   -0.141027
   5 C :   -0.141027
   6 C :   -0.058712
   7 C :   -0.226789
   8 H :    0.136079
   9 H :    0.136079
  10 H :    0.156745
  11 H :    0.138225
  12 H :    0.156746
  13 H :    0.128525
  14 H :    0.128525
  15 C :   -0.226789

  Mayer bond orders larger than 0.100000
B(  0-H ,  1-C ) :   0.9247 B(  1-C ,  3-C ) :   1.2672 B(  1-C ,  4-C ) :   1.5274
B(  2-C ,  5-C ) :   1.5274 B(  2-C ,  6-C ) :   1.2672 B(  2-C , 11-H ) :   0.9247
B(  3-C ,  6-C ) :   1.2715 B(  3-C ,  7-C ) :   1.2527 B(  4-C ,  5-C ) :   1.3100
B(  4-C ,  8-H ) :   0.9195 B(  5-C ,  9-H ) :   0.9195 B(  6-C , 15-C ) :   1.2527
B(  7-C , 12-H ) :   0.8958 B(  7-C , 13-H ) :   0.9198 B(  7-C , 15-C ) :   0.6202
B( 10-H , 15-C ) :   0.8958 B( 14-H , 15-C ) :   0.9198

Dispersion correction           -0.009104430
FINAL SINGLE POINT ENERGY      -308.862216532067

DIPOLE MOMENT
-------------
                                X             Y             Z
Electronic contribution:      2.13415       0.00001       0.00003
Nuclear contribution   :     -2.22612      -0.00001      -0.00003
                        -----------------------------------------
Total Dipole Moment    :     -0.09197      -0.00000      -0.00001
                        -----------------------------------------
Magnitude (a.u.)       :      0.09197
Magnitude (Debye)      :      0.23377

Rotational constants in cm-1:     0.126387     0.073645     0.048197
Rotational constants in MHz :  3788.987627  2207.829934  1444.899913

                             ****ORCA TERMINATED NORMALLY****
TOTAL RUN TIME: 0 days 0 hours 1 minutes 39 seconds 317 msec
