                         Program Version 5.0.3 -  RELEASE  -
|  1> ! PBEh-3c def2/J TightSCF DefGrid3
|  2>
|  3> %maxcore 60000
|  4>
|  5> %pal
|  6> nprocs 4
|  7> end
|  8>
|  9> *xyzfile 0 1 B18.xyz
| 10>
| 11>                          ****END OF INPUT****

CARTESIAN COORDINATES (ANGSTROEM)
---------------------------------
  C      2.041092    0.351425   -0.324587
  H      2.813519    1.081530   -0.065718
  O      2.385216   -0.941345    0.170137
  C      0.680041    0.828725    0.168040
  H      0.700547    0.891317    1.261400
  H      0.514623    1.846117   -0.198619
  C     -0.462451   -0.079619   -0.280270
  H     -0.246411   -1.105010    0.028744
  H     -0.530060   -0.081175   -1.370459
  H      2.503171   -0.861875    1.120703
  H      2.030361    0.251489   -1.409683
  C     -1.803630    0.353671    0.293404
  H     -1.757166    0.355919    1.388316
  H     -2.039716    1.368996   -0.025013
  O     -2.887612   -0.448333   -0.165291
  H     -2.700003   -1.355099    0.092046

 Total Charge           Charge          ....    0
 Multiplicity           Mult            ....    1
 Number of Electrons    NEL             ....   50
 Basis Dimension        Dim             ....  110

ORBITAL ENERGIES
----------------

  NO   OCC          E(Eh)            E(eV)
   0   2.0000     -19.488850      -530.3186
   1   2.0000     -19.481886      -530.1291
   2   2.0000     -10.484488      -285.2974
   3   2.0000     -10.478519      -285.1350
   4   2.0000     -10.441184      -284.1191
   5   2.0000     -10.432103      -283.8719
   6   2.0000      -1.125019       -30.6133
   7   2.0000      -1.118663       -30.4404
   8   2.0000      -0.885921       -24.1071
   9   2.0000      -0.797331       -21.6965
  10   2.0000      -0.709208       -19.2985
  11   2.0000      -0.668054       -18.1787
  12   2.0000      -0.569495       -15.4967
  13   2.0000      -0.562525       -15.3071
  14   2.0000      -0.536738       -14.6054
  15   2.0000      -0.509462       -13.8632
  16   2.0000      -0.486062       -13.2264
  17   2.0000      -0.463335       -12.6080
  18   2.0000      -0.445888       -12.1332
  19   2.0000      -0.420317       -11.4374
  20   2.0000      -0.396082       -10.7779
  21   2.0000      -0.376780       -10.2527
  22   2.0000      -0.371856       -10.1187
  23   2.0000      -0.334970        -9.1150
  24   2.0000      -0.316704        -8.6180
  25   0.0000       0.120371         3.2755
  26   0.0000       0.130088         3.5399
  27   0.0000       0.158673         4.3177
  28   0.0000       0.176327         4.7981
  29   0.0000       0.185883         5.0581

MULLIKEN ATOMIC CHARGES
-----------------------
   0 C :   -0.157915
   1 H :    0.193350
   2 O :   -0.621555
   3 C :   -0.461752
   4 H :    0.198240
   5 H :    0.213597
   6 C :   -0.456592
   7 H :    0.215308
   8 H :    0.223966
   9 H :    0.408822
  10 H :    0.211407
  11 C :   -0.128418
  12 H :    0.171272
  13 H :    0.204223
  14 O :   -0.622187
  15 H :    0.408235
Sum of atomic charges:    0.0000000

LOEWDIN ATOMIC CHARGES
----------------------
   0 C :   -0.093376
   1 H :    0.101356
   2 O :   -0.412810
   3 C :   -0.265602
   4 H :    0.116617
   5 H :    0.128010
   6 C :   -0.267531
   7 H :    0.125574
   8 H :    0.129930
   9 H :    0.305465
  10 H :    0.120556
  11 C :   -0.095243
  12 H :    0.094335
  13 H :    0.117319
  14 O :   -0.410319
  15 H :    0.305718

  Mayer bond orders larger than 0.100000
B(  0-C ,  1-H ) :   0.9153 B(  0-C ,  2-O ) :   1.0153 B(  0-C ,  3-C ) :   0.9670
B(  0-C , 10-H ) :   0.9152 B(  2-O ,  9-H ) :   0.7959 B(  3-C ,  4-H ) :   0.9194
B(  3-C ,  5-H ) :   0.9104 B(  3-C ,  6-C ) :   0.9638 B(  6-C ,  7-H ) :   0.9093
B(  6-C ,  8-H ) :   0.9116 B(  6-C , 11-C ) :   0.9857 B( 11-C , 12-H ) :   0.9093
B( 11-C , 13-H ) :   0.9132 B( 11-C , 14-O ) :   1.0258 B( 14-O , 15-H ) :   0.7949

Dispersion correction           -0.006471739
FINAL SINGLE POINT ENERGY      -308.207439401996

DIPOLE MOMENT
-------------
                                X             Y             Z
Electronic contribution:     -0.81884      -2.20528      -0.16950
Nuclear contribution   :      1.33469       2.46976       0.85628
                        -----------------------------------------
Total Dipole Moment    :      0.51585       0.26448       0.68677
                        -----------------------------------------
Magnitude (a.u.)       :      0.89873
Magnitude (Debye)      :      2.28439

Rotational constants in cm-1:     0.317059     0.045669     0.042587
Rotational constants in MHz :  9505.180191  1369.109538  1276.737055

                             ****ORCA TERMINATED NORMALLY****
TOTAL RUN TIME: 0 days 0 hours 1 minutes 15 seconds 217 msec
