                         Program Version 5.0.3 -  RELEASE  -
|  1> ! PBEh-3c def2/J TightSCF DefGrid3
|  2>
|  3> %maxcore 60000
|  4>
|  5> %pal
|  6> nprocs 4
|  7> end
|  8>
|  9> *xyzfile 1 1 H3OpH2O63d.xyz
| 10>
| 11>                          ****END OF INPUT****

CARTESIAN COORDINATES (ANGSTROEM)
---------------------------------
  O     -0.801704   -2.178614    1.161920
  H     -0.950175   -2.078980    0.203141
  H     -1.485915   -2.751303    1.520900
  O      1.652056    0.047716   -1.559133
  H      2.331322    0.019446   -2.241805
  H      1.086370   -0.733180   -1.691575
  O     -0.784705   -1.454580   -1.559133
  H     -1.148820   -2.028707   -2.241805
  H     -1.178138   -0.574234   -1.691575
  O      2.287587    0.395011    1.161920
  H      2.275537    0.216614    0.203141
  H      3.125656    0.088811    1.520900
  O     -1.485883    1.783603    1.161920
  H     -1.639740    2.662492    1.520900
  H     -1.325362    1.862366    0.203141
  O     -0.867351    1.406864   -1.559133
  H     -1.182502    2.009261   -2.241805
  H      0.091767    1.307414   -1.691575
  O      0.000000    0.000000    2.221145
  H     -0.361831   -0.884867    1.866171
  H      0.947233    0.129079    1.866171
  H     -0.585402    0.755788    1.866171

 Total Charge           Charge          ....    1
 Multiplicity           Mult            ....    1
 Number of Electrons    NEL             ....   70
 Basis Dimension        Dim             ....  135

ORBITAL ENERGIES
----------------

  NO   OCC          E(Eh)            E(eV)
   0   2.0000     -19.680046      -535.5213
   1   2.0000     -19.654814      -534.8347
   2   2.0000     -19.654755      -534.8331
   3   2.0000     -19.654751      -534.8330
   4   2.0000     -19.637917      -534.3749
   5   2.0000     -19.637916      -534.3749
   6   2.0000     -19.637893      -534.3742
   7   2.0000      -1.323769       -36.0216
   8   2.0000      -1.284653       -34.9572
   9   2.0000      -1.272692       -34.6317
  10   2.0000      -1.272690       -34.6317
  11   2.0000      -1.259248       -34.2659
  12   2.0000      -1.259247       -34.2659
  13   2.0000      -1.254548       -34.1380
  14   2.0000      -0.783682       -21.3251
  15   2.0000      -0.783680       -21.3250
  16   2.0000      -0.772673       -21.0255
  17   2.0000      -0.750693       -20.4274
  18   2.0000      -0.750690       -20.4273
  19   2.0000      -0.749671       -20.3996
  20   2.0000      -0.746794       -20.3213
  21   2.0000      -0.746792       -20.3213
  22   2.0000      -0.645061       -17.5530
  23   2.0000      -0.623123       -16.9560
  24   2.0000      -0.623121       -16.9560
  25   2.0000      -0.602952       -16.4072
  26   2.0000      -0.591106       -16.0848
  27   2.0000      -0.591105       -16.0848
  28   2.0000      -0.576736       -15.6938
  29   2.0000      -0.546549       -14.8723
  30   2.0000      -0.533858       -14.5270
  31   2.0000      -0.533857       -14.5270
  32   2.0000      -0.523143       -14.2354
  33   2.0000      -0.522147       -14.2083
  34   2.0000      -0.522145       -14.2083
  35   0.0000      -0.056841        -1.5467
  36   0.0000      -0.004595        -0.1250
  37   0.0000      -0.004594        -0.1250
  38   0.0000       0.003562         0.0969
  39   0.0000       0.029832         0.8118

MULLIKEN ATOMIC CHARGES
-----------------------
   0 O :   -0.865510
   1 H :    0.467375
   2 H :    0.459727
   3 O :   -0.858452
   4 H :    0.455533
   5 H :    0.459529
   6 O :   -0.858428
   7 H :    0.455523
   8 H :    0.459514
   9 O :   -0.865507
  10 H :    0.467373
  11 H :    0.459723
  12 O :   -0.865518
  13 H :    0.459727
  14 H :    0.467382
  15 O :   -0.858444
  16 H :    0.455523
  17 H :    0.459525
  18 O :   -0.869310
  19 H :    0.504900
  20 H :    0.504918
  21 H :    0.504899
Sum of atomic charges:    1.0000000

LOEWDIN ATOMIC CHARGES
----------------------
   0 O :   -0.568441
   1 H :    0.312350
   2 H :    0.332722
   3 O :   -0.577878
   4 H :    0.328183
   5 H :    0.314027
   6 O :   -0.577866
   7 H :    0.328177
   8 H :    0.314020
   9 O :   -0.568440
  10 H :    0.312349
  11 H :    0.332721
  12 O :   -0.568445
  13 H :    0.332722
  14 H :    0.312353
  15 O :   -0.577875
  16 H :    0.328177
  17 H :    0.314025
  18 O :   -0.453952
  19 H :    0.343690
  20 H :    0.343694
  21 H :    0.343689

  Mayer bond orders larger than 0.100000
B(  0-O ,  1-H ) :   0.6843 B(  0-O ,  2-H ) :   0.7705 B(  0-O , 19-H ) :   0.2142
B(  1-H ,  6-O ) :   0.1100 B(  3-O ,  4-H ) :   0.7753 B(  3-O ,  5-H ) :   0.7086
B(  3-O , 10-H ) :   0.1100 B(  6-O ,  7-H ) :   0.7753 B(  6-O ,  8-H ) :   0.7086
B(  9-O , 10-H ) :   0.6843 B(  9-O , 11-H ) :   0.7705 B(  9-O , 20-H ) :   0.2142
B( 12-O , 13-H ) :   0.7705 B( 12-O , 14-H ) :   0.6843 B( 12-O , 21-H ) :   0.2142
B( 14-H , 15-O ) :   0.1100 B( 15-O , 16-H ) :   0.7753 B( 15-O , 17-H ) :   0.7086
B( 18-O , 19-H ) :   0.5572 B( 18-O , 20-H ) :   0.5572 B( 18-O , 21-H ) :   0.5572

Dispersion correction           -0.007267802
FINAL SINGLE POINT ENERGY      -534.302429175728

DIPOLE MOMENT
-------------
                                X             Y             Z
Electronic contribution:      0.00002      -0.00002       0.91264
Nuclear contribution   :     -0.00000      -0.00000      -2.67183
                        -----------------------------------------
Total Dipole Moment    :      0.00002      -0.00002      -1.75919
                        -----------------------------------------
Magnitude (a.u.)       :      1.75919
Magnitude (Debye)      :      4.47149

Rotational constants in cm-1:     0.036685     0.031819     0.031819
Rotational constants in MHz :  1099.775116   953.909625   953.909617

                             ****ORCA TERMINATED NORMALLY****
TOTAL RUN TIME: 0 days 0 hours 1 minutes 34 seconds 864 msec
