                         Program Version 5.0.3 -  RELEASE  -
|  1> ! PBEh-3c def2/J TightSCF DefGrid3
|  2>
|  3> %maxcore 60000
|  4>
|  5> %pal
|  6> nprocs 4
|  7> end
|  8>
|  9> *xyzfile 0 1 63A.xyz
| 10>
| 11>                          ****END OF INPUT****

CARTESIAN COORDINATES (ANGSTROEM)
---------------------------------
  C      0.696769   -1.206839    0.000000
  H      1.237490   -2.143396    0.000000
  C     -0.696769   -1.206839    0.000000
  H     -1.237490   -2.143396    0.000000
  C     -1.393537    0.000000    0.000000
  H     -2.474981    0.000000    0.000000
  C     -0.696769    1.206839    0.000000
  H     -1.237490    2.143396    0.000000
  C      0.696769    1.206839    0.000000
  H      1.237490    2.143396    0.000000
  C      1.393537    0.000000    0.000000
  H      2.474981    0.000000    0.000000

 Total Charge           Charge          ....    0
 Multiplicity           Mult            ....    1
 Number of Electrons    NEL             ....   42
 Basis Dimension        Dim             ....  102

ORBITAL ENERGIES
----------------

  NO   OCC          E(Eh)            E(eV)
   0   2.0000     -10.448645      -284.3221
   1   2.0000     -10.448426      -284.3161
   2   2.0000     -10.448424      -284.3161
   3   2.0000     -10.447811      -284.2994
   4   2.0000     -10.447809      -284.2993
   5   2.0000     -10.447580      -284.2931
   6   2.0000      -0.952265       -25.9125
   7   2.0000      -0.835559       -22.7367
   8   2.0000      -0.835558       -22.7367
   9   2.0000      -0.679031       -18.4774
  10   2.0000      -0.679031       -18.4774
  11   2.0000      -0.592097       -16.1118
  12   2.0000      -0.525879       -14.3099
  13   2.0000      -0.508546       -13.8382
  14   2.0000      -0.481814       -13.1108
  15   2.0000      -0.481811       -13.1108
  16   2.0000      -0.420979       -11.4554
  17   2.0000      -0.398306       -10.8384
  18   2.0000      -0.398305       -10.8384
  19   2.0000      -0.292516        -7.9598
  20   2.0000      -0.292513        -7.9597
  21   0.0000       0.019255         0.5240
  22   0.0000       0.019256         0.5240
  23   0.0000       0.140794         3.8312
  24   0.0000       0.196406         5.3445
  25   0.0000       0.201816         5.4917

MULLIKEN ATOMIC CHARGES
-----------------------
   0 C :   -0.219823
   1 H :    0.219823
   2 C :   -0.219824
   3 H :    0.219823
   4 C :   -0.219836
   5 H :    0.219836
   6 C :   -0.219823
   7 H :    0.219824
   8 C :   -0.219823
   9 H :    0.219823
  10 C :   -0.219836
  11 H :    0.219836
Sum of atomic charges:   -0.0000000

LOEWDIN ATOMIC CHARGES
----------------------
   0 C :   -0.135666
   1 H :    0.135668
   2 C :   -0.135666
   3 H :    0.135668
   4 C :   -0.135672
   5 H :    0.135667
   6 C :   -0.135666
   7 H :    0.135668
   8 C :   -0.135666
   9 H :    0.135668
  10 C :   -0.135672
  11 H :    0.135667

  Mayer bond orders larger than 0.100000
B(  0-C ,  1-H ) :   0.9200 B(  0-C ,  2-C ) :   1.4266 B(  0-C , 10-C ) :   1.4266
B(  2-C ,  3-H ) :   0.9200 B(  2-C ,  4-C ) :   1.4266 B(  4-C ,  5-H ) :   0.9200
B(  4-C ,  6-C ) :   1.4266 B(  6-C ,  7-H ) :   0.9200 B(  6-C ,  8-C ) :   1.4266
B(  8-C ,  9-H ) :   0.9200 B(  8-C , 10-C ) :   1.4266 B( 10-C , 11-H ) :   0.9200

Dispersion correction           -0.005881254
FINAL SINGLE POINT ENERGY      -231.725821255277

DIPOLE MOMENT
-------------
                                X             Y             Z
Electronic contribution:     -0.00000       0.00000       0.00000
Nuclear contribution   :     -0.00000      -0.00000       0.00000
                        -----------------------------------------
Total Dipole Moment    :     -0.00000       0.00000       0.00000
                        -----------------------------------------
Magnitude (a.u.)       :      0.00000
Magnitude (Debye)      :      0.00000

Rotational constants in cm-1:     0.190487     0.190487     0.095243
Rotational constants in MHz :  5710.648174  5710.647950  2855.324031

                             ****ORCA TERMINATED NORMALLY****
TOTAL RUN TIME: 0 days 0 hours 1 minutes 20 seconds 646 msec
