                         Program Version 5.0.3 -  RELEASE  -
|  1> ! PBEh-3c def2/J TightSCF DefGrid3
|  2>
|  3> %maxcore 60000
|  4>
|  5> %pal
|  6> nprocs 4
|  7> end
|  8>
|  9> *xyzfile 0 1 diethyloxirane.xyz
| 10>
| 11>                          ****END OF INPUT****

CARTESIAN COORDINATES (ANGSTROEM)
---------------------------------
  C     -0.734016   -0.151568   -0.000326
  C      0.737901   -0.134242    0.004331
  O     -0.012700    1.105918   -0.012602
  H     -1.224042   -0.372492   -0.959533
  H      1.232781   -0.321060    0.968300
  C      1.574012   -0.436629   -1.215255
  H      1.819991   -1.512555   -1.209619
  H      0.966101   -0.252343   -2.114702
  C      2.860841    0.395089   -1.268472
  H      3.450066    0.158815   -2.165530
  H      2.628638    1.468882   -1.287121
  H      3.495951    0.202593   -0.390983
  C     -1.563227   -0.444833    1.226151
  H     -1.782575   -1.526281    1.246712
  H     -0.960598   -0.223783    2.120917
  C     -2.870308    0.355869    1.258864
  H     -3.453900    0.127544    2.161644
  H     -2.664696    1.435160    1.250658
  H     -3.500219    0.125917    0.386567

 Total Charge           Charge          ....    0
 Multiplicity           Mult            ....    1
 Number of Electrons    NEL             ....   56
 Basis Dimension        Dim             ....  129

ORBITAL ENERGIES
----------------

  NO   OCC          E(Eh)            E(eV)
   0   2.0000     -19.495304      -530.4942
   1   2.0000     -10.491940      -285.5002
   2   2.0000     -10.491612      -285.4913
   3   2.0000     -10.442879      -284.1652
   4   2.0000     -10.442874      -284.1650
   5   2.0000     -10.428802      -283.7821
   6   2.0000     -10.428784      -283.7816
   7   2.0000      -1.162400       -31.6305
   8   2.0000      -0.867537       -23.6069
   9   2.0000      -0.863146       -23.4874
  10   2.0000      -0.759071       -20.6554
  11   2.0000      -0.726659       -19.7734
  12   2.0000      -0.654833       -17.8189
  13   2.0000      -0.653730       -17.7889
  14   2.0000      -0.549945       -14.9648
  15   2.0000      -0.543319       -14.7845
  16   2.0000      -0.499234       -13.5848
  17   2.0000      -0.493554       -13.4303
  18   2.0000      -0.460815       -12.5394
  19   2.0000      -0.446189       -12.1414
  20   2.0000      -0.436261       -11.8713
  21   2.0000      -0.433255       -11.7895
  22   2.0000      -0.408415       -11.1135
  23   2.0000      -0.397202       -10.8084
  24   2.0000      -0.390553       -10.6275
  25   2.0000      -0.385167       -10.4809
  26   2.0000      -0.333888        -9.0856
  27   2.0000      -0.316960        -8.6249
  28   0.0000       0.134275         3.6538
  29   0.0000       0.151855         4.1322
  30   0.0000       0.158620         4.3163
  31   0.0000       0.159917         4.3516
  32   0.0000       0.168880         4.5955

MULLIKEN ATOMIC CHARGES
-----------------------
   0 C :    0.020233
   1 C :    0.020194
   2 O :   -0.464912
   3 H :    0.207830
   4 H :    0.207840
   5 C :   -0.448524
   6 H :    0.210352
   7 H :    0.223142
   8 C :   -0.643746
   9 H :    0.219822
  10 H :    0.234989
  11 H :    0.208368
  12 C :   -0.448523
  13 H :    0.210382
  14 H :    0.223165
  15 C :   -0.643785
  16 H :    0.219843
  17 H :    0.234986
  18 H :    0.208343
Sum of atomic charges:   -0.0000000

LOEWDIN ATOMIC CHARGES
----------------------
   0 C :   -0.015820
   1 C :   -0.015830
   2 O :   -0.280894
   3 H :    0.118779
   4 H :    0.118779
   5 C :   -0.249439
   6 H :    0.128369
   7 H :    0.131759
   8 C :   -0.360564
   9 H :    0.127798
  10 H :    0.135583
  11 H :    0.123981
  12 C :   -0.249446
  13 H :    0.128371
  14 H :    0.131783
  15 C :   -0.360568
  16 H :    0.127805
  17 H :    0.135576
  18 H :    0.123975

  Mayer bond orders larger than 0.100000
B(  0-C ,  1-C ) :   0.9614 B(  0-C ,  2-O ) :   0.9379 B(  0-C ,  3-H ) :   0.9037
B(  0-C , 12-C ) :   0.9646 B(  1-C ,  2-O ) :   0.9379 B(  1-C ,  4-H ) :   0.9038
B(  1-C ,  5-C ) :   0.9646 B(  5-C ,  6-H ) :   0.9117 B(  5-C ,  7-H ) :   0.9189
B(  5-C ,  8-C ) :   0.9855 B(  8-C ,  9-H ) :   0.9301 B(  8-C , 10-H ) :   0.9208
B(  8-C , 11-H ) :   0.9297 B( 12-C , 13-H ) :   0.9117 B( 12-C , 14-H ) :   0.9189
B( 12-C , 15-C ) :   0.9855 B( 15-C , 16-H ) :   0.9301 B( 15-C , 17-H ) :   0.9208
B( 15-C , 18-H ) :   0.9298

Dispersion correction           -0.008033340
FINAL SINGLE POINT ENERGY      -310.380255448222

DIPOLE MOMENT
-------------
                                X             Y             Z
Electronic contribution:     -0.01294       1.21557      -0.01240
Nuclear contribution   :      0.02183      -1.98098       0.02138
                        -----------------------------------------
Total Dipole Moment    :      0.00889      -0.76541       0.00898
                        -----------------------------------------
Magnitude (a.u.)       :      0.76551
Magnitude (Debye)      :      1.94578

Rotational constants in cm-1:     0.308228     0.037903     0.036477
Rotational constants in MHz :  9240.440371  1136.295811  1093.538055

                             ****ORCA TERMINATED NORMALLY****
TOTAL RUN TIME: 0 days 0 hours 1 minutes 29 seconds 266 msec
