                         Program Version 5.0.3 -  RELEASE  -
|  1> ! PBEh-3c def2/J TightSCF DefGrid3
|  2>
|  3> %maxcore 60000
|  4>
|  5> %pal
|  6> nprocs 4
|  7> end
|  8>
|  9> *xyzfile 0 1 17a.xyz
| 10>
| 11>                          ****END OF INPUT****

CARTESIAN COORDINATES (ANGSTROEM)
---------------------------------
  C     -1.207557    0.697183    0.000000
  C     -1.207557   -0.697183    0.000000
  C      0.000000   -1.394367    0.000000
  C      1.207557   -0.697183    0.000000
  C      1.207557    0.697183    0.000000
  C      0.000000    1.394367    0.000000
  H     -2.143978    1.237827    0.000000
  H     -2.143978   -1.237827    0.000000
  H      0.000000   -2.475653    0.000000
  H      2.143978   -1.237827    0.000000
  H      2.143978    1.237827    0.000000
  H      0.000000    2.475653    0.000000

 Total Charge           Charge          ....    0
 Multiplicity           Mult            ....    1
 Number of Electrons    NEL             ....   42
 Basis Dimension        Dim             ....  102

ORBITAL ENERGIES
----------------

  NO   OCC          E(Eh)            E(eV)
   0   2.0000     -10.448853      -284.3277
   1   2.0000     -10.448635      -284.3218
   2   2.0000     -10.448633      -284.3218
   3   2.0000     -10.448024      -284.3052
   4   2.0000     -10.448022      -284.3051
   5   2.0000     -10.447795      -284.2990
   6   2.0000      -0.951836       -25.9008
   7   2.0000      -0.835366       -22.7315
   8   2.0000      -0.835365       -22.7314
   9   2.0000      -0.678974       -18.4758
  10   2.0000      -0.678974       -18.4758
  11   2.0000      -0.591932       -16.1073
  12   2.0000      -0.526143       -14.3171
  13   2.0000      -0.508297       -13.8315
  14   2.0000      -0.481783       -13.1100
  15   2.0000      -0.481781       -13.1099
  16   2.0000      -0.420682       -11.4473
  17   2.0000      -0.398371       -10.8402
  18   2.0000      -0.398370       -10.8402
  19   2.0000      -0.292396        -7.9565
  20   2.0000      -0.292393        -7.9564
  21   0.0000       0.019067         0.5188
  22   0.0000       0.019068         0.5189
  23   0.0000       0.140909         3.8343
  24   0.0000       0.195978         5.3328
  25   0.0000       0.201893         5.4938

MULLIKEN ATOMIC CHARGES
-----------------------
   0 C :   -0.219907
   1 C :   -0.219908
   2 C :   -0.219920
   3 C :   -0.219908
   4 C :   -0.219907
   5 C :   -0.219920
   6 H :    0.219907
   7 H :    0.219907
   8 H :    0.219920
   9 H :    0.219908
  10 H :    0.219907
  11 H :    0.219920
Sum of atomic charges:    0.0000000

LOEWDIN ATOMIC CHARGES
----------------------
   0 C :   -0.135688
   1 C :   -0.135688
   2 C :   -0.135695
   3 C :   -0.135688
   4 C :   -0.135688
   5 C :   -0.135695
   6 H :    0.135691
   7 H :    0.135691
   8 H :    0.135690
   9 H :    0.135691
  10 H :    0.135691
  11 H :    0.135690

  Mayer bond orders larger than 0.100000
B(  0-C ,  1-C ) :   1.4265 B(  0-C ,  5-C ) :   1.4264 B(  0-C ,  6-H ) :   0.9200
B(  1-C ,  2-C ) :   1.4264 B(  1-C ,  7-H ) :   0.9200 B(  2-C ,  3-C ) :   1.4264
B(  2-C ,  8-H ) :   0.9200 B(  3-C ,  4-C ) :   1.4265 B(  3-C ,  9-H ) :   0.9200
B(  4-C ,  5-C ) :   1.4264 B(  4-C , 10-H ) :   0.9200 B(  5-C , 11-H ) :   0.9200

Dispersion correction           -0.005880003
FINAL SINGLE POINT ENERGY      -231.725759407329

DIPOLE MOMENT
-------------
                                X             Y             Z
Electronic contribution:      0.00000       0.00000       0.00000
Nuclear contribution   :      0.00000       0.00000       0.00000
                        -----------------------------------------
Total Dipole Moment    :      0.00000       0.00000       0.00000
                        -----------------------------------------
Magnitude (a.u.)       :      0.00000
Magnitude (Debye)      :      0.00000

Rotational constants in cm-1:     0.190286     0.190286     0.095143
Rotational constants in MHz :  5704.627308  5704.627089  2852.313599

                             ****ORCA TERMINATED NORMALLY****
TOTAL RUN TIME: 0 days 0 hours 1 minutes 5 seconds 206 msec
