                         Program Version 5.0.3 -  RELEASE  -
|  1> ! PBEh-3c def2/J TightSCF DefGrid3
|  2>
|  3> %maxcore 60000
|  4>
|  5> %pal
|  6> nprocs 4
|  7> end
|  8>
|  9> *xyzfile 0 1 ts1.xyz
| 10>
| 11>                          ****END OF INPUT****

CARTESIAN COORDINATES (ANGSTROEM)
---------------------------------
  C     -1.989595    0.968800    0.378633
  C     -0.704362    1.213318    0.126102
  C      0.333797    0.312883   -0.347548
  C      1.628515    0.793546   -0.597906
  H     -2.642026    1.765160    0.723433
  H     -0.397851    2.241772    0.287953
  H      1.791014    1.881155   -0.658146
  O      2.626332    0.037014   -0.675322
  H      2.218547   -1.160638    0.101756
  C      0.226280   -1.101395   -0.443492
  H      0.642003   -1.582301   -1.324431
  H     -0.660603   -1.596254   -0.069545
  O      1.550723   -1.816404    0.568158
  H      1.427509   -1.489855    1.467454
  O     -2.549788   -0.269329    0.267408
  H     -3.500495   -0.197473    0.195493

 Total Charge           Charge          ....    0
 Multiplicity           Mult            ....    1
 Number of Electrons    NEL             ....   62
 Basis Dimension        Dim             ....  136

ORBITAL ENERGIES
----------------

  NO   OCC          E(Eh)            E(eV)
   0   2.0000     -19.542127      -531.7683
   1   2.0000     -19.519164      -531.1435
   2   2.0000     -19.467242      -529.7306
   3   2.0000     -10.507696      -285.9290
   4   2.0000     -10.504478      -285.8414
   5   2.0000     -10.483768      -285.2778
   6   2.0000     -10.433045      -283.8976
   7   2.0000     -10.423611      -283.6409
   8   2.0000      -1.165948       -31.7270
   9   2.0000      -1.164015       -31.6745
  10   2.0000      -1.117613       -30.4118
  11   2.0000      -0.899839       -24.4859
  12   2.0000      -0.823063       -22.3967
  13   2.0000      -0.748788       -20.3756
  14   2.0000      -0.658591       -17.9212
  15   2.0000      -0.643792       -17.5185
  16   2.0000      -0.625217       -17.0130
  17   2.0000      -0.597297       -16.2533
  18   2.0000      -0.529702       -14.4139
  19   2.0000      -0.514014       -13.9870
  20   2.0000      -0.498808       -13.5733
  21   2.0000      -0.492283       -13.3957
  22   2.0000      -0.462319       -12.5803
  23   2.0000      -0.460220       -12.5232
  24   2.0000      -0.455923       -12.4063
  25   2.0000      -0.430651       -11.7186
  26   2.0000      -0.412021       -11.2117
  27   2.0000      -0.397655       -10.8207
  28   2.0000      -0.318406        -8.6643
  29   2.0000      -0.308243        -8.3877
  30   2.0000      -0.212337        -5.7780
  31   0.0000      -0.000759        -0.0207
  32   0.0000       0.053136         1.4459
  33   0.0000       0.114474         3.1150
  34   0.0000       0.129838         3.5331
  35   0.0000       0.156064         4.2467

MULLIKEN ATOMIC CHARGES
-----------------------
   0 C :   -0.019714
   1 C :   -0.305958
   2 C :   -0.067877
   3 C :    0.107398
   4 H :    0.197185
   5 H :    0.214476
   6 H :    0.176888
   7 O :   -0.517656
   8 H :    0.489796
   9 C :   -0.380724
  10 H :    0.276450
  11 H :    0.283521
  12 O :   -0.727006
  13 H :    0.445857
  14 O :   -0.607536
  15 H :    0.434902
Sum of atomic charges:    0.0000000

LOEWDIN ATOMIC CHARGES
----------------------
   0 C :   -0.079097
   1 C :   -0.198090
   2 C :   -0.263286
   3 C :    0.039792
   4 H :    0.112481
   5 H :    0.140613
   6 H :    0.100605
   7 O :   -0.343884
   8 H :    0.346518
   9 C :   -0.027599
  10 H :    0.146432
  11 H :    0.155769
  12 O :   -0.436581
  13 H :    0.327704
  14 O :   -0.346011
  15 H :    0.324634

  Mayer bond orders larger than 0.100000
B(  0-C ,  1-C ) :   1.8023 B(  0-C ,  4-H ) :   0.9022 B(  0-C , 14-O ) :   1.0701
B(  1-C ,  2-C ) :   1.0641 B(  1-C ,  5-H ) :   0.9192 B(  2-C ,  3-C ) :   1.2689
B(  2-C ,  9-C ) :   1.1744 B(  3-C ,  6-H ) :   0.9089 B(  3-C ,  7-O ) :   1.6542
B(  7-O ,  8-H ) :   0.2379 B(  8-H , 12-O ) :   0.5379 B(  9-C , 10-H ) :   0.8974
B(  9-C , 11-H ) :   0.8938 B(  9-C , 12-O ) :   0.4682 B( 12-O , 13-H ) :   0.7720
B( 14-O , 15-H ) :   0.7750

Dispersion correction           -0.007814610
FINAL SINGLE POINT ENERGY      -420.003868496583

DIPOLE MOMENT
-------------
                                X             Y             Z
Electronic contribution:      0.92079      -0.22829      -0.42125
Nuclear contribution   :     -2.25304       0.27202       1.15796
                        -----------------------------------------
Total Dipole Moment    :     -1.33224       0.04373       0.73670
                        -----------------------------------------
Magnitude (a.u.)       :      1.52300
Magnitude (Debye)      :      3.87115

Rotational constants in cm-1:     0.124389     0.041808     0.033323
Rotational constants in MHz :  3729.084391  1253.382515   999.009117

                             ****ORCA TERMINATED NORMALLY****
TOTAL RUN TIME: 0 days 0 hours 2 minutes 5 seconds 55 msec
