                         Program Version 5.0.3 -  RELEASE  -
|  1> ! PBEh-3c def2/J TightSCF DefGrid3
|  2>
|  3> %maxcore 60000
|  4>
|  5> %pal
|  6> nprocs 4
|  7> end
|  8>
|  9> *xyzfile 0 1 40.xyz
| 10>
| 11>                          ****END OF INPUT****

CARTESIAN COORDINATES (ANGSTROEM)
---------------------------------
  C      0.784467   -2.509760    0.000000
  H      1.865130   -2.462826    0.000000
  C      0.088127   -2.540435    1.207253
  H      0.628243   -2.516438    2.143991
  C     -1.304239   -2.602322    1.207158
  H     -1.844445   -2.625579    2.143731
  C     -2.000372   -2.633445    0.000000
  H     -3.080786   -2.679822    0.000000
  C     -1.304239   -2.602322   -1.207158
  H     -1.844445   -2.625579   -2.143731
  C      0.088127   -2.540435   -1.207253
  H      0.628243   -2.516438   -2.143991
  C      0.429108    1.816318    0.000000
  C      1.194630    1.373424    1.244363
  H      2.192654    1.814441    1.264585
  H      0.670906    1.680274    2.151209
  H      1.298961    0.287832    1.265158
  C      0.291284    3.336239    0.000000
  H     -0.253755    3.676678   -0.881159
  H     -0.253755    3.676678    0.881159
  H      1.271134    3.816325    0.000000
  C     -0.956370    1.175254    0.000000
  H     -1.523862    1.477919   -0.879471
  H     -1.523862    1.477919    0.879471
  H     -0.882800    0.087044    0.000000
  C      1.194630    1.373424   -1.244363
  H      1.298961    0.287832   -1.265158
  H      0.670906    1.680274   -2.151209
  H      2.192654    1.814441   -1.264585

 Total Charge           Charge          ....    0
 Multiplicity           Mult            ....    1
 Number of Electrons    NEL             ....   84
 Basis Dimension        Dim             ....  201

ORBITAL ENERGIES
----------------

  NO   OCC          E(Eh)            E(eV)
   0   2.0000     -10.452161      -284.4178
   1   2.0000     -10.451770      -284.4071
   2   2.0000     -10.451735      -284.4062
   3   2.0000     -10.451267      -284.3934
   4   2.0000     -10.451096      -284.3888
   5   2.0000     -10.450838      -284.3818
   6   2.0000     -10.438237      -284.0389
   7   2.0000     -10.411352      -283.3073
   8   2.0000     -10.410288      -283.2783
   9   2.0000     -10.410230      -283.2768
  10   2.0000     -10.405195      -283.1397
  11   2.0000      -0.955669       -26.0051
  12   2.0000      -0.906225       -24.6596
  13   2.0000      -0.838724       -22.8228
  14   2.0000      -0.838652       -22.8209
  15   2.0000      -0.755982       -20.5713
  16   2.0000      -0.754931       -20.5427
  17   2.0000      -0.752456       -20.4754
  18   2.0000      -0.681994       -18.5580
  19   2.0000      -0.681983       -18.5577
  20   2.0000      -0.595125       -16.1942
  21   2.0000      -0.589076       -16.0296
  22   2.0000      -0.528606       -14.3841
  23   2.0000      -0.511621       -13.9219
  24   2.0000      -0.498584       -13.5672
  25   2.0000      -0.497771       -13.5450
  26   2.0000      -0.497235       -13.5304
  27   2.0000      -0.484679       -13.1888
  28   2.0000      -0.484639       -13.1877
  29   2.0000      -0.445841       -12.1319
  30   2.0000      -0.444825       -12.1043
  31   2.0000      -0.425374       -11.5750
  32   2.0000      -0.404622       -11.0103
  33   2.0000      -0.403228       -10.9724
  34   2.0000      -0.401744       -10.9320
  35   2.0000      -0.401187       -10.9169
  36   2.0000      -0.401073       -10.9138
  37   2.0000      -0.357328        -9.7234
  38   2.0000      -0.357121        -9.7178
  39   2.0000      -0.355115        -9.6632
  40   2.0000      -0.295769        -8.0483
  41   2.0000      -0.295615        -8.0441
  42   0.0000       0.014916         0.4059
  43   0.0000       0.015003         0.4083
  44   0.0000       0.123908         3.3717
  45   0.0000       0.137266         3.7352
  46   0.0000       0.186268         5.0686

MULLIKEN ATOMIC CHARGES
-----------------------
   0 C :   -0.227914
   1 H :    0.225299
   2 C :   -0.222662
   3 H :    0.223968
   4 C :   -0.221423
   5 H :    0.222119
   6 C :   -0.221358
   7 H :    0.222219
   8 C :   -0.221422
   9 H :    0.222119
  10 C :   -0.222662
  11 H :    0.223968
  12 C :   -0.104854
  13 C :   -0.610972
  14 H :    0.205570
  15 H :    0.207298
  16 H :    0.220105
  17 C :   -0.606073
  18 H :    0.209187
  19 H :    0.209187
  20 H :    0.207980
  21 C :   -0.613378
  22 H :    0.203288
  23 H :    0.203288
  24 H :    0.245123
  25 C :   -0.610972
  26 H :    0.220105
  27 H :    0.207298
  28 H :    0.205570
Sum of atomic charges:    0.0000000

LOEWDIN ATOMIC CHARGES
----------------------
   0 C :   -0.139695
   1 H :    0.137092
   2 C :   -0.137373
   3 H :    0.137079
   4 C :   -0.135392
   5 H :    0.136881
   6 C :   -0.135406
   7 H :    0.136899
   8 C :   -0.135392
   9 H :    0.136881
  10 C :   -0.137373
  11 H :    0.137079
  12 C :   -0.114555
  13 C :   -0.343968
  14 H :    0.121211
  15 H :    0.122493
  16 H :    0.126613
  17 C :   -0.343953
  18 H :    0.123123
  19 H :    0.123123
  20 H :    0.122582
  21 C :   -0.343543
  22 H :    0.120901
  23 H :    0.120901
  24 H :    0.137445
  25 C :   -0.343968
  26 H :    0.126613
  27 H :    0.122493
  28 H :    0.121211

  Mayer bond orders larger than 0.100000
B(  0-C ,  1-H ) :   0.9178 B(  0-C ,  2-C ) :   1.4231 B(  0-C , 10-C ) :   1.4231
B(  2-C ,  3-H ) :   0.9183 B(  2-C ,  4-C ) :   1.4269 B(  4-C ,  5-H ) :   0.9195
B(  4-C ,  6-C ) :   1.4252 B(  6-C ,  7-H ) :   0.9195 B(  6-C ,  8-C ) :   1.4252
B(  8-C ,  9-H ) :   0.9195 B(  8-C , 10-C ) :   1.4269 B( 10-C , 11-H ) :   0.9183
B( 12-C , 13-C ) :   0.9826 B( 12-C , 17-C ) :   0.9832 B( 12-C , 21-C ) :   0.9835
B( 12-C , 25-C ) :   0.9826 B( 13-C , 14-H ) :   0.9312 B( 13-C , 15-H ) :   0.9320
B( 13-C , 16-H ) :   0.9228 B( 17-C , 18-H ) :   0.9312 B( 17-C , 19-H ) :   0.9312
B( 17-C , 20-H ) :   0.9314 B( 21-C , 22-H ) :   0.9323 B( 21-C , 23-H ) :   0.9323
B( 21-C , 24-H ) :   0.9147 B( 25-C , 26-H ) :   0.9228 B( 25-C , 27-H ) :   0.9320
B( 25-C , 28-H ) :   0.9312

Dispersion correction           -0.016769448
FINAL SINGLE POINT ENERGY      -429.071190679832

DIPOLE MOMENT
-------------
                                X             Y             Z
Electronic contribution:     -3.32823     -13.96277       0.00000
Nuclear contribution   :      3.26344      13.81578      -0.00000
                        -----------------------------------------
Total Dipole Moment    :     -0.06479      -0.14700       0.00000
                        -----------------------------------------
Magnitude (a.u.)       :      0.16064
Magnitude (Debye)      :      0.40832

Rotational constants in cm-1:     0.059752     0.017499     0.017369
Rotational constants in MHz :  1791.307551   524.598296   520.722282

                             ****ORCA TERMINATED NORMALLY****
TOTAL RUN TIME: 0 days 0 hours 2 minutes 24 seconds 434 msec
