                         Program Version 5.0.3 -  RELEASE  -
|  1> ! PBEh-3c def2/J TightSCF DefGrid3
|  2>
|  3> %maxcore 60000
|  4>
|  5> %pal
|  6> nprocs 4
|  7> end
|  8>
|  9> *xyzfile 0 1 AM5.xyz
| 10>
| 11>                          ****END OF INPUT****

CARTESIAN COORDINATES (ANGSTROEM)
---------------------------------
  C      0.000000    0.000000    0.289054
  C      0.000000    1.275957   -0.549419
  C      0.000000   -1.275957   -0.549419
  C      0.000000    2.543414    0.301166
  C      0.000000   -2.543414    0.301166
  H      0.878729    0.000000    0.948514
  H     -0.878729    0.000000    0.948514
  H      0.878010    1.273933   -1.207518
  H     -0.878010    1.273933   -1.207518
  H      0.878010   -1.273933   -1.207518
  H     -0.878010   -1.273933   -1.207518
  H      0.884025    2.579899    0.945381
  H     -0.884025    2.579899    0.945381
  H      0.000000    3.443617   -0.320514
  H      0.884025   -2.579899    0.945381
  H     -0.884025   -2.579899    0.945381
  H      0.000000   -3.443617   -0.320514

 Total Charge           Charge          ....    0
 Multiplicity           Mult            ....    1
 Number of Electrons    NEL             ....   42
 Basis Dimension        Dim             ....   99

ORBITAL ENERGIES
----------------

  NO   OCC          E(Eh)            E(eV)
   0   2.0000     -10.428639      -283.7777
   1   2.0000     -10.428613      -283.7770
   2   2.0000     -10.426625      -283.7229
   3   2.0000     -10.420833      -283.5653
   4   2.0000     -10.420824      -283.5650
   5   2.0000      -0.891092       -24.2479
   6   2.0000      -0.835399       -22.7324
   7   2.0000      -0.753524       -20.5044
   8   2.0000      -0.669390       -18.2150
   9   2.0000      -0.642625       -17.4867
  10   2.0000      -0.534394       -14.5416
  11   2.0000      -0.493618       -13.4320
  12   2.0000      -0.487096       -13.2546
  13   2.0000      -0.456754       -12.4289
  14   2.0000      -0.446337       -12.1455
  15   2.0000      -0.427505       -11.6330
  16   2.0000      -0.401488       -10.9250
  17   2.0000      -0.381804       -10.3894
  18   2.0000      -0.372317       -10.1313
  19   2.0000      -0.365669        -9.9503
  20   2.0000      -0.361681        -9.8418
  21   0.0000       0.136773         3.7218
  22   0.0000       0.153876         4.1872
  23   0.0000       0.184121         5.0102
  24   0.0000       0.185640         5.0515
  25   0.0000       0.200677         5.4607

MULLIKEN ATOMIC CHARGES
-----------------------
   0 C :   -0.389417
   1 C :   -0.408143
   2 C :   -0.408143
   3 C :   -0.636633
   4 C :   -0.636633
   5 H :    0.198495
   6 H :    0.198495
   7 H :    0.203576
   8 H :    0.203576
   9 H :    0.203576
  10 H :    0.203576
  11 H :    0.208209
  12 H :    0.208209
  13 H :    0.217419
  14 H :    0.208210
  15 H :    0.208209
  16 H :    0.217419
Sum of atomic charges:   -0.0000000

LOEWDIN ATOMIC CHARGES
----------------------
   0 C :   -0.241286
   1 C :   -0.245878
   2 C :   -0.245878
   3 C :   -0.361685
   4 C :   -0.361685
   5 H :    0.117929
   6 H :    0.117929
   7 H :    0.119061
   8 H :    0.119061
   9 H :    0.119061
  10 H :    0.119061
  11 H :    0.123192
  12 H :    0.123192
  13 H :    0.125771
  14 H :    0.123192
  15 H :    0.123192
  16 H :    0.125771

  Mayer bond orders larger than 0.100000
B(  0-C ,  1-C ) :   0.9904 B(  0-C ,  2-C ) :   0.9904 B(  0-C ,  5-H ) :   0.9184
B(  0-C ,  6-H ) :   0.9184 B(  1-C ,  3-C ) :   0.9968 B(  1-C ,  7-H ) :   0.9205
B(  1-C ,  8-H ) :   0.9205 B(  2-C ,  4-C ) :   0.9968 B(  2-C ,  9-H ) :   0.9205
B(  2-C , 10-H ) :   0.9205 B(  3-C , 11-H ) :   0.9296 B(  3-C , 12-H ) :   0.9296
B(  3-C , 13-H ) :   0.9324 B(  4-C , 14-H ) :   0.9296 B(  4-C , 15-H ) :   0.9296
B(  4-C , 16-H ) :   0.9324

Dispersion correction           -0.006792669
FINAL SINGLE POINT ENERGY      -197.333811280890

DIPOLE MOMENT
-------------
                                X             Y             Z
Electronic contribution:      0.00000       0.00000      -0.57143
Nuclear contribution   :      0.00000       0.00000       0.55080
                        -----------------------------------------
Total Dipole Moment    :      0.00000       0.00000      -0.02064
                        -----------------------------------------
Magnitude (a.u.)       :      0.02064
Magnitude (Debye)      :      0.05245

Rotational constants in cm-1:     0.567962     0.064935     0.061601
Rotational constants in MHz : 17027.075946  1946.691849  1846.753210

                             ****ORCA TERMINATED NORMALLY****
TOTAL RUN TIME: 0 days 0 hours 1 minutes 11 seconds 531 msec
