                         Program Version 5.0.3 -  RELEASE  -
|  1> ! PBEh-3c def2/J TightSCF DefGrid3
|  2>
|  3> %maxcore 60000
|  4>
|  5> %pal
|  6> nprocs 4
|  7> end
|  8>
|  9> *xyzfile 0 1 31A.xyz
| 10>
| 11>                          ****END OF INPUT****

CARTESIAN COORDINATES (ANGSTROEM)
---------------------------------
  N     -0.010048   -1.303917    0.000000
  H     -0.012071   -2.314630    0.000000
  C     -1.267785   -0.685475    0.000000
  O     -2.285838   -1.356041    0.000000
  C     -1.196031    0.764536    0.000000
  H     -2.112713    1.328299    0.000000
  C      0.006679    1.373899    0.000000
  H      0.112476    2.448514    0.000000
  N      1.177554    0.665865    0.000000
  H      2.068927    1.131779    0.000000
  C      1.236693   -0.716406    0.000000
  O      2.282158   -1.336423    0.000000

 Total Charge           Charge          ....    0
 Multiplicity           Mult            ....    1
 Number of Electrons    NEL             ....   58
 Basis Dimension        Dim             ....  128

ORBITAL ENERGIES
----------------

  NO   OCC          E(Eh)            E(eV)
   0   2.0000     -19.483653      -530.1772
   1   2.0000     -19.476999      -529.9961
   2   2.0000     -14.718356      -400.5068
   3   2.0000     -14.697672      -399.9440
   4   2.0000     -10.609964      -288.7118
   5   2.0000     -10.574276      -287.7407
   6   2.0000     -10.538911      -286.7783
   7   2.0000     -10.467662      -284.8396
   8   2.0000      -1.197760       -32.5927
   9   2.0000      -1.158728       -31.5306
  10   2.0000      -1.094618       -29.7861
  11   2.0000      -1.035536       -28.1784
  12   2.0000      -0.900438       -24.5022
  13   2.0000      -0.780954       -21.2508
  14   2.0000      -0.751226       -20.4419
  15   2.0000      -0.678948       -18.4751
  16   2.0000      -0.637455       -17.3460
  17   2.0000      -0.594503       -16.1772
  18   2.0000      -0.553616       -15.0647
  19   2.0000      -0.545044       -14.8314
  20   2.0000      -0.522857       -14.2276
  21   2.0000      -0.491367       -13.3708
  22   2.0000      -0.486364       -13.2346
  23   2.0000      -0.469320       -12.7708
  24   2.0000      -0.431336       -11.7372
  25   2.0000      -0.362059        -9.8521
  26   2.0000      -0.341684        -9.2977
  27   2.0000      -0.329124        -8.9559
  28   2.0000      -0.300801        -8.1852
  29   0.0000      -0.022740        -0.6188
  30   0.0000       0.038952         1.0599
  31   0.0000       0.096144         2.6162
  32   0.0000       0.153211         4.1691
  33   0.0000       0.160814         4.3760

MULLIKEN ATOMIC CHARGES
-----------------------
   0 N :   -0.722976
   1 H :    0.399221
   2 C :    0.567010
   3 O :   -0.391609
   4 C :   -0.452976
   5 H :    0.266819
   6 C :    0.085028
   7 H :    0.272774
   8 N :   -0.679038
   9 H :    0.393249
  10 C :    0.677351
  11 O :   -0.414851
Sum of atomic charges:   -0.0000000

LOEWDIN ATOMIC CHARGES
----------------------
   0 N :   -0.204194
   1 H :    0.286603
   2 C :    0.123363
   3 O :   -0.241821
   4 C :   -0.240460
   5 H :    0.163894
   6 C :   -0.013363
   7 H :    0.150034
   8 N :   -0.189002
   9 H :    0.282064
  10 C :    0.145523
  11 O :   -0.262641

  Mayer bond orders larger than 0.100000
B(  0-N ,  1-H ) :   0.7984 B(  0-N ,  2-C ) :   0.9795 B(  0-N , 10-C ) :   1.0655
B(  2-C ,  3-O ) :   2.0397 B(  2-C ,  4-C ) :   1.0568 B(  4-C ,  5-H ) :   0.9063
B(  4-C ,  6-C ) :   1.6438 B(  6-C ,  7-H ) :   0.8991 B(  6-C ,  8-N ) :   1.0765
B(  8-N ,  9-H ) :   0.8080 B(  8-N , 10-C ) :   1.0248 B( 10-C , 11-O ) :   2.0465

Dispersion correction           -0.006239264
FINAL SINGLE POINT ENERGY      -413.938409668931

DIPOLE MOMENT
-------------
                                X             Y             Z
Electronic contribution:      0.53596      -2.07859      -0.00000
Nuclear contribution   :      0.00221       3.76264       0.00000
                        -----------------------------------------
Total Dipole Moment    :      0.53817       1.68406      -0.00000
                        -----------------------------------------
Magnitude (a.u.)       :      1.76796
Magnitude (Debye)      :      4.49379

Rotational constants in cm-1:     0.130329     0.067425     0.044436
Rotational constants in MHz :  3907.156457  2021.361122  1332.166778

                             ****ORCA TERMINATED NORMALLY****
TOTAL RUN TIME: 0 days 0 hours 1 minutes 44 seconds 24 msec
