                         Program Version 5.0.3 -  RELEASE  -
|  1> ! PBEh-3c def2/J TightSCF DefGrid3
|  2>
|  3> %maxcore 60000
|  4>
|  5> %pal
|  6> nprocs 4
|  7> end
|  8>
|  9> *xyzfile 0 1 E26.xyz
| 10>
| 11>                          ****END OF INPUT****

CARTESIAN COORDINATES (ANGSTROEM)
---------------------------------
  C      0.962977    0.080200    0.000000
  C     -0.530557    0.251309    0.000000
  O     -1.169504   -0.948465    0.000000
  O     -1.125601    1.298231    0.000000
  H     -2.122088   -0.763298    0.000000
  H      1.272225   -0.487169   -0.879724
  H      1.272225   -0.487169    0.879724
  H      1.440323    1.056360    0.000000

 Total Charge           Charge          ....    0
 Multiplicity           Mult            ....    1
 Number of Electrons    NEL             ....   32
 Basis Dimension        Dim             ....   68

ORBITAL ENERGIES
----------------

  NO   OCC          E(Eh)            E(eV)
   0   2.0000     -19.541080      -531.7398
   1   2.0000     -19.486790      -530.2625
   2   2.0000     -10.585951      -288.0584
   3   2.0000     -10.451300      -284.3943
   4   2.0000      -1.218930       -33.1688
   5   2.0000      -1.125168       -30.6174
   6   2.0000      -0.848693       -23.0941
   7   2.0000      -0.684662       -18.6306
   8   2.0000      -0.560808       -15.2604
   9   2.0000      -0.547717       -14.9041
  10   2.0000      -0.533272       -14.5111
  11   2.0000      -0.470550       -12.8043
  12   2.0000      -0.457659       -12.4535
  13   2.0000      -0.451467       -12.2851
  14   2.0000      -0.377821       -10.2810
  15   2.0000      -0.337297        -9.1783
  16   0.0000       0.044870         1.2210
  17   0.0000       0.128298         3.4912
  18   0.0000       0.166027         4.5178
  19   0.0000       0.204662         5.5691
  20   0.0000       0.219051         5.9607

MULLIKEN ATOMIC CHARGES
-----------------------
   0 C :   -0.740231
   1 C :    0.507198
   2 O :   -0.590562
   3 O :   -0.384690
   4 H :    0.441626
   5 H :    0.254195
   6 H :    0.254195
   7 H :    0.258268
Sum of atomic charges:    0.0000000

LOEWDIN ATOMIC CHARGES
----------------------
   0 C :   -0.391340
   1 C :    0.131610
   2 O :   -0.313674
   3 O :   -0.225293
   4 H :    0.331804
   5 H :    0.157016
   6 H :    0.157016
   7 H :    0.152861

  Mayer bond orders larger than 0.100000
B(  0-C ,  1-C ) :   0.9360 B(  0-C ,  5-H ) :   0.9050 B(  0-C ,  6-H ) :   0.9050
B(  0-C ,  7-H ) :   0.9169 B(  1-C ,  2-O ) :   1.1302 B(  1-C ,  3-O ) :   2.0785
B(  2-O ,  4-H ) :   0.7616

Dispersion correction           -0.002309879
FINAL SINGLE POINT ENERGY      -228.602210416319

DIPOLE MOMENT
-------------
                                X             Y             Z
Electronic contribution:     -3.32441       0.60134       0.00000
Nuclear contribution   :      3.58092      -1.19397       0.00000
                        -----------------------------------------
Total Dipole Moment    :      0.25651      -0.59263       0.00000
                        -----------------------------------------
Magnitude (a.u.)       :      0.64576
Magnitude (Debye)      :      1.64139

Rotational constants in cm-1:     0.377741     0.315166     0.177458
Rotational constants in MHz : 11324.384075  9448.436504  5320.048026

                             ****ORCA TERMINATED NORMALLY****
TOTAL RUN TIME: 0 days 0 hours 0 minutes 56 seconds 548 msec
