                         Program Version 5.0.3 -  RELEASE  -
|  1> ! PBEh-3c def2/J TightSCF DefGrid3
|  2>
|  3> %maxcore 60000
|  4>
|  5> %pal
|  6> nprocs 4
|  7> end
|  8>
|  9> *xyzfile 0 1 BrBr_NH3.xyz
| 10>
| 11>                          ****END OF INPUT****

CARTESIAN COORDINATES (ANGSTROEM)
---------------------------------
  Br     0.000000    0.000000    1.648362
  Br     0.000000    0.000000   -0.665027
  N      0.000000    0.000000   -3.334881
  H      0.000000    0.945707   -3.690857
  H     -0.819006   -0.472853   -3.690857
  H      0.819006   -0.472853   -3.690857

 Total Charge           Charge          ....    0
 Multiplicity           Mult            ....    1
 Number of Electrons    NEL             ....   80
 Basis Dimension        Dim             ....   85

ORBITAL ENERGIES
----------------

  NO   OCC          E(Eh)            E(eV)
   0   2.0000    -484.542057    -13185.0597
   1   2.0000    -484.523614    -13184.5578
   2   2.0000     -63.203507     -1719.8549
   3   2.0000     -63.186535     -1719.3930
   4   2.0000     -56.909026     -1548.5733
   5   2.0000     -56.904730     -1548.4564
   6   2.0000     -56.904730     -1548.4564
   7   2.0000     -56.891311     -1548.0913
   8   2.0000     -56.888216     -1548.0071
   9   2.0000     -56.888216     -1548.0071
  10   2.0000     -14.653689      -398.7472
  11   2.0000      -9.031501      -245.7596
  12   2.0000      -9.015224      -245.3167
  13   2.0000      -6.810162      -185.3139
  14   2.0000      -6.791560      -184.8077
  15   2.0000      -6.790528      -184.7797
  16   2.0000      -6.790528      -184.7797
  17   2.0000      -6.775912      -184.3819
  18   2.0000      -6.775912      -184.3819
  19   2.0000      -2.823026       -76.8185
  20   2.0000      -2.817250       -76.6613
  21   2.0000      -2.817250       -76.6613
  22   2.0000      -2.804650       -76.3184
  23   2.0000      -2.800466       -76.2046
  24   2.0000      -2.800451       -76.2041
  25   2.0000      -2.800130       -76.1954
  26   2.0000      -2.800130       -76.1954
  27   2.0000      -2.786749       -75.8313
  28   2.0000      -2.786729       -75.8307
  29   2.0000      -0.985315       -26.8118
  30   2.0000      -0.899719       -24.4826
  31   2.0000      -0.774105       -21.0645
  32   2.0000      -0.562892       -15.3171
  33   2.0000      -0.562892       -15.3171
  34   2.0000      -0.452831       -12.3222
  35   2.0000      -0.381292       -10.3755
  36   2.0000      -0.381292       -10.3755
  37   2.0000      -0.343853        -9.3567
  38   2.0000      -0.298168        -8.1136
  39   2.0000      -0.298167        -8.1135
  40   0.0000      -0.061143        -1.6638
  41   0.0000       0.114345         3.1115
  42   0.0000       0.191052         5.1988
  43   0.0000       0.191052         5.1988
  44   0.0000       0.331231         9.0132

MULLIKEN ATOMIC CHARGES
-----------------------
   0 Br:   -0.123808
   1 Br:    0.008243
   2 N :   -0.940089
   3 H :    0.351883
   4 H :    0.351886
   5 H :    0.351886
Sum of atomic charges:   -0.0000000

LOEWDIN ATOMIC CHARGES
----------------------
   0 Br:   -0.117002
   1 Br:   -0.006408
   2 N :   -0.588351
   3 H :    0.237253
   4 H :    0.237254
   5 H :    0.237254

  Mayer bond orders larger than 0.100000
B(  0-Br,  1-Br) :   0.9583 B(  1-Br,  2-N ) :   0.1398 B(  2-N ,  3-H ) :   0.8559
B(  2-N ,  4-H ) :   0.8559 B(  2-N ,  5-H ) :   0.8559

Dispersion correction           -0.001710799
FINAL SINGLE POINT ENERGY     -5202.456217451639

DIPOLE MOMENT
-------------
                                X             Y             Z
Electronic contribution:      0.00000      -0.00000      15.76740
Nuclear contribution   :      0.00000       0.00000     -17.69334
                        -----------------------------------------
Total Dipole Moment    :      0.00000      -0.00000      -1.92594
                        -----------------------------------------
Magnitude (a.u.)       :      1.92594
Magnitude (Debye)      :      4.89535

Rotational constants in cm-1:     6.233074     0.037601     0.037601
Rotational constants in MHz : 186862.862974  1127.236523  1127.236522

                             ****ORCA TERMINATED NORMALLY****
TOTAL RUN TIME: 0 days 0 hours 1 minutes 11 seconds 874 msec
