                         Program Version 5.0.3 -  RELEASE  -
|  1> ! PBEh-3c def2/J TightSCF DefGrid3
|  2>
|  3> %maxcore 60000
|  4>
|  5> %pal
|  6> nprocs 4
|  7> end
|  8>
|  9> *xyzfile 0 1 27_CH3Br-benAB.xyz
| 10>
| 11>                          ****END OF INPUT****

CARTESIAN COORDINATES (ANGSTROEM)
---------------------------------
  H      0.007708    0.214277    0.052325
  C      0.010386    0.200474    1.133645
  C      1.217878    0.246169    1.828432
  C      1.221256    0.223183    3.221704
  C      0.017504    0.154434    3.920526
  C     -1.189795    0.108384    3.226223
  C     -1.193621    0.131422    1.832737
  H      2.152051    0.294829    1.285815
  H      2.158359    0.255184    3.760584
  H      0.020469    0.133278    5.001768
  H     -2.123727    0.050629    3.768358
  H     -2.130145    0.090892    1.293508
  Br    -0.037667   -3.295073    1.773240
  C      0.090914   -5.222622    1.868972
  H      0.022220   -5.618701    0.863215
  H      1.044381   -5.477357    2.315267
  H     -0.725846   -5.587601    2.479578

 Total Charge           Charge          ....    0
 Multiplicity           Mult            ....    1
 Number of Electrons    NEL             ....   86
 Basis Dimension        Dim             ....  155

ORBITAL ENERGIES
----------------

  NO   OCC          E(Eh)            E(eV)
   0   2.0000    -484.505164    -13184.0558
   1   2.0000     -63.168072     -1718.8906
   2   2.0000     -56.872347     -1547.5752
   3   2.0000     -56.870075     -1547.5134
   4   2.0000     -56.870072     -1547.5133
   5   2.0000     -10.482373      -285.2399
   6   2.0000     -10.444824      -284.2181
   7   2.0000     -10.444492      -284.2091
   8   2.0000     -10.444443      -284.2077
   9   2.0000     -10.443961      -284.1946
  10   2.0000     -10.443816      -284.1907
  11   2.0000     -10.443570      -284.1840
  12   2.0000      -8.997053      -244.8223
  13   2.0000      -6.771772      -184.2693
  14   2.0000      -6.758774      -183.9156
  15   2.0000      -6.758770      -183.9155
  16   2.0000      -2.785329       -75.7927
  17   2.0000      -2.781368       -75.6849
  18   2.0000      -2.781363       -75.6847
  19   2.0000      -2.770198       -75.3809
  20   2.0000      -2.770198       -75.3809
  21   2.0000      -0.948352       -25.8060
  22   2.0000      -0.883300       -24.0358
  23   2.0000      -0.831527       -22.6270
  24   2.0000      -0.831426       -22.6243
  25   2.0000      -0.738938       -20.1075
  26   2.0000      -0.674877       -18.3643
  27   2.0000      -0.674858       -18.3638
  28   2.0000      -0.587985       -15.9999
  29   2.0000      -0.521665       -14.1952
  30   2.0000      -0.504405       -13.7256
  31   2.0000      -0.498242       -13.5579
  32   2.0000      -0.498199       -13.5567
  33   2.0000      -0.477700       -12.9989
  34   2.0000      -0.477679       -12.9983
  35   2.0000      -0.435168       -11.8415
  36   2.0000      -0.408417       -11.1136
  37   2.0000      -0.394180       -10.7262
  38   2.0000      -0.394144       -10.7252
  39   2.0000      -0.315056        -8.5731
  40   2.0000      -0.313781        -8.5384
  41   2.0000      -0.287242        -7.8163
  42   2.0000      -0.286137        -7.7862
  43   0.0000       0.022682         0.6172
  44   0.0000       0.023139         0.6296
  45   0.0000       0.049577         1.3491
  46   0.0000       0.144745         3.9387
  47   0.0000       0.162913         4.4331

MULLIKEN ATOMIC CHARGES
-----------------------
   0 H :    0.221693
   1 C :   -0.226590
   2 C :   -0.216632
   3 C :   -0.216191
   4 C :   -0.216579
   5 C :   -0.215564
   6 C :   -0.221904
   7 H :    0.219389
   8 H :    0.218039
   9 H :    0.217947
  10 H :    0.218587
  11 H :    0.220774
  12 Br:   -0.080629
  13 C :   -0.700297
  14 H :    0.258914
  15 H :    0.259626
  16 H :    0.259417
Sum of atomic charges:   -0.0000000

LOEWDIN ATOMIC CHARGES
----------------------
   0 H :    0.136522
   1 C :   -0.139693
   2 C :   -0.135399
   3 C :   -0.134598
   4 C :   -0.134282
   5 C :   -0.134840
   6 C :   -0.137686
   7 H :    0.135834
   8 H :    0.135196
   9 H :    0.135122
  10 H :    0.135484
  11 H :    0.136304
  12 Br:   -0.005482
  13 C :   -0.414670
  14 H :    0.140527
  15 H :    0.140881
  16 H :    0.140775

  Mayer bond orders larger than 0.100000
B(  0-H ,  1-C ) :   0.9195 B(  1-C ,  2-C ) :   1.4241 B(  1-C ,  6-C ) :   1.4243
B(  2-C ,  3-C ) :   1.4266 B(  2-C ,  7-H ) :   0.9203 B(  3-C ,  4-C ) :   1.4257
B(  3-C ,  8-H ) :   0.9206 B(  4-C ,  5-C ) :   1.4268 B(  4-C ,  9-H ) :   0.9206
B(  5-C ,  6-C ) :   1.4249 B(  5-C , 10-H ) :   0.9205 B(  6-C , 11-H ) :   0.9198
B( 12-Br, 13-C ) :   1.0204 B( 13-C , 14-H ) :   0.8988 B( 13-C , 15-H ) :   0.8985
B( 13-C , 16-H ) :   0.8986

Dispersion correction           -0.008715952
FINAL SINGLE POINT ENERGY     -2844.555676522298

DIPOLE MOMENT
-------------
                                X             Y             Z
Electronic contribution:     -0.69538     -14.97534      -4.79776
Nuclear contribution   :      0.74655      14.31773       4.85433
                        -----------------------------------------
Total Dipole Moment    :      0.05118      -0.65761       0.05657
                        -----------------------------------------
Magnitude (a.u.)       :      0.66202
Magnitude (Debye)      :      1.68271

Rotational constants in cm-1:     0.093485     0.021629     0.021627
Rotational constants in MHz :  2802.621214   648.432623   648.355064

                             ****ORCA TERMINATED NORMALLY****
TOTAL RUN TIME: 0 days 0 hours 1 minutes 55 seconds 234 msec
