                         Program Version 5.0.3 -  RELEASE  -
|  1> ! PBEh-3c def2/J TightSCF DefGrid3
|  2>
|  3> %maxcore 60000
|  4>
|  5> %pal
|  6> nprocs 4
|  7> end
|  8>
|  9> *xyzfile -1 1 12.xyz
| 10>
| 11>                          ****END OF INPUT****

CARTESIAN COORDINATES (ANGSTROEM)
---------------------------------
  N      1.339030    1.021340    0.060054
  N      0.136424    1.079647    0.069926
  N      2.539119    0.974285    0.052213
  O     -2.642136    0.841136   -0.016215
  H     -1.658730    0.788592    0.009031
  H     -2.778131    1.791619    0.002411

 Total Charge           Charge          ....   -1
 Multiplicity           Mult            ....    1
 Number of Electrons    NEL             ....   32
 Basis Dimension        Dim             ....   64

ORBITAL ENERGIES
----------------

  NO   OCC          E(Eh)            E(eV)
   0   2.0000     -19.292755      -524.9826
   1   2.0000     -14.555725      -396.0814
   2   2.0000     -14.405523      -391.9942
   3   2.0000     -14.404386      -391.9633
   4   2.0000      -0.951917       -25.9030
   5   2.0000      -0.917685       -24.9715
   6   2.0000      -0.767864       -20.8946
   7   2.0000      -0.397778       -10.8241
   8   2.0000      -0.302797        -8.2395
   9   2.0000      -0.292974        -7.9722
  10   2.0000      -0.292938        -7.9713
  11   2.0000      -0.260394        -7.0857
  12   2.0000      -0.217129        -5.9084
  13   2.0000      -0.180524        -4.9123
  14   2.0000      -0.035082        -0.9546
  15   2.0000      -0.034444        -0.9373
  16   0.0000       0.307831         8.3765
  17   0.0000       0.310177         8.4403
  18   0.0000       0.311980         8.4894
  19   0.0000       0.453332        12.3358
  20   0.0000       0.583780        15.8855

MULLIKEN ATOMIC CHARGES
-----------------------
   0 N :    0.177609
   1 N :   -0.600411
   2 N :   -0.515502
   3 O :   -0.891531
   4 H :    0.459518
   5 H :    0.370317
Sum of atomic charges:   -1.0000000

LOEWDIN ATOMIC CHARGES
----------------------
   0 N :    0.106181
   1 N :   -0.531109
   2 N :   -0.489207
   3 O :   -0.658310
   4 H :    0.294321
   5 H :    0.278123

  Mayer bond orders larger than 0.100000
B(  0-N ,  1-N ) :   1.9943 B(  0-N ,  2-N ) :   2.2644 B(  1-N ,  2-N ) :   0.6136
B(  1-N ,  4-H ) :   0.1325 B(  3-O ,  4-H ) :   0.6898 B(  3-O ,  5-H ) :   0.8438

Dispersion correction           -0.001361376
FINAL SINGLE POINT ENERGY      -240.127861017183

DIPOLE MOMENT
-------------
                                X             Y             Z
Electronic contribution:      3.53953      -0.04367       0.05964
Nuclear contribution   :     -4.48102       0.57108      -0.06172
                        -----------------------------------------
Total Dipole Moment    :     -0.94149       0.52741      -0.00208
                        -----------------------------------------
Magnitude (a.u.)       :      1.07915
Magnitude (Debye)      :      2.74299

Rotational constants in cm-1:    15.271295     0.071256     0.070935
Rotational constants in MHz : 457821.911513  2136.204227  2126.582258

                             ****ORCA TERMINATED NORMALLY****
TOTAL RUN TIME: 0 days 0 hours 0 minutes 59 seconds 894 msec
