                         Program Version 5.0.3 -  RELEASE  -
|  1> ! PBEh-3c def2/J TightSCF DefGrid3
|  2>
|  3> %maxcore 60000
|  4>
|  5> %pal
|  6> nprocs 4
|  7> end
|  8>
|  9> *xyzfile 0 1 c2h4.xyz
| 10>
| 11>                          ****END OF INPUT****

CARTESIAN COORDINATES (ANGSTROEM)
---------------------------------
  C      0.665594    0.000000    0.000000
  C     -0.665594    0.000000    0.000000
  H      1.231670   -0.921493    0.000000
  H      1.231670    0.921493    0.000000
  H     -1.231670   -0.921493    0.000000
  H     -1.231670    0.921493    0.000000

 Total Charge           Charge          ....    0
 Multiplicity           Mult            ....    1
 Number of Electrons    NEL             ....   16
 Basis Dimension        Dim             ....   38

ORBITAL ENERGIES
----------------

  NO   OCC          E(Eh)            E(eV)
   0   2.0000     -10.440789      -284.1083
   1   2.0000     -10.439834      -284.0823
   2   2.0000      -0.849280       -23.1101
   3   2.0000      -0.652259       -17.7489
   4   2.0000      -0.531328       -14.4582
   5   2.0000      -0.478002       -13.0071
   6   2.0000      -0.409008       -11.1297
   7   2.0000      -0.316302        -8.6070
   8   0.0000       0.039736         1.0813
   9   0.0000       0.169803         4.6206
  10   0.0000       0.196858         5.3568
  11   0.0000       0.210465         5.7270
  12   0.0000       0.318427         8.6648

MULLIKEN ATOMIC CHARGES
-----------------------
   0 C :   -0.430408
   1 C :   -0.430408
   2 H :    0.215204
   3 H :    0.215204
   4 H :    0.215204
   5 H :    0.215204
Sum of atomic charges:   -0.0000000

LOEWDIN ATOMIC CHARGES
----------------------
   0 C :   -0.260386
   1 C :   -0.260386
   2 H :    0.130193
   3 H :    0.130193
   4 H :    0.130193
   5 H :    0.130193

  Mayer bond orders larger than 0.100000
B(  0-C ,  1-C ) :   1.9830 B(  0-C ,  2-H ) :   0.9299 B(  0-C ,  3-H ) :   0.9299
B(  1-C ,  4-H ) :   0.9299 B(  1-C ,  5-H ) :   0.9299

Dispersion correction           -0.001301798
FINAL SINGLE POINT ENERGY       -78.405355355018

DIPOLE MOMENT
-------------
                                X             Y             Z
Electronic contribution:      0.00000       0.00000      -0.00000
Nuclear contribution   :      0.00000       0.00000       0.00000
                        -----------------------------------------
Total Dipole Moment    :      0.00000       0.00000      -0.00000
                        -----------------------------------------
Magnitude (a.u.)       :      0.00000
Magnitude (Debye)      :      0.00000

Rotational constants in cm-1:     4.923705     1.005904     0.835262
Rotational constants in MHz : 147608.958762 30156.242097 25040.511161

                             ****ORCA TERMINATED NORMALLY****
TOTAL RUN TIME: 0 days 0 hours 0 minutes 14 seconds 792 msec
