                         Program Version 5.0.3 -  RELEASE  -
|  1> ! PBEh-3c def2/J TightSCF DefGrid3
|  2>
|  3> %maxcore 60000
|  4>
|  5> %pal
|  6> nprocs 4
|  7> end
|  8>
|  9> *xyzfile 0 1 VAL_xak.xyz
| 10>
| 11>                          ****END OF INPUT****

CARTESIAN COORDINATES (ANGSTROEM)
---------------------------------
  N      1.145938   -0.152731    0.872079
  C     -0.110743    0.576971    0.698971
  C     -1.319954   -0.355736    0.577113
  O     -2.232674   -0.319981    1.397871
  C     -0.059090    1.619963   -0.425186
  C     -1.384487    2.372577   -0.471268
  C      1.099626    2.583588   -0.205829
  H      1.552576   -0.145080    1.790700
  H     -0.274278    1.107817    1.637345
  H      0.088833    1.100607   -1.371334
  H     -2.222590    1.706383   -0.668713
  H     -1.359418    3.127936   -1.255611
  H     -1.574489    2.876681    0.477819
  H      2.059215    2.069581   -0.201251
  H      1.124223    3.332624   -0.996364
  H      0.986671    3.106812    0.746259
  N     -1.314790   -1.161504   -0.505260
  H     -0.467417   -1.196578   -1.061102
  C     -2.386956   -2.110032   -0.713866
  H     -3.342388   -1.619663   -0.547237
  H     -2.340534   -2.475624   -1.735335
  H     -2.320784   -2.955426   -0.028528
  C      1.814316   -0.831721   -0.089651
  O      1.398386   -0.963884   -1.241847
  C      3.132892   -1.429711    0.336392
  H      3.913975   -1.022426   -0.301329
  H      3.095934   -2.503084    0.166348
  H      3.382390   -1.237906    1.376772

 Total Charge           Charge          ....    0
 Multiplicity           Mult            ....    1
 Number of Electrons    NEL             ....   94
 Basis Dimension        Dim             ....  212

ORBITAL ENERGIES
----------------

  NO   OCC          E(Eh)            E(eV)
   0   2.0000     -19.474750      -529.9349
   1   2.0000     -19.446185      -529.1576
   2   2.0000     -14.681921      -399.5154
   3   2.0000     -14.642782      -398.4504
   4   2.0000     -10.567447      -287.5549
   5   2.0000     -10.533096      -286.6201
   6   2.0000     -10.490684      -285.4660
   7   2.0000     -10.455628      -284.5121
   8   2.0000     -10.455293      -284.5030
   9   2.0000     -10.447569      -284.2928
  10   2.0000     -10.427224      -283.7392
  11   2.0000     -10.421871      -283.5935
  12   2.0000      -1.159860       -31.5614
  13   2.0000      -1.129260       -30.7287
  14   2.0000      -1.041865       -28.3506
  15   2.0000      -1.005875       -27.3712
  16   2.0000      -0.908688       -24.7267
  17   2.0000      -0.848716       -23.0947
  18   2.0000      -0.804925       -21.9031
  19   2.0000      -0.767290       -20.8790
  20   2.0000      -0.762607       -20.7516
  21   2.0000      -0.683185       -18.5904
  22   2.0000      -0.651282       -17.7223
  23   2.0000      -0.628821       -17.1111
  24   2.0000      -0.601224       -16.3601
  25   2.0000      -0.584274       -15.8989
  26   2.0000      -0.548268       -14.9191
  27   2.0000      -0.528578       -14.3833
  28   2.0000      -0.514944       -14.0123
  29   2.0000      -0.509360       -13.8604
  30   2.0000      -0.493512       -13.4291
  31   2.0000      -0.482793       -13.1375
  32   2.0000      -0.479432       -13.0460
  33   2.0000      -0.472395       -12.8545
  34   2.0000      -0.456582       -12.4242
  35   2.0000      -0.443262       -12.0618
  36   2.0000      -0.440560       -11.9882
  37   2.0000      -0.435603       -11.8534
  38   2.0000      -0.428568       -11.6619
  39   2.0000      -0.415154       -11.2969
  40   2.0000      -0.396545       -10.7905
  41   2.0000      -0.390379       -10.6228
  42   2.0000      -0.382394       -10.4055
  43   2.0000      -0.335174        -9.1205
  44   2.0000      -0.324220        -8.8225
  45   2.0000      -0.290336        -7.9004
  46   2.0000      -0.285701        -7.7743
  47   0.0000       0.038577         1.0497
  48   0.0000       0.068532         1.8648
  49   0.0000       0.098875         2.6905
  50   0.0000       0.144947         3.9442
  51   0.0000       0.156686         4.2636

MULLIKEN ATOMIC CHARGES
-----------------------
   0 N :   -0.635722
   1 C :   -0.171707
   2 C :    0.535710
   3 O :   -0.435158
   4 C :   -0.268086
   5 C :   -0.636814
   6 C :   -0.630079
   7 H :    0.364779
   8 H :    0.257467
   9 H :    0.252694
  10 H :    0.245913
  11 H :    0.220468
  12 H :    0.211075
  13 H :    0.220977
  14 H :    0.227234
  15 H :    0.201222
  16 N :   -0.645651
  17 H :    0.412501
  18 C :   -0.486971
  19 H :    0.242532
  20 H :    0.217003
  21 H :    0.221304
  22 C :    0.542002
  23 O :   -0.465341
  24 C :   -0.740284
  25 H :    0.263778
  26 H :    0.263193
  27 H :    0.215958
Sum of atomic charges:   -0.0000000

LOEWDIN ATOMIC CHARGES
----------------------
   0 N :   -0.211253
   1 C :   -0.082238
   2 C :    0.096628
   3 O :   -0.282639
   4 C :   -0.167506
   5 C :   -0.349642
   6 C :   -0.351985
   7 H :    0.261566
   8 H :    0.146021
   9 H :    0.139928
  10 H :    0.138648
  11 H :    0.129045
  12 H :    0.127103
  13 H :    0.126276
  14 H :    0.131940
  15 H :    0.121712
  16 N :   -0.252230
  17 H :    0.267025
  18 C :   -0.252749
  19 H :    0.137754
  20 H :    0.125456
  21 H :    0.121371
  22 C :    0.114285
  23 O :   -0.300242
  24 C :   -0.383006
  25 H :    0.160375
  26 H :    0.159644
  27 H :    0.128711

  Mayer bond orders larger than 0.100000
B(  0-N ,  1-C ) :   0.8954 B(  0-N ,  7-H ) :   0.8281 B(  0-N , 22-C ) :   1.1756
B(  1-C ,  2-C ) :   0.9143 B(  1-C ,  4-C ) :   0.9531 B(  1-C ,  8-H ) :   0.9009
B(  2-C ,  3-O ) :   1.9740 B(  2-C , 16-N ) :   1.1785 B(  4-C ,  5-C ) :   0.9870
B(  4-C ,  6-C ) :   0.9892 B(  4-C ,  9-H ) :   0.8811 B(  5-C , 10-H ) :   0.9144
B(  5-C , 11-H ) :   0.9268 B(  5-C , 12-H ) :   0.9238 B(  6-C , 13-H ) :   0.9262
B(  6-C , 14-H ) :   0.9289 B(  6-C , 15-H ) :   0.9279 B( 16-N , 17-H ) :   0.7204
B( 16-N , 18-C ) :   0.9655 B( 18-C , 19-H ) :   0.9130 B( 18-C , 20-H ) :   0.9271
B( 18-C , 21-H ) :   0.9177 B( 22-C , 23-O ) :   1.8632 B( 22-C , 24-C ) :   0.9336
B( 24-C , 25-H ) :   0.9062 B( 24-C , 26-H ) :   0.9062 B( 24-C , 27-H ) :   0.9216

Dispersion correction           -0.016814531
FINAL SINGLE POINT ENERGY      -573.250070330487

DIPOLE MOMENT
-------------
                                X             Y             Z
Electronic contribution:     -1.10452      -5.33253       2.24302
Nuclear contribution   :      2.49212       5.31344      -2.03095
                        -----------------------------------------
Total Dipole Moment    :      1.38760      -0.01910       0.21207
                        -----------------------------------------
Magnitude (a.u.)       :      1.40384
Magnitude (Debye)      :      3.56827

Rotational constants in cm-1:     0.034111     0.026901     0.018737
Rotational constants in MHz :  1022.630673   806.461805   561.725047

                             ****ORCA TERMINATED NORMALLY****
TOTAL RUN TIME: 0 days 0 hours 2 minutes 25 seconds 862 msec
