                         Program Version 5.0.3 -  RELEASE  -
|  1> ! PBEh-3c def2/J TightSCF DefGrid3
|  2>
|  3> %maxcore 60000
|  4>
|  5> %pal
|  6> nprocs 4
|  7> end
|  8>
|  9> *xyzfile 0 1 ASP_xay.xyz
| 10>
| 11>                          ****END OF INPUT****

CARTESIAN COORDINATES (ANGSTROEM)
---------------------------------
  N     -1.112447   -0.967816   -0.530063
  H     -1.055708   -1.441134   -1.416022
  C      0.116309   -0.433722    0.044038
  H      0.057988   -0.593764    1.122459
  C      1.296211   -1.194117   -0.550619
  C      0.208876    1.075912   -0.225700
  H      1.406597   -0.909338   -1.598312
  H      1.090938   -2.259057   -0.480728
  C      2.608158   -0.960951    0.185322
  O      1.065058    1.553462   -0.983615
  O      3.157932    0.248704    0.025864
  O      3.122430   -1.814842    0.868071
  N     -0.710354    1.802343    0.417002
  C     -0.814339    3.237159    0.246987
  H     -1.405272    1.287362    0.950739
  H     -1.578795    3.496288   -0.484210
  H     -1.061681    3.697532    1.199193
  H      0.143329    3.610065   -0.101284
  C     -2.305817   -0.904005    0.110751
  C     -3.450951   -1.620682   -0.553307
  O     -2.443072   -0.300697    1.175460
  H     -3.802054   -2.399352    0.119939
  H     -3.183847   -2.066489   -1.507797
  H     -4.265991   -0.916056   -0.696955
  H      2.537362    0.800315   -0.502405

 Total Charge           Charge          ....    0
 Multiplicity           Mult            ....    1
 Number of Electrons    NEL             ....  100
 Basis Dimension        Dim             ....  219

ORBITAL ENERGIES
----------------

  NO   OCC          E(Eh)            E(eV)
   0   2.0000     -19.515023      -531.0308
   1   2.0000     -19.492436      -530.4161
   2   2.0000     -19.491993      -530.4041
   3   2.0000     -19.467143      -529.7279
   4   2.0000     -14.701600      -400.0509
   5   2.0000     -14.679682      -399.4544
   6   2.0000     -10.584245      -288.0119
   7   2.0000     -10.573368      -287.7160
   8   2.0000     -10.572160      -287.6831
   9   2.0000     -10.524491      -286.3860
  10   2.0000     -10.479156      -285.1523
  11   2.0000     -10.471421      -284.9418
  12   2.0000     -10.468290      -284.8567
  13   2.0000      -1.199256       -32.6334
  14   2.0000      -1.180359       -32.1192
  15   2.0000      -1.168467       -31.7956
  16   2.0000      -1.109890       -30.2016
  17   2.0000      -1.064312       -28.9614
  18   2.0000      -1.042663       -28.3723
  19   2.0000      -0.911287       -24.7974
  20   2.0000      -0.850994       -23.1567
  21   2.0000      -0.825059       -22.4510
  22   2.0000      -0.759510       -20.6673
  23   2.0000      -0.702825       -19.1248
  24   2.0000      -0.679329       -18.4855
  25   2.0000      -0.660359       -17.9693
  26   2.0000      -0.632063       -17.1993
  27   2.0000      -0.596191       -16.2232
  28   2.0000      -0.595226       -16.1969
  29   2.0000      -0.563902       -15.3446
  30   2.0000      -0.552703       -15.0398
  31   2.0000      -0.536441       -14.5973
  32   2.0000      -0.531045       -14.4505
  33   2.0000      -0.524813       -14.2809
  34   2.0000      -0.503850       -13.7105
  35   2.0000      -0.499248       -13.5852
  36   2.0000      -0.491479       -13.3738
  37   2.0000      -0.484037       -13.1713
  38   2.0000      -0.467869       -12.7314
  39   2.0000      -0.464375       -12.6363
  40   2.0000      -0.453614       -12.3435
  41   2.0000      -0.443555       -12.0697
  42   2.0000      -0.437611       -11.9080
  43   2.0000      -0.420429       -11.4405
  44   2.0000      -0.364838        -9.9277
  45   2.0000      -0.354941        -9.6584
  46   2.0000      -0.346076        -9.4172
  47   2.0000      -0.330316        -8.9884
  48   2.0000      -0.325360        -8.8535
  49   2.0000      -0.315129        -8.5751
  50   0.0000       0.015572         0.4237
  51   0.0000       0.032299         0.8789
  52   0.0000       0.052744         1.4352
  53   0.0000       0.098303         2.6750
  54   0.0000       0.137928         3.7532

MULLIKEN ATOMIC CHARGES
-----------------------
   0 N :   -0.625864
   1 H :    0.372224
   2 C :   -0.206681
   3 H :    0.300254
   4 C :   -0.635223
   5 C :    0.592380
   6 H :    0.263689
   7 H :    0.275417
   8 C :    0.537239
   9 O :   -0.491778
  10 O :   -0.589586
  11 O :   -0.379603
  12 N :   -0.637081
  13 C :   -0.496691
  14 H :    0.419115
  15 H :    0.228379
  16 H :    0.233350
  17 H :    0.261620
  18 C :    0.548076
  19 C :   -0.742946
  20 O :   -0.460451
  21 H :    0.271769
  22 H :    0.220114
  23 H :    0.266425
  24 H :    0.475855
Sum of atomic charges:   -0.0000000

LOEWDIN ATOMIC CHARGES
----------------------
   0 N :   -0.215189
   1 H :    0.263387
   2 C :   -0.087059
   3 H :    0.161130
   4 C :   -0.285862
   5 C :    0.115482
   6 H :    0.151671
   7 H :    0.158054
   8 C :    0.128589
   9 O :   -0.309980
  10 O :   -0.301183
  11 O :   -0.217537
  12 N :   -0.218827
  13 C :   -0.252793
  14 H :    0.274415
  15 H :    0.126316
  16 H :    0.132328
  17 H :    0.150840
  18 C :    0.119495
  19 C :   -0.381974
  20 O :   -0.296212
  21 H :    0.165421
  22 H :    0.131703
  23 H :    0.161631
  24 H :    0.326155

  Mayer bond orders larger than 0.100000
B(  0-N ,  1-H ) :   0.8165 B(  0-N ,  2-C ) :   0.9166 B(  0-N , 18-C ) :   1.1633
B(  2-C ,  3-H ) :   0.8652 B(  2-C ,  4-C ) :   0.9654 B(  2-C ,  5-C ) :   0.8724
B(  4-C ,  6-H ) :   0.8824 B(  4-C ,  7-H ) :   0.8952 B(  4-C ,  8-C ) :   0.9351
B(  5-C ,  9-O ) :   1.7902 B(  5-C , 12-N ) :   1.2602 B(  8-C , 10-O ) :   1.2031
B(  8-C , 11-O ) :   2.0667 B(  9-O , 12-N ) :   0.1028 B(  9-O , 24-H ) :   0.1302
B( 10-O , 24-H ) :   0.6410 B( 12-N , 13-C ) :   0.9474 B( 12-N , 14-H ) :   0.7174
B( 13-C , 15-H ) :   0.9166 B( 13-C , 16-H ) :   0.9199 B( 13-C , 17-H ) :   0.9043
B( 18-C , 19-C ) :   0.9341 B( 18-C , 20-O ) :   1.8725 B( 19-C , 21-H ) :   0.9019
B( 19-C , 22-H ) :   0.9200 B( 19-C , 23-H ) :   0.9050

Dispersion correction           -0.014671050
FINAL SINGLE POINT ENERGY      -682.973158644365

DIPOLE MOMENT
-------------
                                X             Y             Z
Electronic contribution:      8.60981      -2.11948       2.08083
Nuclear contribution   :    -11.18427       2.20066      -3.37752
                        -----------------------------------------
Total Dipole Moment    :     -2.57446       0.08118      -1.29669
                        -----------------------------------------
Magnitude (a.u.)       :      2.88372
Magnitude (Debye)      :      7.32984

Rotational constants in cm-1:     0.033657     0.018576     0.013436
Rotational constants in MHz :  1009.008286   556.879853   402.812541

                             ****ORCA TERMINATED NORMALLY****
TOTAL RUN TIME: 0 days 0 hours 3 minutes 1 seconds 981 msec
