                         Program Version 5.0.3 -  RELEASE  -
|  1> ! PBEh-3c def2/J TightSCF DefGrid3
|  2>
|  3> %maxcore 60000
|  4>
|  5> %pal
|  6> nprocs 4
|  7> end
|  8>
|  9> *xyzfile 0 1 E18.xyz
| 10>
| 11>                          ****END OF INPUT****

CARTESIAN COORDINATES (ANGSTROEM)
---------------------------------
  C     -0.962990    0.080075    0.000000
  C      0.530590    0.251422    0.000000
  O      1.169695   -0.948012    0.000000
  O      1.125119    1.298672    0.000000
  H      2.122355   -0.763408    0.000000
  H     -1.440600    1.056086    0.000000
  H     -1.272084   -0.487418    0.879729
  H     -1.272084   -0.487418   -0.879729

 Total Charge           Charge          ....    0
 Multiplicity           Mult            ....    1
 Number of Electrons    NEL             ....   32
 Basis Dimension        Dim             ....   68

ORBITAL ENERGIES
----------------

  NO   OCC          E(Eh)            E(eV)
   0   2.0000     -19.541119      -531.7409
   1   2.0000     -19.486739      -530.2611
   2   2.0000     -10.585932      -288.0579
   3   2.0000     -10.451278      -284.3937
   4   2.0000      -1.218965       -33.1697
   5   2.0000      -1.125173       -30.6175
   6   2.0000      -0.848658       -23.0932
   7   2.0000      -0.684791       -18.6341
   8   2.0000      -0.560782       -15.2597
   9   2.0000      -0.547710       -14.9039
  10   2.0000      -0.533273       -14.5111
  11   2.0000      -0.470551       -12.8043
  12   2.0000      -0.457593       -12.4517
  13   2.0000      -0.451463       -12.2849
  14   2.0000      -0.377812       -10.2808
  15   2.0000      -0.337257        -9.1772
  16   0.0000       0.044914         1.2222
  17   0.0000       0.128257         3.4901
  18   0.0000       0.166033         4.5180
  19   0.0000       0.204692         5.5700
  20   0.0000       0.219052         5.9607

MULLIKEN ATOMIC CHARGES
-----------------------
   0 C :   -0.740218
   1 C :    0.507177
   2 O :   -0.590466
   3 O :   -0.384740
   4 H :    0.441664
   5 H :    0.258280
   6 H :    0.254151
   7 H :    0.254151
Sum of atomic charges:    0.0000000

LOEWDIN ATOMIC CHARGES
----------------------
   0 C :   -0.391342
   1 C :    0.131529
   2 O :   -0.313497
   3 O :   -0.225360
   4 H :    0.331830
   5 H :    0.152857
   6 H :    0.156992
   7 H :    0.156992

  Mayer bond orders larger than 0.100000
B(  0-C ,  1-C ) :   0.9360 B(  0-C ,  5-H ) :   0.9169 B(  0-C ,  6-H ) :   0.9050
B(  0-C ,  7-H ) :   0.9050 B(  1-C ,  2-O ) :   1.1303 B(  1-C ,  3-O ) :   2.0784
B(  2-O ,  4-H ) :   0.7615

Dispersion correction           -0.002309860
FINAL SINGLE POINT ENERGY      -228.602217730279

DIPOLE MOMENT
-------------
                                X             Y             Z
Electronic contribution:      3.32484       0.60190      -0.00000
Nuclear contribution   :     -3.58041      -1.19562       0.00000
                        -----------------------------------------
Total Dipole Moment    :     -0.25557      -0.59372      -0.00000
                        -----------------------------------------
Magnitude (a.u.)       :      0.64639
Magnitude (Debye)      :      1.64299

Rotational constants in cm-1:     0.377731     0.315190     0.177463
Rotational constants in MHz : 11324.097414  9449.171460  5320.219900

                             ****ORCA TERMINATED NORMALLY****
TOTAL RUN TIME: 0 days 0 hours 1 minutes 6 seconds 293 msec
