                         Program Version 5.0.3 -  RELEASE  -
|  1> ! PBEh-3c def2/J TightSCF DefGrid3
|  2>
|  3> %maxcore 60000
|  4>
|  5> %pal
|  6> nprocs 4
|  7> end
|  8>
|  9> *xyzfile 1 2 h2o+.xyz
| 10>
| 11>                          ****END OF INPUT****

CARTESIAN COORDINATES (ANGSTROEM)
---------------------------------
  O      0.000000    0.000000    0.385161
  H     -0.813056    0.000000   -0.192580
  H      0.813056    0.000000   -0.192580

 Total Charge           Charge          ....    1
 Multiplicity           Mult            ....    2
 Number of Electrons    NEL             ....    9
 Basis Dimension        Dim             ....   19

ORBITAL ENERGIES
----------------
                 SPIN UP ORBITALS
  NO   OCC          E(Eh)            E(eV)
   0   1.0000     -20.053577      -545.6856
   1   1.0000      -1.629738       -44.3474
   2   1.0000      -1.067363       -29.0444
   3   1.0000      -0.952091       -25.9077
   4   1.0000      -0.928555       -25.2673
   5   0.0000      -0.236913        -6.4467
   6   0.0000      -0.159683        -4.3452
   7   0.0000       0.489432        13.3181
   8   0.0000       0.495786        13.4910
   9   0.0000       0.498596        13.5675

                 SPIN DOWN ORBITALS
  NO   OCC          E(Eh)            E(eV)
   0   1.0000     -20.022284      -544.8341
   1   1.0000      -1.535983       -41.7962
   2   1.0000      -1.041109       -28.3300
   3   1.0000      -0.892355       -24.2822
   4   0.0000      -0.534429       -14.5426
   5   0.0000      -0.222917        -6.0659
   6   0.0000      -0.151958        -4.1350
   7   0.0000       0.488913        13.3040
   8   0.0000       0.517005        14.0684

MULLIKEN ATOMIC CHARGES AND SPIN POPULATIONS
--------------------------------------------
   0 O :   -0.159870    1.060707
   1 H :    0.579935   -0.030354
   2 H :    0.579935   -0.030354
Sum of atomic charges         :    1.0000000

LOEWDIN ATOMIC CHARGES AND SPIN POPULATIONS
-------------------------------------------
   0 O :    0.141841    1.049210
   1 H :    0.429079   -0.024605
   2 H :    0.429079   -0.024605

  Mayer bond orders larger than 0.100000
B(  0-O ,  1-H ) :   0.6496 B(  0-O ,  2-H ) :   0.6496

Dispersion correction           -0.000209472
FINAL SINGLE POINT ENERGY       -75.809608209545

DIPOLE MOMENT
-------------
                                X             Y             Z
Electronic contribution:     -0.00000       0.00000      -0.05078
Nuclear contribution   :      0.00000       0.00000      -0.96178
                        -----------------------------------------
Total Dipole Moment    :     -0.00000       0.00000      -1.01256
                        -----------------------------------------
Magnitude (a.u.)       :      1.01256
Magnitude (Debye)      :      2.57372

Rotational constants in cm-1:    28.208534    12.649285     8.733158
Rotational constants in MHz : 845670.584625 379216.034274 261813.493964

                             ****ORCA TERMINATED NORMALLY****
TOTAL RUN TIME: 0 days 0 hours 1 minutes 0 seconds 635 msec
