                         Program Version 5.0.3 -  RELEASE  -
|  1> ! PBEh-3c def2/J TightSCF DefGrid3
|  2>
|  3> %maxcore 60000
|  4>
|  5> %pal
|  6> nprocs 4
|  7> end
|  8>
|  9> *xyzfile 0 1 121.xyz
| 10>
| 11>                          ****END OF INPUT****

CARTESIAN COORDINATES (ANGSTROEM)
---------------------------------
  C     -0.509905    0.346707    0.000000
  C      0.626809   -0.319405    0.000000
  F     -1.707530   -0.276257    0.000000
  H     -0.617897    1.422764    0.000000
  H      0.650134   -1.399379    0.000000
  H      1.558389    0.225569    0.000000

 Total Charge           Charge          ....    0
 Multiplicity           Mult            ....    1
 Number of Electrons    NEL             ....   24
 Basis Dimension        Dim             ....   51

ORBITAL ENERGIES
----------------

  NO   OCC          E(Eh)            E(eV)
   0   2.0000     -25.102495      -683.0736
   1   2.0000     -10.532343      -286.5996
   2   2.0000     -10.443483      -284.1816
   3   2.0000      -1.341047       -36.4918
   4   2.0000      -0.864904       -23.5352
   5   2.0000      -0.683145       -18.5893
   6   2.0000      -0.596960       -16.2441
   7   2.0000      -0.550181       -14.9712
   8   2.0000      -0.528544       -14.3824
   9   2.0000      -0.469564       -12.7775
  10   2.0000      -0.437383       -11.9018
  11   2.0000      -0.314710        -8.5637
  12   0.0000       0.044623         1.2143
  13   0.0000       0.155828         4.2403
  14   0.0000       0.180153         4.9022
  15   0.0000       0.199741         5.4352
  16   0.0000       0.295888         8.0515

MULLIKEN ATOMIC CHARGES
-----------------------
   0 C :    0.208390
   1 C :   -0.574756
   2 F :   -0.308685
   3 H :    0.198252
   4 H :    0.243583
   5 H :    0.233216
Sum of atomic charges:   -0.0000000

LOEWDIN ATOMIC CHARGES
----------------------
   0 C :    0.081357
   1 C :   -0.322972
   2 F :   -0.178440
   3 H :    0.122534
   4 H :    0.149331
   5 H :    0.148190

  Mayer bond orders larger than 0.100000
B(  0-C ,  1-C ) :   1.8934 B(  0-C ,  2-F ) :   1.0054 B(  0-C ,  3-H ) :   0.9134
B(  1-C ,  4-H ) :   0.9167 B(  1-C ,  5-H ) :   0.9165

Dispersion correction           -0.001357373
FINAL SINGLE POINT ENERGY      -177.455477373998

DIPOLE MOMENT
-------------
                                X             Y             Z
Electronic contribution:     -3.81043      -0.37493       0.00000
Nuclear contribution   :      4.28121       0.68099       0.00000
                        -----------------------------------------
Total Dipole Moment    :      0.47078       0.30606       0.00000
                        -----------------------------------------
Magnitude (a.u.)       :      0.56152
Magnitude (Debye)      :      1.42728

Rotational constants in cm-1:     2.186138     0.353566     0.304344
Rotational constants in MHz : 65538.768920 10599.646397  9124.011485

                             ****ORCA TERMINATED NORMALLY****
TOTAL RUN TIME: 0 days 0 hours 0 minutes 26 seconds 342 msec
