                         Program Version 5.0.3 -  RELEASE  -
|  1> ! PBEh-3c def2/J TightSCF DefGrid3
|  2>
|  3> %maxcore 60000
|  4>
|  5> %pal
|  6> nprocs 4
|  7> end
|  8>
|  9> *xyzfile 0 2 NH2.xyz
| 10>
| 11>                          ****END OF INPUT****

CARTESIAN COORDINATES (ANGSTROEM)
---------------------------------
  N      0.000000    0.000000    0.424246
  H     -0.802312    0.000000   -0.212123
  H      0.802312    0.000000   -0.212123

 Total Charge           Charge          ....    0
 Multiplicity           Mult            ....    2
 Number of Electrons    NEL             ....    9
 Basis Dimension        Dim             ....   19

ORBITAL ENERGIES
----------------
                 SPIN UP ORBITALS
  NO   OCC          E(Eh)            E(eV)
   0   1.0000     -14.653208      -398.7341
   1   1.0000      -0.947014       -25.7696
   2   1.0000      -0.528573       -14.3832
   3   1.0000      -0.376625       -10.2485
   4   1.0000      -0.371764       -10.1162
   5   0.0000       0.136477         3.7137
   6   0.0000       0.207632         5.6500
   7   0.0000       0.744728        20.2651
   8   0.0000       0.759630        20.6706
   9   0.0000       0.812076        22.0977

                 SPIN DOWN ORBITALS
  NO   OCC          E(Eh)            E(eV)
   0   1.0000     -14.631396      -398.1405
   1   1.0000      -0.877286       -23.8722
   2   1.0000      -0.511326       -13.9139
   3   1.0000      -0.346197        -9.4205
   4   0.0000      -0.037645        -1.0244
   5   0.0000       0.149730         4.0744
   6   0.0000       0.215383         5.8609
   7   0.0000       0.765392        20.8274
   8   0.0000       0.830757        22.6061

MULLIKEN ATOMIC CHARGES AND SPIN POPULATIONS
--------------------------------------------
   0 N :   -0.615500    1.085563
   1 H :    0.307750   -0.042781
   2 H :    0.307750   -0.042781
Sum of atomic charges         :    0.0000000

LOEWDIN ATOMIC CHARGES AND SPIN POPULATIONS
-------------------------------------------
   0 N :   -0.408779    1.054582
   1 H :    0.204390   -0.027291
   2 H :    0.204390   -0.027291

  Mayer bond orders larger than 0.100000
B(  0-N ,  1-H ) :   0.8710 B(  0-N ,  2-H ) :   0.8710

Dispersion correction           -0.000266106
FINAL SINGLE POINT ENERGY       -55.750968708705

DIPOLE MOMENT
-------------
                                X             Y             Z
Electronic contribution:      0.00000      -0.00000       0.22373
Nuclear contribution   :      0.00000       0.00000      -1.04338
                        -----------------------------------------
Total Dipole Moment    :      0.00000      -0.00000      -0.81964
                        -----------------------------------------
Magnitude (a.u.)       :      0.81964
Magnitude (Debye)      :      2.08337

Rotational constants in cm-1:    23.620352    12.990318     8.381051
Rotational constants in MHz : 708120.336578 389439.949635 251257.586190

                             ****ORCA TERMINATED NORMALLY****
TOTAL RUN TIME: 0 days 0 hours 0 minutes 37 seconds 367 msec
