                         Program Version 5.0.3 -  RELEASE  -
|  1> ! PBEh-3c def2/J TightSCF DefGrid3
|  2>
|  3> %maxcore 60000
|  4>
|  5> %pal
|  6> nprocs 4
|  7> end
|  8>
|  9> *xyzfile 0 1 42B.xyz
| 10>
| 11>                          ****END OF INPUT****

CARTESIAN COORDINATES (ANGSTROEM)
---------------------------------
  C      0.963729   -0.847790    0.026406
  H      1.417581   -0.939847   -0.961577
  H      1.508231   -1.511770    0.695604
  C      1.018042    0.618162    0.459342
  H      1.976332    1.091061    0.248618
  H      0.829927    0.699799    1.532565
  C     -0.149309    1.230976   -0.311429
  H      0.124995    1.319758   -1.364901
  H     -0.433723    2.222117    0.040205
  C     -1.266253    0.193404   -0.140401
  H     -1.991793    0.217018   -0.951773
  H     -1.810339    0.398101    0.781848
  C     -0.543217   -1.173143   -0.036744
  H     -0.785882   -1.817300   -0.880104
  H     -0.858323   -1.700546    0.862342

 Total Charge           Charge          ....    0
 Multiplicity           Mult            ....    1
 Number of Electrons    NEL             ....   40
 Basis Dimension        Dim             ....   95

ORBITAL ENERGIES
----------------

  NO   OCC          E(Eh)            E(eV)
   0   2.0000     -10.424652      -283.6692
   1   2.0000     -10.424514      -283.6655
   2   2.0000     -10.424502      -283.6651
   3   2.0000     -10.424294      -283.6595
   4   2.0000     -10.424198      -283.6568
   5   2.0000      -0.924474       -25.1562
   6   2.0000      -0.786274       -21.3956
   7   2.0000      -0.785784       -21.3823
   8   2.0000      -0.636333       -17.3155
   9   2.0000      -0.627349       -17.0710
  10   2.0000      -0.539024       -14.6676
  11   2.0000      -0.535591       -14.5742
  12   2.0000      -0.466812       -12.7026
  13   2.0000      -0.465071       -12.6552
  14   2.0000      -0.384807       -10.4711
  15   2.0000      -0.383986       -10.4488
  16   2.0000      -0.379462       -10.3257
  17   2.0000      -0.375519       -10.2184
  18   2.0000      -0.368786       -10.0352
  19   2.0000      -0.358542        -9.7564
  20   0.0000       0.131844         3.5876
  21   0.0000       0.146704         3.9920
  22   0.0000       0.191536         5.2120
  23   0.0000       0.192498         5.2381
  24   0.0000       0.220853         6.0097

MULLIKEN ATOMIC CHARGES
-----------------------
   0 C :   -0.434213
   1 H :    0.211451
   2 H :    0.220772
   3 C :   -0.428645
   4 H :    0.220232
   5 H :    0.207139
   6 C :   -0.429649
   7 H :    0.207997
   8 H :    0.220140
   9 C :   -0.435110
  10 H :    0.220469
  11 H :    0.214477
  12 C :   -0.431305
  13 H :    0.219048
  14 H :    0.217199
Sum of atomic charges:   -0.0000000

LOEWDIN ATOMIC CHARGES
----------------------
   0 C :   -0.245047
   1 H :    0.121297
   2 H :    0.123871
   3 C :   -0.244269
   4 H :    0.123600
   5 H :    0.120026
   6 C :   -0.244363
   7 H :    0.120175
   8 H :    0.123492
   9 C :   -0.246491
  10 H :    0.124182
  11 H :    0.122532
  12 C :   -0.247441
  13 H :    0.124409
  14 H :    0.124026

  Mayer bond orders larger than 0.100000
B(  0-C ,  1-H ) :   0.9259 B(  0-C ,  2-H ) :   0.9316 B(  0-C ,  3-C ) :   0.9810
B(  0-C , 12-C ) :   0.9718 B(  3-C ,  4-H ) :   0.9294 B(  3-C ,  5-H ) :   0.9217
B(  3-C ,  6-C ) :   0.9789 B(  6-C ,  7-H ) :   0.9231 B(  6-C ,  8-H ) :   0.9301
B(  6-C ,  9-C ) :   0.9801 B(  9-C , 10-H ) :   0.9332 B(  9-C , 11-H ) :   0.9295
B(  9-C , 12-C ) :   0.9623 B( 12-C , 13-H ) :   0.9336 B( 12-C , 14-H ) :   0.9323

Dispersion correction           -0.006584258
FINAL SINGLE POINT ENERGY      -196.125750008138

DIPOLE MOMENT
-------------
                                X             Y             Z
Electronic contribution:      0.05544       0.05191      -0.00505
Nuclear contribution   :     -0.05541      -0.05208       0.00681
                        -----------------------------------------
Total Dipole Moment    :      0.00003      -0.00017       0.00176
                        -----------------------------------------
Magnitude (a.u.)       :      0.00177
Magnitude (Debye)      :      0.00449

Rotational constants in cm-1:     0.218507     0.218359     0.126666
Rotational constants in MHz :  6550.683381  6546.235117  3797.337619

                             ****ORCA TERMINATED NORMALLY****
TOTAL RUN TIME: 0 days 0 hours 0 minutes 51 seconds 880 msec
