                         Program Version 5.0.3 -  RELEASE  -
|  1> ! PBEh-3c def2/J TightSCF DefGrid3
|  2>
|  3> %maxcore 60000
|  4>
|  5> %pal
|  6> nprocs 4
|  7> end
|  8>
|  9> *xyzfile 0 1 09.xyz
| 10>
| 11>                          ****END OF INPUT****

CARTESIAN COORDINATES (ANGSTROEM)
---------------------------------
  C     -0.471925   -0.471925   -1.859112
  C      0.471925    0.471925   -1.859112
  C     -0.471925    0.471925    1.859112
  C      0.471925   -0.471925    1.859112
  H     -0.870464   -0.870464   -2.783309
  H      0.870464    0.870464   -2.783309
  H     -0.872422   -0.872422   -0.936125
  H      0.872422    0.872422   -0.936125
  H     -0.872422    0.872422    0.936125
  H      0.872422   -0.872422    0.936125
  H     -0.870464    0.870464    2.783309
  H      0.870464   -0.870464    2.783309

 Total Charge           Charge          ....    0
 Multiplicity           Mult            ....    1
 Number of Electrons    NEL             ....   32
 Basis Dimension        Dim             ....   76

ORBITAL ENERGIES
----------------

  NO   OCC          E(Eh)            E(eV)
   0   2.0000     -10.442963      -284.1675
   1   2.0000     -10.442934      -284.1667
   2   2.0000     -10.442017      -284.1417
   3   2.0000     -10.442017      -284.1417
   4   2.0000      -0.852777       -23.2052
   5   2.0000      -0.847641       -23.0655
   6   2.0000      -0.653233       -17.7754
   7   2.0000      -0.653233       -17.7754
   8   2.0000      -0.543878       -14.7997
   9   2.0000      -0.521849       -14.2002
  10   2.0000      -0.479309       -13.0427
  11   2.0000      -0.476616       -12.9694
  12   2.0000      -0.411150       -11.1880
  13   2.0000      -0.411150       -11.1880
  14   2.0000      -0.317268        -8.6333
  15   2.0000      -0.317268        -8.6333
  16   0.0000       0.033464         0.9106
  17   0.0000       0.041069         1.1175
  18   0.0000       0.130069         3.5394
  19   0.0000       0.189384         5.1534
  20   0.0000       0.195971         5.3326

MULLIKEN ATOMIC CHARGES
-----------------------
   0 C :   -0.441753
   1 C :   -0.441753
   2 C :   -0.441753
   3 C :   -0.441753
   4 H :    0.219417
   5 H :    0.219417
   6 H :    0.222337
   7 H :    0.222337
   8 H :    0.222337
   9 H :    0.222337
  10 H :    0.219417
  11 H :    0.219417
Sum of atomic charges:   -0.0000000

LOEWDIN ATOMIC CHARGES
----------------------
   0 C :   -0.262908
   1 C :   -0.262908
   2 C :   -0.262908
   3 C :   -0.262908
   4 H :    0.131097
   5 H :    0.131097
   6 H :    0.131812
   7 H :    0.131812
   8 H :    0.131812
   9 H :    0.131812
  10 H :    0.131097
  11 H :    0.131097

  Mayer bond orders larger than 0.100000
B(  0-C ,  1-C ) :   1.9728 B(  0-C ,  4-H ) :   0.9293 B(  0-C ,  6-H ) :   0.9231
B(  1-C ,  5-H ) :   0.9292 B(  1-C ,  7-H ) :   0.9231 B(  2-C ,  3-C ) :   1.9728
B(  2-C ,  8-H ) :   0.9231 B(  2-C , 10-H ) :   0.9293 B(  3-C ,  9-H ) :   0.9231
B(  3-C , 11-H ) :   0.9292

Dispersion correction           -0.003920093
FINAL SINGLE POINT ENERGY      -156.813091013901

DIPOLE MOMENT
-------------
                                X             Y             Z
Electronic contribution:      0.00000       0.00000      -0.00000
Nuclear contribution   :      0.00000       0.00000       0.00000
                        -----------------------------------------
Total Dipole Moment    :      0.00000       0.00000      -0.00000
                        -----------------------------------------
Magnitude (a.u.)       :      0.00000
Magnitude (Debye)      :      0.00000

Rotational constants in cm-1:     0.501001     0.077454     0.077454
Rotational constants in MHz : 15019.639840  2322.017354  2322.017354

                             ****ORCA TERMINATED NORMALLY****
TOTAL RUN TIME: 0 days 0 hours 1 minutes 2 seconds 386 msec
