                         Program Version 5.0.3 -  RELEASE  -
|  1> ! PBEh-3c def2/J TightSCF DefGrid3
|  2>
|  3> %maxcore 60000
|  4>
|  5> %pal
|  6> nprocs 4
|  7> end
|  8>
|  9> *xyzfile 0 1 23B.xyz
| 10>
| 11>                          ****END OF INPUT****

CARTESIAN COORDINATES (ANGSTROEM)
---------------------------------
  N      0.645085   -1.130628    0.000000
  H      1.135115   -2.014488    0.000000
  C      1.448713    0.022080    0.000000
  O      2.664277   -0.074710    0.000000
  C      0.676120    1.248298    0.000000
  H      1.197884    2.189565    0.000000
  C     -0.673043    1.186413    0.000000
  H     -1.293448    2.070638    0.000000
  N     -1.358127    0.003986    0.000000
  H     -2.390917   -0.005106    0.000000
  C     -0.727235   -1.211362    0.000000
  O     -1.324423   -2.284687    0.000000

 Total Charge           Charge          ....    0
 Multiplicity           Mult            ....    1
 Number of Electrons    NEL             ....   58
 Basis Dimension        Dim             ....  128

ORBITAL ENERGIES
----------------

  NO   OCC          E(Eh)            E(eV)
   0   2.0000     -19.478590      -530.0394
   1   2.0000     -19.477659      -530.0141
   2   2.0000     -14.723626      -400.6502
   3   2.0000     -14.697189      -399.9309
   4   2.0000     -10.608207      -288.6640
   5   2.0000     -10.574503      -287.7469
   6   2.0000     -10.540274      -286.8154
   7   2.0000     -10.469344      -284.8853
   8   2.0000      -1.193863       -32.4867
   9   2.0000      -1.157000       -31.4836
  10   2.0000      -1.093228       -29.7483
  11   2.0000      -1.034821       -28.1589
  12   2.0000      -0.900929       -24.5155
  13   2.0000      -0.783832       -21.3292
  14   2.0000      -0.749726       -20.4011
  15   2.0000      -0.677676       -18.4405
  16   2.0000      -0.639107       -17.3910
  17   2.0000      -0.594479       -16.1766
  18   2.0000      -0.554101       -15.0779
  19   2.0000      -0.545567       -14.8456
  20   2.0000      -0.519959       -14.1488
  21   2.0000      -0.489410       -13.3175
  22   2.0000      -0.486550       -13.2397
  23   2.0000      -0.469258       -12.7691
  24   2.0000      -0.429422       -11.6852
  25   2.0000      -0.358058        -9.7433
  26   2.0000      -0.339380        -9.2350
  27   2.0000      -0.328154        -8.9295
  28   2.0000      -0.301680        -8.2091
  29   0.0000      -0.024426        -0.6647
  30   0.0000       0.038960         1.0602
  31   0.0000       0.086362         2.3500
  32   0.0000       0.153192         4.1686
  33   0.0000       0.160463         4.3664

MULLIKEN ATOMIC CHARGES
-----------------------
   0 N :   -0.720418
   1 H :    0.401006
   2 C :    0.566499
   3 O :   -0.391041
   4 C :   -0.451357
   5 H :    0.267749
   6 C :    0.081314
   7 H :    0.271903
   8 N :   -0.673187
   9 H :    0.397717
  10 C :    0.679452
  11 O :   -0.429635
Sum of atomic charges:    0.0000000

LOEWDIN ATOMIC CHARGES
----------------------
   0 N :   -0.202385
   1 H :    0.287822
   2 C :    0.123809
   3 O :   -0.241464
   4 C :   -0.239836
   5 H :    0.164449
   6 C :   -0.013889
   7 H :    0.149419
   8 N :   -0.181389
   9 H :    0.289210
  10 C :    0.144264
  11 O :   -0.280010

  Mayer bond orders larger than 0.100000
B(  0-N ,  1-H ) :   0.7973 B(  0-N ,  2-C ) :   0.9771 B(  0-N , 10-C ) :   1.0708
B(  2-C ,  3-O ) :   2.0414 B(  2-C ,  4-C ) :   1.0557 B(  4-C ,  5-H ) :   0.9057
B(  4-C ,  6-C ) :   1.6457 B(  6-C ,  7-H ) :   0.8999 B(  6-C ,  8-N ) :   1.0792
B(  8-N ,  9-H ) :   0.8041 B(  8-N , 10-C ) :   1.0345 B( 10-C , 11-O ) :   2.0283

Dispersion correction           -0.006236469
FINAL SINGLE POINT ENERGY      -413.936865883921

DIPOLE MOMENT
-------------
                                X             Y             Z
Electronic contribution:      0.57486      -2.00527       0.00000
Nuclear contribution   :     -1.88780       3.28985       0.00000
                        -----------------------------------------
Total Dipole Moment    :     -1.31293       1.28457       0.00000
                        -----------------------------------------
Magnitude (a.u.)       :      1.83682
Magnitude (Debye)      :      4.66883

Rotational constants in cm-1:     0.130365     0.067495     0.044471
Rotational constants in MHz :  3908.237846  2023.445395  1333.197602

                             ****ORCA TERMINATED NORMALLY****
TOTAL RUN TIME: 0 days 0 hours 1 minutes 45 seconds 892 msec
