                         Program Version 5.0.3 -  RELEASE  -
|  1> ! PBEh-3c def2/J TightSCF DefGrid3
|  2>
|  3> %maxcore 60000
|  4>
|  5> %pal
|  6> nprocs 4
|  7> end
|  8>
|  9> *xyzfile 0 1 n2h4_ecl1.xyz
| 10>
| 11>                          ****END OF INPUT****

CARTESIAN COORDINATES (ANGSTROEM)
---------------------------------
  H     -0.006329   -0.040848   -0.008181
  N      0.999538   -0.002310   -0.004836
  N      1.477400    1.342713    0.005566
  H      0.718283    2.004209    0.007628
  H      2.033403    1.482380   -0.822271
  H      1.347707   -0.458648    0.822096

 Total Charge           Charge          ....    0
 Multiplicity           Mult            ....    1
 Number of Electrons    NEL             ....   18
 Basis Dimension        Dim             ....   38

ORBITAL ENERGIES
----------------

  NO   OCC          E(Eh)            E(eV)
   0   2.0000     -14.623573      -397.9277
   1   2.0000     -14.623386      -397.9226
   2   2.0000      -1.036628       -28.2081
   3   2.0000      -0.826277       -22.4841
   4   2.0000      -0.573183       -15.5971
   5   2.0000      -0.517458       -14.0807
   6   2.0000      -0.506884       -13.7930
   7   2.0000      -0.336477        -9.1560
   8   2.0000      -0.255872        -6.9626
   9   0.0000       0.137163         3.7324
  10   0.0000       0.168311         4.5800
  11   0.0000       0.207989         5.6597
  12   0.0000       0.246722         6.7136
  13   0.0000       0.294251         8.0070

MULLIKEN ATOMIC CHARGES
-----------------------
   0 H :    0.313811
   1 N :   -0.645572
   2 N :   -0.644998
   3 H :    0.313434
   4 H :    0.331468
   5 H :    0.331857
Sum of atomic charges:   -0.0000000

LOEWDIN ATOMIC CHARGES
----------------------
   0 H :    0.208744
   1 N :   -0.426328
   2 N :   -0.425974
   3 H :    0.208563
   4 H :    0.217377
   5 H :    0.217619

  Mayer bond orders larger than 0.100000
B(  0-H ,  1-N ) :   0.8645 B(  1-N ,  2-N ) :   1.0180 B(  1-N ,  5-H ) :   0.8589
B(  2-N ,  3-H ) :   0.8650 B(  2-N ,  4-H ) :   0.8589

Dispersion correction           -0.001184047
FINAL SINGLE POINT ENERGY      -111.613634692269

DIPOLE MOMENT
-------------
                                X             Y             Z
Electronic contribution:      0.12760      -0.04655       0.00056
Nuclear contribution   :     -0.70568       0.25109      -0.00179
                        -----------------------------------------
Total Dipole Moment    :     -0.57808       0.20454      -0.00123
                        -----------------------------------------
Magnitude (a.u.)       :      0.61320
Magnitude (Debye)      :      1.55863

Rotational constants in cm-1:     4.925748     0.836974     0.798096
Rotational constants in MHz : 147670.216089 25091.843775 23926.315067

                             ****ORCA TERMINATED NORMALLY****
TOTAL RUN TIME: 0 days 0 hours 0 minutes 45 seconds 951 msec
