                         Program Version 5.0.3 -  RELEASE  -
|  1> ! PBEh-3c def2/J TightSCF DefGrid3
|  2>
|  3> %maxcore 60000
|  4>
|  5> %pal
|  6> nprocs 4
|  7> end
|  8>
|  9> *xyzfile 0 1 13r_1.xyz
| 10>
| 11>                          ****END OF INPUT****

CARTESIAN COORDINATES (ANGSTROEM)
---------------------------------
  N      0.000000    0.000000   -1.145429
  N      0.000000    0.000000   -0.019341
  O      0.000000    0.000000    1.164770

 Total Charge           Charge          ....    0
 Multiplicity           Mult            ....    1
 Number of Electrons    NEL             ....   22
 Basis Dimension        Dim             ....   45

ORBITAL ENERGIES
----------------

  NO   OCC          E(Eh)            E(eV)
   0   2.0000     -19.596378      -533.2446
   1   2.0000     -14.882668      -404.9780
   2   2.0000     -14.746154      -401.2632
   3   2.0000      -1.366088       -37.1731
   4   2.0000      -1.199160       -32.6308
   5   2.0000      -0.678052       -18.4507
   6   2.0000      -0.636425       -17.3180
   7   2.0000      -0.636425       -17.3180
   8   2.0000      -0.546607       -14.8739
   9   2.0000      -0.395092       -10.7510
  10   2.0000      -0.395092       -10.7510
  11   0.0000       0.021378         0.5817
  12   0.0000       0.021378         0.5817
  13   0.0000       0.204494         5.5646
  14   0.0000       0.459803        12.5119
  15   0.0000       0.663387        18.0517

MULLIKEN ATOMIC CHARGES
-----------------------
   0 N :   -0.103155
   1 N :    0.448974
   2 O :   -0.345819
Sum of atomic charges:    0.0000000

LOEWDIN ATOMIC CHARGES
----------------------
   0 N :   -0.075742
   1 N :    0.244936
   2 O :   -0.169194

  Mayer bond orders larger than 0.100000
B(  0-N ,  1-N ) :   2.4624 B(  0-N ,  2-O ) :   0.4122 B(  1-N ,  2-O ) :   1.7642

Dispersion correction           -0.000548896
FINAL SINGLE POINT ENERGY      -184.265327903291

DIPOLE MOMENT
-------------
                                X             Y             Z
Electronic contribution:      0.00000      -0.00000      -0.08159
Nuclear contribution   :      0.00000       0.00000       0.00945
                        -----------------------------------------
Total Dipole Moment    :      0.00000      -0.00000      -0.07214
                        -----------------------------------------
Magnitude (a.u.)       :      0.07214
Magnitude (Debye)      :      0.18335

Rotational constants in cm-1:     0.000000     0.421801     0.421801
Rotational constants in MHz :     0.000000 12645.273935 12645.273935

                             ****ORCA TERMINATED NORMALLY****
TOTAL RUN TIME: 0 days 0 hours 0 minutes 58 seconds 22 msec
