                         Program Version 5.0.3 -  RELEASE  -
|  1> ! PBEh-3c def2/J TightSCF DefGrid3
|  2>
|  3> %maxcore 60000
|  4>
|  5> %pal
|  6> nprocs 4
|  7> end
|  8>
|  9> *xyzfile 0 1 03r.xyz
| 10>
| 11>                          ****END OF INPUT****

CARTESIAN COORDINATES (ANGSTROEM)
---------------------------------
  Si     0.000000    0.000000   -1.376238
  C      0.000000   -1.353577   -0.076013
  C      0.000000    1.353577   -0.076013
  C      0.000000   -0.743168    1.123967
  C      0.000000    0.743168    1.123967
  H     -1.204337    0.000000   -2.249363
  H      1.204337    0.000000   -2.249363
  H      0.000000   -2.431037   -0.181131
  H      0.000000    2.431037   -0.181131
  H      0.000000   -1.277650    2.070660
  H      0.000000    1.277650    2.070660

 Total Charge           Charge          ....    0
 Multiplicity           Mult            ....    1
 Number of Electrons    NEL             ....   44
 Basis Dimension        Dim             ....   90

ORBITAL ENERGIES
----------------

  NO   OCC          E(Eh)            E(eV)
   0   2.0000     -66.733485     -1815.9104
   1   2.0000     -10.461150      -284.6624
   2   2.0000     -10.460883      -284.6551
   3   2.0000     -10.437124      -284.0086
   4   2.0000     -10.437097      -284.0078
   5   2.0000      -5.511071      -149.9639
   6   2.0000      -3.802457      -103.4701
   7   2.0000      -3.801932      -103.4558
   8   2.0000      -3.801759      -103.4511
   9   2.0000      -0.918192       -24.9853
  10   2.0000      -0.803016       -21.8512
  11   2.0000      -0.696691       -18.9579
  12   2.0000      -0.588008       -16.0005
  13   2.0000      -0.579942       -15.7810
  14   2.0000      -0.548202       -14.9173
  15   2.0000      -0.469644       -12.7797
  16   2.0000      -0.439082       -11.9480
  17   2.0000      -0.418481       -11.3874
  18   2.0000      -0.369104       -10.0438
  19   2.0000      -0.363315        -9.8863
  20   2.0000      -0.360668        -9.8143
  21   2.0000      -0.276251        -7.5172
  22   0.0000      -0.031620        -0.8604
  23   0.0000       0.070997         1.9319
  24   0.0000       0.096920         2.6373
  25   0.0000       0.100567         2.7366
  26   0.0000       0.146986         3.9997

MULLIKEN ATOMIC CHARGES
-----------------------
   0 Si:    0.508172
   1 C :   -0.498660
   2 C :   -0.498660
   3 C :   -0.191992
   4 C :   -0.191992
   5 H :   -0.020292
   6 H :   -0.020292
   7 H :    0.230357
   8 H :    0.230357
   9 H :    0.226501
  10 H :    0.226501
Sum of atomic charges:    0.0000000

LOEWDIN ATOMIC CHARGES
----------------------
   0 Si:    0.367241
   1 C :   -0.306636
   2 C :   -0.306636
   3 C :   -0.128294
   4 C :   -0.128294
   5 H :   -0.023874
   6 H :   -0.023874
   7 H :    0.142996
   8 H :    0.142996
   9 H :    0.132189
  10 H :    0.132189

  Mayer bond orders larger than 0.100000
B(  0-Si,  1-C ) :   0.9338 B(  0-Si,  2-C ) :   0.9338 B(  0-Si,  5-H ) :   0.9496
B(  0-Si,  6-H ) :   0.9496 B(  1-C ,  3-C ) :   1.8217 B(  1-C ,  7-H ) :   0.9119
B(  2-C ,  4-C ) :   1.8217 B(  2-C ,  8-H ) :   0.9119 B(  3-C ,  4-C ) :   1.0694
B(  3-C ,  9-H ) :   0.9106 B(  4-C , 10-H ) :   0.9106

Dispersion correction           -0.005107303
FINAL SINGLE POINT ENERGY      -444.771941142245

DIPOLE MOMENT
-------------
                                X             Y             Z
Electronic contribution:     -0.00000      -0.00000      -0.12752
Nuclear contribution   :      0.00000       0.00000       0.36635
                        -----------------------------------------
Total Dipole Moment    :     -0.00000      -0.00000       0.23882
                        -----------------------------------------
Magnitude (a.u.)       :      0.23882
Magnitude (Debye)      :      0.60704

Rotational constants in cm-1:     0.223549     0.163570     0.097657
Rotational constants in MHz :  6701.831784  4903.707813  2927.670371

                             ****ORCA TERMINATED NORMALLY****
TOTAL RUN TIME: 0 days 0 hours 1 minutes 14 seconds 511 msec
