                         Program Version 5.0.3 -  RELEASE  -
|  1> ! PBEh-3c def2/J TightSCF DefGrid3
|  2>
|  3> %maxcore 60000
|  4>
|  5> %pal
|  6> nprocs 4
|  7> end
|  8>
|  9> *xyzfile 1 1 212A.xyz
| 10>
| 11>                          ****END OF INPUT****

CARTESIAN COORDINATES (ANGSTROEM)
---------------------------------
  C     -0.641960   -1.190040   -0.607250
  N     -0.011160    0.023440    0.001330
  C     -0.628430    1.353510   -0.354760
  C     -2.033740    1.552390    0.210340
  H      0.052160   -0.075540    1.025180
  H      0.958680    0.055750   -0.343930
  H     -0.608780   -1.066070   -1.693390
  H     -0.031130   -2.056360   -0.336590
  H     -1.670280   -1.318360   -0.258010
  H     -2.389350    2.557950   -0.046570
  H     -2.752490    0.833690   -0.201850
  H     -2.043350    1.466110    1.306110
  H     -0.601620    1.406470   -1.448970
  H      0.076700    2.106620    0.016470

 Total Charge           Charge          ....    1
 Multiplicity           Mult            ....    1
 Number of Electrons    NEL             ....   34
 Basis Dimension        Dim             ....   80

ORBITAL ENERGIES
----------------

  NO   OCC          E(Eh)            E(eV)
   0   2.0000     -14.961314      -407.1181
   1   2.0000     -10.687189      -290.8132
   2   2.0000     -10.681331      -290.6538
   3   2.0000     -10.611142      -288.7439
   4   2.0000      -1.306162       -35.5425
   5   2.0000      -1.048730       -28.5374
   6   2.0000      -0.990282       -26.9469
   7   2.0000      -0.904618       -24.6159
   8   2.0000      -0.848065       -23.0770
   9   2.0000      -0.790151       -21.5011
  10   2.0000      -0.739063       -20.1109
  11   2.0000      -0.686453       -18.6793
  12   2.0000      -0.663469       -18.0539
  13   2.0000      -0.655899       -17.8479
  14   2.0000      -0.624904       -17.0045
  15   2.0000      -0.608435       -16.5564
  16   2.0000      -0.590032       -16.0556
  17   0.0000      -0.113646        -3.0925
  18   0.0000      -0.056538        -1.5385
  19   0.0000      -0.035127        -0.9559
  20   0.0000      -0.022231        -0.6049
  21   0.0000      -0.009610        -0.2615

MULLIKEN ATOMIC CHARGES
-----------------------
   0 C :   -0.540183
   1 N :   -0.644796
   2 C :   -0.343744
   3 C :   -0.664375
   4 H :    0.443233
   5 H :    0.447535
   6 H :    0.295080
   7 H :    0.302507
   8 H :    0.305425
   9 H :    0.300727
  10 H :    0.255130
  11 H :    0.250129
  12 H :    0.294494
  13 H :    0.298837
Sum of atomic charges:    1.0000000

LOEWDIN ATOMIC CHARGES
----------------------
   0 C :   -0.249652
   1 N :   -0.130799
   2 C :   -0.149269
   3 C :   -0.369524
   4 H :    0.301267
   5 H :    0.304720
   6 H :    0.165916
   7 H :    0.167678
   8 H :    0.169549
   9 H :    0.176855
  10 H :    0.148571
  11 H :    0.148211
  12 H :    0.157915
  13 H :    0.158561

  Mayer bond orders larger than 0.100000
B(  0-C ,  1-N ) :   0.8606 B(  0-C ,  6-H ) :   0.8911 B(  0-C ,  7-H ) :   0.8905
B(  0-C ,  8-H ) :   0.8883 B(  1-N ,  2-C ) :   0.8246 B(  1-N ,  4-H ) :   0.7718
B(  1-N ,  5-H ) :   0.7789 B(  2-C ,  3-C ) :   0.9815 B(  2-C , 12-H ) :   0.8830
B(  2-C , 13-H ) :   0.8859 B(  3-C ,  9-H ) :   0.8910 B(  3-C , 10-H ) :   0.9073
B(  3-C , 11-H ) :   0.9083

Dispersion correction           -0.005342326
FINAL SINGLE POINT ENERGY      -174.464996798377

DIPOLE MOMENT
-------------
                                X             Y             Z
Electronic contribution:      1.80517      -0.30106       0.28328
Nuclear contribution   :     -0.81346      -0.21603      -0.14037
                        -----------------------------------------
Total Dipole Moment    :      0.99171      -0.51709       0.14291
                        -----------------------------------------
Magnitude (a.u.)       :      1.12752
Magnitude (Debye)      :      2.86593

Rotational constants in cm-1:     0.455962     0.156276     0.134680
Rotational constants in MHz : 13669.407815  4685.031849  4037.614653

                             ****ORCA TERMINATED NORMALLY****
TOTAL RUN TIME: 0 days 0 hours 0 minutes 52 seconds 956 msec
