                         Program Version 5.0.3 -  RELEASE  -
|  1> ! PBEh-3c def2/J TightSCF DefGrid3
|  2>
|  3> %maxcore 60000
|  4>
|  5> %pal
|  6> nprocs 4
|  7> end
|  8>
|  9> *xyzfile 0 1 21B.xyz
| 10>
| 11>                          ****END OF INPUT****

CARTESIAN COORDINATES (ANGSTROEM)
---------------------------------
  F      3.222183    2.482674   -0.316454
  H      2.318630    2.049610   -0.255573

 Total Charge           Charge          ....    0
 Multiplicity           Mult            ....    1
 Number of Electrons    NEL             ....   10
 Basis Dimension        Dim             ....   17

ORBITAL ENERGIES
----------------

  NO   OCC          E(Eh)            E(eV)
   0   2.0000     -25.065082      -682.0556
   1   2.0000      -1.273886       -34.6642
   2   2.0000      -0.575656       -15.6644
   3   2.0000      -0.454648       -12.3716
   4   2.0000      -0.454642       -12.3715
   5   0.0000       0.093603         2.5471
   6   0.0000       0.792982        21.5781
   7   0.0000       1.170090        31.8398
   8   0.0000       1.170097        31.8400
   9   0.0000       1.261207        34.3192

MULLIKEN ATOMIC CHARGES
-----------------------
   0 F :   -0.509005
   1 H :    0.509005
Sum of atomic charges:    0.0000000

LOEWDIN ATOMIC CHARGES
----------------------
   0 F :   -0.398981
   1 H :    0.398981

  Mayer bond orders larger than 0.100000
B(  0-F ,  1-H ) :   0.7338

Dispersion correction           -0.000066373
FINAL SINGLE POINT ENERGY      -100.236829221887

DIPOLE MOMENT
-------------
                                X             Y             Z
Electronic contribution:      0.14924       0.07154      -0.01004
Nuclear contribution   :     -0.84716      -0.40604       0.05708
                        -----------------------------------------
Total Dipole Moment    :     -0.69792      -0.33450       0.04704
                        -----------------------------------------
Magnitude (a.u.)       :      0.77537
Magnitude (Debye)      :      1.97083

Rotational constants in cm-1:     0.000000    17.477324    17.477324
Rotational constants in MHz :     0.000000 523956.985149 523956.985149

                             ****ORCA TERMINATED NORMALLY****
TOTAL RUN TIME: 0 days 0 hours 0 minutes 23 seconds 996 msec
