                         Program Version 5.0.3 -  RELEASE  -
|  1> ! PBEh-3c def2/J TightSCF DefGrid3
|  2>
|  3> %maxcore 60000
|  4>
|  5> %pal
|  6> nprocs 4
|  7> end
|  8>
|  9> *xyzfile 0 1 117.xyz
| 10>
| 11>                          ****END OF INPUT****

CARTESIAN COORDINATES (ANGSTROEM)
---------------------------------
  S      0.000000    0.000000    1.596895
  C      0.000000   -0.738651   -0.085299
  C      0.000000    0.738651   -0.085299
  H      0.912678   -1.250597   -0.356574
  H     -0.912678   -1.250597   -0.356574
  H     -0.912678    1.250597   -0.356574
  H      0.912678    1.250597   -0.356574

 Total Charge           Charge          ....    0
 Multiplicity           Mult            ....    1
 Number of Electrons    NEL             ....   32
 Basis Dimension        Dim             ....   56

ORBITAL ENERGIES
----------------

  NO   OCC          E(Eh)            E(eV)
   0   2.0000     -89.572910     -2437.4028
   1   2.0000     -10.484507      -285.2979
   2   2.0000     -10.484177      -285.2890
   3   2.0000      -8.212155      -223.4641
   4   2.0000      -6.103486      -166.0843
   5   2.0000      -6.100590      -166.0055
   6   2.0000      -6.093168      -165.8035
   7   2.0000      -0.955169       -25.9915
   8   2.0000      -0.698835       -19.0163
   9   2.0000      -0.690990       -18.8028
  10   2.0000      -0.560036       -15.2393
  11   2.0000      -0.510738       -13.8979
  12   2.0000      -0.444936       -12.1073
  13   2.0000      -0.373928       -10.1751
  14   2.0000      -0.356860        -9.7107
  15   2.0000      -0.270321        -7.3558
  16   0.0000       0.043608         1.1866
  17   0.0000       0.097543         2.6543
  18   0.0000       0.152029         4.1369
  19   0.0000       0.168167         4.5761
  20   0.0000       0.179713         4.8902

MULLIKEN ATOMIC CHARGES
-----------------------
   0 S :   -0.063813
   1 C :   -0.498243
   2 C :   -0.498243
   3 H :    0.265075
   4 H :    0.265075
   5 H :    0.265075
   6 H :    0.265075
Sum of atomic charges:   -0.0000000

LOEWDIN ATOMIC CHARGES
----------------------
   0 S :    0.043636
   1 C :   -0.305019
   2 C :   -0.305019
   3 H :    0.141601
   4 H :    0.141601
   5 H :    0.141601
   6 H :    0.141601

  Mayer bond orders larger than 0.100000
B(  0-S ,  1-C ) :   0.9693 B(  0-S ,  2-C ) :   0.9693 B(  1-C ,  2-C ) :   0.9496
B(  1-C ,  3-H ) :   0.8973 B(  1-C ,  4-H ) :   0.8973 B(  2-C ,  5-H ) :   0.8973
B(  2-C ,  6-H ) :   0.8973

Dispersion correction           -0.002299978
FINAL SINGLE POINT ENERGY      -476.158134450431

DIPOLE MOMENT
-------------
                                X             Y             Z
Electronic contribution:      0.00000      -0.00000       3.51192
Nuclear contribution   :      0.00000       0.00000      -4.33972
                        -----------------------------------------
Total Dipole Moment    :      0.00000      -0.00000      -0.82780
                        -----------------------------------------
Magnitude (a.u.)       :      0.82780
Magnitude (Debye)      :      2.10410

Rotational constants in cm-1:     0.740308     0.351667     0.263440
Rotational constants in MHz : 22193.872577 10542.705481  7897.742322

                             ****ORCA TERMINATED NORMALLY****
TOTAL RUN TIME: 0 days 0 hours 0 minutes 27 seconds 259 msec
