                         Program Version 5.0.3 -  RELEASE  -
|  1> ! PBEh-3c def2/J TightSCF DefGrid3
|  2>
|  3> %maxcore 60000
|  4>
|  5> %pal
|  6> nprocs 4
|  7> end
|  8>
|  9> *xyzfile 0 1 09ts.xyz
| 10>
| 11>                          ****END OF INPUT****

CARTESIAN COORDINATES (ANGSTROEM)
---------------------------------
  C      0.828116   -0.211591    1.204752
  S      1.442298   -1.349655    0.000000
  C     -1.249085   -0.550216    0.702159
  C      0.920632    1.109660    0.686481
  C      0.828116   -0.211591   -1.204752
  C     -1.249085   -0.550216   -0.702159
  C      0.920632    1.109660   -0.686481
  H      0.956737   -0.459764    2.250149
  H     -1.312530   -1.493588    1.230286
  H     -1.677590    0.290442    1.233478
  H      0.812571    1.989885    1.307287
  H      0.956737   -0.459764   -2.250149
  H     -1.312530   -1.493588   -1.230286
  H     -1.677590    0.290442   -1.233478
  H      0.812571    1.989885   -1.307287

 Total Charge           Charge          ....    0
 Multiplicity           Mult            ....    1
 Number of Electrons    NEL             ....   60
 Basis Dimension        Dim             ....  124

ORBITAL ENERGIES
----------------

  NO   OCC          E(Eh)            E(eV)
   0   2.0000     -89.594150     -2437.9808
   1   2.0000     -10.489280      -285.4278
   2   2.0000     -10.489212      -285.4260
   3   2.0000     -10.447568      -284.2928
   4   2.0000     -10.446870      -284.2738
   5   2.0000     -10.440225      -284.0930
   6   2.0000     -10.439668      -284.0778
   7   2.0000      -8.232463      -224.0167
   8   2.0000      -6.123437      -166.6272
   9   2.0000      -6.120332      -166.5427
  10   2.0000      -6.115295      -166.4056
  11   2.0000      -0.972152       -26.4536
  12   2.0000      -0.831881       -22.6366
  13   2.0000      -0.811598       -22.0847
  14   2.0000      -0.802193       -21.8288
  15   2.0000      -0.650046       -17.6886
  16   2.0000      -0.636576       -17.3221
  17   2.0000      -0.608324       -16.5533
  18   2.0000      -0.578668       -15.7463
  19   2.0000      -0.515092       -14.0164
  20   2.0000      -0.466501       -12.6941
  21   2.0000      -0.453018       -12.3272
  22   2.0000      -0.452491       -12.3129
  23   2.0000      -0.445710       -12.1284
  24   2.0000      -0.427106       -11.6222
  25   2.0000      -0.396902       -10.8003
  26   2.0000      -0.391689       -10.6584
  27   2.0000      -0.289526        -7.8784
  28   2.0000      -0.280984        -7.6460
  29   2.0000      -0.257225        -6.9994
  30   0.0000       0.013087         0.3561
  31   0.0000       0.025800         0.7020
  32   0.0000       0.081141         2.2080
  33   0.0000       0.141154         3.8410
  34   0.0000       0.146541         3.9876

MULLIKEN ATOMIC CHARGES
-----------------------
   0 C :   -0.441049
   1 S :    0.174157
   2 C :   -0.454560
   3 C :   -0.131563
   4 C :   -0.441049
   5 C :   -0.454560
   6 C :   -0.131563
   7 H :    0.247362
   8 H :    0.237404
   9 H :    0.229252
  10 H :    0.226075
  11 H :    0.247362
  12 H :    0.237405
  13 H :    0.229252
  14 H :    0.226075
Sum of atomic charges:   -0.0000000

LOEWDIN ATOMIC CHARGES
----------------------
   0 C :   -0.239541
   1 S :    0.285176
   2 C :   -0.280734
   3 C :   -0.171721
   4 C :   -0.239541
   5 C :   -0.280734
   6 C :   -0.171721
   7 H :    0.142538
   8 H :    0.136079
   9 H :    0.131597
  10 H :    0.139193
  11 H :    0.142538
  12 H :    0.136079
  13 H :    0.131597
  14 H :    0.139193

  Mayer bond orders larger than 0.100000
B(  0-C ,  1-S ) :   1.1063 B(  0-C ,  2-C ) :   0.4390 B(  0-C ,  3-C ) :   1.2152
B(  0-C ,  7-H ) :   0.9173 B(  1-S ,  4-C ) :   1.1063 B(  2-C ,  5-C ) :   1.4195
B(  2-C ,  8-H ) :   0.9161 B(  2-C ,  9-H ) :   0.9217 B(  3-C ,  6-C ) :   1.5707
B(  3-C , 10-H ) :   0.9187 B(  4-C ,  5-C ) :   0.4390 B(  4-C ,  6-C ) :   1.2152
B(  4-C , 11-H ) :   0.9173 B(  5-C , 12-H ) :   0.9161 B(  5-C , 13-H ) :   0.9217
B(  6-C , 14-H ) :   0.9187

Dispersion correction           -0.009540741
FINAL SINGLE POINT ENERGY      -630.571326804776

DIPOLE MOMENT
-------------
                                X             Y             Z
Electronic contribution:      5.79594      -2.58026      -0.00000
Nuclear contribution   :     -6.04979       2.93536       0.00000
                        -----------------------------------------
Total Dipole Moment    :     -0.25385       0.35509      -0.00000
                        -----------------------------------------
Magnitude (a.u.)       :      0.43650
Magnitude (Debye)      :      1.10949

Rotational constants in cm-1:     0.095582     0.082728     0.075077
Rotational constants in MHz :  2865.474748  2480.122123  2250.760107

                             ****ORCA TERMINATED NORMALLY****
TOTAL RUN TIME: 0 days 0 hours 1 minutes 44 seconds 764 msec
