                         Program Version 5.0.3 -  RELEASE  -
|  1> ! PBEh-3c def2/J TightSCF DefGrid3
|  2>
|  3> %maxcore 60000
|  4>
|  5> %pal
|  6> nprocs 4
|  7> end
|  8>
|  9> *xyzfile 0 1 H2O20.xyz
| 10>
| 11>                          ****END OF INPUT****

CARTESIAN COORDINATES (ANGSTROEM)
---------------------------------
  O      1.597295    3.634293    0.116563
  O      3.457003    1.545781    0.871504
  O     -0.574240    3.488956    1.795637
  O      0.629560    2.903099   -2.480329
  O      2.562887    0.238042    2.975801
  O     -0.006125    1.303090    3.625069
  O      3.669476   -0.192022   -1.250798
  O     -2.658818    2.724451    0.371134
  O      1.936518    0.591060   -3.388809
  O     -1.981953    2.489926   -2.338998
  O      2.035664   -2.401816    2.178727
  O     -1.884579   -0.668721    3.299758
  O      2.793215   -2.798419   -0.302046
  O     -3.713504    0.209033    1.226285
  O      0.106273   -1.293281   -3.648574
  O     -2.381296   -0.258994   -3.053073
  O     -0.727968   -2.902455    2.551592
  O      0.594151   -3.461153   -1.784129
  O     -3.483425   -1.665154   -0.760210
  O     -1.664796   -3.426559   -0.038899
  H      0.836657    3.649800    0.740695
  H      1.986975    4.512651    0.136360
  H      2.853158    2.255248    0.599101
  H      3.556443    0.952866    0.092497
  H     -0.860346    4.257473    2.297115
  H     -1.367616    3.198061    1.259714
  H      1.005817    3.135429   -1.614035
  H      1.117619    2.117931   -2.797787
  H      3.221885    0.333964    3.668760
  H      2.917311    0.736237    2.182588
  H      0.886880    0.970391    3.422738
  H     -0.158378    2.047999    3.021247
  H      3.373083   -1.073575   -0.971529
  H      3.105090    0.053996   -2.005135
  H     -2.465656    2.661055   -0.584825
  H     -3.030226    1.864224    0.634950
  H      1.244894   -0.122665   -3.503230
  H      2.368595    0.684440   -4.242188
  H     -2.398806    3.103619   -2.949934
  H     -0.999085    2.650961   -2.409156
  H      1.089413   -2.567353    2.348527
  H      2.219955   -1.493776    2.490105
  H     -2.506714   -0.343726    2.629195
  H     -1.228582    0.052333    3.440663
  H      3.552166   -3.386612   -0.256295
  H      2.501963   -2.647914    0.646434
  H     -4.622288    0.263884    1.534572
  H     -3.699626   -0.472578    0.515399
  H      0.251188   -2.033304   -3.037317
  H     -0.796296   -0.952311   -3.459325
  H     -2.286139    0.678877   -2.811562
  H     -2.775398   -0.698397   -2.282263
  H     -0.919024   -3.559496    3.226494
  H     -1.171750   -2.054260    2.852885
  H      0.722764   -4.309110   -2.217980
  H      1.421006   -3.276064   -1.280367
  H     -4.248667   -2.174163   -1.042047
  H     -2.790722   -2.335878   -0.488494
  H     -0.884421   -3.452863   -0.620977
  H     -1.328462   -3.286551    0.868197

 Total Charge           Charge          ....    0
 Multiplicity           Mult            ....    1
 Number of Electrons    NEL             ....  200
 Basis Dimension        Dim             ....  380

ORBITAL ENERGIES
----------------

  NO   OCC          E(Eh)            E(eV)
   0   2.0000     -19.503890      -530.7278
   1   2.0000     -19.501737      -530.6693
   2   2.0000     -19.500929      -530.6472
   3   2.0000     -19.498618      -530.5844
   4   2.0000     -19.497369      -530.5504
   5   2.0000     -19.494531      -530.4732
   6   2.0000     -19.487710      -530.2875
   7   2.0000     -19.486592      -530.2571
   8   2.0000     -19.481062      -530.1067
   9   2.0000     -19.480705      -530.0969
  10   2.0000     -19.466026      -529.6975
  11   2.0000     -19.465975      -529.6961
  12   2.0000     -19.459625      -529.5233
  13   2.0000     -19.459484      -529.5195
  14   2.0000     -19.452493      -529.3292
  15   2.0000     -19.449937      -529.2597
  16   2.0000     -19.449157      -529.2385
  17   2.0000     -19.448627      -529.2240
  18   2.0000     -19.447920      -529.2048
  19   2.0000     -19.445916      -529.1503
  20   2.0000      -1.130627       -30.7659
  21   2.0000      -1.127904       -30.6918
  22   2.0000      -1.127610       -30.6838
  23   2.0000      -1.116657       -30.3858
  24   2.0000      -1.114572       -30.3290
  25   2.0000      -1.113043       -30.2874
  26   2.0000      -1.111940       -30.2574
  27   2.0000      -1.109886       -30.2015
  28   2.0000      -1.104554       -30.0564
  29   2.0000      -1.104024       -30.0420
  30   2.0000      -1.085098       -29.5270
  31   2.0000      -1.084120       -29.5004
  32   2.0000      -1.079784       -29.3824
  33   2.0000      -1.079653       -29.3788
  34   2.0000      -1.077076       -29.3087
  35   2.0000      -1.074927       -29.2502
  36   2.0000      -1.072414       -29.1819
  37   2.0000      -1.064288       -28.9608
  38   2.0000      -1.063837       -28.9485
  39   2.0000      -1.061086       -28.8736
  40   2.0000      -0.612269       -16.6607
  41   2.0000      -0.609938       -16.5972
  42   2.0000      -0.609863       -16.5952
  43   2.0000      -0.601219       -16.3600
  44   2.0000      -0.599906       -16.3243
  45   2.0000      -0.597294       -16.2532
  46   2.0000      -0.593557       -16.1515
  47   2.0000      -0.592014       -16.1095
  48   2.0000      -0.586557       -15.9610
  49   2.0000      -0.586206       -15.9515
  50   2.0000      -0.578768       -15.7491
  51   2.0000      -0.578306       -15.7365
  52   2.0000      -0.572826       -15.5874
  53   2.0000      -0.571790       -15.5592
  54   2.0000      -0.564545       -15.3621
  55   2.0000      -0.563688       -15.3387
  56   2.0000      -0.562013       -15.2932
  57   2.0000      -0.560565       -15.2537
  58   2.0000      -0.560188       -15.2435
  59   2.0000      -0.557679       -15.1752
  60   2.0000      -0.494294       -13.4504
  61   2.0000      -0.490096       -13.3362
  62   2.0000      -0.488513       -13.2931
  63   2.0000      -0.487018       -13.2524
  64   2.0000      -0.481005       -13.0888
  65   2.0000      -0.473719       -12.8906
  66   2.0000      -0.472741       -12.8639
  67   2.0000      -0.453963       -12.3530
  68   2.0000      -0.453644       -12.3443
  69   2.0000      -0.449242       -12.2245
  70   2.0000      -0.433590       -11.7986
  71   2.0000      -0.429869       -11.6973
  72   2.0000      -0.426803       -11.6139
  73   2.0000      -0.422337       -11.4924
  74   2.0000      -0.420036       -11.4298
  75   2.0000      -0.419072       -11.4035
  76   2.0000      -0.409911       -11.1542
  77   2.0000      -0.403198       -10.9716
  78   2.0000      -0.401932       -10.9371
  79   2.0000      -0.389408       -10.5963
  80   2.0000      -0.383174       -10.4267
  81   2.0000      -0.381565       -10.3829
  82   2.0000      -0.380836       -10.3631
  83   2.0000      -0.377954       -10.2846
  84   2.0000      -0.376123       -10.2348
  85   2.0000      -0.374171       -10.1817
  86   2.0000      -0.369335       -10.0501
  87   2.0000      -0.368969       -10.0401
  88   2.0000      -0.362779        -9.8717
  89   2.0000      -0.361989        -9.8502
  90   2.0000      -0.355147        -9.6640
  91   2.0000      -0.354951        -9.6587
  92   2.0000      -0.348994        -9.4966
  93   2.0000      -0.348544        -9.4844
  94   2.0000      -0.343380        -9.3438
  95   2.0000      -0.341351        -9.2886
  96   2.0000      -0.339748        -9.2450
  97   2.0000      -0.333425        -9.0730
  98   2.0000      -0.333103        -9.0642
  99   2.0000      -0.330693        -8.9986
 100   0.0000       0.091300         2.4844
 101   0.0000       0.105864         2.8807
 102   0.0000       0.108824         2.9613
 103   0.0000       0.125870         3.4251
 104   0.0000       0.135970         3.6999

MULLIKEN ATOMIC CHARGES
-----------------------
   0 O :   -0.865809
   1 O :   -0.919556
   2 O :   -0.883000
   3 O :   -0.916681
   4 O :   -0.882932
   5 O :   -0.905478
   6 O :   -0.904525
   7 O :   -0.918116
   8 O :   -0.882181
   9 O :   -0.881669
  10 O :   -0.921883
  11 O :   -0.919591
  12 O :   -0.884982
  13 O :   -0.866777
  14 O :   -0.918649
  15 O :   -0.903151
  16 O :   -0.884910
  17 O :   -0.867499
  18 O :   -0.883974
  19 O :   -0.918728
  20 H :    0.466287
  21 H :    0.429316
  22 H :    0.440332
  23 H :    0.457299
  24 H :    0.428731
  25 H :    0.476235
  26 H :    0.445877
  27 H :    0.454067
  28 H :    0.426679
  29 H :    0.470873
  30 H :    0.442738
  31 H :    0.435134
  32 H :    0.435335
  33 H :    0.440986
  34 H :    0.452185
  35 H :    0.449288
  36 H :    0.470763
  37 H :    0.426901
  38 H :    0.427868
  39 H :    0.472207
  40 H :    0.450286
  41 H :    0.454189
  42 H :    0.439495
  43 H :    0.458841
  44 H :    0.428471
  45 H :    0.477046
  46 H :    0.429393
  47 H :    0.466732
  48 H :    0.440216
  49 H :    0.455925
  50 H :    0.440338
  51 H :    0.434861
  52 H :    0.427784
  53 H :    0.472896
  54 H :    0.429050
  55 H :    0.467344
  56 H :    0.429009
  57 H :    0.477157
  58 H :    0.449040
  59 H :    0.452916
Sum of atomic charges:   -0.0000000

LOEWDIN ATOMIC CHARGES
----------------------
   0 O :   -0.586322
   1 O :   -0.623882
   2 O :   -0.600329
   3 O :   -0.620146
   4 O :   -0.603203
   5 O :   -0.621322
   6 O :   -0.621427
   7 O :   -0.619702
   8 O :   -0.602267
   9 O :   -0.600776
  10 O :   -0.621413
  11 O :   -0.623244
  12 O :   -0.602505
  13 O :   -0.587068
  14 O :   -0.623499
  15 O :   -0.621030
  16 O :   -0.604060
  17 O :   -0.587753
  18 O :   -0.600962
  19 O :   -0.619633
  20 H :    0.305939
  21 H :    0.312078
  22 H :    0.296230
  23 H :    0.304592
  24 H :    0.311332
  25 H :    0.312707
  26 H :    0.299012
  27 H :    0.302034
  28 H :    0.310021
  29 H :    0.310117
  30 H :    0.296657
  31 H :    0.293695
  32 H :    0.294068
  33 H :    0.295635
  34 H :    0.300954
  35 H :    0.300594
  36 H :    0.309890
  37 H :    0.310219
  38 H :    0.310846
  39 H :    0.310333
  40 H :    0.300474
  41 H :    0.302199
  42 H :    0.296258
  43 H :    0.305297
  44 H :    0.311099
  45 H :    0.313618
  46 H :    0.312155
  47 H :    0.305945
  48 H :    0.296365
  49 H :    0.303940
  50 H :    0.295646
  51 H :    0.293487
  52 H :    0.310637
  53 H :    0.311552
  54 H :    0.311896
  55 H :    0.306223
  56 H :    0.311507
  57 H :    0.313366
  58 H :    0.300549
  59 H :    0.301372

  Mayer bond orders larger than 0.100000
B(  0-O , 20-H ) :   0.6568 B(  0-O , 21-H ) :   0.7945 B(  0-O , 22-H ) :   0.1005
B(  0-O , 26-H ) :   0.1089 B(  1-O , 22-H ) :   0.7197 B(  1-O , 23-H ) :   0.6636
B(  1-O , 29-H ) :   0.1998 B(  2-O , 20-H ) :   0.1443 B(  2-O , 24-H ) :   0.7949
B(  2-O , 25-H ) :   0.6048 B(  2-O , 31-H ) :   0.1009 B(  3-O , 26-H ) :   0.7088
B(  3-O , 27-H ) :   0.6874 B(  3-O , 39-H ) :   0.1912 B(  4-O , 28-H ) :   0.7963
B(  4-O , 29-H ) :   0.6039 B(  4-O , 30-H ) :   0.1148 B(  4-O , 41-H ) :   0.1272
B(  5-O , 30-H ) :   0.7076 B(  5-O , 31-H ) :   0.7241 B(  5-O , 43-H ) :   0.1570
B(  6-O , 23-H ) :   0.1542 B(  6-O , 32-H ) :   0.7239 B(  6-O , 33-H ) :   0.7106
B(  7-O , 25-H ) :   0.1936 B(  7-O , 34-H ) :   0.6881 B(  7-O , 35-H ) :   0.7047
B(  8-O , 27-H ) :   0.1271 B(  8-O , 33-H ) :   0.1130 B(  8-O , 36-H ) :   0.6068
B(  8-O , 37-H ) :   0.7962 B(  9-O , 34-H ) :   0.1283 B(  9-O , 38-H ) :   0.7955
B(  9-O , 39-H ) :   0.6107 B(  9-O , 50-H ) :   0.1106 B( 10-O , 40-H ) :   0.6955
B( 10-O , 41-H ) :   0.6869 B( 10-O , 45-H ) :   0.2008 B( 11-O , 42-H ) :   0.7197
B( 11-O , 43-H ) :   0.6599 B( 11-O , 53-H ) :   0.2039 B( 12-O , 32-H ) :   0.1010
B( 12-O , 44-H ) :   0.7949 B( 12-O , 45-H ) :   0.5970 B( 12-O , 55-H ) :   0.1495
B( 13-O , 35-H ) :   0.1106 B( 13-O , 42-H ) :   0.1012 B( 13-O , 46-H ) :   0.7945
B( 13-O , 47-H ) :   0.6539 B( 14-O , 36-H ) :   0.1969 B( 14-O , 48-H ) :   0.7201
B( 14-O , 49-H ) :   0.6665 B( 15-O , 49-H ) :   0.1524 B( 15-O , 50-H ) :   0.7128
B( 15-O , 51-H ) :   0.7246 B( 16-O , 40-H ) :   0.1211 B( 16-O , 52-H ) :   0.7954
B( 16-O , 53-H ) :   0.5977 B( 16-O , 59-H ) :   0.1281 B( 17-O , 48-H ) :   0.1001
B( 17-O , 54-H ) :   0.7947 B( 17-O , 55-H ) :   0.6512 B( 17-O , 58-H ) :   0.1136
B( 18-O , 47-H ) :   0.1471 B( 18-O , 51-H ) :   0.1009 B( 18-O , 56-H ) :   0.7946
B( 18-O , 57-H ) :   0.6016 B( 19-O , 57-H ) :   0.1960 B( 19-O , 58-H ) :   0.7027
B( 19-O , 59-H ) :   0.6873

Dispersion correction           -0.024328568
FINAL SINGLE POINT ENERGY     -1525.549043756626

DIPOLE MOMENT
-------------
                                X             Y             Z
Electronic contribution:     -0.07625       0.00238       0.01468
Nuclear contribution   :     -0.76245      -0.14772       0.08438
                        -----------------------------------------
Total Dipole Moment    :     -0.83871      -0.14534       0.09906
                        -----------------------------------------
Magnitude (a.u.)       :      0.85696
Magnitude (Debye)      :      2.17821

Rotational constants in cm-1:     0.004628     0.004561     0.004546
Rotational constants in MHz :   138.739315   136.729848   136.300219

                             ****ORCA TERMINATED NORMALLY****
TOTAL RUN TIME: 0 days 0 hours 4 minutes 45 seconds 476 msec
