                         Program Version 5.0.3 -  RELEASE  -
|  1> ! PBEh-3c def2/J TightSCF DefGrid3
|  2>
|  3> %maxcore 60000
|  4>
|  5> %pal
|  6> nprocs 4
|  7> end
|  8>
|  9> *xyzfile 0 1 B3.xyz
| 10>
| 11>                          ****END OF INPUT****

CARTESIAN COORDINATES (ANGSTROEM)
---------------------------------
  C      1.428818   -0.097065    0.549352
  H      0.903725   -0.560684    1.388924
  O      1.537454   -1.010247   -0.532815
  C      0.740297    1.209954    0.155611
  H      0.615180    1.816285    1.058438
  H      1.399554    1.765862   -0.513834
  C     -0.615643    1.040803   -0.539332
  H     -0.475423    0.594213   -1.525148
  H     -1.051076    2.029072   -0.700783
  H      0.659803   -1.398915   -0.622954
  H      2.445546    0.118699    0.877454
  C     -1.628832    0.195107    0.215197
  H     -1.632078    0.458067    1.277957
  H     -2.630850    0.369902   -0.184174
  O     -1.276495   -1.185460    0.043081
  H     -1.869900   -1.719647    0.577019

 Total Charge           Charge          ....    0
 Multiplicity           Mult            ....    1
 Number of Electrons    NEL             ....   50
 Basis Dimension        Dim             ....  110

ORBITAL ENERGIES
----------------

  NO   OCC          E(Eh)            E(eV)
   0   2.0000     -19.505330      -530.7670
   1   2.0000     -19.458147      -529.4831
   2   2.0000     -10.492394      -285.5126
   3   2.0000     -10.464190      -284.7451
   4   2.0000     -10.435647      -283.9684
   5   2.0000     -10.426961      -283.7320
   6   2.0000      -1.138251       -30.9734
   7   2.0000      -1.097055       -29.8524
   8   2.0000      -0.879602       -23.9352
   9   2.0000      -0.794314       -21.6144
  10   2.0000      -0.712432       -19.3863
  11   2.0000      -0.636192       -17.3117
  12   2.0000      -0.599756       -16.3202
  13   2.0000      -0.561003       -15.2657
  14   2.0000      -0.526358       -14.3229
  15   2.0000      -0.501885       -13.6570
  16   2.0000      -0.472624       -12.8608
  17   2.0000      -0.465299       -12.6614
  18   2.0000      -0.443630       -12.0718
  19   2.0000      -0.412013       -11.2115
  20   2.0000      -0.393495       -10.7075
  21   2.0000      -0.381460       -10.3801
  22   2.0000      -0.359006        -9.7691
  23   2.0000      -0.338736        -9.2175
  24   2.0000      -0.302206        -8.2235
  25   0.0000       0.110237         2.9997
  26   0.0000       0.152538         4.1508
  27   0.0000       0.182477         4.9655
  28   0.0000       0.186452         5.0736
  29   0.0000       0.196892         5.3577

MULLIKEN ATOMIC CHARGES
-----------------------
   0 C :   -0.151895
   1 H :    0.175128
   2 O :   -0.648876
   3 C :   -0.444173
   4 H :    0.195385
   5 H :    0.226371
   6 C :   -0.464313
   7 H :    0.241918
   8 H :    0.223092
   9 H :    0.433079
  10 H :    0.208175
  11 C :   -0.159555
  12 H :    0.187185
  13 H :    0.200527
  14 O :   -0.649034
  15 H :    0.426986
Sum of atomic charges:    0.0000000

LOEWDIN ATOMIC CHARGES
----------------------
   0 C :   -0.097543
   1 H :    0.095762
   2 O :   -0.425604
   3 C :   -0.263684
   4 H :    0.119319
   5 H :    0.130141
   6 C :   -0.260289
   7 H :    0.137725
   8 H :    0.131594
   9 H :    0.305177
  10 H :    0.115666
  11 C :   -0.090128
  12 H :    0.100983
  13 H :    0.106631
  14 O :   -0.419183
  15 H :    0.313433

  Mayer bond orders larger than 0.100000
B(  0-C ,  1-H ) :   0.9150 B(  0-C ,  2-O ) :   1.0397 B(  0-C ,  3-C ) :   0.9601
B(  0-C , 10-H ) :   0.9208 B(  2-O ,  9-H ) :   0.7459 B(  3-C ,  4-H ) :   0.9159
B(  3-C ,  5-H ) :   0.9176 B(  3-C ,  6-C ) :   0.9884 B(  6-C ,  7-H ) :   0.9029
B(  6-C ,  8-H ) :   0.9213 B(  6-C , 11-C ) :   0.9723 B( 11-C , 12-H ) :   0.9074
B( 11-C , 13-H ) :   0.9116 B( 11-C , 14-O ) :   0.9710 B( 14-O , 15-H ) :   0.7843

Dispersion correction           -0.006984459
FINAL SINGLE POINT ENERGY      -308.209846032807

DIPOLE MOMENT
-------------
                                X             Y             Z
Electronic contribution:      0.46479      -3.26334      -1.00398
Nuclear contribution   :     -1.69986       3.58252       1.69337
                        -----------------------------------------
Total Dipole Moment    :     -1.23507       0.31918       0.68939
                        -----------------------------------------
Magnitude (a.u.)       :      1.45001
Magnitude (Debye)      :      3.68563

Rotational constants in cm-1:     0.155691     0.095014     0.069641
Rotational constants in MHz :  4667.511294  2848.453826  2087.778055

                             ****ORCA TERMINATED NORMALLY****
TOTAL RUN TIME: 0 days 0 hours 1 minutes 40 seconds 514 msec
