                         Program Version 5.0.3 -  RELEASE  -
|  1> ! PBEh-3c def2/J TightSCF DefGrid3
|  2>
|  3> %maxcore 60000
|  4>
|  5> %pal
|  6> nprocs 4
|  7> end
|  8>
|  9> *xyzfile 0 1 c2f6.xyz
| 10>
| 11>                          ****END OF INPUT****

CARTESIAN COORDINATES (ANGSTROEM)
---------------------------------
  C      0.000000    0.000000   -0.769729
  C      0.000000    0.000000    0.769729
  F      1.078874    0.622888   -1.223213
  F     -0.000000   -1.245776   -1.223213
  F     -1.078874    0.622888   -1.223213
  F      1.078874   -0.622888    1.223213
  F     -0.000000    1.245776    1.223213
  F     -1.078874   -0.622888    1.223213

 Total Charge           Charge          ....    0
 Multiplicity           Mult            ....    1
 Number of Electrons    NEL             ....   66
 Basis Dimension        Dim             ....  120

ORBITAL ENERGIES
----------------

  NO   OCC          E(Eh)            E(eV)
   0   2.0000     -25.165540      -684.7891
   1   2.0000     -25.165466      -684.7871
   2   2.0000     -25.165398      -684.7853
   3   2.0000     -25.165395      -684.7852
   4   2.0000     -25.165387      -684.7850
   5   2.0000     -25.165384      -684.7849
   6   2.0000     -10.735370      -292.1243
   7   2.0000     -10.735164      -292.1187
   8   2.0000      -1.497028       -40.7362
   9   2.0000      -1.472332       -40.0642
  10   2.0000      -1.394323       -37.9415
  11   2.0000      -1.394318       -37.9413
  12   2.0000      -1.383350       -37.6429
  13   2.0000      -1.383345       -37.6427
  14   2.0000      -0.896215       -24.3872
  15   2.0000      -0.791584       -21.5401
  16   2.0000      -0.740176       -20.1412
  17   2.0000      -0.719386       -19.5755
  18   2.0000      -0.719385       -19.5755
  19   2.0000      -0.688244       -18.7281
  20   2.0000      -0.688243       -18.7280
  21   2.0000      -0.594458       -16.1760
  22   2.0000      -0.580134       -15.7863
  23   2.0000      -0.580132       -15.7862
  24   2.0000      -0.571115       -15.5408
  25   2.0000      -0.571114       -15.5408
  26   2.0000      -0.547446       -14.8968
  27   2.0000      -0.547444       -14.8967
  28   2.0000      -0.524018       -14.2593
  29   2.0000      -0.524013       -14.2591
  30   2.0000      -0.517830       -14.0909
  31   2.0000      -0.510322       -13.8866
  32   2.0000      -0.459102       -12.4928
  33   0.0000       0.126002         3.4287
  34   0.0000       0.126002         3.4287
  35   0.0000       0.234256         6.3744
  36   0.0000       0.238554         6.4914
  37   0.0000       0.266978         7.2648

MULLIKEN ATOMIC CHARGES
-----------------------
   0 C :    0.870680
   1 C :    0.870681
   2 F :   -0.290229
   3 F :   -0.290222
   4 F :   -0.290229
   5 F :   -0.290229
   6 F :   -0.290222
   7 F :   -0.290229
Sum of atomic charges:    0.0000000

LOEWDIN ATOMIC CHARGES
----------------------
   0 C :    0.292064
   1 C :    0.292064
   2 F :   -0.097356
   3 F :   -0.097352
   4 F :   -0.097356
   5 F :   -0.097356
   6 F :   -0.097352
   7 F :   -0.097356

  Mayer bond orders larger than 0.100000
B(  0-C ,  1-C ) :   0.9042 B(  0-C ,  2-F ) :   1.0243 B(  0-C ,  3-F ) :   1.0243
B(  0-C ,  4-F ) :   1.0243 B(  1-C ,  5-F ) :   1.0243 B(  1-C ,  6-F ) :   1.0243
B(  1-C ,  7-F ) :   1.0243

Dispersion correction           -0.002542516
FINAL SINGLE POINT ENERGY      -673.981364814488

DIPOLE MOMENT
-------------
                                X             Y             Z
Electronic contribution:      0.00000       0.00000      -0.00000
Nuclear contribution   :      0.00000       0.00000      -0.00000
                        -----------------------------------------
Total Dipole Moment    :      0.00000       0.00000      -0.00000
                        -----------------------------------------
Magnitude (a.u.)       :      0.00000
Magnitude (Debye)      :      0.00000

Rotational constants in cm-1:     0.095292     0.061695     0.061695
Rotational constants in MHz :  2856.790298  1849.584096  1849.584090

                             ****ORCA TERMINATED NORMALLY****
TOTAL RUN TIME: 0 days 0 hours 1 minutes 13 seconds 55 msec
