                         Program Version 5.0.3 -  RELEASE  -
|  1> ! PBEh-3c def2/J TightSCF DefGrid3
|  2>
|  3> %maxcore 60000
|  4>
|  5> %pal
|  6> nprocs 4
|  7> end
|  8>
|  9> *xyzfile 0 1 FI_OCH2.xyz
| 10>
| 11>                          ****END OF INPUT****

CARTESIAN COORDINATES (ANGSTROEM)
---------------------------------
  F     -0.657366    2.223959    0.000000
  I      0.000000    0.393005    0.000000
  O      0.818063   -2.050427    0.000000
  C      0.014970   -2.949000    0.000000
  H     -1.067503   -2.751850    0.000000
  H      0.349471   -3.995649    0.000000

 Total Charge           Charge          ....    0
 Multiplicity           Mult            ....    1
 Number of Electrons    NEL             ....   50
 Basis Dimension        Dim             ....   75

ORBITAL ENERGIES
----------------

  NO   OCC          E(Eh)            E(eV)
   0   2.0000     -25.046013      -681.5367
   1   2.0000     -19.576916      -532.7150
   2   2.0000     -10.590110      -288.1715
   3   2.0000      -7.120035      -193.7460
   4   2.0000      -5.110648      -139.0678
   5   2.0000      -5.082859      -138.3116
   6   2.0000      -5.082761      -138.3089
   7   2.0000      -2.063307       -56.1454
   8   2.0000      -2.054489       -55.9055
   9   2.0000      -2.054400       -55.9031
  10   2.0000      -2.031091       -55.2688
  11   2.0000      -2.031089       -55.2687
  12   2.0000      -1.237918       -33.6855
  13   2.0000      -1.231186       -33.5023
  14   2.0000      -0.771038       -20.9810
  15   2.0000      -0.750218       -20.4145
  16   2.0000      -0.618083       -16.8189
  17   2.0000      -0.581760       -15.8305
  18   2.0000      -0.509831       -13.8732
  19   2.0000      -0.474509       -12.9121
  20   2.0000      -0.455215       -12.3870
  21   2.0000      -0.455039       -12.3822
  22   2.0000      -0.379499       -10.3267
  23   2.0000      -0.300343        -8.1728
  24   2.0000      -0.299356        -8.1459
  25   0.0000      -0.054910        -1.4942
  26   0.0000      -0.043373        -1.1802
  27   0.0000       0.123474         3.3599
  28   0.0000       0.217377         5.9151
  29   0.0000       0.225991         6.1495

MULLIKEN ATOMIC CHARGES
-----------------------
   0 F :   -0.489733
   1 I :    0.399443
   2 O :   -0.315137
   3 C :   -0.004481
   4 H :    0.201710
   5 H :    0.208197
Sum of atomic charges:   -0.0000000

LOEWDIN ATOMIC CHARGES
----------------------
   0 F :   -0.445544
   1 I :    0.341818
   2 O :   -0.154269
   3 C :    0.034847
   4 H :    0.108961
   5 H :    0.114188

  Mayer bond orders larger than 0.100000
B(  0-F ,  1-I ) :   0.7845 B(  1-I ,  2-O ) :   0.1542 B(  2-O ,  3-C ) :   2.0130
B(  3-C ,  4-H ) :   0.8649 B(  3-C ,  5-H ) :   0.8672

Dispersion correction           -0.001655374
FINAL SINGLE POINT ENERGY      -511.617895419597

DIPOLE MOMENT
-------------
                                X             Y             Z
Electronic contribution:     -0.19276      27.64917      -0.00000
Nuclear contribution   :     -0.02986     -29.97709       0.00000
                        -----------------------------------------
Total Dipole Moment    :     -0.22261      -2.32792      -0.00000
                        -----------------------------------------
Magnitude (a.u.)       :      2.33854
Magnitude (Debye)      :      5.94409

Rotational constants in cm-1:     1.603207     0.053175     0.051468
Rotational constants in MHz : 48062.931427  1594.138683  1542.962121

                             ****ORCA TERMINATED NORMALLY****
TOTAL RUN TIME: 0 days 0 hours 1 minutes 38 seconds 100 msec
