                         Program Version 5.0.3 -  RELEASE  -
|  1> ! PBEh-3c def2/J TightSCF DefGrid3
|  2>
|  3> %maxcore 60000
|  4>
|  5> %pal
|  6> nprocs 4
|  7> end
|  8>
|  9> *xyzfile 0 1 h2s2_cis.xyz
| 10>
| 11>                          ****END OF INPUT****

CARTESIAN COORDINATES (ANGSTROEM)
---------------------------------
  S      1.057229    0.000000   -0.662278
  S     -1.057229    0.000000   -0.662278
  H      1.209318    0.000000    0.662710
  H     -1.209318    0.000000    0.662710

 Total Charge           Charge          ....    0
 Multiplicity           Mult            ....    1
 Number of Electrons    NEL             ....   34
 Basis Dimension        Dim             ....   40

ORBITAL ENERGIES
----------------

  NO   OCC          E(Eh)            E(eV)
   0   2.0000     -89.611753     -2438.4598
   1   2.0000     -89.611699     -2438.4583
   2   2.0000      -8.252579      -224.5641
   3   2.0000      -8.252567      -224.5638
   4   2.0000      -6.144429      -167.1984
   5   2.0000      -6.144308      -167.1951
   6   2.0000      -6.140516      -167.0919
   7   2.0000      -6.140496      -167.0914
   8   2.0000      -6.133144      -166.8913
   9   2.0000      -6.133142      -166.8913
  10   2.0000      -0.890753       -24.2386
  11   2.0000      -0.752212       -20.4687
  12   2.0000      -0.530890       -14.4463
  13   2.0000      -0.420412       -11.4400
  14   2.0000      -0.408351       -11.1118
  15   2.0000      -0.371279       -10.1030
  16   2.0000      -0.264646        -7.2014
  17   0.0000      -0.017453        -0.4749
  18   0.0000       0.026365         0.7174
  19   0.0000       0.123679         3.3655
  20   0.0000       0.380852        10.3635
  21   0.0000       0.469641        12.7796

MULLIKEN ATOMIC CHARGES
-----------------------
   0 S :   -0.197305
   1 S :   -0.197305
   2 H :    0.197305
   3 H :    0.197305
Sum of atomic charges:   -0.0000000

LOEWDIN ATOMIC CHARGES
----------------------
   0 S :   -0.108694
   1 S :   -0.108694
   2 H :    0.108694
   3 H :    0.108694

  Mayer bond orders larger than 0.100000
B(  0-S ,  1-S ) :   1.0027 B(  0-S ,  2-H ) :   0.9215 B(  1-S ,  3-H ) :   0.9215

Dispersion correction           -0.001241958
FINAL SINGLE POINT ENERGY      -796.658619002861

DIPOLE MOMENT
-------------
                                X             Y             Z
Electronic contribution:      0.00000      -0.00000      -1.52688
Nuclear contribution   :      0.00000       0.00000       2.41270
                        -----------------------------------------
Total Dipole Moment    :      0.00000      -0.00000       0.88582
                        -----------------------------------------
Magnitude (a.u.)       :      0.88582
Magnitude (Debye)      :      2.25158

Rotational constants in cm-1:     4.912769     0.225921     0.215989
Rotational constants in MHz : 147281.095914  6772.947650  6475.176694

                             ****ORCA TERMINATED NORMALLY****
TOTAL RUN TIME: 0 days 0 hours 0 minutes 47 seconds 926 msec
