                         Program Version 5.0.3 -  RELEASE  -
|  1> ! PBEh-3c def2/J TightSCF DefGrid3
|  2>
|  3> %maxcore 60000
|  4>
|  5> %pal
|  6> nprocs 4
|  7> end
|  8>
|  9> *xyzfile 0 1 26B.xyz
| 10>
| 11>                          ****END OF INPUT****

CARTESIAN COORDINATES (ANGSTROEM)
---------------------------------
  C      0.126847    1.517567   -0.742537
  C     -1.115654    0.848286   -0.666477
  C     -1.154194   -0.560781   -0.563728
  C      0.049758   -1.300588   -0.537072
  C      1.292272   -0.631317   -0.613167
  C      1.330821    0.777771   -0.715913
  H      2.223410   -1.205719   -0.618605
  H      2.291789    1.293823   -0.800852
  H      0.156097    2.606137   -0.848070
  H     -2.047947    1.418911   -0.713229
  H     -2.116318   -1.080600   -0.530946
  H      0.019351   -2.392922   -0.483624

 Total Charge           Charge          ....    0
 Multiplicity           Mult            ....    1
 Number of Electrons    NEL             ....   42
 Basis Dimension        Dim             ....  102

ORBITAL ENERGIES
----------------

  NO   OCC          E(Eh)            E(eV)
   0   2.0000     -10.455835      -284.5177
   1   2.0000     -10.455661      -284.5130
   2   2.0000     -10.455659      -284.5130
   3   2.0000     -10.455129      -284.4985
   4   2.0000     -10.455127      -284.4985
   5   2.0000     -10.454936      -284.4933
   6   2.0000      -0.942256       -25.6401
   7   2.0000      -0.829958       -22.5843
   8   2.0000      -0.829957       -22.5843
   9   2.0000      -0.675432       -18.3794
  10   2.0000      -0.675431       -18.3794
  11   2.0000      -0.584918       -15.9164
  12   2.0000      -0.526952       -14.3391
  13   2.0000      -0.503153       -13.6915
  14   2.0000      -0.478841       -13.0299
  15   2.0000      -0.478839       -13.0299
  16   2.0000      -0.414535       -11.2801
  17   2.0000      -0.398197       -10.8355
  18   2.0000      -0.398197       -10.8355
  19   2.0000      -0.290105        -7.8942
  20   2.0000      -0.290102        -7.8941
  21   0.0000       0.014548         0.3959
  22   0.0000       0.014549         0.3959
  23   0.0000       0.136624         3.7177
  24   0.0000       0.185925         5.0593
  25   0.0000       0.197706         5.3798

MULLIKEN ATOMIC CHARGES
-----------------------
   0 C :   -0.221250
   1 C :   -0.221221
   2 C :   -0.221234
   3 C :   -0.221247
   4 C :   -0.221228
   5 C :   -0.221236
   6 H :    0.221229
   7 H :    0.221240
   8 H :    0.221238
   9 H :    0.221233
  10 H :    0.221236
  11 H :    0.221241
Sum of atomic charges:    0.0000000

LOEWDIN ATOMIC CHARGES
----------------------
   0 C :   -0.136771
   1 C :   -0.136765
   2 C :   -0.136767
   3 C :   -0.136773
   4 C :   -0.136761
   5 C :   -0.136768
   6 H :    0.136766
   7 H :    0.136769
   8 H :    0.136766
   9 H :    0.136767
  10 H :    0.136769
  11 H :    0.136766

  Mayer bond orders larger than 0.100000
B(  0-C ,  1-C ) :   1.4211 B(  0-C ,  5-C ) :   1.4211 B(  0-C ,  8-H ) :   0.9194
B(  1-C ,  2-C ) :   1.4211 B(  1-C ,  9-H ) :   0.9194 B(  2-C ,  3-C ) :   1.4211
B(  2-C , 10-H ) :   0.9194 B(  3-C ,  4-C ) :   1.4211 B(  3-C , 11-H ) :   0.9194
B(  4-C ,  5-C ) :   1.4211 B(  4-C ,  6-H ) :   0.9194 B(  5-C ,  7-H ) :   0.9194

Dispersion correction           -0.005832928
FINAL SINGLE POINT ENERGY      -231.721552914772

DIPOLE MOMENT
-------------
                                X             Y             Z
Electronic contribution:      0.00205       0.00667       0.09228
Nuclear contribution   :     -0.00300      -0.00979      -0.13540
                        -----------------------------------------
Total Dipole Moment    :     -0.00096      -0.00312      -0.04311
                        -----------------------------------------
Magnitude (a.u.)       :      0.04324
Magnitude (Debye)      :      0.10990

Rotational constants in cm-1:     0.185272     0.185272     0.092640
Rotational constants in MHz :  5554.316786  5554.303817  2777.271580

                             ****ORCA TERMINATED NORMALLY****
TOTAL RUN TIME: 0 days 0 hours 0 minutes 40 seconds 902 msec
