                         Program Version 5.0.3 -  RELEASE  -
|  1> ! PBEh-3c def2/J TightSCF DefGrid3
|  2>
|  3> %maxcore 60000
|  4>
|  5> %pal
|  6> nprocs 4
|  7> end
|  8>
|  9> *xyzfile 0 1 56.xyz
| 10>
| 11>                          ****END OF INPUT****

CARTESIAN COORDINATES (ANGSTROEM)
---------------------------------
  S      0.000000    0.000000    0.497634
  O     -1.248914    0.000000   -0.248817
  O      1.248914    0.000000   -0.248817

 Total Charge           Charge          ....    0
 Multiplicity           Mult            ....    1
 Number of Electrons    NEL             ....   32
 Basis Dimension        Dim             ....   48

ORBITAL ENERGIES
----------------

  NO   OCC          E(Eh)            E(eV)
   0   2.0000     -89.794971     -2443.4454
   1   2.0000     -19.554142      -532.0953
   2   2.0000     -19.554099      -532.0941
   3   2.0000      -8.413242      -228.9359
   4   2.0000      -6.303587      -171.5293
   5   2.0000      -6.303483      -171.5265
   6   2.0000      -6.297275      -171.3576
   7   2.0000      -1.253271       -34.1033
   8   2.0000      -1.155983       -31.4559
   9   2.0000      -0.717047       -19.5118
  10   2.0000      -0.557536       -15.1713
  11   2.0000      -0.557518       -15.1708
  12   2.0000      -0.552362       -15.0305
  13   2.0000      -0.418039       -11.3754
  14   2.0000      -0.413211       -11.2441
  15   2.0000      -0.384451       -10.4615
  16   0.0000      -0.104623        -2.8469
  17   0.0000       0.103021         2.8033
  18   0.0000       0.126173         3.4333
  19   0.0000       0.327721         8.9177
  20   0.0000       0.583330        15.8732

MULLIKEN ATOMIC CHARGES
-----------------------
   0 S :    1.016277
   1 O :   -0.508138
   2 O :   -0.508138
Sum of atomic charges:   -0.0000000

LOEWDIN ATOMIC CHARGES
----------------------
   0 S :    0.875518
   1 O :   -0.437759
   2 O :   -0.437759

  Mayer bond orders larger than 0.100000
B(  0-S ,  1-O ) :   1.8240 B(  0-S ,  2-O ) :   1.8240 B(  1-O ,  2-O ) :   0.2273

Dispersion correction           -0.000667787
FINAL SINGLE POINT ENERGY      -547.828164222529

DIPOLE MOMENT
-------------
                                X             Y             Z
Electronic contribution:     -0.00000      -0.00000       0.78610
Nuclear contribution   :      0.00000       0.00000      -0.02184
                        -----------------------------------------
Total Dipole Moment    :     -0.00000      -0.00000       0.76425
                        -----------------------------------------
Magnitude (a.u.)       :      0.76425
Magnitude (Debye)      :      1.94257

Rotational constants in cm-1:     1.889212     0.337761     0.286533
Rotational constants in MHz : 56637.155922 10125.808319  8590.046759

                             ****ORCA TERMINATED NORMALLY****
TOTAL RUN TIME: 0 days 0 hours 0 minutes 12 seconds 860 msec
