                         Program Version 5.0.3 -  RELEASE  -
|  1> ! PBEh-3c def2/J TightSCF DefGrid3
|  2>
|  3> %maxcore 60000
|  4>
|  5> %pal
|  6> nprocs 4
|  7> end
|  8>
|  9> *xyzfile 0 1 bih3.xyz
| 10>
| 11>                          ****END OF INPUT****

CARTESIAN COORDINATES (ANGSTROEM)
---------------------------------
  Bi     0.000000    0.765214    0.000000
  H      1.436456   -0.255071    0.000000
  H     -0.718228   -0.255071    1.244007
  H     -0.718228   -0.255071   -1.244007

 Total Charge           Charge          ....    0
 Multiplicity           Mult            ....    1
 Number of Electrons    NEL             ....   26
 Basis Dimension        Dim             ....   32

ORBITAL ENERGIES
----------------

  NO   OCC          E(Eh)            E(eV)
   0   2.0000      -6.170203      -167.8998
   1   2.0000      -3.860837      -105.0587
   2   2.0000      -3.860837      -105.0587
   3   2.0000      -3.856581      -104.9429
   4   2.0000      -1.141686       -31.0669
   5   2.0000      -1.141685       -31.0668
   6   2.0000      -1.134857       -30.8810
   7   2.0000      -1.134856       -30.8810
   8   2.0000      -1.131177       -30.7809
   9   2.0000      -0.683726       -18.6051
  10   2.0000      -0.369805       -10.0629
  11   2.0000      -0.369802       -10.0628
  12   2.0000      -0.310662        -8.4535
  13   0.0000       0.029242         0.7957
  14   0.0000       0.029247         0.7958
  15   0.0000       0.092964         2.5297
  16   0.0000       0.293127         7.9764
  17   0.0000       0.295636         8.0447

MULLIKEN ATOMIC CHARGES
-----------------------
   0 Bi:    0.010995
   1 H :   -0.003647
   2 H :   -0.003674
   3 H :   -0.003674
Sum of atomic charges:   -0.0000000

LOEWDIN ATOMIC CHARGES
----------------------
   0 Bi:    0.005633
   1 H :   -0.001867
   2 H :   -0.001883
   3 H :   -0.001883

  Mayer bond orders larger than 0.100000
B(  0-Bi,  1-H ) :   0.9847 B(  0-Bi,  2-H ) :   0.9847 B(  0-Bi,  3-H ) :   0.9847

Dispersion correction           -0.000757817
FINAL SINGLE POINT ENERGY      -216.395764544181

DIPOLE MOMENT
-------------
                                X             Y             Z
Electronic contribution:      0.00007       5.34895       0.00000
Nuclear contribution   :      0.00000      -5.06914       0.00000
                        -----------------------------------------
Total Dipole Moment    :      0.00007       0.27982       0.00000
                        -----------------------------------------
Magnitude (a.u.)       :      0.27982
Magnitude (Debye)      :      0.71124

Rotational constants in cm-1:     2.708972     2.708972     2.701660
Rotational constants in MHz : 81212.947205 81212.922857 80993.724827

                             ****ORCA TERMINATED NORMALLY****
TOTAL RUN TIME: 0 days 0 hours 1 minutes 9 seconds 192 msec
