                         Program Version 5.0.3 -  RELEASE  -
|  1> ! PBEh-3c def2/J TightSCF DefGrid3
|  2>
|  3> %maxcore 60000
|  4>
|  5> %pal
|  6> nprocs 4
|  7> end
|  8>
|  9> *xyzfile 0 1 h13.xyz
| 10>
| 11>                          ****END OF INPUT****

CARTESIAN COORDINATES (ANGSTROEM)
---------------------------------
  C     -3.169052    0.980250   -0.280555
  C     -2.005226    0.006746   -0.417915
  C     -0.692886    0.609901    0.068267
  C      0.542948   -0.260247   -0.159676
  C      1.804466    0.526417    0.198622
  C      3.107695   -0.179964   -0.154948
  C      0.458632   -1.565237    0.625596
  H     -2.990477    1.883284   -0.864082
  H     -4.104482    0.540095   -0.622599
  H     -3.301303    1.279538    0.759192
  H     -1.894659   -0.289900   -1.464122
  H     -2.229414   -0.902690    0.140383
  H     -0.542499    1.567767   -0.438760
  H     -0.772077    0.836943    1.137314
  H      0.591488   -0.500381   -1.228543
  H      1.768704    1.488575   -0.317512
  H      1.782822    0.750525    1.269647
  H      3.125637   -0.446518   -1.212215
  H      3.966052    0.461083    0.040944
  H      3.243384   -1.093003    0.421203
  H      0.403943   -1.353812    1.695945
  H     -0.421990   -2.143188    0.351938
  H      1.328295   -2.196186    0.451877

 Total Charge           Charge          ....    0
 Multiplicity           Mult            ....    1
 Number of Electrons    NEL             ....   58
 Basis Dimension        Dim             ....  137

ORBITAL ENERGIES
----------------

  NO   OCC          E(Eh)            E(eV)
   0   2.0000     -10.433895      -283.9207
   1   2.0000     -10.426555      -283.7210
   2   2.0000     -10.425778      -283.6998
   3   2.0000     -10.423835      -283.6470
   4   2.0000     -10.418901      -283.5127
   5   2.0000     -10.418648      -283.5058
   6   2.0000     -10.416860      -283.4572
   7   2.0000      -0.910896       -24.7868
   8   2.0000      -0.858444       -23.3594
   9   2.0000      -0.806324       -21.9412
  10   2.0000      -0.756370       -20.5819
  11   2.0000      -0.707659       -19.2564
  12   2.0000      -0.650642       -17.7049
  13   2.0000      -0.622609       -16.9421
  14   2.0000      -0.533816       -14.5259
  15   2.0000      -0.513496       -13.9729
  16   2.0000      -0.502607       -13.6766
  17   2.0000      -0.481945       -13.1144
  18   2.0000      -0.462921       -12.5967
  19   2.0000      -0.440822       -11.9954
  20   2.0000      -0.436026       -11.8649
  21   2.0000      -0.422977       -11.5098
  22   2.0000      -0.414618       -11.2823
  23   2.0000      -0.400308       -10.8929
  24   2.0000      -0.386447       -10.5158
  25   2.0000      -0.373240       -10.1564
  26   2.0000      -0.362121        -9.8538
  27   2.0000      -0.357940        -9.7400
  28   2.0000      -0.347477        -9.4553
  29   0.0000       0.131155         3.5689
  30   0.0000       0.153909         4.1881
  31   0.0000       0.171122         4.6565
  32   0.0000       0.173951         4.7335
  33   0.0000       0.183070         4.9816

MULLIKEN ATOMIC CHARGES
-----------------------
   0 C :   -0.637294
   1 C :   -0.419746
   2 C :   -0.380281
   3 C :   -0.221578
   4 C :   -0.394701
   5 C :   -0.648313
   6 C :   -0.644831
   7 H :    0.208615
   8 H :    0.218433
   9 H :    0.209261
  10 H :    0.204147
  11 H :    0.209520
  12 H :    0.203724
  13 H :    0.196323
  14 H :    0.197277
  15 H :    0.209202
  16 H :    0.200309
  17 H :    0.208484
  18 H :    0.220986
  19 H :    0.212596
  20 H :    0.202939
  21 H :    0.222756
  22 H :    0.222172
Sum of atomic charges:   -0.0000000

LOEWDIN ATOMIC CHARGES
----------------------
   0 C :   -0.360655
   1 C :   -0.246615
   2 C :   -0.232199
   3 C :   -0.158234
   4 C :   -0.238059
   5 C :   -0.363062
   6 C :   -0.354805
   7 H :    0.122824
   8 H :    0.125550
   9 H :    0.123648
  10 H :    0.119217
  11 H :    0.119838
  12 H :    0.119606
  13 H :    0.118573
  14 H :    0.116011
  15 H :    0.120653
  16 H :    0.119144
  17 H :    0.123389
  18 H :    0.127304
  19 H :    0.123096
  20 H :    0.122983
  21 H :    0.126025
  22 H :    0.125770

  Mayer bond orders larger than 0.100000
B(  0-C ,  1-C ) :   0.9985 B(  0-C ,  7-H ) :   0.9299 B(  0-C ,  8-H ) :   0.9324
B(  0-C ,  9-H ) :   0.9294 B(  1-C ,  2-C ) :   0.9876 B(  1-C , 10-H ) :   0.9208
B(  1-C , 11-H ) :   0.9174 B(  2-C ,  3-C ) :   0.9874 B(  2-C , 12-H ) :   0.9216
B(  2-C , 13-H ) :   0.9153 B(  3-C ,  4-C ) :   0.9833 B(  3-C ,  6-C ) :   0.9815
B(  3-C , 14-H ) :   0.9080 B(  4-C ,  5-C ) :   0.9966 B(  4-C , 15-H ) :   0.9236
B(  4-C , 16-H ) :   0.9175 B(  5-C , 17-H ) :   0.9294 B(  5-C , 18-H ) :   0.9309
B(  5-C , 19-H ) :   0.9263 B(  6-C , 20-H ) :   0.9273 B(  6-C , 21-H ) :   0.9256
B(  6-C , 22-H ) :   0.9257

Dispersion correction           -0.011096508
FINAL SINGLE POINT ENERGY      -275.790054014959

DIPOLE MOMENT
-------------
                                X             Y             Z
Electronic contribution:      0.12178       0.31354      -0.33400
Nuclear contribution   :     -0.12047      -0.30485       0.31195
                        -----------------------------------------
Total Dipole Moment    :      0.00131       0.00868      -0.02204
                        -----------------------------------------
Magnitude (a.u.)       :      0.02373
Magnitude (Debye)      :      0.06031

Rotational constants in cm-1:     0.196585     0.036842     0.033209
Rotational constants in MHz :  5893.481104  1104.480571   995.585869

                             ****ORCA TERMINATED NORMALLY****
TOTAL RUN TIME: 0 days 0 hours 1 minutes 36 seconds 739 msec
