                         Program Version 5.0.3 -  RELEASE  -
|  1> ! PBEh-3c def2/J TightSCF DefGrid3
|  2>
|  3> %maxcore 60000
|  4>
|  5> %pal
|  6> nprocs 4
|  7> end
|  8>
|  9> *xyzfile 0 1 24_benI-Nm3A.xyz
| 10>
| 11>                          ****END OF INPUT****

CARTESIAN COORDINATES (ANGSTROEM)
---------------------------------
  C      1.037288    0.000539   -0.582102
  C     -0.176487   -0.000271    0.102715
  C     -0.183174   -0.000518    1.498133
  C      1.019880    0.000040    2.205172
  C      2.228616    0.000848    1.511505
  C      2.241753    0.001096    0.118273
  I     -2.004073   -0.001696    2.534377
  H      1.013157   -0.000135    3.286244
  H      3.159115    0.001279    2.063225
  H      3.181398    0.001715   -0.416415
  H      1.038283    0.000729   -1.663869
  H     -1.109304   -0.000688   -0.443732

 Total Charge           Charge          ....    0
 Multiplicity           Mult            ....    1
 Number of Electrons    NEL             ....   66
 Basis Dimension        Dim             ....  126

ORBITAL ENERGIES
----------------

  NO   OCC          E(Eh)            E(eV)
   0   2.0000     -10.507068      -285.9119
   1   2.0000     -10.466864      -284.8179
   2   2.0000     -10.466833      -284.8170
   3   2.0000     -10.463866      -284.7363
   4   2.0000     -10.463783      -284.7340
   5   2.0000     -10.461701      -284.6773
   6   2.0000      -7.095924      -193.0899
   7   2.0000      -5.079480      -138.2197
   8   2.0000      -5.062772      -137.7650
   9   2.0000      -5.062676      -137.7624
  10   2.0000      -2.033487       -55.3340
  11   2.0000      -2.028004       -55.1848
  12   2.0000      -2.027971       -55.1839
  13   2.0000      -2.013568       -54.7920
  14   2.0000      -2.013556       -54.7916
  15   2.0000      -0.972410       -26.4606
  16   2.0000      -0.864358       -23.5204
  17   2.0000      -0.852747       -23.2044
  18   2.0000      -0.767337       -20.8803
  19   2.0000      -0.698498       -19.0071
  20   2.0000      -0.674412       -18.3517
  21   2.0000      -0.593372       -16.1465
  22   2.0000      -0.531300       -14.4574
  23   2.0000      -0.527878       -14.3643
  24   2.0000      -0.497420       -13.5355
  25   2.0000      -0.469740       -12.7823
  26   2.0000      -0.443565       -12.0700
  27   2.0000      -0.416354       -11.3296
  28   2.0000      -0.391878       -10.6635
  29   2.0000      -0.343669        -9.3517
  30   2.0000      -0.309413        -8.4196
  31   2.0000      -0.307921        -8.3790
  32   2.0000      -0.278478        -7.5778
  33   0.0000      -0.002418        -0.0658
  34   0.0000       0.000266         0.0072
  35   0.0000       0.003837         0.1044
  36   0.0000       0.149071         4.0564
  37   0.0000       0.175803         4.7838

MULLIKEN ATOMIC CHARGES
-----------------------
   0 C :   -0.210095
   1 C :   -0.205415
   2 C :   -0.192984
   3 C :   -0.205433
   4 C :   -0.210071
   5 C :   -0.225122
   6 I :    0.068905
   7 H :    0.245392
   8 H :    0.230404
   9 H :    0.228626
  10 H :    0.230420
  11 H :    0.245372
Sum of atomic charges:   -0.0000000

LOEWDIN ATOMIC CHARGES
----------------------
   0 C :   -0.127526
   1 C :   -0.138420
   2 C :   -0.173665
   3 C :   -0.138432
   4 C :   -0.127518
   5 C :   -0.131646
   6 I :    0.120050
   7 H :    0.146840
   8 H :    0.141674
   9 H :    0.140135
  10 H :    0.141674
  11 H :    0.146834

  Mayer bond orders larger than 0.100000
B(  0-C ,  1-C ) :   1.4318 B(  0-C ,  5-C ) :   1.4211 B(  0-C , 10-H ) :   0.9156
B(  1-C ,  2-C ) :   1.3708 B(  1-C , 11-H ) :   0.9101 B(  2-C ,  3-C ) :   1.3708
B(  2-C ,  6-I ) :   1.0422 B(  3-C ,  4-C ) :   1.4318 B(  3-C ,  7-H ) :   0.9101
B(  4-C ,  5-C ) :   1.4211 B(  4-C ,  8-H ) :   0.9156 B(  5-C ,  9-H ) :   0.9169

Dispersion correction           -0.007088771
FINAL SINGLE POINT ENERGY      -528.867571201833

DIPOLE MOMENT
-------------
                                X             Y             Z
Electronic contribution:    -94.14937      -0.06169      53.57686
Nuclear contribution   :     94.71798       0.06208     -53.90038
                        -----------------------------------------
Total Dipole Moment    :      0.56862       0.00039      -0.32352
                        -----------------------------------------
Magnitude (a.u.)       :      0.65421
Magnitude (Debye)      :      1.66287

Rotational constants in cm-1:     0.190398     0.024904     0.022023
Rotational constants in MHz :  5707.979587   746.607630   660.246886

                             ****ORCA TERMINATED NORMALLY****
TOTAL RUN TIME: 0 days 0 hours 1 minutes 47 seconds 887 msec
