                         Program Version 5.0.3 -  RELEASE  -
|  1> ! PBEh-3c def2/J TightSCF DefGrid3
|  2>
|  3> %maxcore 60000
|  4>
|  5> %pal
|  6> nprocs 4
|  7> end
|  8>
|  9> *xyzfile 0 2 P25.xyz
| 10>
| 11>                          ****END OF INPUT****

CARTESIAN COORDINATES (ANGSTROEM)
---------------------------------
  C     -0.937134   -0.310424    0.078364
  N      0.186096    0.464282   -0.085939
  H     -0.991620   -1.242630   -0.462737
  H      0.212428    1.268671    0.532762
  H     -1.822385    0.176058    0.459969
  O      1.424377   -0.269514    0.140633
  H      1.928239   -0.086442   -0.663052

 Total Charge           Charge          ....    0
 Multiplicity           Mult            ....    2
 Number of Electrons    NEL             ....   25
 Basis Dimension        Dim             ....   53

ORBITAL ENERGIES
----------------
                 SPIN UP ORBITALS
  NO   OCC          E(Eh)            E(eV)
   0   1.0000     -19.519484      -531.1522
   1   1.0000     -14.695878      -399.8952
   2   1.0000     -10.452769      -284.4343
   3   1.0000      -1.165137       -31.7050
   4   1.0000      -0.951791       -25.8996
   5   1.0000      -0.722260       -19.6537
   6   1.0000      -0.595072       -16.1927
   7   1.0000      -0.547425       -14.8962
   8   1.0000      -0.514471       -13.9995
   9   1.0000      -0.451593       -12.2885
  10   1.0000      -0.378523       -10.3001
  11   1.0000      -0.363957        -9.9038
  12   1.0000      -0.206679        -5.6240
  13   0.0000       0.124552         3.3892
  14   0.0000       0.141941         3.8624
  15   0.0000       0.179745         4.8911
  16   0.0000       0.195383         5.3166
  17   0.0000       0.283725         7.7206

                 SPIN DOWN ORBITALS
  NO   OCC          E(Eh)            E(eV)
   0   1.0000     -19.516770      -531.0783
   1   1.0000     -14.691527      -399.7768
   2   1.0000     -10.438951      -284.0583
   3   1.0000      -1.156403       -31.4673
   4   1.0000      -0.939108       -25.5544
   5   1.0000      -0.692443       -18.8423
   6   1.0000      -0.589031       -16.0283
   7   1.0000      -0.534671       -14.5491
   8   1.0000      -0.497598       -13.5403
   9   1.0000      -0.440243       -11.9796
  10   1.0000      -0.360055        -9.7976
  11   1.0000      -0.329517        -8.9666
  12   0.0000       0.013149         0.3578
  13   0.0000       0.135144         3.6774
  14   0.0000       0.147305         4.0084
  15   0.0000       0.184423         5.0184
  16   0.0000       0.210005         5.7145

MULLIKEN ATOMIC CHARGES AND SPIN POPULATIONS
--------------------------------------------
   0 C :   -0.352296    0.929157
   1 N :   -0.307845    0.100432
   2 H :    0.219116   -0.043395
   3 H :    0.348648    0.002396
   4 H :    0.205910   -0.054071
   5 O :   -0.541116    0.068438
   6 H :    0.427583   -0.002958
Sum of atomic charges         :   -0.0000000

LOEWDIN ATOMIC CHARGES AND SPIN POPULATIONS
-------------------------------------------
   0 C :   -0.285758    0.822627
   1 N :   -0.146040    0.153469
   2 H :    0.128589   -0.019591
   3 H :    0.236178    0.003531
   4 H :    0.122251   -0.026133
   5 O :   -0.362173    0.067464
   6 H :    0.306952   -0.001367

  Mayer bond orders larger than 0.100000
B(  0-C ,  1-N ) :   1.2203 B(  0-C ,  2-H ) :   0.9203 B(  0-C ,  4-H ) :   0.9182
B(  1-N ,  3-H ) :   0.8305 B(  1-N ,  5-O ) :   0.9491 B(  5-O ,  6-H ) :   0.7893

Dispersion correction           -0.001694157
FINAL SINGLE POINT ENERGY      -169.990502334896

DIPOLE MOMENT
-------------
                                X             Y             Z
Electronic contribution:      1.72597       0.26830       0.03710
Nuclear contribution   :     -1.71251       0.22348      -0.27508
                        -----------------------------------------
Total Dipole Moment    :      0.01346       0.49178      -0.23798
                        -----------------------------------------
Magnitude (a.u.)       :      0.54650
Magnitude (Debye)      :      1.38909

Rotational constants in cm-1:     1.670711     0.342163     0.299941
Rotational constants in MHz : 50086.653630 10257.799848  8992.018592

                             ****ORCA TERMINATED NORMALLY****
TOTAL RUN TIME: 0 days 0 hours 2 minutes 56 seconds 118 msec
