                         Program Version 5.0.3 -  RELEASE  -
|  1> ! PBEh-3c def2/J TightSCF DefGrid3
|  2>
|  3> %maxcore 60000
|  4>
|  5> %pal
|  6> nprocs 4
|  7> end
|  8>
|  9> *xyzfile 0 1 c2h6.xyz
| 10>
| 11>                          ****END OF INPUT****

CARTESIAN COORDINATES (ANGSTROEM)
---------------------------------
  C      0.000000    0.000000    0.766009
  C      0.000000    0.000000   -0.766009
  H     -0.884402    0.510610    1.162263
  H      0.000000   -1.021219    1.162263
  H      0.884402    0.510610    1.162263
  H      0.884402   -0.510610   -1.162263
  H     -0.884402   -0.510610   -1.162263
  H      0.000000    1.021219   -1.162263

 Total Charge           Charge          ....    0
 Multiplicity           Mult            ....    1
 Number of Electrons    NEL             ....   18
 Basis Dimension        Dim             ....   42

ORBITAL ENERGIES
----------------

  NO   OCC          E(Eh)            E(eV)
   0   2.0000     -10.423907      -283.6489
   1   2.0000     -10.423709      -283.6435
   2   2.0000      -0.836451       -22.7610
   3   2.0000      -0.688176       -18.7262
   4   2.0000      -0.489719       -13.3259
   5   2.0000      -0.489719       -13.3259
   6   2.0000      -0.417041       -11.3482
   7   2.0000      -0.391497       -10.6532
   8   2.0000      -0.391497       -10.6532
   9   0.0000       0.153869         4.1870
  10   0.0000       0.199685         5.4337
  11   0.0000       0.217181         5.9098
  12   0.0000       0.217183         5.9098
  13   0.0000       0.224001         6.0954

MULLIKEN ATOMIC CHARGES
-----------------------
   0 C :   -0.636049
   1 C :   -0.636049
   2 H :    0.212017
   3 H :    0.212014
   4 H :    0.212017
   5 H :    0.212017
   6 H :    0.212017
   7 H :    0.212014
Sum of atomic charges:    0.0000000

LOEWDIN ATOMIC CHARGES
----------------------
   0 C :   -0.370979
   1 C :   -0.370979
   2 H :    0.123660
   3 H :    0.123659
   4 H :    0.123660
   5 H :    0.123660
   6 H :    0.123660
   7 H :    0.123659

  Mayer bond orders larger than 0.100000
B(  0-C ,  1-C ) :   0.9945 B(  0-C ,  2-H ) :   0.9314 B(  0-C ,  3-H ) :   0.9314
B(  0-C ,  4-H ) :   0.9314 B(  1-C ,  5-H ) :   0.9314 B(  1-C ,  6-H ) :   0.9314
B(  1-C ,  7-H ) :   0.9314

Dispersion correction           -0.001881792
FINAL SINGLE POINT ENERGY       -79.650721255659

DIPOLE MOMENT
-------------
                                X             Y             Z
Electronic contribution:      0.00000       0.00000      -0.00000
Nuclear contribution   :      0.00000       0.00000      -0.00000
                        -----------------------------------------
Total Dipole Moment    :      0.00000       0.00000      -0.00000
                        -----------------------------------------
Magnitude (a.u.)       :      0.00000
Magnitude (Debye)      :      0.00000

Rotational constants in cm-1:     2.672680     0.663190     0.663190
Rotational constants in MHz : 80124.942298 19881.928888 19881.928647

                             ****ORCA TERMINATED NORMALLY****
TOTAL RUN TIME: 0 days 0 hours 0 minutes 31 seconds 741 msec
