                         Program Version 5.0.3 -  RELEASE  -
|  1> ! PBEh-3c def2/J TightSCF DefGrid3
|  2>
|  3> %maxcore 60000
|  4>
|  5> %pal
|  6> nprocs 4
|  7> end
|  8>
|  9> *xyzfile 0 1 bzNe.xyz
| 10>
| 11>                          ****END OF INPUT****

CARTESIAN COORDINATES (ANGSTROEM)
---------------------------------
  C     -1.198802    0.692129   -0.268659
  C     -1.198802   -0.692129   -0.268659
  C      0.000000   -1.384258   -0.268659
  C      1.198802   -0.692129   -0.268659
  C      1.198802    0.692129   -0.268659
  C      0.000000    1.384258   -0.268659
  H     -2.133155   -1.231578   -0.268659
  H      0.000000   -2.463155   -0.268659
  H      2.133155   -1.231578   -0.268659
  H      2.133155    1.231578   -0.268659
  H      0.000000    2.463155   -0.268659
  H     -2.133155    1.231578   -0.268659
  Ne     0.000000    0.000000    3.223910

 Total Charge           Charge          ....    0
 Multiplicity           Mult            ....    1
 Number of Electrons    NEL             ....   52
 Basis Dimension        Dim             ....  117

ORBITAL ENERGIES
----------------

  NO   OCC          E(Eh)            E(eV)
   0   2.0000     -31.388761      -854.1316
   1   2.0000     -10.445663      -284.2409
   2   2.0000     -10.445419      -284.2343
   3   2.0000     -10.445418      -284.2343
   4   2.0000     -10.444761      -284.2164
   5   2.0000     -10.444760      -284.2164
   6   2.0000     -10.444511      -284.2096
   7   2.0000      -1.555802       -42.3355
   8   2.0000      -0.957040       -26.0424
   9   2.0000      -0.837951       -22.8018
  10   2.0000      -0.837951       -22.8018
  11   2.0000      -0.680242       -18.5103
  12   2.0000      -0.680242       -18.5103
  13   2.0000      -0.616107       -16.7651
  14   2.0000      -0.616098       -16.7649
  15   2.0000      -0.615764       -16.7558
  16   2.0000      -0.594783       -16.1849
  17   2.0000      -0.524236       -14.2652
  18   2.0000      -0.511157       -13.9093
  19   2.0000      -0.482706       -13.1351
  20   2.0000      -0.482704       -13.1350
  21   2.0000      -0.424005       -11.5378
  22   2.0000      -0.397931       -10.8282
  23   2.0000      -0.397930       -10.8282
  24   2.0000      -0.293720        -7.9925
  25   2.0000      -0.293717        -7.9924
  26   0.0000       0.021466         0.5841
  27   0.0000       0.021466         0.5841
  28   0.0000       0.141328         3.8457
  29   0.0000       0.201287         5.4773
  30   0.0000       0.202509         5.5105

MULLIKEN ATOMIC CHARGES
-----------------------
   0 C :   -0.219141
   1 C :   -0.219140
   2 C :   -0.219152
   3 C :   -0.219141
   4 C :   -0.219141
   5 C :   -0.219151
   6 H :    0.218993
   7 H :    0.219005
   8 H :    0.218993
   9 H :    0.218993
  10 H :    0.219005
  11 H :    0.218993
  12 Ne:    0.000883
Sum of atomic charges:   -0.0000000

LOEWDIN ATOMIC CHARGES
----------------------
   0 C :   -0.135419
   1 C :   -0.135419
   2 C :   -0.135427
   3 C :   -0.135419
   4 C :   -0.135419
   5 C :   -0.135427
   6 H :    0.135267
   7 H :    0.135266
   8 H :    0.135267
   9 H :    0.135267
  10 H :    0.135266
  11 H :    0.135267
  12 Ne:    0.000930

  Mayer bond orders larger than 0.100000
B(  0-C ,  1-C ) :   1.4286 B(  0-C ,  5-C ) :   1.4286 B(  0-C , 11-H ) :   0.9202
B(  1-C ,  2-C ) :   1.4286 B(  1-C ,  6-H ) :   0.9202 B(  2-C ,  3-C ) :   1.4286
B(  2-C ,  7-H ) :   0.9202 B(  3-C ,  4-C ) :   1.4286 B(  3-C ,  8-H ) :   0.9202
B(  4-C ,  5-C ) :   1.4286 B(  4-C ,  9-H ) :   0.9202 B(  5-C , 10-H ) :   0.9202

Dispersion correction           -0.006270496
FINAL SINGLE POINT ENERGY      -360.422026066639

DIPOLE MOMENT
-------------
                                X             Y             Z
Electronic contribution:     -0.00000      -0.00000       4.45832
Nuclear contribution   :      0.00000       0.00000      -4.45703
                        -----------------------------------------
Total Dipole Moment    :     -0.00000      -0.00000       0.00129
                        -----------------------------------------
Magnitude (a.u.)       :      0.00129
Magnitude (Debye)      :      0.00328

Rotational constants in cm-1:     0.096448     0.059567     0.059567
Rotational constants in MHz :  2891.440489  1785.764244  1785.764203

                             ****ORCA TERMINATED NORMALLY****
TOTAL RUN TIME: 0 days 0 hours 1 minutes 25 seconds 210 msec
