                         Program Version 5.0.3 -  RELEASE  -
|  1> ! PBEh-3c def2/J TightSCF DefGrid3
|  2>
|  3> %maxcore 60000
|  4>
|  5> %pal
|  6> nprocs 4
|  7> end
|  8>
|  9> *xyzfile 0 1 LYS_xap.xyz
| 10>
| 11>                          ****END OF INPUT****

CARTESIAN COORDINATES (ANGSTROEM)
---------------------------------
  N     -1.634539   -1.159441   -0.407359
  C     -0.565793   -0.325706    0.127654
  C     -0.807267    1.128743   -0.298889
  O     -0.209413    1.647641   -1.236849
  C      0.781978   -0.826643   -0.352704
  C      1.942558   -0.124594    0.339185
  H     -1.496267   -1.593072   -1.304638
  H     -0.636950   -0.394689    1.214239
  H      0.837323   -1.901711   -0.167992
  H      1.872252   -0.288943    1.418293
  H      1.861084    0.949652    0.168120
  N     -1.748362    1.755050    0.442341
  H     -2.305695    1.166983    1.050346
  C     -2.214542    3.076188    0.079351
  H     -2.958464    3.043168   -0.717475
  H     -1.368267    3.658486   -0.272166
  H     -2.648507    3.556248    0.951578
  C     -2.834108   -1.280219    0.211182
  O     -3.098479   -0.685683    1.256679
  C     -3.824257   -2.206043   -0.447922
  H     -4.743140   -1.655754   -0.633817
  H     -4.055981   -3.010761    0.245971
  H     -3.461359   -2.630906   -1.380313
  H      0.851079   -0.659561   -1.429667
  C      3.292357   -0.619316   -0.160572
  H      3.358014   -0.449479   -1.239310
  H      3.386984   -1.695464   -0.003652
  C      4.457433    0.074308    0.522867
  H      4.352658    1.157861    0.388692
  H      4.408022   -0.119147    1.595690
  N      5.725224   -0.464929    0.028120
  H      5.821192   -0.236737   -0.954359
  H      6.499489   -0.007217    0.493052

 Total Charge           Charge          ....    0
 Multiplicity           Mult            ....    1
 Number of Electrons    NEL             ....  110
 Basis Dimension        Dim             ....  248

ORBITAL ENERGIES
----------------

  NO   OCC          E(Eh)            E(eV)
   0   2.0000     -19.470361      -529.8155
   1   2.0000     -19.452865      -529.3394
   2   2.0000     -14.677813      -399.4036
   3   2.0000     -14.648170      -398.5970
   4   2.0000     -14.602492      -397.3540
   5   2.0000     -10.562715      -287.4261
   6   2.0000     -10.536707      -286.7184
   7   2.0000     -10.488529      -285.4074
   8   2.0000     -10.458307      -284.5850
   9   2.0000     -10.452394      -284.4241
  10   2.0000     -10.450336      -284.3681
  11   2.0000     -10.439275      -284.0671
  12   2.0000     -10.429602      -283.8039
  13   2.0000     -10.424633      -283.6687
  14   2.0000      -1.156495       -31.4698
  15   2.0000      -1.134414       -30.8690
  16   2.0000      -1.038785       -28.2668
  17   2.0000      -1.010979       -27.5101
  18   2.0000      -0.971408       -26.4334
  19   2.0000      -0.900522       -24.5044
  20   2.0000      -0.857346       -23.3296
  21   2.0000      -0.820319       -22.3220
  22   2.0000      -0.793220       -21.5846
  23   2.0000      -0.744103       -20.2481
  24   2.0000      -0.688182       -18.7264
  25   2.0000      -0.670035       -18.2326
  26   2.0000      -0.648174       -17.6377
  27   2.0000      -0.641006       -17.4427
  28   2.0000      -0.602500       -16.3949
  29   2.0000      -0.566320       -15.4104
  30   2.0000      -0.557181       -15.1617
  31   2.0000      -0.548039       -14.9129
  32   2.0000      -0.526970       -14.3396
  33   2.0000      -0.522164       -14.2088
  34   2.0000      -0.513255       -13.9664
  35   2.0000      -0.503287       -13.6951
  36   2.0000      -0.497466       -13.5367
  37   2.0000      -0.481078       -13.0908
  38   2.0000      -0.475378       -12.9357
  39   2.0000      -0.466979       -12.7072
  40   2.0000      -0.463637       -12.6162
  41   2.0000      -0.447024       -12.1641
  42   2.0000      -0.436853       -11.8874
  43   2.0000      -0.426428       -11.6037
  44   2.0000      -0.422572       -11.4988
  45   2.0000      -0.416133       -11.3235
  46   2.0000      -0.398302       -10.8383
  47   2.0000      -0.384571       -10.4647
  48   2.0000      -0.378579       -10.3017
  49   2.0000      -0.372381       -10.1330
  50   2.0000      -0.336342        -9.1523
  51   2.0000      -0.322520        -8.7762
  52   2.0000      -0.297139        -8.0856
  53   2.0000      -0.288891        -7.8611
  54   2.0000      -0.282685        -7.6923
  55   0.0000       0.041879         1.1396
  56   0.0000       0.065528         1.7831
  57   0.0000       0.114751         3.1225
  58   0.0000       0.137005         3.7281
  59   0.0000       0.142309         3.8724

MULLIKEN ATOMIC CHARGES
-----------------------
   0 N :   -0.624644
   1 C :   -0.201530
   2 C :    0.562369
   3 O :   -0.440524
   4 C :   -0.432625
   5 C :   -0.424233
   6 H :    0.365212
   7 H :    0.262775
   8 H :    0.221335
   9 H :    0.200429
  10 H :    0.241709
  11 N :   -0.645710
  12 H :    0.402101
  13 C :   -0.491532
  14 H :    0.218446
  15 H :    0.249939
  16 H :    0.220363
  17 C :    0.540796
  18 O :   -0.462722
  19 C :   -0.744160
  20 H :    0.261002
  21 H :    0.263754
  22 H :    0.216370
  23 H :    0.232878
  24 C :   -0.416159
  25 H :    0.201910
  26 H :    0.220262
  27 C :   -0.268387
  28 H :    0.180121
  29 H :    0.204156
  30 N :   -0.739468
  31 H :    0.309235
  32 H :    0.316531
Sum of atomic charges:    0.0000000

LOEWDIN ATOMIC CHARGES
----------------------
   0 N :   -0.211623
   1 C :   -0.093264
   2 C :    0.101342
   3 O :   -0.284711
   4 C :   -0.235859
   5 C :   -0.238811
   6 H :    0.260933
   7 H :    0.145946
   8 H :    0.126824
   9 H :    0.118990
  10 H :    0.136644
  11 N :   -0.247595
  12 H :    0.266952
  13 C :   -0.254536
  14 H :    0.119514
  15 H :    0.143514
  16 H :    0.125777
  17 C :    0.113521
  18 O :   -0.302650
  19 C :   -0.384038
  20 H :    0.158315
  21 H :    0.160660
  22 H :    0.129372
  23 H :    0.137142
  24 C :   -0.244513
  25 H :    0.119231
  26 H :    0.127201
  27 C :   -0.163835
  28 H :    0.092669
  29 H :    0.115203
  30 N :   -0.476413
  31 H :    0.218110
  32 H :    0.219987

  Mayer bond orders larger than 0.100000
B(  0-N ,  1-C ) :   0.9130 B(  0-N ,  6-H ) :   0.8197 B(  0-N , 17-C ) :   1.1728
B(  1-C ,  2-C ) :   0.8706 B(  1-C ,  4-C ) :   0.9938 B(  1-C ,  7-H ) :   0.8814
B(  2-C ,  3-O ) :   1.9513 B(  2-C , 11-N ) :   1.1780 B(  4-C ,  5-C ) :   0.9930
B(  4-C ,  8-H ) :   0.9139 B(  4-C , 23-H ) :   0.8962 B(  5-C ,  9-H ) :   0.9170
B(  5-C , 10-H ) :   0.8981 B(  5-C , 24-C ) :   0.9866 B( 11-N , 12-H ) :   0.7457
B( 11-N , 13-C ) :   0.9623 B( 13-C , 14-H ) :   0.9184 B( 13-C , 15-H ) :   0.9100
B( 13-C , 16-H ) :   0.9258 B( 17-C , 18-O ) :   1.8878 B( 17-C , 19-C ) :   0.9324
B( 19-C , 20-H ) :   0.9079 B( 19-C , 21-H ) :   0.9063 B( 19-C , 22-H ) :   0.9215
B( 24-C , 25-H ) :   0.9183 B( 24-C , 26-H ) :   0.9124 B( 24-C , 27-C ) :   0.9906
B( 27-C , 28-H ) :   0.9072 B( 27-C , 29-H ) :   0.9144 B( 27-C , 30-N ) :   1.0393
B( 30-N , 31-H ) :   0.8654 B( 30-N , 32-H ) :   0.8644

Dispersion correction           -0.018632115
FINAL SINGLE POINT ENERGY      -667.701472637133

DIPOLE MOMENT
-------------
                                X             Y             Z
Electronic contribution:    -10.01337       0.86283       0.26416
Nuclear contribution   :      9.63116      -1.28041      -0.61753
                        -----------------------------------------
Total Dipole Moment    :     -0.38221      -0.41758      -0.35337
                        -----------------------------------------
Magnitude (a.u.)       :      0.66733
Magnitude (Debye)      :      1.69621

Rotational constants in cm-1:     0.034487     0.009553     0.008076
Rotational constants in MHz :  1033.900801   286.385827   242.121161

                             ****ORCA TERMINATED NORMALLY****
TOTAL RUN TIME: 0 days 0 hours 3 minutes 30 seconds 573 msec
