                         Program Version 5.0.3 -  RELEASE  -
|  1> ! PBEh-3c def2/J TightSCF DefGrid3
|  2>
|  3> %maxcore 60000
|  4>
|  5> %pal
|  6> nprocs 4
|  7> end
|  8>
|  9> *xyzfile 0 2 P27.xyz
| 10>
| 11>                          ****END OF INPUT****

CARTESIAN COORDINATES (ANGSTROEM)
---------------------------------
  C      0.000000    0.000000    0.733897
  N      0.000000    0.000000   -0.679731
  O     -1.097429    0.000000   -1.247602
  O      1.097429    0.000000   -1.247602
  H     -0.961736    0.000000    1.220519
  H      0.961736    0.000000    1.220519

 Total Charge           Charge          ....    0
 Multiplicity           Mult            ....    2
 Number of Electrons    NEL             ....   31
 Basis Dimension        Dim             ....   64

ORBITAL ENERGIES
----------------
                 SPIN UP ORBITALS
  NO   OCC          E(Eh)            E(eV)
   0   1.0000     -19.534892      -531.5714
   1   1.0000     -19.534769      -531.5681
   2   1.0000     -14.893521      -405.2733
   3   1.0000     -10.550525      -287.0944
   4   1.0000      -1.351750       -36.7830
   5   1.0000      -1.168855       -31.8062
   6   1.0000      -0.941556       -25.6210
   7   1.0000      -0.710019       -19.3206
   8   1.0000      -0.622206       -16.9311
   9   1.0000      -0.615320       -16.7437
  10   1.0000      -0.608041       -16.5456
  11   1.0000      -0.543718       -14.7953
  12   1.0000      -0.383244       -10.4286
  13   1.0000      -0.381041       -10.3687
  14   1.0000      -0.362964        -9.8767
  15   1.0000      -0.353893        -9.6299
  16   0.0000      -0.025471        -0.6931
  17   0.0000       0.137198         3.7334
  18   0.0000       0.166993         4.5441
  19   0.0000       0.187547         5.1034
  20   0.0000       0.294885         8.0242

                 SPIN DOWN ORBITALS
  NO   OCC          E(Eh)            E(eV)
   0   1.0000     -19.531488      -531.4788
   1   1.0000     -19.531361      -531.4754
   2   1.0000     -14.896635      -405.3580
   3   1.0000     -10.534934      -286.6701
   4   1.0000      -1.348938       -36.7065
   5   1.0000      -1.161595       -31.6086
   6   1.0000      -0.910384       -24.7728
   7   1.0000      -0.692310       -18.8387
   8   1.0000      -0.615070       -16.7369
   9   1.0000      -0.602080       -16.3834
  10   1.0000      -0.600773       -16.3479
  11   1.0000      -0.536452       -14.5976
  12   1.0000      -0.377176       -10.2635
  13   1.0000      -0.359421        -9.7803
  14   1.0000      -0.348023        -9.4702
  15   0.0000      -0.127183        -3.4608
  16   0.0000       0.012089         0.3290
  17   0.0000       0.152036         4.1371
  18   0.0000       0.182736         4.9725
  19   0.0000       0.193697         5.2708

MULLIKEN ATOMIC CHARGES AND SPIN POPULATIONS
--------------------------------------------
   0 C :   -0.242628    1.001085
   1 N :    0.428660   -0.114824
   2 O :   -0.368401    0.112619
   3 O :   -0.368401    0.112619
   4 H :    0.275384   -0.055750
   5 H :    0.275384   -0.055750
Sum of atomic charges         :   -0.0000000

LOEWDIN ATOMIC CHARGES AND SPIN POPULATIONS
-------------------------------------------
   0 C :   -0.105737    0.899171
   1 N :    0.236641   -0.060466
   2 O :   -0.223292    0.108047
   3 O :   -0.223292    0.108046
   4 H :    0.157840   -0.027399
   5 H :    0.157840   -0.027399

  Mayer bond orders larger than 0.100000
B(  0-C ,  1-N ) :   0.9822 B(  0-C ,  4-H ) :   0.8847 B(  0-C ,  5-H ) :   0.8847
B(  1-N ,  2-O ) :   1.5930 B(  1-N ,  3-O ) :   1.5930 B(  2-O ,  3-O ) :   0.2911

Dispersion correction           -0.001622766
FINAL SINGLE POINT ENERGY      -243.820321582703

DIPOLE MOMENT
-------------
                                X             Y             Z
Electronic contribution:     -0.00000      -0.00000      -1.93895
Nuclear contribution   :      0.00000       0.00000       3.46471
                        -----------------------------------------
Total Dipole Moment    :     -0.00000      -0.00000       1.52576
                        -----------------------------------------
Magnitude (a.u.)       :      1.52576
Magnitude (Debye)      :      3.87816

Rotational constants in cm-1:     0.417253     0.406361     0.205868
Rotational constants in MHz : 12508.944373 12182.399833  6171.756409

                             ****ORCA TERMINATED NORMALLY****
TOTAL RUN TIME: 0 days 0 hours 2 minutes 58 seconds 57 msec
