                         Program Version 5.0.3 -  RELEASE  -
|  1> ! PBEh-3c def2/J TightSCF DefGrid3
|  2>
|  3> %maxcore 60000
|  4>
|  5> %pal
|  6> nprocs 4
|  7> end
|  8>
|  9> *xyzfile 0 1 49B.xyz
| 10>
| 11>                          ****END OF INPUT****

CARTESIAN COORDINATES (ANGSTROEM)
---------------------------------
  N      0.000000    0.000000    1.613676
  C     -1.140767    0.000000    0.910013
  H     -2.054723    0.000000    1.491464
  C     -1.192592    0.000000   -0.481490
  H     -2.145352    0.000000   -0.991866
  C      0.000000    0.000000   -1.197391
  H      0.000000    0.000000   -2.278553
  C      1.192592    0.000000   -0.481490
  H      2.145352    0.000000   -0.991866
  C      1.140767    0.000000    0.910013
  H      2.054723    0.000000    1.491464

 Total Charge           Charge          ....    0
 Multiplicity           Mult            ....    1
 Number of Electrons    NEL             ....   42
 Basis Dimension        Dim             ....  100

ORBITAL ENERGIES
----------------

  NO   OCC          E(Eh)            E(eV)
   0   2.0000     -14.640698      -398.3936
   1   2.0000     -10.483281      -285.2646
   2   2.0000     -10.483250      -285.2637
   3   2.0000     -10.471020      -284.9309
   4   2.0000     -10.459290      -284.6118
   5   2.0000     -10.459279      -284.6114
   6   2.0000      -1.046583       -28.4790
   7   2.0000      -0.902363       -24.5545
   8   2.0000      -0.854612       -23.2552
   9   2.0000      -0.709936       -19.3183
  10   2.0000      -0.709719       -19.3124
  11   2.0000      -0.601424       -16.3656
  12   2.0000      -0.547361       -14.8944
  13   2.0000      -0.537374       -14.6227
  14   2.0000      -0.491817       -13.3830
  15   2.0000      -0.468867       -12.7585
  16   2.0000      -0.456302       -12.4166
  17   2.0000      -0.421154       -11.4602
  18   2.0000      -0.333740        -9.0815
  19   2.0000      -0.314648        -8.5620
  20   2.0000      -0.306095        -8.3293
  21   0.0000      -0.004869        -0.1325
  22   0.0000       0.008910         0.2425
  23   0.0000       0.144678         3.9369
  24   0.0000       0.182119         4.9557
  25   0.0000       0.195927         5.3314

MULLIKEN ATOMIC CHARGES
-----------------------
   0 N :   -0.359713
   1 C :   -0.038225
   2 H :    0.233209
   3 C :   -0.298565
   4 H :    0.232024
   5 C :   -0.132620
   6 H :    0.235446
   7 C :   -0.298565
   8 H :    0.232024
   9 C :   -0.038224
  10 H :    0.233209
Sum of atomic charges:   -0.0000000

LOEWDIN ATOMIC CHARGES
----------------------
   0 N :   -0.139571
   1 C :   -0.056532
   2 H :    0.130340
   3 C :   -0.164585
   4 H :    0.141904
   5 C :   -0.103824
   6 H :    0.141142
   7 C :   -0.164585
   8 H :    0.141904
   9 C :   -0.056532
  10 H :    0.130340

  Mayer bond orders larger than 0.100000
B(  0-N ,  1-C ) :   1.4976 B(  0-N ,  9-C ) :   1.4976 B(  1-C ,  2-H ) :   0.9174
B(  1-C ,  3-C ) :   1.3824 B(  3-C ,  4-H ) :   0.9130 B(  3-C ,  5-C ) :   1.4137
B(  5-C ,  6-H ) :   0.9180 B(  5-C ,  7-C ) :   1.4137 B(  7-C ,  8-H ) :   0.9130
B(  7-C ,  9-C ) :   1.3824 B(  9-C , 10-H ) :   0.9174

Dispersion correction           -0.005322129
FINAL SINGLE POINT ENERGY      -247.729318739266

DIPOLE MOMENT
-------------
                                X             Y             Z
Electronic contribution:      0.00000      -0.00000       1.33568
Nuclear contribution   :      0.00000       0.00000      -2.21407
                        -----------------------------------------
Total Dipole Moment    :      0.00000      -0.00000      -0.87839
                        -----------------------------------------
Magnitude (a.u.)       :      0.87839
Magnitude (Debye)      :      2.23269

Rotational constants in cm-1:     0.202575     0.193529     0.098974
Rotational constants in MHz :  6073.036757  5801.843464  2967.171707

                             ****ORCA TERMINATED NORMALLY****
TOTAL RUN TIME: 0 days 0 hours 1 minutes 29 seconds 229 msec
