                         Program Version 5.0.3 -  RELEASE  -
|  1> ! PBEh-3c def2/J TightSCF DefGrid3
|  2>
|  3> %maxcore 60000
|  4>
|  5> %pal
|  6> nprocs 4
|  7> end
|  8>
|  9> *xyzfile 0 1 57.xyz
| 10>
| 11>                          ****END OF INPUT****

CARTESIAN COORDINATES (ANGSTROEM)
---------------------------------
  C      0.575385    1.064052   -1.883065
  H      1.178544    1.961573   -1.890523
  C      1.185773   -0.186742   -1.969548
  H      2.262177   -0.258806   -2.041410
  C      0.408328   -1.343855   -1.961911
  H      0.881822   -2.313561   -2.030529
  C     -0.979574   -1.251230   -1.864699
  H     -1.582576   -2.148899   -1.859191
  C     -1.590672   -0.000933   -1.775649
  H     -2.666908    0.071271   -1.699562
  C     -0.813080    1.157234   -1.786318
  H     -1.287446    2.127028   -1.721465
  C      0.412227    1.969785    1.998034
  H      0.054082    2.135515    0.984741
  H      1.436811    2.326494    2.079475
  H     -0.191870    2.543420    2.696387
  C      0.375381    0.516622    2.413743
  O      0.660009    0.164260    3.552281
  N      0.002986   -0.349095    1.434502
  H     -0.158142    0.008896    0.508433
  C     -0.033807   -1.775974    1.652589
  H      0.044280   -1.942882    2.722585
  H     -0.969048   -2.194325    1.285851
  H      0.795319   -2.279847    1.155251

 Total Charge           Charge          ....    0
 Multiplicity           Mult            ....    1
 Number of Electrons    NEL             ....   82
 Basis Dimension        Dim             ....  191

ORBITAL ENERGIES
----------------

  NO   OCC          E(Eh)            E(eV)
   0   2.0000     -19.435563      -528.8686
   1   2.0000     -14.645553      -398.5257
   2   2.0000     -10.531246      -286.5698
   3   2.0000     -10.468922      -284.8739
   4   2.0000     -10.468309      -284.8572
   5   2.0000     -10.468089      -284.8512
   6   2.0000     -10.467726      -284.8413
   7   2.0000     -10.467330      -284.8305
   8   2.0000     -10.466896      -284.8187
   9   2.0000     -10.453164      -284.4450
  10   2.0000     -10.429841      -283.8104
  11   2.0000      -1.122142       -30.5350
  12   2.0000      -1.004809       -27.3422
  13   2.0000      -0.972540       -26.4641
  14   2.0000      -0.855273       -23.2732
  15   2.0000      -0.854857       -23.2618
  16   2.0000      -0.829397       -22.5690
  17   2.0000      -0.757085       -20.6013
  18   2.0000      -0.697686       -18.9850
  19   2.0000      -0.697576       -18.9820
  20   2.0000      -0.640375       -17.4255
  21   2.0000      -0.610466       -16.6116
  22   2.0000      -0.558103       -15.1868
  23   2.0000      -0.543429       -14.7875
  24   2.0000      -0.527543       -14.3552
  25   2.0000      -0.518671       -14.1138
  26   2.0000      -0.509474       -13.8635
  27   2.0000      -0.500384       -13.6161
  28   2.0000      -0.500082       -13.6079
  29   2.0000      -0.472474       -12.8567
  30   2.0000      -0.454122       -12.3573
  31   2.0000      -0.443560       -12.0699
  32   2.0000      -0.438178       -11.9234
  33   2.0000      -0.427523       -11.6335
  34   2.0000      -0.416579       -11.3357
  35   2.0000      -0.416428       -11.3316
  36   2.0000      -0.393497       -10.7076
  37   2.0000      -0.313893        -8.5415
  38   2.0000      -0.313507        -8.5310
  39   2.0000      -0.291787        -7.9399
  40   2.0000      -0.284500        -7.7416
  41   0.0000      -0.002111        -0.0574
  42   0.0000      -0.001552        -0.0422
  43   0.0000       0.080703         2.1960
  44   0.0000       0.122840         3.3427
  45   0.0000       0.144021         3.9190

MULLIKEN ATOMIC CHARGES
-----------------------
   0 C :   -0.235477
   1 H :    0.232888
   2 C :   -0.221927
   3 H :    0.232311
   4 C :   -0.224383
   5 H :    0.231622
   6 C :   -0.229556
   7 H :    0.231422
   8 C :   -0.230354
   9 H :    0.232423
  10 C :   -0.245567
  11 H :    0.233313
  12 C :   -0.752399
  13 H :    0.212730
  14 H :    0.249185
  15 H :    0.253801
  16 C :    0.514177
  17 O :   -0.439034
  18 N :   -0.630630
  19 H :    0.388377
  20 C :   -0.489035
  21 H :    0.264351
  22 H :    0.210645
  23 H :    0.211116
Sum of atomic charges:    0.0000000

LOEWDIN ATOMIC CHARGES
----------------------
   0 C :   -0.142383
   1 H :    0.141012
   2 C :   -0.134727
   3 H :    0.141496
   4 C :   -0.135215
   5 H :    0.140732
   6 C :   -0.138335
   7 H :    0.140532
   8 C :   -0.139839
   9 H :    0.141302
  10 C :   -0.147380
  11 H :    0.140749
  12 C :   -0.391122
  13 H :    0.125555
  14 H :    0.152238
  15 H :    0.153270
  16 C :    0.102384
  17 O :   -0.293520
  18 N :   -0.246419
  19 H :    0.260062
  20 C :   -0.258082
  21 H :    0.151770
  22 H :    0.119080
  23 H :    0.116841

  Mayer bond orders larger than 0.100000
B(  0-C ,  1-H ) :   0.9165 B(  0-C ,  2-C ) :   1.4221 B(  0-C , 10-C ) :   1.4175
B(  2-C ,  3-H ) :   0.9167 B(  2-C ,  4-C ) :   1.4238 B(  4-C ,  5-H ) :   0.9164
B(  4-C ,  6-C ) :   1.4205 B(  6-C ,  7-H ) :   0.9167 B(  6-C ,  8-C ) :   1.4226
B(  8-C ,  9-H ) :   0.9169 B(  8-C , 10-C ) :   1.4208 B( 10-C , 11-H ) :   0.9163
B( 12-C , 13-H ) :   0.9159 B( 12-C , 14-H ) :   0.9133 B( 12-C , 15-H ) :   0.9130
B( 12-C , 16-C ) :   0.9263 B( 16-C , 17-O ) :   1.9876 B( 16-C , 18-N ) :   1.1531
B( 18-N , 19-H ) :   0.7935 B( 18-N , 20-C ) :   0.9605 B( 20-C , 21-H ) :   0.8973
B( 20-C , 22-H ) :   0.9250 B( 20-C , 23-H ) :   0.9218

Dispersion correction           -0.013866268
FINAL SINGLE POINT ENERGY      -479.723406376061

DIPOLE MOMENT
-------------
                                X             Y             Z
Electronic contribution:      0.22004      -0.04082      -0.74300
Nuclear contribution   :     -0.57419       0.06943      -0.96821
                        -----------------------------------------
Total Dipole Moment    :     -0.35415       0.02861      -1.71122
                        -----------------------------------------
Magnitude (a.u.)       :      1.74771
Magnitude (Debye)      :      4.44233

Rotational constants in cm-1:     0.056596     0.021394     0.018716
Rotational constants in MHz :  1696.716892   641.374619   561.079402

                             ****ORCA TERMINATED NORMALLY****
TOTAL RUN TIME: 0 days 0 hours 2 minutes 19 seconds 180 msec
