                         Program Version 5.0.3 -  RELEASE  -
|  1> ! PBEh-3c def2/J TightSCF DefGrid3
|  2>
|  3> %maxcore 60000
|  4>
|  5> %pal
|  6> nprocs 4
|  7> end
|  8>
|  9> *xyzfile 0 1 25.xyz
| 10>
| 11>                          ****END OF INPUT****

CARTESIAN COORDINATES (ANGSTROEM)
---------------------------------
  N      0.266713    2.314955   -0.402953
  C     -0.798388    1.527117   -0.786824
  C     -0.411008    0.205593   -0.846315
  C      0.976830    0.179205   -0.471895
  C      1.915239   -0.855666   -0.348865
  C      3.210997   -0.544226    0.045569
  C      3.586009    0.790951    0.317933
  C      2.668290    1.829229    0.197381
  C      1.368446    1.513993   -0.198840
  H      0.230350    3.307852   -0.264333
  H     -1.758094    1.973437   -0.990900
  H      1.661923   -1.887476   -0.552649
  H      4.593794    1.025513    0.623436
  H      2.968146    2.847877    0.407001
  O      4.071901   -1.607404    0.145709
  C      5.403842   -1.323389    0.537844
  H      5.898652   -0.660472   -0.175343
  H      5.441801   -0.876840    1.533907
  H      5.918539   -2.279377    0.554547
  C     -1.235450   -0.979875   -1.260474
  C     -2.737389   -0.720856   -1.238728
  N     -3.171783   -0.401828    0.111484
  C     -4.490155   -0.385478    0.450165
  C     -4.791638    0.019192    1.879819
  H     -0.953710   -1.292670   -2.269488
  H     -1.012973   -1.823186   -0.600830
  H     -2.997170    0.088590   -1.927164
  H     -3.282192   -1.602972   -1.570132
  H     -2.490322   -0.036872    0.753590
  O     -5.374055   -0.689796   -0.339332
  H     -5.324878   -0.795920    2.365046
  H     -3.900050    0.256833    2.457421
  H     -5.452216    0.883970    1.864205

 Total Charge           Charge          ....    0
 Multiplicity           Mult            ....    1
 Number of Electrons    NEL             ....  124
 Basis Dimension        Dim             ....  287

ORBITAL ENERGIES
----------------

  NO   OCC          E(Eh)            E(eV)
   0   2.0000     -19.520805      -531.1881
   1   2.0000     -19.443376      -529.0812
   2   2.0000     -14.688103      -399.6836
   3   2.0000     -14.652502      -398.7149
   4   2.0000     -10.537968      -286.7527
   5   2.0000     -10.503330      -285.8101
   6   2.0000     -10.488901      -285.4175
   7   2.0000     -10.484981      -285.3108
   8   2.0000     -10.480871      -285.1990
   9   2.0000     -10.471305      -284.9387
  10   2.0000     -10.456517      -284.5363
  11   2.0000     -10.449877      -284.3556
  12   2.0000     -10.449211      -284.3375
  13   2.0000     -10.448381      -284.3149
  14   2.0000     -10.447629      -284.2944
  15   2.0000     -10.440621      -284.1037
  16   2.0000     -10.436409      -283.9891
  17   2.0000      -1.168805       -31.8048
  18   2.0000      -1.130093       -30.7514
  19   2.0000      -1.090818       -29.6827
  20   2.0000      -1.015233       -27.6259
  21   2.0000      -0.941338       -25.6151
  22   2.0000      -0.902705       -24.5639
  23   2.0000      -0.853417       -23.2227
  24   2.0000      -0.839885       -22.8544
  25   2.0000      -0.818399       -22.2698
  26   2.0000      -0.799927       -21.7671
  27   2.0000      -0.774311       -21.0701
  28   2.0000      -0.723497       -19.6874
  29   2.0000      -0.707147       -19.2425
  30   2.0000      -0.664571       -18.0839
  31   2.0000      -0.652047       -17.7431
  32   2.0000      -0.633132       -17.2284
  33   2.0000      -0.616703       -16.7813
  34   2.0000      -0.580391       -15.7933
  35   2.0000      -0.565314       -15.3830
  36   2.0000      -0.554667       -15.0933
  37   2.0000      -0.533621       -14.5206
  38   2.0000      -0.530827       -14.4445
  39   2.0000      -0.527791       -14.3619
  40   2.0000      -0.519089       -14.1251
  41   2.0000      -0.499092       -13.5810
  42   2.0000      -0.496231       -13.5031
  43   2.0000      -0.490399       -13.3444
  44   2.0000      -0.486570       -13.2402
  45   2.0000      -0.469594       -12.7783
  46   2.0000      -0.461162       -12.5489
  47   2.0000      -0.452875       -12.3234
  48   2.0000      -0.451065       -12.2741
  49   2.0000      -0.437656       -11.9092
  50   2.0000      -0.434713       -11.8291
  51   2.0000      -0.425441       -11.5768
  52   2.0000      -0.418058       -11.3759
  53   2.0000      -0.401495       -10.9252
  54   2.0000      -0.391675       -10.6580
  55   2.0000      -0.379244       -10.3197
  56   2.0000      -0.355375        -9.6702
  57   2.0000      -0.321957        -8.7609
  58   2.0000      -0.299894        -8.1605
  59   2.0000      -0.292894        -7.9701
  60   2.0000      -0.252893        -6.8816
  61   2.0000      -0.237377        -6.4594
  62   0.0000       0.000347         0.0095
  63   0.0000       0.055304         1.5049
  64   0.0000       0.071437         1.9439
  65   0.0000       0.087443         2.3795
  66   0.0000       0.121121         3.2959

MULLIKEN ATOMIC CHARGES
-----------------------
   0 N :   -0.706514
   1 C :   -0.057313
   2 C :   -0.035044
   3 C :    0.082848
   4 C :   -0.438832
   5 C :    0.402612
   6 C :   -0.364118
   7 C :   -0.256990
   8 C :    0.360706
   9 H :    0.358837
  10 H :    0.251803
  11 H :    0.220994
  12 H :    0.231896
  13 H :    0.215156
  14 O :   -0.468464
  15 C :   -0.404384
  16 H :    0.204329
  17 H :    0.203503
  18 H :    0.240437
  19 C :   -0.518570
  20 C :   -0.264880
  21 N :   -0.637766
  22 C :    0.521086
  23 C :   -0.749839
  24 H :    0.245805
  25 H :    0.231377
  26 H :    0.218370
  27 H :    0.257995
  28 H :    0.367355
  29 O :   -0.432489
  30 H :    0.258158
  31 H :    0.209932
  32 H :    0.252005
Sum of atomic charges:   -0.0000000

LOEWDIN ATOMIC CHARGES
----------------------
   0 N :   -0.161696
   1 C :   -0.089793
   2 C :   -0.116484
   3 C :   -0.049397
   4 C :   -0.157738
   5 C :    0.060058
   6 C :   -0.190959
   7 C :   -0.149813
   8 C :    0.006844
   9 H :    0.261916
  10 H :    0.139074
  11 H :    0.146681
  12 H :    0.140617
  13 H :    0.136933
  14 O :   -0.193463
  15 C :   -0.180530
  16 H :    0.112306
  17 H :    0.111859
  18 H :    0.130583
  19 C :   -0.232961
  20 C :   -0.135448
  21 N :   -0.248903
  22 C :    0.102691
  23 C :   -0.391540
  24 H :    0.143660
  25 H :    0.136664
  26 H :    0.118487
  27 H :    0.141997
  28 H :    0.255923
  29 O :   -0.282591
  30 H :    0.156430
  31 H :    0.125428
  32 H :    0.153166

  Mayer bond orders larger than 0.100000
B(  0-N ,  1-C ) :   1.1310 B(  0-N ,  8-C ) :   1.0007 B(  0-N ,  9-H ) :   0.8336
B(  1-C ,  2-C ) :   1.5493 B(  1-C , 10-H ) :   0.9054 B(  2-C ,  3-C ) :   1.2480
B(  2-C , 19-C ) :   0.9626 B(  3-C ,  4-C ) :   1.2901 B(  3-C ,  8-C ) :   1.2296
B(  4-C ,  5-C ) :   1.4366 B(  4-C ,  7-C ) :   0.1027 B(  4-C , 11-H ) :   0.9255
B(  5-C ,  6-C ) :   1.2834 B(  5-C , 14-O ) :   1.0135 B(  6-C ,  7-C ) :   1.4723
B(  6-C , 12-H ) :   0.9052 B(  7-C ,  8-C ) :   1.3167 B(  7-C , 13-H ) :   0.9203
B( 14-O , 15-C ) :   0.9573 B( 15-C , 16-H ) :   0.9075 B( 15-C , 17-H ) :   0.9077
B( 15-C , 18-H ) :   0.9234 B( 19-C , 20-C ) :   0.9961 B( 19-C , 24-H ) :   0.9064
B( 19-C , 25-H ) :   0.9067 B( 20-C , 21-N ) :   0.9278 B( 20-C , 26-H ) :   0.9060
B( 20-C , 27-H ) :   0.9019 B( 21-N , 22-C ) :   1.1430 B( 21-N , 28-H ) :   0.8089
B( 22-C , 23-C ) :   0.9278 B( 22-C , 29-O ) :   1.9853 B( 23-C , 30-H ) :   0.9108
B( 23-C , 31-H ) :   0.9222 B( 23-C , 32-H ) :   0.9126

Dispersion correction           -0.020901534
FINAL SINGLE POINT ENERGY      -763.325820294444

DIPOLE MOMENT
-------------
                                X             Y             Z
Electronic contribution:      1.65170       2.46642      -2.97239
Nuclear contribution   :     -0.07992      -1.11658       3.72952
                        -----------------------------------------
Total Dipole Moment    :      1.57178       1.34984       0.75713
                        -----------------------------------------
Magnitude (a.u.)       :      2.20586
Magnitude (Debye)      :      5.60685

Rotational constants in cm-1:     0.035955     0.006295     0.005889
Rotational constants in MHz :  1077.910813   188.707389   176.540933

                             ****ORCA TERMINATED NORMALLY****
TOTAL RUN TIME: 0 days 0 hours 4 minutes 47 seconds 962 msec
