                         Program Version 5.0.3 -  RELEASE  -
|  1> ! PBEh-3c def2/J TightSCF DefGrid3
|  2>
|  3> %maxcore 60000
|  4>
|  5> %pal
|  6> nprocs 4
|  7> end
|  8>
|  9> *xyzfile 0 1 3a.xyz
| 10>
| 11>                          ****END OF INPUT****

CARTESIAN COORDINATES (ANGSTROEM)
---------------------------------
  C     -2.586669   -0.672814    0.000000
  C     -1.097974   -0.740171    0.000000
  C     -0.290660    0.355575    0.000000
  C      1.150869    0.252257    0.000000
  C      1.930424    1.537346    0.000000
  O     -0.623634   -1.981331    0.000000
  N      1.704370   -0.918702    0.000000
  H     -2.933261    0.355638    0.000000
  H     -2.976389   -1.184981    0.877506
  H     -2.976389   -1.184981   -0.877506
  H      0.376827   -1.896009    0.000000
  H     -0.746235    1.332716    0.000000
  H      2.717322   -0.862334    0.000000
  H      1.677215    2.127391    0.880180
  H      1.677215    2.127391   -0.880180
  H      3.001058    1.349433    0.000000

 Total Charge           Charge          ....    0
 Multiplicity           Mult            ....    1
 Number of Electrons    NEL             ....   54
 Basis Dimension        Dim             ....  123

ORBITAL ENERGIES
----------------

  NO   OCC          E(Eh)            E(eV)
   0   2.0000     -19.503014      -530.7040
   1   2.0000     -14.618348      -397.7855
   2   2.0000     -10.519052      -286.2380
   3   2.0000     -10.501998      -285.7739
   4   2.0000     -10.444466      -284.2084
   5   2.0000     -10.436060      -283.9796
   6   2.0000     -10.421459      -283.5823
   7   2.0000      -1.162605       -31.6361
   8   2.0000      -1.006101       -27.3774
   9   2.0000      -0.872508       -23.7421
  10   2.0000      -0.828375       -22.5412
  11   2.0000      -0.790433       -21.5088
  12   2.0000      -0.667778       -18.1712
  13   2.0000      -0.633204       -17.2304
  14   2.0000      -0.578527       -15.7425
  15   2.0000      -0.522169       -14.2089
  16   2.0000      -0.503584       -13.7032
  17   2.0000      -0.496442       -13.5089
  18   2.0000      -0.489201       -13.3118
  19   2.0000      -0.475229       -12.9316
  20   2.0000      -0.457191       -12.4408
  21   2.0000      -0.429083       -11.6759
  22   2.0000      -0.421281       -11.4636
  23   2.0000      -0.420832       -11.4514
  24   2.0000      -0.366980        -9.9860
  25   2.0000      -0.319251        -8.6873
  26   2.0000      -0.259589        -7.0638
  27   0.0000       0.003866         0.1052
  28   0.0000       0.117102         3.1865
  29   0.0000       0.132395         3.6026
  30   0.0000       0.166297         4.5252
  31   0.0000       0.180450         4.9103

MULLIKEN ATOMIC CHARGES
-----------------------
   0 C :   -0.705527
   1 C :    0.399737
   2 C :   -0.463281
   3 C :    0.320455
   4 C :   -0.712802
   5 O :   -0.592710
   6 N :   -0.684074
   7 H :    0.228143
   8 H :    0.247544
   9 H :    0.247544
  10 H :    0.472376
  11 H :    0.214455
  12 H :    0.312880
  13 H :    0.245023
  14 H :    0.245023
  15 H :    0.225214
Sum of atomic charges:    0.0000000

LOEWDIN ATOMIC CHARGES
----------------------
   0 C :   -0.356330
   1 C :    0.112588
   2 C :   -0.308842
   3 C :    0.041720
   4 C :   -0.369381
   5 O :   -0.304202
   6 N :   -0.374518
   7 H :    0.137647
   8 H :    0.150607
   9 H :    0.150607
  10 H :    0.328482
  11 H :    0.137905
  12 H :    0.223068
  13 H :    0.148820
  14 H :    0.148820
  15 H :    0.133010

  Mayer bond orders larger than 0.100000
B(  0-C ,  1-C ) :   0.9912 B(  0-C ,  7-H ) :   0.9279 B(  0-C ,  8-H ) :   0.9056
B(  0-C ,  9-H ) :   0.9056 B(  1-C ,  2-C ) :   1.5514 B(  1-C ,  5-O ) :   1.2704
B(  2-C ,  3-C ) :   1.1132 B(  2-C , 11-H ) :   0.9245 B(  3-C ,  4-C ) :   0.9690
B(  3-C ,  6-N ) :   1.8151 B(  4-C , 13-H ) :   0.9094 B(  4-C , 14-H ) :   0.9094
B(  4-C , 15-H ) :   0.9274 B(  5-O , 10-H ) :   0.5973 B(  6-N , 10-H ) :   0.1916
B(  6-N , 12-H ) :   0.8520

Dispersion correction           -0.007407429
FINAL SINGLE POINT ENERGY      -325.211556299930

DIPOLE MOMENT
-------------
                                X             Y             Z
Electronic contribution:      0.64164      -3.89609      -0.00000
Nuclear contribution   :     -0.42506       4.86412       0.00000
                        -----------------------------------------
Total Dipole Moment    :      0.21658       0.96803      -0.00000
                        -----------------------------------------
Magnitude (a.u.)       :      0.99196
Magnitude (Debye)      :      2.52137

Rotational constants in cm-1:     0.187440     0.057128     0.044504
Rotational constants in MHz :  5619.306416  1712.659579  1334.185491

                             ****ORCA TERMINATED NORMALLY****
TOTAL RUN TIME: 0 days 0 hours 1 minutes 57 seconds 294 msec
