                         Program Version 5.0.3 -  RELEASE  -
|  1> ! PBEh-3c def2/J TightSCF DefGrid3
|  2>
|  3> %maxcore 60000
|  4>
|  5> %pal
|  6> nprocs 4
|  7> end
|  8>
|  9> *xyzfile 0 1 3c.xyz
| 10>
| 11>                          ****END OF INPUT****

CARTESIAN COORDINATES (ANGSTROEM)
---------------------------------
  C     -0.995989    1.654591   -1.015138
  C     -1.224381    0.301272   -0.396250
  O     -1.943410   -0.536908   -0.900850
  C     -0.464554    0.015325    0.892265
  C      0.931824   -0.462377    0.539852
  N      1.984814    0.256323    0.626196
  C      1.032293   -1.868458    0.033702
  H     -1.417157    2.422404   -0.366383
  H     -1.465863    1.703011   -1.991166
  H      0.071878    1.851549   -1.101112
  H     -1.002757   -0.761112    1.431978
  H     -0.400213    0.916306    1.500692
  H      1.754547    1.178462    0.995946
  H      0.770445   -2.564372    0.830659
  H      2.043415   -2.069537   -0.303099
  H      0.325108   -2.036481   -0.777292

 Total Charge           Charge          ....    0
 Multiplicity           Mult            ....    1
 Number of Electrons    NEL             ....   54
 Basis Dimension        Dim             ....  123

ORBITAL ENERGIES
----------------

  NO   OCC          E(Eh)            E(eV)
   0   2.0000     -19.498142      -530.5714
   1   2.0000     -14.626099      -397.9964
   2   2.0000     -10.552361      -287.1444
   3   2.0000     -10.509577      -285.9801
   4   2.0000     -10.462927      -284.7107
   5   2.0000     -10.449784      -284.3531
   6   2.0000     -10.434021      -283.9242
   7   2.0000      -1.163296       -31.6549
   8   2.0000      -1.016680       -27.6653
   9   2.0000      -0.879594       -23.9350
  10   2.0000      -0.834913       -22.7191
  11   2.0000      -0.800112       -21.7722
  12   2.0000      -0.635805       -17.3011
  13   2.0000      -0.613653       -16.6983
  14   2.0000      -0.563274       -15.3275
  15   2.0000      -0.544881       -14.8270
  16   2.0000      -0.539211       -14.6727
  17   2.0000      -0.500937       -13.6312
  18   2.0000      -0.483409       -13.1542
  19   2.0000      -0.479109       -13.0372
  20   2.0000      -0.454906       -12.3786
  21   2.0000      -0.447359       -12.1732
  22   2.0000      -0.428937       -11.6720
  23   2.0000      -0.417558       -11.3623
  24   2.0000      -0.362976        -9.8771
  25   2.0000      -0.325756        -8.8643
  26   2.0000      -0.308062        -8.3828
  27   0.0000      -0.007741        -0.2107
  28   0.0000       0.048810         1.3282
  29   0.0000       0.119517         3.2522
  30   0.0000       0.156708         4.2642
  31   0.0000       0.165899         4.5143

MULLIKEN ATOMIC CHARGES
-----------------------
   0 C :   -0.749470
   1 C :    0.376031
   2 O :   -0.333679
   3 C :   -0.613156
   4 C :    0.194046
   5 N :   -0.483460
   6 C :   -0.691476
   7 H :    0.241058
   8 H :    0.266788
   9 H :    0.246772
  10 H :    0.273202
  11 H :    0.240709
  12 H :    0.291962
  13 H :    0.231786
  14 H :    0.257890
  15 H :    0.250998
Sum of atomic charges:   -0.0000000

LOEWDIN ATOMIC CHARGES
----------------------
   0 C :   -0.392625
   1 C :    0.109919
   2 O :   -0.189917
   3 C :   -0.286244
   4 C :    0.011327
   5 N :   -0.301426
   6 C :   -0.364941
   7 H :    0.150746
   8 H :    0.154358
   9 H :    0.151429
  10 H :    0.158559
  11 H :    0.139714
  12 H :    0.214393
  13 H :    0.144117
  14 H :    0.150585
  15 H :    0.150007

  Mayer bond orders larger than 0.100000
B(  0-C ,  1-C ) :   0.9416 B(  0-C ,  7-H ) :   0.9052 B(  0-C ,  8-H ) :   0.9167
B(  0-C ,  9-H ) :   0.9019 B(  1-C ,  2-O ) :   2.1219 B(  1-C ,  3-C ) :   0.8913
B(  3-C ,  4-C ) :   0.9255 B(  3-C , 10-H ) :   0.8969 B(  3-C , 11-H ) :   0.9117
B(  4-C ,  5-N ) :   2.0958 B(  4-C ,  6-C ) :   0.9643 B(  5-N , 12-H ) :   0.8554
B(  6-C , 13-H ) :   0.9126 B(  6-C , 14-H ) :   0.9173 B(  6-C , 15-H ) :   0.9024

Dispersion correction           -0.007752105
FINAL SINGLE POINT ENERGY      -325.203561083059

DIPOLE MOMENT
-------------
                                X             Y             Z
Electronic contribution:     -1.80600      -0.62832      -0.09364
Nuclear contribution   :      1.58131       1.33470       0.60364
                        -----------------------------------------
Total Dipole Moment    :     -0.22470       0.70638       0.50999
                        -----------------------------------------
Magnitude (a.u.)       :      0.89975
Magnitude (Debye)      :      2.28699

Rotational constants in cm-1:     0.135190     0.065248     0.051679
Rotational constants in MHz :  4052.900592  1956.100583  1549.290665

                             ****ORCA TERMINATED NORMALLY****
TOTAL RUN TIME: 0 days 0 hours 1 minutes 56 seconds 323 msec
