                         Program Version 5.0.3 -  RELEASE  -
|  1> ! PBEh-3c def2/J TightSCF DefGrid3
|  2>
|  3> %maxcore 60000
|  4>
|  5> %pal
|  6> nprocs 4
|  7> end
|  8>
|  9> *xyzfile 0 1 C4H9NH2.xyz
| 10>
| 11>                          ****END OF INPUT****

CARTESIAN COORDINATES (ANGSTROEM)
---------------------------------
  C     -1.692917   -0.908552   -1.441102
  H     -1.336243   -1.949370   -1.415419
  H     -1.348078   -0.465126   -2.387346
  H     -2.791757   -0.933615   -1.465197
  C     -1.174855   -0.116169   -0.238105
  H     -1.573967    0.911836   -0.276139
  H     -1.568837   -0.560007    0.691910
  C      0.354572   -0.060050   -0.167382
  H      0.761633    0.384102   -1.090507
  H      0.754254   -1.089561   -0.119030
  C      0.879316    0.734852    1.027784
  H      0.454751    0.306527    1.960177
  H      0.509383    1.771366    0.963479
  N      2.349906    0.787037    1.014656
  H      2.691973    1.341012    1.802516
  H      2.730867   -0.154281    1.139705

 Total Charge           Charge          ....    0
 Multiplicity           Mult            ....    1
 Number of Electrons    NEL             ....   42
 Basis Dimension        Dim             ....   97

ORBITAL ENERGIES
----------------

  NO   OCC          E(Eh)            E(eV)
   0   2.0000     -14.605634      -397.4395
   1   2.0000     -10.455319      -284.5037
   2   2.0000     -10.432825      -283.8916
   3   2.0000     -10.427638      -283.7505
   4   2.0000     -10.423927      -283.6495
   5   2.0000      -0.966207       -26.2918
   6   2.0000      -0.871128       -23.7046
   7   2.0000      -0.785015       -21.3614
   8   2.0000      -0.686913       -18.6918
   9   2.0000      -0.644890       -17.5484
  10   2.0000      -0.543306       -14.7841
  11   2.0000      -0.522406       -14.2154
  12   2.0000      -0.495922       -13.4947
  13   2.0000      -0.471091       -12.8190
  14   2.0000      -0.458722       -12.4825
  15   2.0000      -0.425873       -11.5886
  16   2.0000      -0.400432       -10.8963
  17   2.0000      -0.378595       -10.3021
  18   2.0000      -0.375495       -10.2177
  19   2.0000      -0.367814       -10.0087
  20   2.0000      -0.281759        -7.6671
  21   0.0000       0.134299         3.6545
  22   0.0000       0.141982         3.8635
  23   0.0000       0.178316         4.8522
  24   0.0000       0.181760         4.9459
  25   0.0000       0.195152         5.3104

MULLIKEN ATOMIC CHARGES
-----------------------
   0 C :   -0.633824
   1 H :    0.207240
   2 H :    0.210349
   3 H :    0.216589
   4 C :   -0.411722
   5 H :    0.204040
   6 H :    0.201466
   7 C :   -0.403673
   8 H :    0.221028
   9 H :    0.191195
  10 C :   -0.260693
  11 H :    0.170658
  12 H :    0.203075
  13 N :   -0.738828
  14 H :    0.315555
  15 H :    0.307545
Sum of atomic charges:   -0.0000000

LOEWDIN ATOMIC CHARGES
----------------------
   0 C :   -0.360830
   1 H :    0.122848
   2 H :    0.124273
   3 H :    0.125724
   4 C :   -0.246165
   5 H :    0.119520
   6 H :    0.118106
   7 C :   -0.247887
   8 H :    0.128557
   9 H :    0.114750
  10 C :   -0.162308
  11 H :    0.088561
  12 H :    0.115101
  13 N :   -0.478539
  14 H :    0.220464
  15 H :    0.217823

  Mayer bond orders larger than 0.100000
B(  0-C ,  1-H ) :   0.9296 B(  0-C ,  2-H ) :   0.9288 B(  0-C ,  3-H ) :   0.9321
B(  0-C ,  4-C ) :   0.9949 B(  4-C ,  5-H ) :   0.9200 B(  4-C ,  6-H ) :   0.9199
B(  4-C ,  7-C ) :   0.9787 B(  7-C ,  8-H ) :   0.9110 B(  7-C ,  9-H ) :   0.9205
B(  7-C , 10-C ) :   0.9866 B( 10-C , 11-H ) :   0.9078 B( 10-C , 12-H ) :   0.9140
B( 10-C , 13-N ) :   1.0330 B( 13-N , 14-H ) :   0.8641 B( 13-N , 15-H ) :   0.8655

Dispersion correction           -0.006299131
FINAL SINGLE POINT ENERGY      -213.327870804055

DIPOLE MOMENT
-------------
                                X             Y             Z
Electronic contribution:      2.33357       1.10204       1.25262
Nuclear contribution   :     -2.43322      -1.30653      -0.76830
                        -----------------------------------------
Total Dipole Moment    :     -0.09965      -0.20449       0.48432
                        -----------------------------------------
Magnitude (a.u.)       :      0.53508
Magnitude (Debye)      :      1.36007

Rotational constants in cm-1:     0.599296     0.064856     0.061503
Rotational constants in MHz : 17966.456136  1944.323140  1843.820783

                             ****ORCA TERMINATED NORMALLY****
TOTAL RUN TIME: 0 days 0 hours 1 minutes 26 seconds 435 msec
