                         Program Version 5.0.3 -  RELEASE  -
|  1> ! PBEh-3c def2/J TightSCF DefGrid3
|  2>
|  3> %maxcore 60000
|  4>
|  5> %pal
|  6> nprocs 4
|  7> end
|  8>
|  9> *xyzfile 0 1 56B.xyz
| 10>
| 11>                          ****END OF INPUT****

CARTESIAN COORDINATES (ANGSTROEM)
---------------------------------
  N      0.901737    0.147726   -0.099994
  H      1.036355    0.191766   -1.103065
  H      1.043229    1.092872    0.232478
  C     -0.474363   -0.258658    0.177442
  H     -0.632239   -0.287205    1.253997
  H     -1.245665    0.381723   -0.262677
  H     -0.629055   -1.268225   -0.198180

 Total Charge           Charge          ....    0
 Multiplicity           Mult            ....    1
 Number of Electrons    NEL             ....   18
 Basis Dimension        Dim             ....   40

ORBITAL ENERGIES
----------------

  NO   OCC          E(Eh)            E(eV)
   0   2.0000     -14.604388      -397.4056
   1   2.0000     -10.445718      -284.2424
   2   2.0000      -0.966215       -26.2920
   3   2.0000      -0.734334       -19.9823
   4   2.0000      -0.545862       -14.8537
   5   2.0000      -0.493840       -13.4381
   6   2.0000      -0.452461       -12.3121
   7   2.0000      -0.416056       -11.3215
   8   2.0000      -0.284264        -7.7352
   9   0.0000       0.137676         3.7463
  10   0.0000       0.201512         5.4834
  11   0.0000       0.212700         5.7879
  12   0.0000       0.228065         6.2060
  13   0.0000       0.233118         6.3435

MULLIKEN ATOMIC CHARGES
-----------------------
   0 N :   -0.734037
   1 H :    0.312504
   2 H :    0.312761
   3 C :   -0.503570
   4 H :    0.216242
   5 H :    0.179850
   6 H :    0.216250
Sum of atomic charges:   -0.0000000

LOEWDIN ATOMIC CHARGES
----------------------
   0 N :   -0.485390
   1 H :    0.217784
   2 H :    0.217612
   3 C :   -0.280340
   4 H :    0.120041
   5 H :    0.090408
   6 H :    0.119886

  Mayer bond orders larger than 0.100000
B(  0-N ,  1-H ) :   0.8683 B(  0-N ,  2-H ) :   0.8680 B(  0-N ,  3-C ) :   1.0353
B(  3-C ,  4-H ) :   0.9265 B(  3-C ,  5-H ) :   0.9178 B(  3-C ,  6-H ) :   0.9264

Dispersion correction           -0.001526376
FINAL SINGLE POINT ENERGY       -95.642719160934

DIPOLE MOMENT
-------------
                                X             Y             Z
Electronic contribution:      1.03888       0.16948      -0.10761
Nuclear contribution   :     -1.37922       0.24487      -0.17189
                        -----------------------------------------
Total Dipole Moment    :     -0.34033       0.41435      -0.27949
                        -----------------------------------------
Magnitude (a.u.)       :      0.60467
Magnitude (Debye)      :      1.53695

Rotational constants in cm-1:     3.461009     0.763692     0.735640
Rotational constants in MHz : 103758.425535 22894.915618 22053.927624

                             ****ORCA TERMINATED NORMALLY****
TOTAL RUN TIME: 0 days 0 hours 1 minutes 6 seconds 624 msec
