                         Program Version 5.0.3 -  RELEASE  -
|  1> ! PBEh-3c def2/J TightSCF DefGrid3
|  2>
|  3> %maxcore 60000
|  4>
|  5> %pal
|  6> nprocs 4
|  7> end
|  8>
|  9> *xyzfile 0 1 TYR_xag.xyz
| 10>
| 11>                          ****END OF INPUT****

CARTESIAN COORDINATES (ANGSTROEM)
---------------------------------
  N      2.768210   -0.147591    0.130166
  C      1.362181    0.012881   -0.121768
  C      1.071408    1.505481   -0.138001
  O      1.781886    2.297855    0.476912
  C      0.515056   -0.683252    0.967556
  C     -0.948094   -0.629874    0.648966
  C     -1.470616   -1.418298   -0.380793
  C     -1.807971    0.261419    1.298197
  C     -2.808018   -1.314126   -0.757170
  C     -3.146066    0.370856    0.935466
  C     -3.649275   -0.416315   -0.099765
  O     -4.968887   -0.266769   -0.419244
  H      3.245574    0.651987    0.517271
  H      1.121039   -0.442785   -1.083493
  H      0.864550   -1.714543    1.017070
  H      0.723888   -0.199173    1.922895
  H     -0.824848   -2.124347   -0.889870
  H     -1.422029    0.881819    2.098014
  H     -3.198933   -1.936265   -1.553822
  H     -3.811339    1.055093    1.443396
  H     -5.180079   -0.886310   -1.125487
  N     -0.018588    1.866574   -0.851772
  H     -0.616698    1.124625   -1.178624
  C     -0.560832    3.207277   -0.771273
  H      0.258450    3.889298   -0.568952
  H     -1.027997    3.470706   -1.716043
  H     -1.296815    3.293366    0.029008
  C      3.399420   -1.314113   -0.152319
  O      2.805958   -2.277368   -0.629674
  C      4.875583   -1.348039    0.158460
  H      5.058612   -2.138638    0.882397
  H      5.252044   -0.406583    0.550154
  H      5.414061   -1.602640   -0.751088

 Total Charge           Charge          ....    0
 Multiplicity           Mult            ....    1
 Number of Electrons    NEL             ....  126
 Basis Dimension        Dim             ....  287

ORBITAL ENERGIES
----------------

  NO   OCC          E(Eh)            E(eV)
   0   2.0000     -19.535407      -531.5854
   1   2.0000     -19.467186      -529.7291
   2   2.0000     -19.450027      -529.2621
   3   2.0000     -14.667127      -399.1128
   4   2.0000     -14.656814      -398.8322
   5   2.0000     -10.552187      -287.1396
   6   2.0000     -10.544363      -286.9267
   7   2.0000     -10.522594      -286.3343
   8   2.0000     -10.491320      -285.4833
   9   2.0000     -10.468455      -284.8612
  10   2.0000     -10.461922      -284.6834
  11   2.0000     -10.460989      -284.6580
  12   2.0000     -10.460761      -284.6518
  13   2.0000     -10.460127      -284.6345
  14   2.0000     -10.454052      -284.4692
  15   2.0000     -10.448591      -284.3206
  16   2.0000     -10.437899      -284.0297
  17   2.0000      -1.182465       -32.1765
  18   2.0000      -1.152958       -31.3736
  19   2.0000      -1.135285       -30.8927
  20   2.0000      -1.028978       -27.9999
  21   2.0000      -1.023357       -27.8470
  22   2.0000      -0.967602       -26.3298
  23   2.0000      -0.892368       -24.2826
  24   2.0000      -0.851668       -23.1751
  25   2.0000      -0.844153       -22.9706
  26   2.0000      -0.813522       -22.1371
  27   2.0000      -0.787693       -21.4342
  28   2.0000      -0.734779       -19.9944
  29   2.0000      -0.712617       -19.3913
  30   2.0000      -0.675784       -18.3890
  31   2.0000      -0.663527       -18.0555
  32   2.0000      -0.649465       -17.6728
  33   2.0000      -0.624492       -16.9933
  34   2.0000      -0.606662       -16.5081
  35   2.0000      -0.574501       -15.6330
  36   2.0000      -0.544439       -14.8149
  37   2.0000      -0.540363       -14.7040
  38   2.0000      -0.533499       -14.5173
  39   2.0000      -0.525983       -14.3127
  40   2.0000      -0.517755       -14.0888
  41   2.0000      -0.512793       -13.9538
  42   2.0000      -0.502654       -13.6779
  43   2.0000      -0.494616       -13.4592
  44   2.0000      -0.489567       -13.3218
  45   2.0000      -0.484397       -13.1811
  46   2.0000      -0.469512       -12.7761
  47   2.0000      -0.464967       -12.6524
  48   2.0000      -0.454300       -12.3621
  49   2.0000      -0.451987       -12.2992
  50   2.0000      -0.450063       -12.2468
  51   2.0000      -0.435420       -11.8484
  52   2.0000      -0.424749       -11.5580
  53   2.0000      -0.415639       -11.3101
  54   2.0000      -0.406126       -11.0513
  55   2.0000      -0.395348       -10.7580
  56   2.0000      -0.390680       -10.6309
  57   2.0000      -0.325338        -8.8529
  58   2.0000      -0.313343        -8.5265
  59   2.0000      -0.306117        -8.3299
  60   2.0000      -0.303265        -8.2523
  61   2.0000      -0.299206        -8.1418
  62   2.0000      -0.267214        -7.2713
  63   0.0000       0.001427         0.0388
  64   0.0000       0.018630         0.5069
  65   0.0000       0.050939         1.3861
  66   0.0000       0.069569         1.8931
  67   0.0000       0.111950         3.0463

MULLIKEN ATOMIC CHARGES
-----------------------
   0 N :   -0.645037
   1 C :   -0.168009
   2 C :    0.543461
   3 O :   -0.445663
   4 C :   -0.506665
   5 C :    0.071782
   6 C :   -0.279890
   7 C :   -0.255116
   8 C :   -0.346001
   9 C :   -0.291368
  10 C :    0.353172
  11 O :   -0.604551
  12 H :    0.381172
  13 H :    0.263241
  14 H :    0.281694
  15 H :    0.240258
  16 H :    0.248306
  17 H :    0.226435
  18 H :    0.223303
  19 H :    0.242493
  20 H :    0.431160
  21 N :   -0.619887
  22 H :    0.380994
  23 C :   -0.495970
  24 H :    0.260718
  25 H :    0.223720
  26 H :    0.224349
  27 C :    0.528319
  28 O :   -0.448900
  29 C :   -0.747787
  30 H :    0.255117
  31 H :    0.218231
  32 H :    0.256922
Sum of atomic charges:    0.0000000

LOEWDIN ATOMIC CHARGES
----------------------
   0 N :   -0.221307
   1 C :   -0.088244
   2 C :    0.112687
   3 O :   -0.291067
   4 C :   -0.217819
   5 C :   -0.085918
   6 C :   -0.129675
   7 C :   -0.121042
   8 C :   -0.194151
   9 C :   -0.162443
  10 C :    0.059622
  11 O :   -0.312113
  12 H :    0.268295
  13 H :    0.142872
  14 H :    0.156009
  15 H :    0.138555
  16 H :    0.147932
  17 H :    0.141129
  18 H :    0.135798
  19 H :    0.148923
  20 H :    0.326239
  21 N :   -0.229303
  22 H :    0.264210
  23 C :   -0.254567
  24 H :    0.150162
  25 H :    0.127002
  26 H :    0.122744
  27 C :    0.106665
  28 O :   -0.296225
  29 C :   -0.386946
  30 H :    0.155631
  31 H :    0.129980
  32 H :    0.156364

  Mayer bond orders larger than 0.100000
B(  0-N ,  1-C ) :   0.9405 B(  0-N , 12-H ) :   0.7815 B(  0-N , 27-C ) :   1.1549
B(  1-C ,  2-C ) :   0.9059 B(  1-C ,  4-C ) :   0.9347 B(  1-C , 13-H ) :   0.8802
B(  2-C ,  3-O ) :   1.9575 B(  2-C , 21-N ) :   1.1578 B(  4-C ,  5-C ) :   0.9487
B(  4-C , 14-H ) :   0.8926 B(  4-C , 15-H ) :   0.9137 B(  5-C ,  6-C ) :   1.3928
B(  5-C ,  7-C ) :   1.3944 B(  6-C ,  8-C ) :   1.4204 B(  6-C , 16-H ) :   0.9097
B(  7-C ,  9-C ) :   1.4463 B(  7-C , 17-H ) :   0.9176 B(  8-C , 10-C ) :   1.3388
B(  8-C , 18-H ) :   0.9158 B(  9-C , 10-C ) :   1.3641 B(  9-C , 19-H ) :   0.9075
B( 10-C , 11-O ) :   1.0770 B( 11-O , 20-H ) :   0.7790 B( 21-N , 22-H ) :   0.8049
B( 21-N , 23-C ) :   0.9543 B( 23-C , 24-H ) :   0.9039 B( 23-C , 25-H ) :   0.9242
B( 23-C , 26-H ) :   0.9152 B( 27-C , 28-O ) :   1.9495 B( 27-C , 29-C ) :   0.9290
B( 29-C , 30-H ) :   0.9110 B( 29-C , 31-H ) :   0.9208 B( 29-C , 32-H ) :   0.9107

Dispersion correction           -0.022391027
FINAL SINGLE POINT ENERGY      -800.404417212696

DIPOLE MOMENT
-------------
                                X             Y             Z
Electronic contribution:     -5.13313      -2.35572      -0.11918
Nuclear contribution   :      4.35265       2.62233      -0.35609
                        -----------------------------------------
Total Dipole Moment    :     -0.78048       0.26662      -0.47527
                        -----------------------------------------
Magnitude (a.u.)       :      0.95190
Magnitude (Debye)      :      2.41955

Rotational constants in cm-1:     0.026601     0.009013     0.007384
Rotational constants in MHz :   797.474793   270.188418   221.380185

                             ****ORCA TERMINATED NORMALLY****
TOTAL RUN TIME: 0 days 0 hours 4 minutes 43 seconds 935 msec
