                         Program Version 5.0.3 -  RELEASE  -
|  1> ! PBEh-3c def2/J TightSCF DefGrid3
|  2>
|  3> %maxcore 60000
|  4>
|  5> %pal
|  6> nprocs 4
|  7> end
|  8>
|  9> *xyzfile 0 1 H_tgg.xyz
| 10>
| 11>                          ****END OF INPUT****

CARTESIAN COORDINATES (ANGSTROEM)
---------------------------------
  C      2.693847   -0.455502   -0.019060
  C      1.331899   -0.018506    0.504970
  C      0.480527    0.628100   -0.580649
  C     -0.849236    1.184272   -0.075186
  C     -1.754611    0.154026    0.598426
  C     -2.097374   -1.025061   -0.304096
  H      3.251546    0.397076   -0.406262
  H      2.581900   -1.173109   -0.831958
  H      3.294588   -0.923543    0.759236
  H      1.460984    0.688974    1.328091
  H      0.810055   -0.882401    0.920230
  H      0.303912   -0.098193   -1.377725
  H      1.051227    1.441505   -1.035860
  H     -1.389389    1.630657   -0.914111
  H     -0.646798    1.995032    0.629187
  H     -2.675867    0.650691    0.907552
  H     -1.285036   -0.209471    1.513907
  H     -2.813449   -1.691972    0.173558
  H     -1.213464   -1.612502   -0.548796
  H     -2.535266   -0.680071   -1.241453

 Total Charge           Charge          ....    0
 Multiplicity           Mult            ....    1
 Number of Electrons    NEL             ....   50
 Basis Dimension        Dim             ....  118

ORBITAL ENERGIES
----------------

  NO   OCC          E(Eh)            E(eV)
   0   2.0000     -10.426447      -283.7180
   1   2.0000     -10.426311      -283.7144
   2   2.0000     -10.425227      -283.6849
   3   2.0000     -10.424267      -283.6587
   4   2.0000     -10.418817      -283.5104
   5   2.0000     -10.418584      -283.5041
   6   2.0000      -0.899422       -24.4745
   7   2.0000      -0.851309       -23.1653
   8   2.0000      -0.788346       -21.4520
   9   2.0000      -0.720783       -19.6135
  10   2.0000      -0.670630       -18.2488
  11   2.0000      -0.618690       -16.8354
  12   2.0000      -0.534295       -14.5389
  13   2.0000      -0.516939       -14.0666
  14   2.0000      -0.488059       -13.2808
  15   2.0000      -0.477898       -13.0043
  16   2.0000      -0.454245       -12.3606
  17   2.0000      -0.435693       -11.8558
  18   2.0000      -0.427471       -11.6321
  19   2.0000      -0.401629       -10.9289
  20   2.0000      -0.393130       -10.6976
  21   2.0000      -0.382490       -10.4081
  22   2.0000      -0.361844        -9.8463
  23   2.0000      -0.359758        -9.7895
  24   2.0000      -0.354103        -9.6356
  25   0.0000       0.125887         3.4256
  26   0.0000       0.160390         4.3644
  27   0.0000       0.174555         4.7499
  28   0.0000       0.182326         4.9614
  29   0.0000       0.199235         5.4215

MULLIKEN ATOMIC CHARGES
-----------------------
   0 C :   -0.635994
   1 C :   -0.418160
   2 C :   -0.414928
   3 C :   -0.413891
   4 C :   -0.427084
   5 C :   -0.647131
   6 H :    0.208664
   7 H :    0.208421
   8 H :    0.218322
   9 H :    0.205076
  10 H :    0.209668
  11 H :    0.206090
  12 H :    0.212004
  13 H :    0.209413
  14 H :    0.209220
  15 H :    0.217017
  16 H :    0.210577
  17 H :    0.220860
  18 H :    0.212536
  19 H :    0.209320
Sum of atomic charges:    0.0000000

LOEWDIN ATOMIC CHARGES
----------------------
   0 C :   -0.360914
   1 C :   -0.248383
   2 C :   -0.243990
   3 C :   -0.241240
   4 C :   -0.249547
   5 C :   -0.364988
   6 H :    0.123007
   7 H :    0.123353
   8 H :    0.125516
   9 H :    0.119180
  10 H :    0.119504
  11 H :    0.119124
  12 H :    0.122058
  13 H :    0.121104
  14 H :    0.121053
  15 H :    0.122761
  16 H :    0.119648
  17 H :    0.126789
  18 H :    0.122646
  19 H :    0.123319

  Mayer bond orders larger than 0.100000
B(  0-C ,  1-C ) :   0.9982 B(  0-C ,  6-H ) :   0.9298 B(  0-C ,  7-H ) :   0.9296
B(  0-C ,  8-H ) :   0.9327 B(  1-C ,  2-C ) :   0.9810 B(  1-C ,  9-H ) :   0.9206
B(  1-C , 10-H ) :   0.9165 B(  2-C ,  3-C ) :   0.9915 B(  2-C , 11-H ) :   0.9156
B(  2-C , 12-H ) :   0.9214 B(  3-C ,  4-C ) :   0.9880 B(  3-C , 13-H ) :   0.9234
B(  3-C , 14-H ) :   0.9235 B(  4-C ,  5-C ) :   0.9884 B(  4-C , 15-H ) :   0.9233
B(  4-C , 16-H ) :   0.9176 B(  5-C , 17-H ) :   0.9312 B(  5-C , 18-H ) :   0.9258
B(  5-C , 19-H ) :   0.9293

Dispersion correction           -0.009139906
FINAL SINGLE POINT ENERGY      -236.560576824254

DIPOLE MOMENT
-------------
                                X             Y             Z
Electronic contribution:     -0.52530       1.24402       0.34333
Nuclear contribution   :      0.50981      -1.22214      -0.32534
                        -----------------------------------------
Total Dipole Moment    :     -0.01548       0.02188       0.01799
                        -----------------------------------------
Magnitude (a.u.)       :      0.03228
Magnitude (Debye)      :      0.08206

Rotational constants in cm-1:     0.206833     0.057124     0.051904
Rotational constants in MHz :  6200.711152  1712.532864  1556.033887

                             ****ORCA TERMINATED NORMALLY****
TOTAL RUN TIME: 0 days 0 hours 1 minutes 30 seconds 760 msec
