                         Program Version 5.0.3 -  RELEASE  -
|  1> ! PBEh-3c def2/J TightSCF DefGrid3
|  2>
|  3> %maxcore 60000
|  4>
|  5> %pal
|  6> nprocs 4
|  7> end
|  8>
|  9> *xyzfile 0 1 GLY_pII.xyz
| 10>
| 11>                          ****END OF INPUT****

CARTESIAN COORDINATES (ANGSTROEM)
---------------------------------
  H      7.145587   -0.895237    0.495096
  C      6.251185   -1.099584   -0.093704
  H      5.871424   -2.087305    0.191066
  H      6.504754   -1.123696   -1.157021
  C      5.199905   -0.051161    0.229335
  O      5.160126    0.535282    1.302218
  N      4.303415    0.206376   -0.789596
  H      4.207214   -0.526527   -1.482262
  C      3.062990    0.901388   -0.487214
  H      3.312378    1.679816    0.239244
  C      2.464319    1.519910   -1.759629
  H      2.277907    0.743277   -2.509168
  H      1.507111    2.002001   -1.545546
  H      3.153112    2.256614   -2.182721
  C      2.042710   -0.069210    0.135369
  O      2.014572   -1.256216   -0.167253
  N      1.158621    0.499843    1.012334
  H      1.126843    1.509955    1.035083
  C     -0.083117   -0.174144    1.325113
  H      0.135715   -1.234799    1.469140
  H     -0.491663    0.225423    2.260520
  C     -1.128924    0.019838    0.216391
  O     -1.136652    1.022661   -0.487889
  N     -2.019365   -1.008396    0.070823
  H     -2.097404   -1.650925    0.849109
  C     -3.248684   -0.804729   -0.679667
  H     -2.983830   -0.186816   -1.542184
  C     -3.819535   -2.151067   -1.143551
  H     -4.084403   -2.772981   -0.281033
  H     -4.724828   -2.002379   -1.737439
  H     -3.083995   -2.686572   -1.749335
  C     -4.278229   -0.065214    0.201434
  O     -4.323291   -0.256718    1.411547
  N     -5.153589    0.728358   -0.475679
  H     -4.962190    0.929471   -1.445982
  C     -6.199350    1.484863    0.194438
  H     -5.968930    2.556148    0.219835
  H     -7.161449    1.340756   -0.306293
  H     -6.264213    1.115366    1.217628

 Total Charge           Charge          ....    0
 Multiplicity           Mult            ....    1
 Number of Electrons    NEL             ....  146
 Basis Dimension        Dim             ....  325

ORBITAL ENERGIES
----------------

  NO   OCC          E(Eh)            E(eV)
   0   2.0000     -19.471934      -529.8582
   1   2.0000     -19.466747      -529.7171
   2   2.0000     -19.464461      -529.6549
   3   2.0000     -19.454422      -529.3817
   4   2.0000     -14.674303      -399.3081
   5   2.0000     -14.669458      -399.1763
   6   2.0000     -14.665868      -399.0786
   7   2.0000     -14.653454      -398.7408
   8   2.0000     -10.557235      -287.2770
   9   2.0000     -10.554871      -287.2126
  10   2.0000     -10.548413      -287.0369
  11   2.0000     -10.544765      -286.9376
  12   2.0000     -10.501602      -285.7631
  13   2.0000     -10.490192      -285.4526
  14   2.0000     -10.488883      -285.4170
  15   2.0000     -10.475978      -285.0659
  16   2.0000     -10.451070      -284.3881
  17   2.0000     -10.438733      -284.0524
  18   2.0000     -10.437605      -284.0217
  19   2.0000      -1.158019       -31.5113
  20   2.0000      -1.149239       -31.2724
  21   2.0000      -1.144675       -31.1482
  22   2.0000      -1.134530       -30.8721
  23   2.0000      -1.033274       -28.1168
  24   2.0000      -1.028856       -27.9966
  25   2.0000      -1.026200       -27.9243
  26   2.0000      -1.017069       -27.6758
  27   2.0000      -0.880465       -23.9587
  28   2.0000      -0.867005       -23.5924
  29   2.0000      -0.818437       -22.2708
  30   2.0000      -0.805262       -21.9123
  31   2.0000      -0.799526       -21.7562
  32   2.0000      -0.734788       -19.9946
  33   2.0000      -0.715053       -19.4576
  34   2.0000      -0.674709       -18.3598
  35   2.0000      -0.659608       -17.9489
  36   2.0000      -0.653033       -17.7699
  37   2.0000      -0.643437       -17.5088
  38   2.0000      -0.619740       -16.8640
  39   2.0000      -0.599458       -16.3121
  40   2.0000      -0.568631       -15.4732
  41   2.0000      -0.554602       -15.0915
  42   2.0000      -0.545492       -14.8436
  43   2.0000      -0.538587       -14.6557
  44   2.0000      -0.529293       -14.4028
  45   2.0000      -0.524111       -14.2618
  46   2.0000      -0.515132       -14.0175
  47   2.0000      -0.505832       -13.7644
  48   2.0000      -0.501405       -13.6439
  49   2.0000      -0.493465       -13.4279
  50   2.0000      -0.487079       -13.2541
  51   2.0000      -0.481137       -13.0924
  52   2.0000      -0.469355       -12.7718
  53   2.0000      -0.465207       -12.6589
  54   2.0000      -0.458985       -12.4896
  55   2.0000      -0.454777       -12.3751
  56   2.0000      -0.453728       -12.3466
  57   2.0000      -0.452477       -12.3125
  58   2.0000      -0.436723       -11.8838
  59   2.0000      -0.434131       -11.8133
  60   2.0000      -0.425032       -11.5657
  61   2.0000      -0.424504       -11.5514
  62   2.0000      -0.416520       -11.3341
  63   2.0000      -0.408785       -11.1236
  64   2.0000      -0.405251       -11.0274
  65   2.0000      -0.335443        -9.1279
  66   2.0000      -0.329359        -8.9623
  67   2.0000      -0.323607        -8.8058
  68   2.0000      -0.313780        -8.5384
  69   2.0000      -0.311061        -8.4644
  70   2.0000      -0.305343        -8.3088
  71   2.0000      -0.302465        -8.2305
  72   2.0000      -0.292804        -7.9676
  73   0.0000       0.044393         1.2080
  74   0.0000       0.050390         1.3712
  75   0.0000       0.053836         1.4650
  76   0.0000       0.062577         1.7028
  77   0.0000       0.111459         3.0329

MULLIKEN ATOMIC CHARGES
-----------------------
   0 H :    0.261820
   1 C :   -0.764851
   2 H :    0.255341
   3 H :    0.224868
   4 C :    0.524943
   5 O :   -0.418885
   6 N :   -0.605095
   7 H :    0.359180
   8 C :   -0.229046
   9 H :    0.268523
  10 C :   -0.640054
  11 H :    0.223648
  12 H :    0.244484
  13 H :    0.239026
  14 C :    0.561306
  15 O :   -0.430453
  16 N :   -0.606966
  17 H :    0.366981
  18 C :   -0.423492
  19 H :    0.269507
  20 H :    0.272283
  21 C :    0.548858
  22 O :   -0.435984
  23 N :   -0.607270
  24 H :    0.366073
  25 C :   -0.214559
  26 H :    0.258706
  27 C :   -0.637508
  28 H :    0.230536
  29 H :    0.226368
  30 H :    0.248051
  31 C :    0.552262
  32 O :   -0.435291
  33 N :   -0.633353
  34 H :    0.359703
  35 C :   -0.492958
  36 H :    0.225078
  37 H :    0.221003
  38 H :    0.267219
Sum of atomic charges:   -0.0000000

LOEWDIN ATOMIC CHARGES
----------------------
   0 H :    0.155533
   1 C :   -0.394305
   2 H :    0.156356
   3 H :    0.135625
   4 C :    0.119868
   5 O :   -0.266522
   6 N :   -0.239881
   7 H :    0.257665
   8 C :   -0.105622
   9 H :    0.149502
  10 C :   -0.352350
  11 H :    0.133880
  12 H :    0.142369
  13 H :    0.137968
  14 C :    0.121780
  15 O :   -0.275992
  16 N :   -0.227909
  17 H :    0.261460
  18 C :   -0.181942
  19 H :    0.154975
  20 H :    0.152241
  21 C :    0.115180
  22 O :   -0.279272
  23 N :   -0.221806
  24 H :    0.262591
  25 C :   -0.101145
  26 H :    0.145022
  27 C :   -0.350405
  28 H :    0.136696
  29 H :    0.135115
  30 H :    0.142063
  31 C :    0.110517
  32 O :   -0.285107
  33 N :   -0.246932
  34 H :    0.255526
  35 C :   -0.256284
  36 H :    0.124413
  37 H :    0.123988
  38 H :    0.155141

  Mayer bond orders larger than 0.100000
B(  0-H ,  1-C ) :   0.9152 B(  1-C ,  2-H ) :   0.9056 B(  1-C ,  3-H ) :   0.9174
B(  1-C ,  4-C ) :   0.9280 B(  4-C ,  5-O ) :   2.0091 B(  4-C ,  6-N ) :   1.1127
B(  6-N ,  7-H ) :   0.8182 B(  6-N ,  8-C ) :   0.9651 B(  8-C ,  9-H ) :   0.8774
B(  8-C , 10-C ) :   0.9809 B(  8-C , 14-C ) :   0.8789 B( 10-C , 11-H ) :   0.9206
B( 10-C , 12-H ) :   0.9096 B( 10-C , 13-H ) :   0.9194 B( 14-C , 15-O ) :   2.0022
B( 14-C , 16-N ) :   1.1016 B( 16-N , 17-H ) :   0.8178 B( 16-N , 18-C ) :   0.9874
B( 18-C , 19-H ) :   0.8898 B( 18-C , 20-H ) :   0.8954 B( 18-C , 21-C ) :   0.8811
B( 21-C , 22-O ) :   1.9870 B( 21-C , 23-N ) :   1.1261 B( 23-N , 24-H ) :   0.8144
B( 23-N , 25-C ) :   0.9604 B( 25-C , 26-H ) :   0.8827 B( 25-C , 27-C ) :   0.9827
B( 25-C , 31-C ) :   0.8762 B( 27-C , 28-H ) :   0.9174 B( 27-C , 29-H ) :   0.9214
B( 27-C , 30-H ) :   0.9167 B( 31-C , 32-O ) :   1.9917 B( 31-C , 33-N ) :   1.1221
B( 33-N , 34-H ) :   0.8259 B( 33-N , 35-C ) :   0.9456 B( 35-C , 36-H ) :   0.9180
B( 35-C , 37-H ) :   0.9218 B( 35-C , 38-H ) :   0.8993

Dispersion correction           -0.023335306
FINAL SINGLE POINT ENERGY      -949.162770085509

DIPOLE MOMENT
-------------
                                X             Y             Z
Electronic contribution:      4.55739       0.73264       5.99719
Nuclear contribution   :     -6.15794      -0.75542      -7.44045
                        -----------------------------------------
Total Dipole Moment    :     -1.60055      -0.02278      -1.44326
                        -----------------------------------------
Magnitude (a.u.)       :      2.15529
Magnitude (Debye)      :      5.47832

Rotational constants in cm-1:     0.034777     0.004061     0.004005
Rotational constants in MHz :  1042.595758   121.742600   120.066092

                             ****ORCA TERMINATED NORMALLY****
TOTAL RUN TIME: 0 days 0 hours 5 minutes 0 seconds 449 msec
