                         Program Version 5.0.3 -  RELEASE  -
|  1> ! PBEh-3c def2/J TightSCF DefGrid3
|  2>
|  3> %maxcore 60000
|  4>
|  5> %pal
|  6> nprocs 4
|  7> end
|  8>
|  9> *xyzfile 0 1 i18e.xyz
| 10>
| 11>                          ****END OF INPUT****

CARTESIAN COORDINATES (ANGSTROEM)
---------------------------------
  N     -0.409551    1.885954    2.531459
  C     -0.507794    1.271710    1.551125
  C     -0.636602    0.522889    0.288777
  C     -0.091643   -0.911971    0.429762
  C     -0.422874   -1.851436   -0.557258
  C      0.142950   -3.127568   -0.539111
  C      1.044898   -3.481818    0.470994
  C      1.372405   -2.550984    1.459574
  C      0.810029   -1.270338    1.437631
  H     -1.130936   -1.582201   -1.338031
  H     -0.123302   -3.846388   -1.311648
  H      1.486805   -4.475962    0.486208
  H      2.073878   -2.814787    2.248357
  H      1.086174   -0.546934    2.200970
  C     -2.144255    0.501702   -0.063784
  C     -2.665604    1.088226   -1.221800
  C     -4.037521    1.014850   -1.497967
  C     -4.899914    0.359892   -0.617668
  C     -4.384485   -0.224145    0.546455
  C     -3.019070   -0.154316    0.817638
  H     -2.017250    1.606190   -1.922002
  H     -4.426349    1.474410   -2.404536
  H     -5.965067    0.305099   -0.833030
  H     -5.047193   -0.735458    1.241729
  H     -2.617922   -0.614291    1.718331
  C      0.223865    1.272652   -0.803014
  C      1.703902    1.291429   -0.510304
  C      2.520349    0.243544   -0.960023
  C      3.872395    0.255391   -0.638033
  C      4.453287    1.271000    0.117086
  C      3.632034    2.312540    0.560705
  C      2.269017    2.324946    0.250503
  H      2.108802   -0.583090   -1.532388
  F      4.655710   -0.769501   -1.074405
  H      5.515586    1.238811    0.343878
  H      4.060672    3.117942    1.153022
  H      1.636170    3.132303    0.610441
  H      0.034324    0.752804   -1.748258
  H     -0.155923    2.296902   -0.891383

 Total Charge           Charge          ....    0
 Multiplicity           Mult            ....    1
 Number of Electrons    NEL             ....  158
 Basis Dimension        Dim             ....  377

ORBITAL ENERGIES
----------------

  NO   OCC          E(Eh)            E(eV)
   0   2.0000     -25.103218      -683.0933
   1   2.0000     -14.645119      -398.5139
   2   2.0000     -10.538595      -286.7698
   3   2.0000     -10.526458      -286.4395
   4   2.0000     -10.492038      -285.5029
   5   2.0000     -10.483752      -285.2774
   6   2.0000     -10.478877      -285.1447
   7   2.0000     -10.477182      -285.0986
   8   2.0000     -10.475238      -285.0457
   9   2.0000     -10.467223      -284.8276
  10   2.0000     -10.464585      -284.7558
  11   2.0000     -10.463431      -284.7244
  12   2.0000     -10.463216      -284.7186
  13   2.0000     -10.463060      -284.7143
  14   2.0000     -10.462631      -284.7027
  15   2.0000     -10.461787      -284.6797
  16   2.0000     -10.461147      -284.6623
  17   2.0000     -10.459701      -284.6229
  18   2.0000     -10.459411      -284.6150
  19   2.0000     -10.459379      -284.6142
  20   2.0000     -10.458862      -284.6001
  21   2.0000     -10.458480      -284.5897
  22   2.0000     -10.455529      -284.5094
  23   2.0000      -1.338300       -36.4170
  24   2.0000      -1.016126       -27.6502
  25   2.0000      -0.983080       -26.7510
  26   2.0000      -0.968288       -26.3485
  27   2.0000      -0.961845       -26.1731
  28   2.0000      -0.923921       -25.1412
  29   2.0000      -0.871262       -23.7083
  30   2.0000      -0.850531       -23.1441
  31   2.0000      -0.846409       -23.0320
  32   2.0000      -0.843801       -22.9610
  33   2.0000      -0.842768       -22.9329
  34   2.0000      -0.813742       -22.1430
  35   2.0000      -0.764555       -20.8046
  36   2.0000      -0.704732       -19.1767
  37   2.0000      -0.697410       -18.9775
  38   2.0000      -0.697152       -18.9705
  39   2.0000      -0.686629       -18.6841
  40   2.0000      -0.678198       -18.4547
  41   2.0000      -0.666237       -18.1292
  42   2.0000      -0.610947       -16.6247
  43   2.0000      -0.606238       -16.4966
  44   2.0000      -0.596541       -16.2327
  45   2.0000      -0.571172       -15.5424
  46   2.0000      -0.563176       -15.3248
  47   2.0000      -0.556575       -15.1452
  48   2.0000      -0.540304       -14.7024
  49   2.0000      -0.537013       -14.6129
  50   2.0000      -0.531582       -14.4651
  51   2.0000      -0.519979       -14.1494
  52   2.0000      -0.513450       -13.9717
  53   2.0000      -0.511739       -13.9251
  54   2.0000      -0.502154       -13.6643
  55   2.0000      -0.494612       -13.4591
  56   2.0000      -0.489851       -13.3295
  57   2.0000      -0.486800       -13.2465
  58   2.0000      -0.478543       -13.0218
  59   2.0000      -0.470243       -12.7960
  60   2.0000      -0.449240       -12.2244
  61   2.0000      -0.436492       -11.8776
  62   2.0000      -0.434260       -11.8168
  63   2.0000      -0.429038       -11.6747
  64   2.0000      -0.423317       -11.5190
  65   2.0000      -0.422022       -11.4838
  66   2.0000      -0.414954       -11.2915
  67   2.0000      -0.412284       -11.2188
  68   2.0000      -0.406451       -11.0601
  69   2.0000      -0.404828       -11.0159
  70   2.0000      -0.402582       -10.9548
  71   2.0000      -0.377429       -10.2704
  72   2.0000      -0.374442       -10.1891
  73   2.0000      -0.309550        -8.4233
  74   2.0000      -0.307478        -8.3669
  75   2.0000      -0.306455        -8.3391
  76   2.0000      -0.295218        -8.0333
  77   2.0000      -0.291935        -7.9439
  78   2.0000      -0.286433        -7.7942
  79   0.0000      -0.006243        -0.1699
  80   0.0000      -0.002842        -0.0773
  81   0.0000      -0.000023        -0.0006
  82   0.0000       0.002889         0.0786
  83   0.0000       0.013891         0.3780

MULLIKEN ATOMIC CHARGES
-----------------------
   0 N :   -0.194221
   1 C :    0.133480
   2 C :   -0.307310
   3 C :    0.155810
   4 C :   -0.258870
   5 C :   -0.219111
   6 C :   -0.225122
   7 C :   -0.209629
   8 C :   -0.269311
   9 H :    0.236943
  10 H :    0.225295
  11 H :    0.225768
  12 H :    0.228779
  13 H :    0.254007
  14 C :    0.174749
  15 C :   -0.298917
  16 C :   -0.203990
  17 C :   -0.229288
  18 C :   -0.211194
  19 C :   -0.235286
  20 H :    0.228338
  21 H :    0.226064
  22 H :    0.226899
  23 H :    0.228953
  24 H :    0.241755
  25 C :   -0.511467
  26 C :    0.174681
  27 C :   -0.426082
  28 C :    0.548013
  29 C :   -0.387415
  30 C :   -0.199251
  31 C :   -0.284184
  32 H :    0.251570
  33 F :   -0.316936
  34 H :    0.245955
  35 H :    0.232715
  36 H :    0.233542
  37 H :    0.254391
  38 H :    0.259876
Sum of atomic charges:   -0.0000000

LOEWDIN ATOMIC CHARGES
----------------------
   0 N :   -0.092983
   1 C :    0.001932
   2 C :   -0.073430
   3 C :   -0.034476
   4 C :   -0.131845
   5 C :   -0.131864
   6 C :   -0.130997
   7 C :   -0.125002
   8 C :   -0.123131
   9 H :    0.145198
  10 H :    0.139392
  11 H :    0.139486
  12 H :    0.141340
  13 H :    0.154108
  14 C :   -0.030331
  15 C :   -0.141023
  16 C :   -0.129800
  17 C :   -0.129483
  18 C :   -0.125690
  19 C :   -0.109416
  20 H :    0.139868
  21 H :    0.139614
  22 H :    0.139788
  23 H :    0.141535
  24 H :    0.150131
  25 C :   -0.192150
  26 C :   -0.042267
  27 C :   -0.149288
  28 C :    0.161592
  29 C :   -0.163107
  30 C :   -0.118601
  31 C :   -0.139760
  32 H :    0.156791
  33 F :   -0.168353
  34 H :    0.152222
  35 H :    0.142921
  36 H :    0.145838
  37 H :    0.144278
  38 H :    0.146965

  Mayer bond orders larger than 0.100000
B(  0-N ,  1-C ) :   3.1543 B(  1-C ,  2-C ) :   0.9521 B(  2-C ,  3-C ) :   0.9320
B(  2-C , 14-C ) :   0.9365 B(  2-C , 25-C ) :   0.9511 B(  3-C ,  4-C ) :   1.3830
B(  3-C ,  8-C ) :   1.4179 B(  4-C ,  5-C ) :   1.4335 B(  4-C ,  9-H ) :   0.9098
B(  5-C ,  6-C ) :   1.4115 B(  5-C , 10-H ) :   0.9181 B(  6-C ,  7-C ) :   1.4306
B(  6-C , 11-H ) :   0.9172 B(  7-C ,  8-C ) :   1.4090 B(  7-C , 12-H ) :   0.9174
B(  8-C , 13-H ) :   0.8974 B( 14-C , 15-C ) :   1.4231 B( 14-C , 19-C ) :   1.3638
B( 15-C , 16-C ) :   1.3958 B( 15-C , 20-H ) :   0.9103 B( 16-C , 17-C ) :   1.4406
B( 16-C , 21-H ) :   0.9180 B( 17-C , 18-C ) :   1.4015 B( 17-C , 22-H ) :   0.9168
B( 18-C , 19-C ) :   1.4440 B( 18-C , 23-H ) :   0.9169 B( 19-C , 24-H ) :   0.9113
B( 25-C , 26-C ) :   0.9608 B( 25-C , 37-H ) :   0.9008 B( 25-C , 38-H ) :   0.9014
B( 26-C , 27-C ) :   1.3484 B( 26-C , 31-C ) :   1.3971 B( 27-C , 28-C ) :   1.4054
B( 27-C , 32-H ) :   0.9017 B( 28-C , 29-C ) :   1.3862 B( 28-C , 33-F ) :   0.9628
B( 29-C , 30-C ) :   1.3919 B( 29-C , 34-H ) :   0.9079 B( 30-C , 31-C ) :   1.4263
B( 30-C , 35-H ) :   0.9187 B( 31-C , 36-H ) :   0.9144

Dispersion correction           -0.032972751
FINAL SINGLE POINT ENERGY      -962.343093837240

DIPOLE MOMENT
-------------
                                X             Y             Z
Electronic contribution:     10.31225       0.55207       0.79199
Nuclear contribution   :    -10.85586      -1.05283      -1.74960
                        -----------------------------------------
Total Dipole Moment    :     -0.54361      -0.50077      -0.95761
                        -----------------------------------------
Magnitude (a.u.)       :      1.20966
Magnitude (Debye)      :      3.07472

Rotational constants in cm-1:     0.014944     0.006348     0.005405
Rotational constants in MHz :   448.024241   190.319499   162.024566

                             ****ORCA TERMINATED NORMALLY****
TOTAL RUN TIME: 0 days 0 hours 6 minutes 18 seconds 138 msec
