                         Program Version 5.0.3 -  RELEASE  -
|  1> ! PBEh-3c def2/J TightSCF DefGrid3
|  2>
|  3> %maxcore 60000
|  4>
|  5> %pal
|  6> nprocs 4
|  7> end
|  8>
|  9> *xyzfile 0 1 NCH_PhI.xyz
| 10>
| 11>                          ****END OF INPUT****

CARTESIAN COORDINATES (ANGSTROEM)
---------------------------------
  N      0.000000    0.000000    4.096650
  C      0.000000    0.000000    5.238933
  H      0.000000    0.000000    6.306340
  I      0.000000    0.000000    0.837908
  C      0.000000    0.000000   -1.257438
  C      0.000000    1.203512   -1.948538
  C      0.000000    1.198619   -3.335779
  C      0.000000    0.000000   -4.032362
  C      0.000000   -1.198619   -3.335779
  C      0.000000   -1.203512   -1.948538
  H      0.000000    2.141160   -1.408692
  H      0.000000    2.139452   -3.871441
  H      0.000000    0.000000   -5.114718
  H      0.000000   -2.139452   -3.871441
  H      0.000000   -2.141160   -1.408692

 Total Charge           Charge          ....    0
 Multiplicity           Mult            ....    1
 Number of Electrons    NEL             ....   80
 Basis Dimension        Dim             ....  158

ORBITAL ENERGIES
----------------

  NO   OCC          E(Eh)            E(eV)
   0   2.0000     -14.677652      -399.3992
   1   2.0000     -10.511730      -286.0387
   2   2.0000     -10.489537      -285.4348
   3   2.0000     -10.453284      -284.4483
   4   2.0000     -10.453247      -284.4473
   5   2.0000     -10.451833      -284.4088
   6   2.0000     -10.451730      -284.4060
   7   2.0000     -10.449710      -284.3511
   8   2.0000      -7.078713      -192.6216
   9   2.0000      -5.062294      -137.7520
  10   2.0000      -5.045523      -137.2957
  11   2.0000      -5.045368      -137.2914
  12   2.0000      -2.016240       -54.8647
  13   2.0000      -2.010783       -54.7162
  14   2.0000      -2.010707       -54.7141
  15   2.0000      -1.996282       -54.3216
  16   2.0000      -1.996277       -54.3215
  17   2.0000      -1.038841       -28.2683
  18   2.0000      -0.964569       -26.2473
  19   2.0000      -0.853606       -23.2278
  20   2.0000      -0.843529       -22.9536
  21   2.0000      -0.752370       -20.4730
  22   2.0000      -0.688171       -18.7261
  23   2.0000      -0.685457       -18.6522
  24   2.0000      -0.663566       -18.0565
  25   2.0000      -0.583655       -15.8821
  26   2.0000      -0.521999       -14.2043
  27   2.0000      -0.516235       -14.0475
  28   2.0000      -0.487238       -13.2584
  29   2.0000      -0.471493       -12.8300
  30   2.0000      -0.450438       -12.2570
  31   2.0000      -0.434651       -11.8274
  32   2.0000      -0.427882       -11.6433
  33   2.0000      -0.427839       -11.6421
  34   2.0000      -0.405387       -11.0311
  35   2.0000      -0.372567       -10.1381
  36   2.0000      -0.331013        -9.0073
  37   2.0000      -0.298439        -8.1209
  38   2.0000      -0.292776        -7.9668
  39   2.0000      -0.264653        -7.2016
  40   0.0000       0.013298         0.3619
  41   0.0000       0.015626         0.4252
  42   0.0000       0.023458         0.6383
  43   0.0000       0.046843         1.2747
  44   0.0000       0.047203         1.2845

MULLIKEN ATOMIC CHARGES
-----------------------
   0 N :   -0.170952
   1 C :   -0.114471
   2 H :    0.308168
   3 I :    0.088658
   4 C :   -0.194526
   5 C :   -0.212616
   6 C :   -0.209009
   7 C :   -0.227693
   8 C :   -0.209009
   9 C :   -0.212616
  10 H :    0.241017
  11 H :    0.224589
  12 H :    0.222856
  13 H :    0.224589
  14 H :    0.241016
Sum of atomic charges:   -0.0000000

LOEWDIN ATOMIC CHARGES
----------------------
   0 N :   -0.048446
   1 C :   -0.092297
   2 H :    0.163114
   3 I :    0.130378
   4 C :   -0.180127
   5 C :   -0.141077
   6 C :   -0.129765
   7 C :   -0.136200
   8 C :   -0.129765
   9 C :   -0.141077
  10 H :    0.144869
  11 H :    0.138968
  12 H :    0.137589
  13 H :    0.138968
  14 H :    0.144869

  Mayer bond orders larger than 0.100000
B(  0-N ,  1-C ) :   3.1215 B(  1-C ,  2-H ) :   0.8568 B(  3-I ,  4-C ) :   1.0258
B(  4-C ,  5-C ) :   1.3761 B(  4-C ,  9-C ) :   1.3761 B(  5-C ,  6-C ) :   1.4332
B(  5-C , 10-H ) :   0.9118 B(  6-C ,  7-C ) :   1.4227 B(  6-C , 11-H ) :   0.9175
B(  7-C ,  8-C ) :   1.4227 B(  7-C , 12-H ) :   0.9188 B(  8-C ,  9-C ) :   1.4332
B(  8-C , 13-H ) :   0.9175 B(  9-C , 14-H ) :   0.9118

Dispersion correction           -0.008181960
FINAL SINGLE POINT ENERGY      -622.078714463688

DIPOLE MOMENT
-------------
                                X             Y             Z
Electronic contribution:     -0.00000      -0.00000      62.78679
Nuclear contribution   :      0.00000       0.00000     -61.81873
                        -----------------------------------------
Total Dipole Moment    :     -0.00000      -0.00000       0.96806
                        -----------------------------------------
Magnitude (a.u.)       :      0.96806
Magnitude (Debye)      :      2.46062

Rotational constants in cm-1:     0.192051     0.012730     0.011939
Rotational constants in MHz :  5757.553428   381.645900   357.920723

                             ****ORCA TERMINATED NORMALLY****
TOTAL RUN TIME: 0 days 0 hours 2 minutes 24 seconds 886 msec
