                         Program Version 5.0.3 -  RELEASE  -
|  1> ! PBEh-3c def2/J TightSCF DefGrid3
|  2>
|  3> %maxcore 60000
|  4>
|  5> %pal
|  6> nprocs 4
|  7> end
|  8>
|  9> *xyzfile 0 1 RKT22.xyz
| 10>
| 11>                          ****END OF INPUT****

CARTESIAN COORDINATES (ANGSTROEM)
---------------------------------
  C     -1.299621   -0.756668    0.012984
  C     -1.205946    0.654005    0.019725
  C      0.000002    1.331550    0.186440
  C      1.205949    0.654002    0.019717
  C      1.299629   -0.756663    0.012992
  H      2.168797   -1.179364   -0.482558
  H      1.032045   -1.306197    0.906308
  H      2.037133    1.233774   -0.365365
  H      0.000003    2.411103    0.119044
  H     -2.037130    1.233774   -0.365342
  H     -2.168794   -1.179353   -0.482577
  H     -0.000009   -1.033756   -0.487669
  H     -1.032058   -1.306208    0.906298

 Total Charge           Charge          ....    0
 Multiplicity           Mult            ....    1
 Number of Electrons    NEL             ....   38
 Basis Dimension        Dim             ....   91

ORBITAL ENERGIES
----------------

  NO   OCC          E(Eh)            E(eV)
   0   2.0000     -10.452028      -284.4141
   1   2.0000     -10.452009      -284.4136
   2   2.0000     -10.441943      -284.1397
   3   2.0000     -10.440155      -284.0911
   4   2.0000     -10.440144      -284.0908
   5   2.0000      -0.924095       -25.1459
   6   2.0000      -0.829630       -22.5754
   7   2.0000      -0.777907       -21.1679
   8   2.0000      -0.665178       -18.1004
   9   2.0000      -0.601310       -16.3625
  10   2.0000      -0.562704       -15.3120
  11   2.0000      -0.486679       -13.2432
  12   2.0000      -0.474719       -12.9178
  13   2.0000      -0.469295       -12.7702
  14   2.0000      -0.445487       -12.1223
  15   2.0000      -0.420432       -11.4405
  16   2.0000      -0.404125       -10.9968
  17   2.0000      -0.301618        -8.2074
  18   2.0000      -0.262055        -7.1309
  19   0.0000      -0.002531        -0.0689
  20   0.0000       0.054597         1.4856
  21   0.0000       0.141943         3.8625
  22   0.0000       0.174403         4.7458
  23   0.0000       0.202177         5.5015

MULLIKEN ATOMIC CHARGES
-----------------------
   0 C :   -0.676452
   1 C :   -0.154918
   2 C :   -0.230305
   3 C :   -0.154916
   4 C :   -0.676446
   5 H :    0.225850
   6 H :    0.262581
   7 H :    0.227546
   8 H :    0.217295
   9 H :    0.227548
  10 H :    0.225849
  11 H :    0.243786
  12 H :    0.262581
Sum of atomic charges:   -0.0000000

LOEWDIN ATOMIC CHARGES
----------------------
   0 C :   -0.354429
   1 C :   -0.137101
   2 C :   -0.173603
   3 C :   -0.137102
   4 C :   -0.354424
   5 H :    0.131767
   6 H :    0.141285
   7 H :    0.136737
   8 H :    0.134340
   9 H :    0.136737
  10 H :    0.131767
  11 H :    0.202741
  12 H :    0.141285

  Mayer bond orders larger than 0.100000
B(  0-C ,  1-C ) :   1.3107 B(  0-C ,  3-C ) :   0.1169 B(  0-C , 10-H ) :   0.9272
B(  0-C , 11-H ) :   0.4567 B(  0-C , 12-H ) :   0.8886 B(  1-C ,  2-C ) :   1.4545
B(  1-C ,  4-C ) :   0.1169 B(  1-C ,  9-H ) :   0.9200 B(  2-C ,  3-C ) :   1.4545
B(  2-C ,  8-H ) :   0.9192 B(  3-C ,  4-C ) :   1.3107 B(  3-C ,  7-H ) :   0.9200
B(  4-C ,  5-H ) :   0.9272 B(  4-C ,  6-H ) :   0.8886 B(  4-C , 11-H ) :   0.4566

Dispersion correction           -0.005754553
FINAL SINGLE POINT ENERGY      -194.802871261295

DIPOLE MOMENT
-------------
                                X             Y             Z
Electronic contribution:      0.00003       2.40621       0.43298
Nuclear contribution   :     -0.00003      -2.42195      -0.54162
                        -----------------------------------------
Total Dipole Moment    :     -0.00000      -0.01574      -0.10864
                        -----------------------------------------
Magnitude (a.u.)       :      0.10978
Magnitude (Debye)      :      0.27903

Rotational constants in cm-1:     0.270649     0.171237     0.108864
Rotational constants in MHz :  8113.847143  5133.552535  3263.665776

                             ****ORCA TERMINATED NORMALLY****
TOTAL RUN TIME: 0 days 0 hours 1 minutes 48 seconds 164 msec
