                         Program Version 5.0.3 -  RELEASE  -
|  1> ! PBEh-3c def2/J TightSCF DefGrid3
|  2>
|  3> %maxcore 60000
|  4>
|  5> %pal
|  6> nprocs 4
|  7> end
|  8>
|  9> *xyzfile 0 2 P43.xyz
| 10>
| 11>                          ****END OF INPUT****

CARTESIAN COORDINATES (ANGSTROEM)
---------------------------------
  C      0.000000    0.000000   -1.081724
  C      0.000000    0.000000    0.283467
  C      0.000000    0.000000    1.505248
  H     -0.929131    0.000000   -1.637278
  H      0.929131    0.000000   -1.637278
  H      0.000000    0.000000    2.567565

 Total Charge           Charge          ....    0
 Multiplicity           Mult            ....    2
 Number of Electrons    NEL             ....   21
 Basis Dimension        Dim             ....   51

ORBITAL ENERGIES
----------------
                 SPIN UP ORBITALS
  NO   OCC          E(Eh)            E(eV)
   0   1.0000     -10.472238      -284.9641
   1   1.0000     -10.462141      -284.6893
   2   1.0000     -10.459839      -284.6267
   3   1.0000      -0.885060       -24.0837
   4   1.0000      -0.793902       -21.6032
   5   1.0000      -0.609733       -16.5917
   6   1.0000      -0.539571       -14.6825
   7   1.0000      -0.513431       -13.9712
   8   1.0000      -0.400036       -10.8855
   9   1.0000      -0.328498        -8.9389
  10   1.0000      -0.264483        -7.1970
  11   0.0000       0.064164         1.7460
  12   0.0000       0.118463         3.2235
  13   0.0000       0.163859         4.4588
  14   0.0000       0.181982         4.9520
  15   0.0000       0.272906         7.4261

                 SPIN DOWN ORBITALS
  NO   OCC          E(Eh)            E(eV)
   0   1.0000     -10.466279      -284.8019
   1   1.0000     -10.459539      -284.6185
   2   1.0000     -10.451818      -284.4084
   3   1.0000      -0.870581       -23.6897
   4   1.0000      -0.759793       -20.6750
   5   1.0000      -0.599997       -16.3267
   6   1.0000      -0.532167       -14.4810
   7   1.0000      -0.506270       -13.7763
   8   1.0000      -0.354098        -9.6355
   9   1.0000      -0.322952        -8.7880
  10   0.0000      -0.058985        -1.6051
  11   0.0000       0.066686         1.8146
  12   0.0000       0.152799         4.1579
  13   0.0000       0.176447         4.8014
  14   0.0000       0.191672         5.2157

MULLIKEN ATOMIC CHARGES AND SPIN POPULATIONS
--------------------------------------------
   0 C :   -0.602498    0.870511
   1 C :    0.279079   -0.370302
   2 C :   -0.399366    0.636767
   3 H :    0.244177   -0.050394
   4 H :    0.244177   -0.050394
   5 H :    0.234431   -0.036187
Sum of atomic charges         :    0.0000000

LOEWDIN ATOMIC CHARGES AND SPIN POPULATIONS
-------------------------------------------
   0 C :   -0.249576    0.747986
   1 C :   -0.051069   -0.207776
   2 C :   -0.170643    0.531311
   3 H :    0.152031   -0.026096
   4 H :    0.152031   -0.026096
   5 H :    0.167227   -0.019329

  Mayer bond orders larger than 0.100000
B(  0-C ,  1-C ) :   1.2908 B(  0-C ,  3-H ) :   0.9082 B(  0-C ,  4-H ) :   0.9082
B(  1-C ,  2-C ) :   2.3323 B(  2-C ,  5-H ) :   0.9415

Dispersion correction           -0.001541204
FINAL SINGLE POINT ENERGY      -115.731294049293

DIPOLE MOMENT
-------------
                                X             Y             Z
Electronic contribution:     -0.00000       0.00000       1.18404
Nuclear contribution   :      0.00000       0.00000      -1.22385
                        -----------------------------------------
Total Dipole Moment    :     -0.00000       0.00000      -0.03982
                        -----------------------------------------
Magnitude (a.u.)       :      0.03982
Magnitude (Debye)      :      0.10121

Rotational constants in cm-1:     9.686181     0.319675     0.309462
Rotational constants in MHz : 290384.391606  9583.613220  9277.428425

                             ****ORCA TERMINATED NORMALLY****
TOTAL RUN TIME: 0 days 0 hours 2 minutes 49 seconds 296 msec
