                         Program Version 5.0.3 -  RELEASE  -
|  1> ! PBEh-3c def2/J TightSCF DefGrid3
|  2>
|  3> %maxcore 60000
|  4>
|  5> %pal
|  6> nprocs 4
|  7> end
|  8>
|  9> *xyzfile 0 1 E17.xyz
| 10>
| 11>                          ****END OF INPUT****

CARTESIAN COORDINATES (ANGSTROEM)
---------------------------------
  C     -1.795189   -0.410246    0.000000
  C     -0.492106    0.345354    0.000000
  O      0.560734   -0.504077    0.000000
  O     -0.375070    1.545531    0.000000
  C      1.864453    0.106033    0.000000
  H     -2.622310    0.295021    0.000000
  H     -1.854446   -1.053480    0.879764
  H     -1.854446   -1.053480   -0.879764
  H      2.571591   -0.719434    0.000000
  H      1.998394    0.724389    0.887863
  H      1.998394    0.724389   -0.887863

 Total Charge           Charge          ....    0
 Multiplicity           Mult            ....    1
 Number of Electrons    NEL             ....   40
 Basis Dimension        Dim             ....   87

ORBITAL ENERGIES
----------------

  NO   OCC          E(Eh)            E(eV)
   0   2.0000     -19.538585      -531.6719
   1   2.0000     -19.481169      -530.1096
   2   2.0000     -10.577052      -287.8162
   3   2.0000     -10.491501      -285.4882
   4   2.0000     -10.446776      -284.2712
   5   2.0000      -1.213359       -33.0172
   6   2.0000      -1.121503       -30.5176
   7   2.0000      -0.856262       -23.3001
   8   2.0000      -0.784244       -21.3404
   9   2.0000      -0.636736       -17.3265
  10   2.0000      -0.564391       -15.3579
  11   2.0000      -0.551853       -15.0167
  12   2.0000      -0.542474       -14.7615
  13   2.0000      -0.489871       -13.3301
  14   2.0000      -0.479606       -13.0507
  15   2.0000      -0.457528       -12.4500
  16   2.0000      -0.424600       -11.5540
  17   2.0000      -0.415021       -11.2933
  18   2.0000      -0.356807        -9.7092
  19   2.0000      -0.331515        -9.0210
  20   0.0000       0.048689         1.3249
  21   0.0000       0.144778         3.9396
  22   0.0000       0.168522         4.5857
  23   0.0000       0.175415         4.7733
  24   0.0000       0.208533         5.6745

MULLIKEN ATOMIC CHARGES
-----------------------
   0 C :   -0.740526
   1 C :    0.548677
   2 O :   -0.458586
   3 O :   -0.395358
   4 C :   -0.388833
   5 H :    0.255281
   6 H :    0.250391
   7 H :    0.250391
   8 H :    0.224954
   9 H :    0.226805
  10 H :    0.226805
Sum of atomic charges:    0.0000000

LOEWDIN ATOMIC CHARGES
----------------------
   0 C :   -0.386749
   1 C :    0.137878
   2 O :   -0.193063
   3 O :   -0.221574
   4 C :   -0.178721
   5 H :    0.151353
   6 H :    0.154883
   7 H :    0.154883
   8 H :    0.127506
   9 H :    0.126801
  10 H :    0.126801

  Mayer bond orders larger than 0.100000
B(  0-C ,  1-C ) :   0.9412 B(  0-C ,  5-H ) :   0.9171 B(  0-C ,  6-H ) :   0.9078
B(  0-C ,  7-H ) :   0.9078 B(  1-C ,  2-O ) :   1.0922 B(  1-C ,  3-O ) :   2.0344
B(  2-O ,  4-C ) :   0.9004 B(  4-C ,  8-H ) :   0.9227 B(  4-C ,  9-H ) :   0.9139
B(  4-C , 10-H ) :   0.9139

Dispersion correction           -0.003684858
FINAL SINGLE POINT ENERGY      -267.814087586802

DIPOLE MOMENT
-------------
                                X             Y             Z
Electronic contribution:     -0.18314       1.52895       0.00000
Nuclear contribution   :      0.36804      -2.22742       0.00000
                        -----------------------------------------
Total Dipole Moment    :      0.18490      -0.69847       0.00000
                        -----------------------------------------
Magnitude (a.u.)       :      0.72253
Magnitude (Debye)      :      1.83652

Rotational constants in cm-1:     0.340965     0.137800     0.101874
Rotational constants in MHz : 10221.884834  4131.141213  3054.097164

                             ****ORCA TERMINATED NORMALLY****
TOTAL RUN TIME: 0 days 0 hours 1 minutes 9 seconds 770 msec
