                         Program Version 5.0.3 -  RELEASE  -
|  1> ! PBEh-3c def2/J TightSCF DefGrid3
|  2>
|  3> %maxcore 60000
|  4>
|  5> %pal
|  6> nprocs 4
|  7> end
|  8>
|  9> *xyzfile -1 1 1a.xyz
| 10>
| 11>                          ****END OF INPUT****

CARTESIAN COORDINATES (ANGSTROEM)
---------------------------------
  H     -5.020963    2.622594    0.945546
  O     -4.240039    2.188895    0.566550
  C     -4.492882    1.964778   -0.828899
  H     -4.954213    2.847784   -1.286726
  H     -5.162346    1.105282   -0.971604
  C     -3.194121    1.660329   -1.536937
  H     -3.427565    1.407266   -2.578706
  O     -2.321998    2.831052   -1.536356
  C     -0.973221    2.435899   -1.382441
  H     -0.347994    2.913683   -2.138356
  N     -0.472512    2.909250   -0.051681
  C     -1.324058    3.327231    0.939196
  H     -2.378467    3.250169    0.696582
  C     -0.880202    3.792637    2.133839
  H     -1.577403    4.117835    2.894468
  C      0.530983    3.877318    2.398680
  O      1.070353    4.299783    3.427096
  N      1.326850    3.403893    1.339064
  H      2.334547    3.443569    1.468435
  C      0.906355    2.914354    0.119620
  O      1.683732    2.537389   -0.757328
  C     -2.325023    0.551737   -0.937911
  H     -2.331269    0.592326    0.155843
  C     -0.942064    0.909310   -1.493476
  H     -0.106878    0.464647   -0.947474
  O     -0.862350    0.584276   -2.883683
  H     -1.447121   -0.184724   -3.021412
  O     -2.799443   -0.726111   -1.374766
  P     -2.612847   -2.020857   -0.354058
  O     -3.378970   -3.123978   -1.015778
  O     -2.847689   -1.585407    1.057537
  O     -1.001419   -2.323086   -0.438472
  C     -0.447871   -2.799328   -1.681797
  H     -0.713736   -2.122073   -2.499405
  H     -0.843710   -3.794898   -1.909441
  C      1.055174   -2.883119   -1.561513
  H      1.446882   -3.283567   -2.506107
  O      1.611991   -1.557701   -1.346048
  C      2.762628   -1.636422   -0.522428
  H      3.618095   -1.164558   -1.006269
  N      2.512421   -0.874214    0.734713
  C      1.247447   -0.709385    1.239610
  H      0.455460   -1.148085    0.641256
  C      1.004215   -0.045895    2.397210
  H     -0.005734    0.068327    2.768064
  C      2.098478    0.501359    3.159841
  O      2.022268    1.114261    4.228952
  N      3.356548    0.276281    2.573287
  H      4.166721    0.630467    3.075849
  C      3.635397   -0.387499    1.397680
  O      4.779573   -0.559897    0.978447
  C      1.604648   -3.718062   -0.404233
  H      1.006733   -3.572081    0.500711
  C      3.014271   -3.122195   -0.231453
  H      3.435645   -3.278292    0.767592
  O      3.881309   -3.639170   -1.240139
  H      3.576491   -4.555702   -1.400096
  O      1.626667   -5.093859   -0.784071
  H      1.662223   -5.633815    0.023396

 Total Charge           Charge          ....   -1
 Multiplicity           Mult            ....    1
 Number of Electrons    NEL             ....  286
 Basis Dimension        Dim             ....  602

ORBITAL ENERGIES
----------------

  NO   OCC          E(Eh)            E(eV)
   0   2.0000     -77.719247     -2114.8482
   1   2.0000     -19.453278      -529.3506
   2   2.0000     -19.439590      -528.9781
   3   2.0000     -19.437146      -528.9116
   4   2.0000     -19.427504      -528.6493
   5   2.0000     -19.424717      -528.5734
   6   2.0000     -19.403498      -527.9960
   7   2.0000     -19.398215      -527.8523
   8   2.0000     -19.396187      -527.7971
   9   2.0000     -19.394666      -527.7557
  10   2.0000     -19.389497      -527.6150
  11   2.0000     -19.379206      -527.3350
  12   2.0000     -19.375577      -527.2363
  13   2.0000     -19.277337      -524.5630
  14   2.0000     -19.274370      -524.4823
  15   2.0000     -14.625756      -397.9871
  16   2.0000     -14.622967      -397.9112
  17   2.0000     -14.609956      -397.5571
  18   2.0000     -14.604578      -397.4108
  19   2.0000     -10.518532      -286.2238
  20   2.0000     -10.513361      -286.0831
  21   2.0000     -10.477114      -285.0968
  22   2.0000     -10.474563      -285.0274
  23   2.0000     -10.466064      -284.7961
  24   2.0000     -10.459265      -284.6111
  25   2.0000     -10.434828      -283.9461
  26   2.0000     -10.430108      -283.8177
  27   2.0000     -10.426060      -283.7075
  28   2.0000     -10.424463      -283.6641
  29   2.0000     -10.424432      -283.6632
  30   2.0000     -10.418846      -283.5112
  31   2.0000     -10.418434      -283.5000
  32   2.0000     -10.404864      -283.1308
  33   2.0000     -10.403361      -283.0898
  34   2.0000     -10.401211      -283.0313
  35   2.0000     -10.363873      -282.0153
  36   2.0000     -10.361917      -281.9621
  37   2.0000      -6.763796      -184.0522
  38   2.0000      -4.858975      -132.2194
  39   2.0000      -4.857550      -132.1806
  40   2.0000      -4.855224      -132.1173
  41   2.0000      -1.110854       -30.2279
  42   2.0000      -1.104628       -30.0585
  43   2.0000      -1.096382       -29.8341
  44   2.0000      -1.086918       -29.5765
  45   2.0000      -1.078825       -29.3563
  46   2.0000      -1.055882       -28.7320
  47   2.0000      -1.054689       -28.6995
  48   2.0000      -1.053832       -28.6762
  49   2.0000      -1.050074       -28.5740
  50   2.0000      -1.049679       -28.5632
  51   2.0000      -1.032801       -28.1039
  52   2.0000      -1.008231       -27.4354
  53   2.0000      -0.992257       -27.0007
  54   2.0000      -0.988178       -26.8897
  55   2.0000      -0.942799       -25.6549
  56   2.0000      -0.937263       -25.5042
  57   2.0000      -0.908939       -24.7335
  58   2.0000      -0.866686       -23.5837
  59   2.0000      -0.806124       -21.9357
  60   2.0000      -0.804854       -21.9012
  61   2.0000      -0.796737       -21.6803
  62   2.0000      -0.784328       -21.3427
  63   2.0000      -0.767813       -20.8933
  64   2.0000      -0.760223       -20.6867
  65   2.0000      -0.690165       -18.7803
  66   2.0000      -0.688143       -18.7253
  67   2.0000      -0.680873       -18.5275
  68   2.0000      -0.679283       -18.4842
  69   2.0000      -0.642585       -17.4856
  70   2.0000      -0.634951       -17.2779
  71   2.0000      -0.611408       -16.6373
  72   2.0000      -0.597950       -16.2710
  73   2.0000      -0.587535       -15.9876
  74   2.0000      -0.580214       -15.7884
  75   2.0000      -0.558214       -15.1898
  76   2.0000      -0.550773       -14.9873
  77   2.0000      -0.543910       -14.8006
  78   2.0000      -0.538303       -14.6480
  79   2.0000      -0.530425       -14.4336
  80   2.0000      -0.526208       -14.3188
  81   2.0000      -0.512126       -13.9357
  82   2.0000      -0.504597       -13.7308
  83   2.0000      -0.498512       -13.5652
  84   2.0000      -0.495312       -13.4781
  85   2.0000      -0.490292       -13.3415
  86   2.0000      -0.475269       -12.9327
  87   2.0000      -0.471342       -12.8259
  88   2.0000      -0.466862       -12.7040
  89   2.0000      -0.461073       -12.5464
  90   2.0000      -0.456420       -12.4198
  91   2.0000      -0.456187       -12.4135
  92   2.0000      -0.446758       -12.1569
  93   2.0000      -0.441525       -12.0145
  94   2.0000      -0.431894       -11.7524
  95   2.0000      -0.429750       -11.6941
  96   2.0000      -0.423133       -11.5140
  97   2.0000      -0.420844       -11.4518
  98   2.0000      -0.412846       -11.2341
  99   2.0000      -0.407543       -11.0898
 100   2.0000      -0.402627       -10.9560
 101   2.0000      -0.400413       -10.8958
 102   2.0000      -0.392648       -10.6845
 103   2.0000      -0.386806       -10.5255
 104   2.0000      -0.386344       -10.5129
 105   2.0000      -0.385014       -10.4768
 106   2.0000      -0.379800       -10.3349
 107   2.0000      -0.378095       -10.2885
 108   2.0000      -0.376070       -10.2334
 109   2.0000      -0.365316        -9.9407
 110   2.0000      -0.361088        -9.8257
 111   2.0000      -0.357754        -9.7350
 112   2.0000      -0.344460        -9.3732
 113   2.0000      -0.343130        -9.3370
 114   2.0000      -0.337321        -9.1790
 115   2.0000      -0.333239        -9.0679
 116   2.0000      -0.331048        -9.0083
 117   2.0000      -0.325219        -8.8497
 118   2.0000      -0.323862        -8.8127
 119   2.0000      -0.314592        -8.5605
 120   2.0000      -0.299725        -8.1559
 121   2.0000      -0.291309        -7.9269
 122   2.0000      -0.276582        -7.5262
 123   2.0000      -0.273661        -7.4467
 124   2.0000      -0.273105        -7.4316
 125   2.0000      -0.263821        -7.1789
 126   2.0000      -0.261295        -7.1102
 127   2.0000      -0.257243        -6.9999
 128   2.0000      -0.256192        -6.9713
 129   2.0000      -0.253398        -6.8953
 130   2.0000      -0.250221        -6.8088
 131   2.0000      -0.249114        -6.7787
 132   2.0000      -0.247506        -6.7350
 133   2.0000      -0.244182        -6.6445
 134   2.0000      -0.232506        -6.3268
 135   2.0000      -0.230214        -6.2645
 136   2.0000      -0.227721        -6.1966
 137   2.0000      -0.204835        -5.5739
 138   2.0000      -0.193449        -5.2640
 139   2.0000      -0.192665        -5.2427
 140   2.0000      -0.190119        -5.1734
 141   2.0000      -0.170168        -4.6305
 142   2.0000      -0.157417        -4.2835
 143   0.0000       0.075642         2.0583
 144   0.0000       0.078714         2.1419
 145   0.0000       0.125216         3.4073
 146   0.0000       0.131215         3.5705
 147   0.0000       0.158461         4.3119

MULLIKEN ATOMIC CHARGES
-----------------------
   0 H :    0.420750
   1 O :   -0.623654
   2 C :   -0.177679
   3 H :    0.191080
   4 H :    0.224036
   5 C :    0.044688
   6 H :    0.225290
   7 O :   -0.504746
   8 C :    0.200462
   9 H :    0.270568
  10 N :   -0.574094
  11 C :    0.076474
  12 H :    0.321936
  13 C :   -0.474717
  14 H :    0.240000
  15 C :    0.568659
  16 O :   -0.423093
  17 N :   -0.738656
  18 H :    0.387474
  19 C :    0.720062
  20 O :   -0.449872
  21 C :   -0.070678
  22 H :    0.283332
  23 C :   -0.029737
  24 H :    0.275170
  25 O :   -0.653417
  26 H :    0.433143
  27 O :   -0.631649
  28 P :    1.386622
  29 O :   -0.728563
  30 O :   -0.729372
  31 O :   -0.627550
  32 C :   -0.163333
  33 H :    0.201763
  34 H :    0.236560
  35 C :    0.031397
  36 H :    0.224618
  37 O :   -0.479397
  38 C :    0.195388
  39 H :    0.287170
  40 N :   -0.572950
  41 C :    0.042915
  42 H :    0.359526
  43 C :   -0.499038
  44 H :    0.287608
  45 C :    0.556633
  46 O :   -0.415401
  47 N :   -0.736136
  48 H :    0.384645
  49 C :    0.717716
  50 O :   -0.455311
  51 C :   -0.071339
  52 H :    0.260641
  53 C :   -0.021333
  54 H :    0.224970
  55 O :   -0.636989
  56 H :    0.420321
  57 O :   -0.638897
  58 H :    0.425987
Sum of atomic charges:   -1.0000000

LOEWDIN ATOMIC CHARGES
----------------------
   0 H :    0.312601
   1 O :   -0.404369
   2 C :   -0.093560
   3 H :    0.107216
   4 H :    0.126487
   5 C :   -0.014173
   6 H :    0.126576
   7 O :   -0.240180
   8 C :    0.084052
   9 H :    0.141816
  10 N :   -0.094385
  11 C :   -0.007021
  12 H :    0.167650
  13 C :   -0.257266
  14 H :    0.154398
  15 C :    0.126725
  16 O :   -0.273525
  17 N :   -0.199224
  18 H :    0.281672
  19 C :    0.155829
  20 O :   -0.287170
  21 C :   -0.043841
  22 H :    0.151589
  23 C :   -0.038836
  24 H :    0.133486
  25 O :   -0.398261
  26 H :    0.311881
  27 O :   -0.351043
  28 P :    0.810518
  29 O :   -0.602359
  30 O :   -0.599736
  31 O :   -0.362093
  32 C :   -0.085485
  33 H :    0.114565
  34 H :    0.134527
  35 C :   -0.014672
  36 H :    0.126589
  37 O :   -0.223319
  38 C :    0.086125
  39 H :    0.151989
  40 N :   -0.093585
  41 C :   -0.015356
  42 H :    0.174618
  43 C :   -0.250352
  44 H :    0.173079
  45 C :    0.119967
  46 O :   -0.267296
  47 N :   -0.204449
  48 H :    0.280035
  49 C :    0.157822
  50 O :   -0.293417
  51 C :   -0.045667
  52 H :    0.136567
  53 C :   -0.043596
  54 H :    0.115148
  55 O :   -0.398130
  56 H :    0.310413
  57 O :   -0.391896
  58 H :    0.320321

  Mayer bond orders larger than 0.100000
B(  0-H ,  1-O ) :   0.7888 B(  1-O ,  2-C ) :   0.9932 B(  2-C ,  3-H ) :   0.9058
B(  2-C ,  4-H ) :   0.8890 B(  2-C ,  5-C ) :   0.9739 B(  5-C ,  6-H ) :   0.8912
B(  5-C ,  7-O ) :   0.9043 B(  5-C , 21-C ) :   0.9179 B(  7-O ,  8-C ) :   1.0097
B(  8-C ,  9-H ) :   0.8825 B(  8-C , 10-N ) :   0.8342 B(  8-C , 23-C ) :   0.9263
B( 10-N , 11-C ) :   1.0859 B( 10-N , 19-C ) :   1.0344 B( 11-C , 12-H ) :   0.8230
B( 11-C , 13-C ) :   1.5929 B( 13-C , 14-H ) :   0.9212 B( 13-C , 15-C ) :   1.0813
B( 15-C , 16-O ) :   2.0031 B( 15-C , 17-N ) :   0.9706 B( 17-N , 18-H ) :   0.8046
B( 17-N , 19-C ) :   1.0659 B( 19-C , 20-O ) :   1.9527 B( 21-C , 22-H ) :   0.8337
B( 21-C , 23-C ) :   0.9374 B( 21-C , 27-O ) :   0.9419 B( 23-C , 24-H ) :   0.8759
B( 23-C , 25-O ) :   0.9764 B( 25-O , 26-H ) :   0.7454 B( 27-O , 28-P ) :   0.8213
B( 28-P , 29-O ) :   1.7502 B( 28-P , 30-O ) :   1.7287 B( 28-P , 31-O ) :   0.8286
B( 31-O , 32-C ) :   0.9315 B( 32-C , 33-H ) :   0.8887 B( 32-C , 34-H ) :   0.8872
B( 32-C , 35-C ) :   0.9660 B( 35-C , 36-H ) :   0.8878 B( 35-C , 37-O ) :   0.9212
B( 35-C , 51-C ) :   0.9213 B( 37-O , 38-C ) :   1.0095 B( 38-C , 39-H ) :   0.8731
B( 38-C , 40-N ) :   0.8511 B( 38-C , 53-C ) :   0.9252 B( 40-N , 41-C ) :   1.0559
B( 40-N , 49-C ) :   1.0372 B( 41-C , 42-H ) :   0.7978 B( 41-C , 43-C ) :   1.6099
B( 43-C , 44-H ) :   0.8992 B( 43-C , 45-C ) :   1.0719 B( 45-C , 46-O ) :   2.0016
B( 45-C , 47-N ) :   0.9692 B( 47-N , 48-H ) :   0.8065 B( 47-N , 49-C ) :   1.0708
B( 49-C , 50-O ) :   1.9561 B( 51-C , 52-H ) :   0.8663 B( 51-C , 53-C ) :   0.9336
B( 51-C , 57-O ) :   0.9877 B( 53-C , 54-H ) :   0.9047 B( 53-C , 55-O ) :   1.0062
B( 55-O , 56-H ) :   0.7549 B( 57-O , 58-H ) :   0.7849

Dispersion correction           -0.051282621
FINAL SINGLE POINT ENERGY     -2308.305894963723

DIPOLE MOMENT
-------------
                                X             Y             Z
Electronic contribution:      5.74471       4.01916       6.93089
Nuclear contribution   :     -5.06576      -3.58398      -8.07045
                        -----------------------------------------
Total Dipole Moment    :      0.67894       0.43518      -1.13955
                        -----------------------------------------
Magnitude (a.u.)       :      1.39604
Magnitude (Debye)      :      3.54845

Rotational constants in cm-1:     0.003968     0.003436     0.002269
Rotational constants in MHz :   118.958739   103.008393    68.009980

                             ****ORCA TERMINATED NORMALLY****
TOTAL RUN TIME: 0 days 0 hours 17 minutes 18 seconds 588 msec
