                         Program Version 5.0.3 -  RELEASE  -
|  1> ! PBEh-3c def2/J TightSCF DefGrid3
|  2>
|  3> %maxcore 60000
|  4>
|  5> %pal
|  6> nprocs 4
|  7> end
|  8>
|  9> *xyzfile 0 1 ILE_xag.xyz
| 10>
| 11>                          ****END OF INPUT****

CARTESIAN COORDINATES (ANGSTROEM)
---------------------------------
  N      1.207229   -0.356685   -0.454019
  C      0.059908   -0.252553    0.414181
  C     -1.038481   -1.127129   -0.180741
  O     -0.989698   -1.532433   -1.338661
  C     -0.428915    1.201526    0.580782
  C     -0.919649    1.772934   -0.748301
  C      0.673928    2.049250    1.204244
  C     -1.491344    3.180709   -0.628949
  H      0.993806   -0.690290   -1.383703
  H      0.355737   -0.633029    1.395173
  H     -1.278727    1.172415    1.271863
  H     -1.682487    1.113441   -1.167176
  H     -0.085821    1.770366   -1.454423
  H      1.066012    1.582603    2.105964
  H      1.503621    2.159998    0.505854
  H      0.307128    3.041754    1.458144
  H     -2.283406    3.215525    0.120203
  H     -1.916326    3.507087   -1.576743
  H     -0.729902    3.903579   -0.343745
  N     -2.082231   -1.364277    0.647749
  H     -2.001710   -1.070826    1.605386
  C     -3.226393   -2.152669    0.240120
  H     -3.166579   -3.173913    0.614382
  H     -4.144162   -1.693524    0.598641
  H     -3.235317   -2.180818   -0.844620
  C      2.455928   -0.567812    0.054386
  O      2.711508   -0.475249    1.248806
  C      3.513112   -0.901296   -0.970590
  H      3.889027   -1.901522   -0.766270
  H      4.341335   -0.207423   -0.851814
  H      3.146025   -0.855594   -1.992639

 Total Charge           Charge          ....    0
 Multiplicity           Mult            ....    1
 Number of Electrons    NEL             ....  102
 Basis Dimension        Dim             ....  231

ORBITAL ENERGIES
----------------

  NO   OCC          E(Eh)            E(eV)
   0   2.0000     -19.470219      -529.8116
   1   2.0000     -19.450715      -529.2809
   2   2.0000     -14.674583      -399.3157
   3   2.0000     -14.652949      -398.7270
   4   2.0000     -10.555335      -287.2253
   5   2.0000     -10.543351      -286.8992
   6   2.0000     -10.485653      -285.3291
   7   2.0000     -10.475102      -285.0420
   8   2.0000     -10.450186      -284.3640
   9   2.0000     -10.436586      -283.9939
  10   2.0000     -10.430487      -283.8280
  11   2.0000     -10.423089      -283.6267
  12   2.0000     -10.416631      -283.4509
  13   2.0000      -1.156313       -31.4649
  14   2.0000      -1.135164       -30.8894
  15   2.0000      -1.034031       -28.1374
  16   2.0000      -1.021446       -27.7950
  17   2.0000      -0.909085       -24.7375
  18   2.0000      -0.846935       -23.0463
  19   2.0000      -0.816564       -22.2198
  20   2.0000      -0.806371       -21.9425
  21   2.0000      -0.761389       -20.7184
  22   2.0000      -0.712120       -19.3778
  23   2.0000      -0.670119       -18.2349
  24   2.0000      -0.660579       -17.9753
  25   2.0000      -0.626349       -17.0438
  26   2.0000      -0.606595       -16.5063
  27   2.0000      -0.549436       -14.9509
  28   2.0000      -0.539444       -14.6790
  29   2.0000      -0.532180       -14.4814
  30   2.0000      -0.530895       -14.4464
  31   2.0000      -0.515143       -14.0178
  32   2.0000      -0.508576       -13.8391
  33   2.0000      -0.492187       -13.3931
  34   2.0000      -0.485715       -13.2170
  35   2.0000      -0.469851       -12.7853
  36   2.0000      -0.457862       -12.4590
  37   2.0000      -0.454937       -12.3795
  38   2.0000      -0.447422       -12.1750
  39   2.0000      -0.440216       -11.9789
  40   2.0000      -0.428914       -11.6714
  41   2.0000      -0.424728       -11.5574
  42   2.0000      -0.415387       -11.3032
  43   2.0000      -0.408663       -11.1203
  44   2.0000      -0.382437       -10.4066
  45   2.0000      -0.375955       -10.2303
  46   2.0000      -0.368481       -10.0269
  47   2.0000      -0.324051        -8.8179
  48   2.0000      -0.315852        -8.5948
  49   2.0000      -0.303095        -8.2476
  50   2.0000      -0.295862        -8.0508
  51   0.0000       0.051022         1.3884
  52   0.0000       0.065314         1.7773
  53   0.0000       0.108380         2.9492
  54   0.0000       0.135004         3.6736
  55   0.0000       0.152940         4.1617

MULLIKEN ATOMIC CHARGES
-----------------------
   0 N :   -0.631540
   1 C :   -0.208829
   2 C :    0.553604
   3 O :   -0.442345
   4 C :   -0.205088
   5 C :   -0.419932
   6 C :   -0.646681
   7 C :   -0.648311
   8 H :    0.379858
   9 H :    0.271687
  10 H :    0.191587
  11 H :    0.233408
  12 H :    0.216727
  13 H :    0.242869
  14 H :    0.222383
  15 H :    0.220623
  16 H :    0.205199
  17 H :    0.225241
  18 H :    0.218453
  19 N :   -0.629414
  20 H :    0.362883
  21 C :   -0.493841
  22 H :    0.226273
  23 H :    0.222188
  24 H :    0.265586
  25 C :    0.521415
  26 O :   -0.436060
  27 C :   -0.749283
  28 H :    0.254647
  29 H :    0.257374
  30 H :    0.219318
Sum of atomic charges:   -0.0000000

LOEWDIN ATOMIC CHARGES
----------------------
   0 N :   -0.226645
   1 C :   -0.094582
   2 C :    0.112312
   3 O :   -0.286830
   4 C :   -0.150106
   5 C :   -0.243609
   6 C :   -0.353611
   7 C :   -0.360613
   8 H :    0.266081
   9 H :    0.149977
  10 H :    0.114375
  11 H :    0.129730
  12 H :    0.126366
  13 H :    0.138625
  14 H :    0.133033
  15 H :    0.125765
  16 H :    0.121902
  17 H :    0.129090
  18 H :    0.125685
  19 N :   -0.237743
  20 H :    0.256198
  21 C :   -0.255657
  22 H :    0.123915
  23 H :    0.125482
  24 H :    0.153880
  25 C :    0.106829
  26 O :   -0.284457
  27 C :   -0.387745
  28 H :    0.155740
  29 H :    0.156206
  30 H :    0.130408

  Mayer bond orders larger than 0.100000
B(  0-N ,  1-C ) :   0.9511 B(  0-N ,  8-H ) :   0.7806 B(  0-N , 25-C ) :   1.1407
B(  1-C ,  2-C ) :   0.9213 B(  1-C ,  4-C ) :   0.9390 B(  1-C ,  9-H ) :   0.8739
B(  2-C ,  3-O ) :   1.9516 B(  2-C , 19-N ) :   1.1375 B(  4-C ,  5-C ) :   0.9726
B(  4-C ,  6-C ) :   0.9937 B(  4-C , 10-H ) :   0.9049 B(  5-C ,  7-C ) :   0.9953
B(  5-C , 11-H ) :   0.9092 B(  5-C , 12-H ) :   0.9104 B(  6-C , 13-H ) :   0.9178
B(  6-C , 14-H ) :   0.9204 B(  6-C , 15-H ) :   0.9224 B(  7-C , 16-H ) :   0.9302
B(  7-C , 17-H ) :   0.9304 B(  7-C , 18-H ) :   0.9252 B( 19-N , 20-H ) :   0.8227
B( 19-N , 21-C ) :   0.9493 B( 21-C , 22-H ) :   0.9177 B( 21-C , 23-H ) :   0.9227
B( 21-C , 24-H ) :   0.9010 B( 25-C , 26-O ) :   1.9703 B( 25-C , 27-C ) :   0.9274
B( 27-C , 28-H ) :   0.9102 B( 27-C , 29-H ) :   0.9115 B( 27-C , 30-H ) :   0.9202

Dispersion correction           -0.018607506
FINAL SINGLE POINT ENERGY      -612.478467145397

DIPOLE MOMENT
-------------
                                X             Y             Z
Electronic contribution:      4.00301      -9.24857       0.76670
Nuclear contribution   :     -5.09693       9.24428      -0.67544
                        -----------------------------------------
Total Dipole Moment    :     -1.09392      -0.00429       0.09127
                        -----------------------------------------
Magnitude (a.u.)       :      1.09773
Magnitude (Debye)      :      2.79021

Rotational constants in cm-1:     0.027989     0.019599     0.014171
Rotational constants in MHz :   839.094681   587.570065   424.842982

                             ****ORCA TERMINATED NORMALLY****
TOTAL RUN TIME: 0 days 0 hours 3 minutes 50 seconds 967 msec
