                         Program Version 5.0.3 -  RELEASE  -
|  1> ! PBEh-3c def2/J TightSCF DefGrid3
|  2>
|  3> %maxcore 60000
|  4>
|  5> %pal
|  6> nprocs 4
|  7> end
|  8>
|  9> *xyzfile 1 2 nh32+_1.25.xyz
| 10>
| 11>                          ****END OF INPUT****

CARTESIAN COORDINATES (ANGSTROEM)
---------------------------------
  N      0.000000    0.000000   -1.354069
  N      0.000000    0.000000    1.354069
  H      0.842973    0.486691   -1.629743
  H      0.000000   -0.973381   -1.629743
  H     -0.842973    0.486691   -1.629743
  H      0.842973   -0.486691    1.629743
  H      0.000000    0.973381    1.629743
  H     -0.842973   -0.486691    1.629743

 Total Charge           Charge          ....    1
 Multiplicity           Mult            ....    2
 Number of Electrons    NEL             ....   19
 Basis Dimension        Dim             ....   42

ORBITAL ENERGIES
----------------
                 SPIN UP ORBITALS
  NO   OCC          E(Eh)            E(eV)
   0   1.0000     -14.906191      -405.6181
   1   1.0000     -14.906141      -405.6167
   2   1.0000      -1.220476       -33.2108
   3   1.0000      -1.212137       -32.9839
   4   1.0000      -0.795932       -21.6584
   5   1.0000      -0.795932       -21.6584
   6   1.0000      -0.790003       -21.4971
   7   1.0000      -0.790003       -21.4971
   8   1.0000      -0.648381       -17.6433
   9   1.0000      -0.581343       -15.8192
  10   0.0000      -0.085087        -2.3153
  11   0.0000      -0.054750        -1.4898
  12   0.0000       0.006368         0.1733
  13   0.0000       0.006368         0.1733
  14   0.0000       0.008860         0.2411

                 SPIN DOWN ORBITALS
  NO   OCC          E(Eh)            E(eV)
   0   1.0000     -14.891112      -405.2077
   1   1.0000     -14.891086      -405.2071
   2   1.0000      -1.185744       -32.2657
   3   1.0000      -1.175607       -31.9899
   4   1.0000      -0.784632       -21.3509
   5   1.0000      -0.784632       -21.3509
   6   1.0000      -0.778428       -21.1821
   7   1.0000      -0.778428       -21.1821
   8   1.0000      -0.526036       -14.3142
   9   0.0000      -0.344921        -9.3858
  10   0.0000      -0.078321        -2.1312
  11   0.0000      -0.046813        -1.2739
  12   0.0000       0.012938         0.3521
  13   0.0000       0.012939         0.3521

MULLIKEN ATOMIC CHARGES AND SPIN POPULATIONS
--------------------------------------------
   0 N :   -0.762165    0.553103
   1 N :   -0.762165    0.553103
   2 H :    0.420724   -0.017701
   3 H :    0.420717   -0.017701
   4 H :    0.420724   -0.017701
   5 H :    0.420724   -0.017701
   6 H :    0.420717   -0.017701
   7 H :    0.420724   -0.017701
Sum of atomic charges         :    1.0000000

LOEWDIN ATOMIC CHARGES AND SPIN POPULATIONS
-------------------------------------------
   0 N :   -0.343870    0.536318
   1 N :   -0.343870    0.536318
   2 H :    0.281291   -0.012106
   3 H :    0.281288   -0.012106
   4 H :    0.281291   -0.012106
   5 H :    0.281291   -0.012106
   6 H :    0.281288   -0.012106
   7 H :    0.281291   -0.012106

  Mayer bond orders larger than 0.100000
B(  0-N ,  1-N ) :   0.4843 B(  0-N ,  2-H ) :   0.8040 B(  0-N ,  3-H ) :   0.8040
B(  0-N ,  4-H ) :   0.8040 B(  1-N ,  5-H ) :   0.8040 B(  1-N ,  6-H ) :   0.8040
B(  1-N ,  7-H ) :   0.8040

Dispersion correction           -0.001568259
FINAL SINGLE POINT ENERGY      -112.550575876034

DIPOLE MOMENT
-------------
                                X             Y             Z
Electronic contribution:     -0.00000       0.00000      -0.00000
Nuclear contribution   :      0.00000       0.00000      -0.00000
                        -----------------------------------------
Total Dipole Moment    :     -0.00000       0.00000      -0.00000
                        -----------------------------------------
Magnitude (a.u.)       :      0.00000
Magnitude (Debye)      :      0.00000

Rotational constants in cm-1:     2.941840     0.239820     0.239820
Rotational constants in MHz : 88194.149217  7189.637103  7189.637077

                             ****ORCA TERMINATED NORMALLY****
TOTAL RUN TIME: 0 days 0 hours 1 minutes 7 seconds 592 msec
