                         Program Version 5.0.3 -  RELEASE  -
|  1> ! PBEh-3c def2/J TightSCF DefGrid3
|  2>
|  3> %maxcore 60000
|  4>
|  5> %pal
|  6> nprocs 4
|  7> end
|  8>
|  9> *xyzfile 0 1 1.xyz
| 10>
| 11>                          ****END OF INPUT****

CARTESIAN COORDINATES (ANGSTROEM)
---------------------------------
  C     -1.236263    0.000000    3.329976
  C     -0.382026   -1.175756    3.329976
  C      1.000158   -0.726657    3.329976
  C      1.000158    0.726657    3.329976
  C     -0.382026    1.175756    3.329976
  C      2.344336   -2.601457    0.594642
  C      3.198573   -1.425701    0.594642
  C      2.962467   -0.699044    1.830906
  C      1.962309   -1.425701    2.594958
  C      1.580283   -2.601457    1.830906
  C      3.198573    1.425701    0.594642
  C      2.344336    2.601457    0.594642
  C      1.580283    2.601457    1.830906
  C      1.962309    1.425701    2.594958
  C      2.962467    0.699044    1.830906
  C     -0.367509    3.482589    0.594642
  C     -1.749694    3.033490    0.594642
  C     -1.985799    2.306833    1.830906
  C     -0.749535    2.306833    2.594958
  C      0.250623    3.033490    1.830906
  C     -3.425706    0.726657    0.594642
  C     -3.425706   -0.726657    0.594642
  C     -2.807574   -1.175756    1.830906
  C     -2.425548    0.000000    2.594958
  C     -2.807574    1.175756    1.830906
  C     -1.749694   -3.033490    0.594642
  C     -0.367509   -3.482589    0.594642
  C      0.250623   -3.033490    1.830906
  C     -0.749535   -2.306833    2.594958
  C     -1.985799   -2.306833    1.830906
  C     -0.250623   -3.033490   -1.830906
  C      0.749535   -2.306833   -2.594958
  C      1.985799   -2.306833   -1.830906
  C      1.749694   -3.033490   -0.594642
  C      0.367509   -3.482589   -0.594642
  C      2.807574   -1.175756   -1.830906
  C      2.425548    0.000000   -2.594958
  C      2.807574    1.175756   -1.830906
  C      3.425706    0.726657   -0.594642
  C      3.425706   -0.726657   -0.594642
  C      1.985799    2.306833   -1.830906
  C      0.749535    2.306833   -2.594958
  C     -0.250623    3.033490   -1.830906
  C      0.367509    3.482589   -0.594642
  C      1.749694    3.033490   -0.594642
  C     -1.580283    2.601457   -1.830906
  C     -1.962309    1.425701   -2.594958
  C     -2.962467    0.699044   -1.830906
  C     -3.198573    1.425701   -0.594642
  C     -2.344336    2.601457   -0.594642
  C     -2.962467   -0.699044   -1.830906
  C     -1.962309   -1.425701   -2.594958
  C     -1.580283   -2.601457   -1.830906
  C     -2.344336   -2.601457   -0.594642
  C     -3.198573   -1.425701   -0.594642
  C     -1.000158   -0.726657   -3.329976
  C     -1.000158    0.726657   -3.329976
  C      0.382026    1.175756   -3.329976
  C      1.236263    0.000000   -3.329976
  C      0.382026   -1.175756   -3.329976

 Total Charge           Charge          ....    0
 Multiplicity           Mult            ....    1
 Number of Electrons    NEL             ....  360
 Basis Dimension        Dim             ....  900

ORBITAL ENERGIES
----------------

  NO   OCC          E(Eh)            E(eV)
   0   2.0000     -10.515622      -286.1446
   1   2.0000     -10.515622      -286.1446
   2   2.0000     -10.515620      -286.1446
   3   2.0000     -10.515620      -286.1446
   4   2.0000     -10.515579      -286.1434
   5   2.0000     -10.515577      -286.1434
   6   2.0000     -10.515577      -286.1434
   7   2.0000     -10.515575      -286.1434
   8   2.0000     -10.515575      -286.1433
   9   2.0000     -10.515506      -286.1415
  10   2.0000     -10.515504      -286.1414
  11   2.0000     -10.515504      -286.1414
  12   2.0000     -10.515503      -286.1414
  13   2.0000     -10.515502      -286.1414
  14   2.0000     -10.515502      -286.1414
  15   2.0000     -10.515501      -286.1413
  16   2.0000     -10.515457      -286.1401
  17   2.0000     -10.515457      -286.1401
  18   2.0000     -10.515455      -286.1401
  19   2.0000     -10.515455      -286.1401
  20   2.0000     -10.515419      -286.1391
  21   2.0000     -10.515418      -286.1391
  22   2.0000     -10.515417      -286.1390
  23   2.0000     -10.515415      -286.1390
  24   2.0000     -10.515415      -286.1390
  25   2.0000     -10.515413      -286.1389
  26   2.0000     -10.515412      -286.1389
  27   2.0000     -10.515411      -286.1389
  28   2.0000     -10.515410      -286.1388
  29   2.0000     -10.515410      -286.1388
  30   2.0000     -10.515026      -286.1284
  31   2.0000     -10.515026      -286.1284
  32   2.0000     -10.515025      -286.1284
  33   2.0000     -10.515012      -286.1280
  34   2.0000     -10.515010      -286.1280
  35   2.0000     -10.515010      -286.1280
  36   2.0000     -10.514833      -286.1232
  37   2.0000     -10.514833      -286.1232
  38   2.0000     -10.514833      -286.1232
  39   2.0000     -10.514830      -286.1231
  40   2.0000     -10.514830      -286.1231
  41   2.0000     -10.514803      -286.1223
  42   2.0000     -10.514802      -286.1223
  43   2.0000     -10.514801      -286.1223
  44   2.0000     -10.514801      -286.1223
  45   2.0000     -10.514799      -286.1222
  46   2.0000     -10.514767      -286.1214
  47   2.0000     -10.514765      -286.1213
  48   2.0000     -10.514764      -286.1213
  49   2.0000     -10.514654      -286.1183
  50   2.0000     -10.514652      -286.1182
  51   2.0000     -10.514652      -286.1182
  52   2.0000     -10.514650      -286.1182
  53   2.0000     -10.514523      -286.1147
  54   2.0000     -10.514521      -286.1147
  55   2.0000     -10.514520      -286.1146
  56   2.0000     -10.514519      -286.1146
  57   2.0000     -10.514518      -286.1146
  58   2.0000     -10.514517      -286.1146
  59   2.0000     -10.514515      -286.1145
  60   2.0000      -1.096018       -29.8242
  61   2.0000      -1.074896       -29.2494
  62   2.0000      -1.074894       -29.2494
  63   2.0000      -1.074893       -29.2493
  64   2.0000      -1.034297       -28.1447
  65   2.0000      -1.034296       -28.1446
  66   2.0000      -1.034296       -28.1446
  67   2.0000      -1.034295       -28.1446
  68   2.0000      -1.034295       -28.1446
  69   2.0000      -0.991708       -26.9857
  70   2.0000      -0.991708       -26.9857
  71   2.0000      -0.991707       -26.9857
  72   2.0000      -0.956676       -26.0325
  73   2.0000      -0.956676       -26.0325
  74   2.0000      -0.956675       -26.0325
  75   2.0000      -0.956674       -26.0324
  76   2.0000      -0.902484       -24.5579
  77   2.0000      -0.902484       -24.5578
  78   2.0000      -0.902483       -24.5578
  79   2.0000      -0.902483       -24.5578
  80   2.0000      -0.902482       -24.5578
  81   2.0000      -0.884182       -24.0598
  82   2.0000      -0.884182       -24.0598
  83   2.0000      -0.884181       -24.0598
  84   2.0000      -0.884180       -24.0598
  85   2.0000      -0.823765       -22.4158
  86   2.0000      -0.823765       -22.4158
  87   2.0000      -0.823765       -22.4158
  88   2.0000      -0.823764       -22.4158
  89   2.0000      -0.823764       -22.4158
  90   2.0000      -0.807974       -21.9861
  91   2.0000      -0.807973       -21.9861
  92   2.0000      -0.807972       -21.9860
  93   2.0000      -0.760412       -20.6919
  94   2.0000      -0.760412       -20.6919
  95   2.0000      -0.760410       -20.6918
  96   2.0000      -0.721223       -19.6255
  97   2.0000      -0.721223       -19.6255
  98   2.0000      -0.721222       -19.6255
  99   2.0000      -0.721222       -19.6255
 100   2.0000      -0.721222       -19.6255
 101   2.0000      -0.719721       -19.5846
 102   2.0000      -0.719721       -19.5846
 103   2.0000      -0.719721       -19.5846
 104   2.0000      -0.689539       -18.7633
 105   2.0000      -0.645547       -17.5662
 106   2.0000      -0.645546       -17.5662
 107   2.0000      -0.645546       -17.5662
 108   2.0000      -0.645545       -17.5662
 109   2.0000      -0.620519       -16.8852
 110   2.0000      -0.620519       -16.8852
 111   2.0000      -0.620519       -16.8852
 112   2.0000      -0.620518       -16.8851
 113   2.0000      -0.620517       -16.8851
 114   2.0000      -0.602254       -16.3882
 115   2.0000      -0.602252       -16.3881
 116   2.0000      -0.602251       -16.3881
 117   2.0000      -0.573447       -15.6043
 118   2.0000      -0.573447       -15.6043
 119   2.0000      -0.573447       -15.6043
 120   2.0000      -0.562791       -15.3143
 121   2.0000      -0.547368       -14.8946
 122   2.0000      -0.547367       -14.8946
 123   2.0000      -0.547367       -14.8946
 124   2.0000      -0.547367       -14.8946
 125   2.0000      -0.537022       -14.6131
 126   2.0000      -0.537021       -14.6131
 127   2.0000      -0.537017       -14.6130
 128   2.0000      -0.526549       -14.3281
 129   2.0000      -0.526548       -14.3281
 130   2.0000      -0.526547       -14.3281
 131   2.0000      -0.526547       -14.3281
 132   2.0000      -0.526546       -14.3280
 133   2.0000      -0.511939       -13.9306
 134   2.0000      -0.511939       -13.9306
 135   2.0000      -0.511938       -13.9305
 136   2.0000      -0.511938       -13.9305
 137   2.0000      -0.500356       -13.6154
 138   2.0000      -0.500356       -13.6154
 139   2.0000      -0.500356       -13.6154
 140   2.0000      -0.487692       -13.2708
 141   2.0000      -0.487687       -13.2706
 142   2.0000      -0.487685       -13.2706
 143   2.0000      -0.487682       -13.2705
 144   2.0000      -0.487678       -13.2704
 145   2.0000      -0.479986       -13.0611
 146   2.0000      -0.479986       -13.0611
 147   2.0000      -0.479985       -13.0611
 148   2.0000      -0.479985       -13.0611
 149   2.0000      -0.434343       -11.8191
 150   2.0000      -0.434342       -11.8190
 151   2.0000      -0.434341       -11.8190
 152   2.0000      -0.434341       -11.8190
 153   2.0000      -0.434341       -11.8190
 154   2.0000      -0.426058       -11.5936
 155   2.0000      -0.426057       -11.5936
 156   2.0000      -0.426049       -11.5934
 157   2.0000      -0.422293       -11.4912
 158   2.0000      -0.422293       -11.4912
 159   2.0000      -0.422293       -11.4912
 160   2.0000      -0.422292       -11.4912
 161   2.0000      -0.422292       -11.4912
 162   2.0000      -0.405909       -11.0453
 163   2.0000      -0.405906       -11.0453
 164   2.0000      -0.405903       -11.0452
 165   2.0000      -0.405900       -11.0451
 166   2.0000      -0.328525        -8.9396
 167   2.0000      -0.328525        -8.9396
 168   2.0000      -0.328521        -8.9395
 169   2.0000      -0.328520        -8.9395
 170   2.0000      -0.327419        -8.9095
 171   2.0000      -0.327416        -8.9094
 172   2.0000      -0.327413        -8.9094
 173   2.0000      -0.327410        -8.9093
 174   2.0000      -0.327409        -8.9093
 175   2.0000      -0.272026        -7.4022
 176   2.0000      -0.272025        -7.4022
 177   2.0000      -0.272023        -7.4021
 178   2.0000      -0.272022        -7.4021
 179   2.0000      -0.272019        -7.4020
 180   0.0000      -0.129379        -3.5206
 181   0.0000      -0.129379        -3.5206
 182   0.0000      -0.129377        -3.5205
 183   0.0000      -0.079667        -2.1679
 184   0.0000      -0.079667        -2.1678

MULLIKEN ATOMIC CHARGES
-----------------------
   0 C :    0.000010
   1 C :   -0.000024
   2 C :    0.000018
   3 C :    0.000019
   4 C :   -0.000021
   5 C :   -0.000028
   6 C :    0.000018
   7 C :   -0.000010
   8 C :   -0.000006
   9 C :    0.000010
  10 C :    0.000016
  11 C :   -0.000027
  12 C :    0.000010
  13 C :   -0.000006
  14 C :   -0.000002
  15 C :   -0.000034
  16 C :    0.000028
  17 C :   -0.000013
  18 C :   -0.000003
  19 C :    0.000036
  20 C :    0.000016
  21 C :    0.000016
  22 C :   -0.000037
  23 C :    0.000036
  24 C :   -0.000033
  25 C :    0.000029
  26 C :   -0.000025
  27 C :    0.000035
  28 C :   -0.000002
  29 C :   -0.000016
  30 C :    0.000035
  31 C :   -0.000001
  32 C :   -0.000020
  33 C :    0.000024
  34 C :   -0.000030
  35 C :   -0.000034
  36 C :    0.000040
  37 C :   -0.000029
  38 C :    0.000013
  39 C :    0.000012
  40 C :   -0.000021
  41 C :   -0.000004
  42 C :    0.000031
  43 C :   -0.000032
  44 C :    0.000026
  45 C :    0.000010
  46 C :   -0.000007
  47 C :   -0.000003
  48 C :    0.000014
  49 C :   -0.000024
  50 C :   -0.000011
  51 C :   -0.000003
  52 C :    0.000010
  53 C :   -0.000029
  54 C :    0.000014
  55 C :    0.000021
  56 C :    0.000021
  57 C :   -0.000022
  58 C :    0.000021
  59 C :   -0.000030
Sum of atomic charges:    0.0000000

LOEWDIN ATOMIC CHARGES
----------------------
   0 C :    0.000003
   1 C :   -0.000002
   2 C :    0.000002
   3 C :    0.000002
   4 C :   -0.000002
   5 C :   -0.000011
   6 C :    0.000009
   7 C :   -0.000001
   8 C :    0.000002
   9 C :    0.000001
  10 C :    0.000009
  11 C :   -0.000011
  12 C :    0.000001
  13 C :    0.000002
  14 C :   -0.000001
  15 C :   -0.000005
  16 C :    0.000008
  17 C :   -0.000010
  18 C :   -0.000001
  19 C :    0.000004
  20 C :    0.000000
  21 C :    0.000000
  22 C :   -0.000002
  23 C :    0.000007
  24 C :   -0.000002
  25 C :    0.000009
  26 C :   -0.000004
  27 C :    0.000004
  28 C :   -0.000001
  29 C :   -0.000010
  30 C :    0.000005
  31 C :   -0.000001
  32 C :   -0.000010
  33 C :    0.000009
  34 C :   -0.000005
  35 C :   -0.000002
  36 C :    0.000007
  37 C :   -0.000002
  38 C :    0.000000
  39 C :    0.000000
  40 C :   -0.000010
  41 C :   -0.000001
  42 C :    0.000004
  43 C :   -0.000005
  44 C :    0.000009
  45 C :    0.000001
  46 C :    0.000002
  47 C :   -0.000001
  48 C :    0.000009
  49 C :   -0.000011
  50 C :   -0.000001
  51 C :    0.000002
  52 C :    0.000000
  53 C :   -0.000011
  54 C :    0.000009
  55 C :    0.000002
  56 C :    0.000002
  57 C :   -0.000002
  58 C :    0.000003
  59 C :   -0.000002

  Mayer bond orders larger than 0.100000
B(  0-C ,  1-C ) :   1.1625 B(  0-C ,  4-C ) :   1.1625 B(  0-C , 23-C ) :   1.3754
B(  1-C ,  2-C ) :   1.1624 B(  1-C , 28-C ) :   1.3754 B(  2-C ,  3-C ) :   1.1625
B(  2-C ,  8-C ) :   1.3754 B(  3-C ,  4-C ) :   1.1624 B(  3-C , 13-C ) :   1.3754
B(  4-C , 18-C ) :   1.3754 B(  5-C ,  6-C ) :   1.1625 B(  5-C ,  9-C ) :   1.1625
B(  5-C , 33-C ) :   1.3754 B(  6-C ,  7-C ) :   1.1625 B(  6-C , 39-C ) :   1.3754
B(  7-C ,  8-C ) :   1.1625 B(  7-C , 14-C ) :   1.3754 B(  8-C ,  9-C ) :   1.1625
B(  9-C , 27-C ) :   1.3754 B( 10-C , 11-C ) :   1.1625 B( 10-C , 14-C ) :   1.1625
B( 10-C , 38-C ) :   1.3754 B( 11-C , 12-C ) :   1.1624 B( 11-C , 44-C ) :   1.3754
B( 12-C , 13-C ) :   1.1625 B( 12-C , 19-C ) :   1.3754 B( 13-C , 14-C ) :   1.1625
B( 15-C , 16-C ) :   1.1625 B( 15-C , 19-C ) :   1.1624 B( 15-C , 43-C ) :   1.3754
B( 16-C , 17-C ) :   1.1624 B( 16-C , 49-C ) :   1.3754 B( 17-C , 18-C ) :   1.1625
B( 17-C , 24-C ) :   1.3754 B( 18-C , 19-C ) :   1.1624 B( 20-C , 21-C ) :   1.1625
B( 20-C , 24-C ) :   1.1625 B( 20-C , 48-C ) :   1.3754 B( 21-C , 22-C ) :   1.1625
B( 21-C , 54-C ) :   1.3754 B( 22-C , 23-C ) :   1.1625 B( 22-C , 29-C ) :   1.3754
B( 23-C , 24-C ) :   1.1625 B( 25-C , 26-C ) :   1.1624 B( 25-C , 29-C ) :   1.1625
B( 25-C , 53-C ) :   1.3754 B( 26-C , 27-C ) :   1.1624 B( 26-C , 34-C ) :   1.3754
B( 27-C , 28-C ) :   1.1624 B( 28-C , 29-C ) :   1.1625 B( 30-C , 31-C ) :   1.1624
B( 30-C , 34-C ) :   1.1624 B( 30-C , 52-C ) :   1.3754 B( 31-C , 32-C ) :   1.1625
B( 31-C , 59-C ) :   1.3754 B( 32-C , 33-C ) :   1.1625 B( 32-C , 35-C ) :   1.3754
B( 33-C , 34-C ) :   1.1625 B( 35-C , 36-C ) :   1.1625 B( 35-C , 39-C ) :   1.1625
B( 36-C , 37-C ) :   1.1625 B( 36-C , 58-C ) :   1.3754 B( 37-C , 38-C ) :   1.1625
B( 37-C , 40-C ) :   1.3754 B( 38-C , 39-C ) :   1.1625 B( 40-C , 41-C ) :   1.1625
B( 40-C , 44-C ) :   1.1625 B( 41-C , 42-C ) :   1.1624 B( 41-C , 57-C ) :   1.3754
B( 42-C , 43-C ) :   1.1624 B( 42-C , 45-C ) :   1.3754 B( 43-C , 44-C ) :   1.1625
B( 45-C , 46-C ) :   1.1625 B( 45-C , 49-C ) :   1.1624 B( 46-C , 47-C ) :   1.1625
B( 46-C , 56-C ) :   1.3754 B( 47-C , 48-C ) :   1.1625 B( 47-C , 50-C ) :   1.3754
B( 48-C , 49-C ) :   1.1625 B( 50-C , 51-C ) :   1.1625 B( 50-C , 54-C ) :   1.1625
B( 51-C , 52-C ) :   1.1625 B( 51-C , 55-C ) :   1.3754 B( 52-C , 53-C ) :   1.1625
B( 53-C , 54-C ) :   1.1625 B( 55-C , 56-C ) :   1.1625 B( 55-C , 59-C ) :   1.1624
B( 56-C , 57-C ) :   1.1624 B( 57-C , 58-C ) :   1.1625 B( 58-C , 59-C ) :   1.1625

Dispersion correction           -0.097241271
FINAL SINGLE POINT ENERGY     -2281.227999275536

DIPOLE MOMENT
-------------
                                X             Y             Z
Electronic contribution:     -0.00000      -0.00000      -0.00000
Nuclear contribution   :     -0.00000      -0.00000       0.00000
                        -----------------------------------------
Total Dipole Moment    :     -0.00000      -0.00000      -0.00000
                        -----------------------------------------
Magnitude (a.u.)       :      0.00000
Magnitude (Debye)      :      0.00000

Rotational constants in cm-1:     0.002781     0.002781     0.002781
Rotational constants in MHz :    83.371814    83.371813    83.371813

                             ****ORCA TERMINATED NORMALLY****
TOTAL RUN TIME: 0 days 0 hours 46 minutes 42 seconds 698 msec
