                         Program Version 5.0.3 -  RELEASE  -
|  1> ! PBEh-3c def2/J TightSCF DefGrid3
|  2>
|  3> %maxcore 60000
|  4>
|  5> %pal
|  6> nprocs 4
|  7> end
|  8>
|  9> *xyzfile 0 1 teh2_hbr.xyz
| 10>
| 11>                          ****END OF INPUT****

CARTESIAN COORDINATES (ANGSTROEM)
---------------------------------
  Te     0.687015   -1.388073    0.000000
  H     -0.868391   -0.892345    0.000000
  H      0.193284   -2.947531    0.000000
  H     -0.698924    2.755080    0.000000
  Br     0.687015    2.472869    0.000000

 Total Charge           Charge          ....    0
 Multiplicity           Mult            ....    1
 Number of Electrons    NEL             ....   62
 Basis Dimension        Dim             ....   64

ORBITAL ENERGIES
----------------

  NO   OCC          E(Eh)            E(eV)
   0   2.0000    -484.542905    -13185.0828
   1   2.0000     -63.206702     -1719.9418
   2   2.0000     -56.910544     -1548.6146
   3   2.0000     -56.908963     -1548.5716
   4   2.0000     -56.908764     -1548.5662
   5   2.0000      -9.036243      -245.8887
   6   2.0000      -6.810885      -185.3336
   7   2.0000      -6.798258      -184.9900
   8   2.0000      -6.797956      -184.9818
   9   2.0000      -6.501783      -176.9225
  10   2.0000      -4.595574      -125.0519
  11   2.0000      -4.591362      -124.9373
  12   2.0000      -4.579904      -124.6255
  13   2.0000      -2.824790       -76.8665
  14   2.0000      -2.820471       -76.7489
  15   2.0000      -2.820222       -76.7421
  16   2.0000      -2.809668       -76.4550
  17   2.0000      -2.809663       -76.4548
  18   2.0000      -1.706499       -46.4362
  19   2.0000      -1.703427       -46.3526
  20   2.0000      -1.692872       -46.0654
  21   2.0000      -1.689206       -45.9656
  22   2.0000      -1.687880       -45.9296
  23   2.0000      -0.884157       -24.0591
  24   2.0000      -0.714722       -19.4486
  25   2.0000      -0.506441       -13.7810
  26   2.0000      -0.437636       -11.9087
  27   2.0000      -0.379174       -10.3178
  28   2.0000      -0.360037        -9.7971
  29   2.0000      -0.356708        -9.7065
  30   2.0000      -0.261938        -7.1277
  31   0.0000       0.013354         0.3634
  32   0.0000       0.028888         0.7861
  33   0.0000       0.071357         1.9417
  34   0.0000       0.259211         7.0535
  35   0.0000       0.301655         8.2085

MULLIKEN ATOMIC CHARGES
-----------------------
   0 Te:   -0.186105
   1 H :    0.085013
   2 H :    0.084898
   3 H :    0.254076
   4 Br:   -0.237883
Sum of atomic charges:    0.0000000

LOEWDIN ATOMIC CHARGES
----------------------
   0 Te:   -0.127025
   1 H :    0.053736
   2 H :    0.050652
   3 H :    0.167390
   4 Br:   -0.144754

  Mayer bond orders larger than 0.100000
B(  0-Te,  1-H ) :   0.9728 B(  0-Te,  2-H ) :   0.9679 B(  3-H ,  4-Br) :   0.9125

Dispersion correction           -0.001301024
FINAL SINGLE POINT ENERGY     -2842.834032338699

DIPOLE MOMENT
-------------
                                X             Y             Z
Electronic contribution:      3.99348     -87.60586       0.00000
Nuclear contribution   :     -4.56434      87.77239       0.00000
                        -----------------------------------------
Total Dipole Moment    :     -0.57086       0.16653       0.00000
                        -----------------------------------------
Magnitude (a.u.)       :      0.59465
Magnitude (Debye)      :      1.51149

Rotational constants in cm-1:     3.694408     0.022481     0.022345
Rotational constants in MHz : 110755.555644   673.949577   669.873385

                             ****ORCA TERMINATED NORMALLY****
TOTAL RUN TIME: 0 days 0 hours 1 minutes 17 seconds 783 msec
