                         Program Version 5.0.3 -  RELEASE  -
|  1> ! PBEh-3c def2/J TightSCF DefGrid3
|  2>
|  3> %maxcore 60000
|  4>
|  5> %pal
|  6> nprocs 4
|  7> end
|  8>
|  9> *xyzfile 0 1 nh2oh_ecl.xyz
| 10>
| 11>                          ****END OF INPUT****

CARTESIAN COORDINATES (ANGSTROEM)
---------------------------------
  N     -0.111159   -0.025516   -0.017305
  O     -0.588959    0.465556    1.243398
  H      0.900880   -0.049062    0.027935
  H     -0.330386    0.730217   -0.654007
  H      0.156969    0.477506    1.844648

 Total Charge           Charge          ....    0
 Multiplicity           Mult            ....    1
 Number of Electrons    NEL             ....   18
 Basis Dimension        Dim             ....   36

ORBITAL ENERGIES
----------------

  NO   OCC          E(Eh)            E(eV)
   0   2.0000     -19.505482      -530.7712
   1   2.0000     -14.663412      -399.0117
   2   2.0000      -1.157168       -31.4882
   3   2.0000      -0.890242       -24.2247
   4   2.0000      -0.604751       -16.4561
   5   2.0000      -0.538303       -14.6480
   6   2.0000      -0.431883       -11.7521
   7   2.0000      -0.409924       -11.1546
   8   2.0000      -0.277045        -7.5388
   9   0.0000       0.111802         3.0423
  10   0.0000       0.144651         3.9361
  11   0.0000       0.198054         5.3893
  12   0.0000       0.247039         6.7223
  13   0.0000       0.730624        19.8813

MULLIKEN ATOMIC CHARGES
-----------------------
   0 N :   -0.493649
   1 O :   -0.561715
   2 H :    0.310136
   3 H :    0.332408
   4 H :    0.412819
Sum of atomic charges:   -0.0000000

LOEWDIN ATOMIC CHARGES
----------------------
   0 N :   -0.335107
   1 O :   -0.383430
   2 H :    0.205585
   3 H :    0.216989
   4 H :    0.295964

  Mayer bond orders larger than 0.100000
B(  0-N ,  1-O ) :   0.9756 B(  0-N ,  2-H ) :   0.8648 B(  0-N ,  3-H ) :   0.8570
B(  1-O ,  4-H ) :   0.7974

Dispersion correction           -0.000792473
FINAL SINGLE POINT ENERGY      -131.413738308905

DIPOLE MOMENT
-------------
                                X             Y             Z
Electronic contribution:     -0.47705       0.08022       0.60166
Nuclear contribution   :      1.55258       0.38494      -0.63043
                        -----------------------------------------
Total Dipole Moment    :      1.07553       0.46516      -0.02877
                        -----------------------------------------
Magnitude (a.u.)       :      1.17216
Magnitude (Debye)      :      2.97940

Rotational constants in cm-1:     6.459560     0.884034     0.822962
Rotational constants in MHz : 193652.748656 26502.658536 24671.776975

                             ****ORCA TERMINATED NORMALLY****
TOTAL RUN TIME: 0 days 0 hours 0 minutes 52 seconds 320 msec
