                         Program Version 5.0.3 -  RELEASE  -
|  1> ! PBEh-3c def2/J TightSCF DefGrid3
|  2>
|  3> %maxcore 60000
|  4>
|  5> %pal
|  6> nprocs 4
|  7> end
|  8>
|  9> *xyzfile 0 1 20.xyz
| 10>
| 11>                          ****END OF INPUT****

CARTESIAN COORDINATES (ANGSTROEM)
---------------------------------
  N      0.074693    3.110391    0.000000
  H     -0.394255    3.483411    0.815085
  H     -0.394255    3.483411   -0.815085
  H      1.020684    3.469256    0.000000
  P     -0.238000    0.470691    0.000000
  H      0.678319    0.660107   -1.052452
  H      0.678319    0.660107    1.052452
  N      0.037607   -1.375252    0.000000
  O      0.074693   -1.935165   -1.077091
  O      0.074693   -1.935165    1.077091

 Total Charge           Charge          ....    0
 Multiplicity           Mult            ....    1
 Number of Electrons    NEL             ....   50
 Basis Dimension        Dim             ....   88

ORBITAL ENERGIES
----------------

  NO   OCC          E(Eh)            E(eV)
   0   2.0000     -77.773040     -2116.3120
   1   2.0000     -19.505532      -530.7725
   2   2.0000     -19.505417      -530.7694
   3   2.0000     -14.844679      -403.9442
   4   2.0000     -14.658905      -398.8891
   5   2.0000      -6.846694      -186.3080
   6   2.0000      -4.937896      -134.3670
   7   2.0000      -4.936142      -134.3193
   8   2.0000      -4.934525      -134.2752
   9   2.0000      -1.325223       -36.0612
  10   2.0000      -1.144237       -31.1363
  11   2.0000      -0.992321       -27.0024
  12   2.0000      -0.801525       -21.8106
  13   2.0000      -0.657910       -17.9026
  14   2.0000      -0.580644       -15.8001
  15   2.0000      -0.568928       -15.4813
  16   2.0000      -0.568507       -15.4699
  17   2.0000      -0.566641       -15.4191
  18   2.0000      -0.557591       -15.1728
  19   2.0000      -0.459249       -12.4968
  20   2.0000      -0.382474       -10.4076
  21   2.0000      -0.351396        -9.5620
  22   2.0000      -0.341748        -9.2994
  23   2.0000      -0.336703        -9.1621
  24   2.0000      -0.301204        -8.1962
  25   0.0000      -0.009322        -0.2537
  26   0.0000       0.046701         1.2708
  27   0.0000       0.067797         1.8448
  28   0.0000       0.103353         2.8124
  29   0.0000       0.166244         4.5237

MULLIKEN ATOMIC CHARGES
-----------------------
   0 N :   -0.955989
   1 H :    0.351751
   2 H :    0.351751
   3 H :    0.347995
   4 P :    0.146362
   5 H :    0.105045
   6 H :    0.105045
   7 N :    0.273691
   8 O :   -0.362825
   9 O :   -0.362825
Sum of atomic charges:    0.0000000

LOEWDIN ATOMIC CHARGES
----------------------
   0 N :   -0.598645
   1 H :    0.237032
   2 H :    0.237032
   3 H :    0.234322
   4 P :    0.170173
   5 H :    0.042628
   6 H :    0.042628
   7 N :    0.114351
   8 O :   -0.239761
   9 O :   -0.239761

  Mayer bond orders larger than 0.100000
B(  0-N ,  1-H ) :   0.8571 B(  0-N ,  2-H ) :   0.8571 B(  0-N ,  3-H ) :   0.8581
B(  0-N ,  4-P ) :   0.1489 B(  4-P ,  5-H ) :   0.9455 B(  4-P ,  6-H ) :   0.9455
B(  4-P ,  7-N ) :   0.6767 B(  7-N ,  8-O ) :   1.6509 B(  7-N ,  9-O ) :   1.6509
B(  8-O ,  9-O ) :   0.2643

Dispersion correction           -0.003588928
FINAL SINGLE POINT ENERGY      -603.249759347489

DIPOLE MOMENT
-------------
                                X             Y             Z
Electronic contribution:     -1.50315      -8.00674      -0.00000
Nuclear contribution   :      1.77830      11.00839       0.00000
                        -----------------------------------------
Total Dipole Moment    :      0.27515       3.00165      -0.00000
                        -----------------------------------------
Magnitude (a.u.)       :      3.01423
Magnitude (Debye)      :      7.66157

Rotational constants in cm-1:     0.375195     0.051216     0.046108
Rotational constants in MHz : 11248.056548  1535.404084  1382.296641

                             ****ORCA TERMINATED NORMALLY****
TOTAL RUN TIME: 0 days 0 hours 1 minutes 8 seconds 665 msec
