                         Program Version 5.0.3 -  RELEASE  -
|  1> ! PBEh-3c def2/J TightSCF DefGrid3
|  2>
|  3> %maxcore 60000
|  4>
|  5> %pal
|  6> nprocs 4
|  7> end
|  8>
|  9> *xyzfile 2 1 n2h2_2+.xyz
| 10>
| 11>                          ****END OF INPUT****

CARTESIAN COORDINATES (ANGSTROEM)
---------------------------------
  N      0.000000    0.000000   -0.540458
  N      0.000000    0.000000    0.540458
  H      0.000000    0.000000    1.647568
  H      0.000000    0.000000   -1.647568

 Total Charge           Charge          ....    2
 Multiplicity           Mult            ....    1
 Number of Electrons    NEL             ....   14
 Basis Dimension        Dim             ....   34

ORBITAL ENERGIES
----------------

  NO   OCC          E(Eh)            E(eV)
   0   2.0000     -15.513443      -422.1422
   1   2.0000     -15.511305      -422.0841
   2   2.0000      -1.968054       -53.5535
   3   2.0000      -1.480120       -40.2761
   4   2.0000      -1.389352       -37.8062
   5   2.0000      -1.232854       -33.5477
   6   2.0000      -1.232854       -33.5477
   7   0.0000      -0.683802       -18.6072
   8   0.0000      -0.683802       -18.6072
   9   0.0000      -0.521571       -14.1927
  10   0.0000      -0.449490       -12.2312
  11   0.0000      -0.060086        -1.6350

MULLIKEN ATOMIC CHARGES
-----------------------
   0 N :    0.325612
   1 N :    0.325612
   2 H :    0.674388
   3 H :    0.674388
Sum of atomic charges:    2.0000000

LOEWDIN ATOMIC CHARGES
----------------------
   0 N :    0.488749
   1 N :    0.488749
   2 H :    0.511251
   3 H :    0.511251

  Mayer bond orders larger than 0.100000
B(  0-N ,  1-N ) :   2.7002 B(  0-N ,  3-H ) :   0.5366 B(  1-N ,  2-H ) :   0.5366

Dispersion correction           -0.000639571
FINAL SINGLE POINT ENERGY      -109.376240531596

DIPOLE MOMENT
-------------
                                X             Y             Z
Electronic contribution:     -0.00000      -0.00000      -0.00000
Nuclear contribution   :      0.00000       0.00000       0.00000
                        -----------------------------------------
Total Dipole Moment    :     -0.00000      -0.00000      -0.00000
                        -----------------------------------------
Magnitude (a.u.)       :      0.00000
Magnitude (Debye)      :      0.00000

Rotational constants in cm-1:     0.000000     1.234527     1.234527
Rotational constants in MHz :     0.000000 37010.186399 37010.186399

                             ****ORCA TERMINATED NORMALLY****
TOTAL RUN TIME: 0 days 0 hours 0 minutes 33 seconds 741 msec
