                         Program Version 5.0.3 -  RELEASE  -
|  1> ! PBEh-3c def2/J TightSCF DefGrid3
|  2>
|  3> %maxcore 60000
|  4>
|  5> %pal
|  6> nprocs 4
|  7> end
|  8>
|  9> *xyzfile 0 1 bih3_h2o.xyz
| 10>
| 11>                          ****END OF INPUT****

CARTESIAN COORDINATES (ANGSTROEM)
---------------------------------
  Bi     1.432031   -0.386375   -0.365326
  H      3.004885    0.321797    0.047628
  H      0.758282    1.237196   -0.511393
  H      1.012139   -0.406558    1.346586
  O     -1.804383   -0.390043   -0.427723
  H     -1.910038    0.508826   -0.109843
  H     -2.492916   -0.884842    0.020070

 Total Charge           Charge          ....    0
 Multiplicity           Mult            ....    1
 Number of Electrons    NEL             ....   36
 Basis Dimension        Dim             ....   51

ORBITAL ENERGIES
----------------

  NO   OCC          E(Eh)            E(eV)
   0   2.0000     -19.494312      -530.4672
   1   2.0000      -6.154795      -167.4805
   2   2.0000      -3.845591      -104.6438
   3   2.0000      -3.845242      -104.6344
   4   2.0000      -3.841241      -104.5255
   5   2.0000      -1.126463       -30.6526
   6   2.0000      -1.125944       -30.6385
   7   2.0000      -1.121584       -30.5198
   8   2.0000      -1.119413       -30.4608
   9   2.0000      -1.119393       -30.4602
  10   2.0000      -1.115744       -30.3609
  11   2.0000      -0.667730       -18.1699
  12   2.0000      -0.600010       -16.3271
  13   2.0000      -0.457356       -12.4453
  14   2.0000      -0.381010       -10.3678
  15   2.0000      -0.356855        -9.7105
  16   2.0000      -0.345767        -9.4088
  17   2.0000      -0.295236        -8.0338
  18   0.0000       0.040789         1.1099
  19   0.0000       0.054253         1.4763
  20   0.0000       0.096292         2.6202
  21   0.0000       0.138203         3.7607
  22   0.0000       0.198145         5.3918

MULLIKEN ATOMIC CHARGES
-----------------------
   0 Bi:    0.040924
   1 H :   -0.030220
   2 H :   -0.030353
   3 H :   -0.018766
   4 O :   -0.803491
   5 H :    0.421966
   6 H :    0.419939
Sum of atomic charges:    0.0000000

LOEWDIN ATOMIC CHARGES
----------------------
   0 Bi:    0.014368
   1 H :   -0.025139
   2 H :   -0.017005
   3 H :   -0.011452
   4 O :   -0.572721
   5 H :    0.306671
   6 H :    0.305277

  Mayer bond orders larger than 0.100000
B(  0-Bi,  1-H ) :   0.9750 B(  0-Bi,  2-H ) :   0.9798 B(  0-Bi,  3-H ) :   0.9817
B(  4-O ,  5-H ) :   0.8007 B(  4-O ,  6-H ) :   0.8044

Dispersion correction           -0.001638474
FINAL SINGLE POINT ENERGY      -292.660531636082

DIPOLE MOMENT
-------------
                                X             Y             Z
Electronic contribution:     43.50156      -4.29095      -3.21176
Nuclear contribution   :    -44.41680       4.27243       3.52144
                        -----------------------------------------
Total Dipole Moment    :     -0.91524      -0.01852       0.30967
                        -----------------------------------------
Magnitude (a.u.)       :      0.96638
Magnitude (Debye)      :      2.45635

Rotational constants in cm-1:     2.219697     0.090649     0.090265
Rotational constants in MHz : 66544.854868  2717.574053  2706.065588

                             ****ORCA TERMINATED NORMALLY****
TOTAL RUN TIME: 0 days 0 hours 1 minutes 29 seconds 276 msec
