                         Program Version 5.0.3 -  RELEASE  -
|  1> ! PBEh-3c def2/J TightSCF DefGrid3
|  2>
|  3> %maxcore 60000
|  4>
|  5> %pal
|  6> nprocs 4
|  7> end
|  8>
|  9> *xyzfile 0 1 12.xyz
| 10>
| 11>                          ****END OF INPUT****

CARTESIAN COORDINATES (ANGSTROEM)
---------------------------------
  N     -0.891726    2.667318    0.731147
  C     -1.899899    2.188825   -0.075701
  C     -1.414146    1.196924   -0.896628
  C     -0.024260    1.054495   -0.572357
  C      1.004898    0.222765   -1.055557
  C      2.268456    0.338814   -0.503497
  C      2.541445    1.267420    0.526461
  C      1.547590    2.100698    1.016086
  C      0.268014    1.983491    0.459174
  H     -1.004637    3.365084    1.443427
  H     -2.901921    2.575563    0.013854
  H      0.843336   -0.485832   -1.857998
  H      3.550268    1.337045    0.910433
  H      1.762597    2.819898    1.795986
  O      3.295504   -0.441064   -1.008765
  C      3.681415   -1.485115   -0.120510
  H      2.846944   -2.167496    0.061517
  H      4.028950   -1.088714    0.835874
  H      4.492732   -2.023498   -0.603648
  C     -2.208470    0.317491   -1.811613
  C     -2.823690   -0.874281   -1.053439
  N     -1.842435   -1.603921   -0.269575
  C     -1.637919   -1.322141    1.057214
  C     -0.369312   -1.908545    1.641444
  H     -1.566826   -0.052988   -2.615410
  H     -3.016299    0.877473   -2.288492
  H     -3.308615   -1.557263   -1.753273
  H     -3.569760   -0.517365   -0.347013
  H     -1.077500   -2.034647   -0.760205
  O     -2.411562   -0.650618    1.723306
  H      0.411317   -1.147739    1.592773
  H     -0.029072   -2.791419    1.101472
  H     -0.545419   -2.160663    2.683505

 Total Charge           Charge          ....    0
 Multiplicity           Mult            ....    1
 Number of Electrons    NEL             ....  124
 Basis Dimension        Dim             ....  287

ORBITAL ENERGIES
----------------

  NO   OCC          E(Eh)            E(eV)
   0   2.0000     -19.506704      -530.8044
   1   2.0000     -19.443141      -529.0748
   2   2.0000     -14.683105      -399.5476
   3   2.0000     -14.650013      -398.6471
   4   2.0000     -10.536818      -286.7214
   5   2.0000     -10.494391      -285.5669
   6   2.0000     -10.483465      -285.2696
   7   2.0000     -10.478382      -285.1313
   8   2.0000     -10.475581      -285.0551
   9   2.0000     -10.468510      -284.8626
  10   2.0000     -10.453680      -284.4591
  11   2.0000     -10.445616      -284.2397
  12   2.0000     -10.445389      -284.2335
  13   2.0000     -10.444209      -284.2014
  14   2.0000     -10.443529      -284.1829
  15   2.0000     -10.437638      -284.0226
  16   2.0000     -10.430296      -283.8228
  17   2.0000      -1.154646       -31.4195
  18   2.0000      -1.128360       -30.7042
  19   2.0000      -1.085972       -29.5508
  20   2.0000      -1.012816       -27.5601
  21   2.0000      -0.937340       -25.5063
  22   2.0000      -0.896317       -24.3900
  23   2.0000      -0.848331       -23.0843
  24   2.0000      -0.830215       -22.5913
  25   2.0000      -0.814575       -22.1657
  26   2.0000      -0.793076       -21.5807
  27   2.0000      -0.767340       -20.8804
  28   2.0000      -0.720624       -19.6092
  29   2.0000      -0.698497       -19.0071
  30   2.0000      -0.665108       -18.0985
  31   2.0000      -0.643550       -17.5119
  32   2.0000      -0.629901       -17.1405
  33   2.0000      -0.611533       -16.6406
  34   2.0000      -0.569896       -15.5077
  35   2.0000      -0.556507       -15.1433
  36   2.0000      -0.552734       -15.0407
  37   2.0000      -0.531500       -14.4629
  38   2.0000      -0.522683       -14.2229
  39   2.0000      -0.518430       -14.1072
  40   2.0000      -0.514829       -14.0092
  41   2.0000      -0.499973       -13.6050
  42   2.0000      -0.492496       -13.4015
  43   2.0000      -0.484878       -13.1942
  44   2.0000      -0.478602       -13.0234
  45   2.0000      -0.469875       -12.7859
  46   2.0000      -0.460191       -12.5224
  47   2.0000      -0.454041       -12.3551
  48   2.0000      -0.447360       -12.1733
  49   2.0000      -0.444140       -12.0857
  50   2.0000      -0.430460       -11.7134
  51   2.0000      -0.408206       -11.1079
  52   2.0000      -0.399642       -10.8748
  53   2.0000      -0.398127       -10.8336
  54   2.0000      -0.391622       -10.6566
  55   2.0000      -0.374103       -10.1799
  56   2.0000      -0.328908        -8.9501
  57   2.0000      -0.321053        -8.7363
  58   2.0000      -0.299843        -8.1591
  59   2.0000      -0.292151        -7.9498
  60   2.0000      -0.253092        -6.8870
  61   2.0000      -0.237175        -6.4539
  62   0.0000       0.004648         0.1265
  63   0.0000       0.049839         1.3562
  64   0.0000       0.072708         1.9785
  65   0.0000       0.089524         2.4361
  66   0.0000       0.118411         3.2221

MULLIKEN ATOMIC CHARGES
-----------------------
   0 N :   -0.696633
   1 C :   -0.018200
   2 C :    0.017174
   3 C :    0.060825
   4 C :   -0.441524
   5 C :    0.359631
   6 C :   -0.319022
   7 C :   -0.262395
   8 C :    0.369106
   9 H :    0.360602
  10 H :    0.239731
  11 H :    0.207159
  12 H :    0.227199
  13 H :    0.216439
  14 O :   -0.484885
  15 C :   -0.376851
  16 H :    0.194672
  17 H :    0.199135
  18 H :    0.221951
  19 C :   -0.536619
  20 C :   -0.278443
  21 N :   -0.617694
  22 C :    0.533095
  23 C :   -0.762099
  24 H :    0.220256
  25 H :    0.233467
  26 H :    0.221863
  27 H :    0.257950
  28 H :    0.347649
  29 O :   -0.426802
  30 H :    0.268754
  31 H :    0.207380
  32 H :    0.257130
Sum of atomic charges:    0.0000000

LOEWDIN ATOMIC CHARGES
----------------------
   0 N :   -0.148329
   1 C :   -0.060445
   2 C :   -0.108063
   3 C :   -0.055874
   4 C :   -0.163433
   5 C :    0.039591
   6 C :   -0.166864
   7 C :   -0.150110
   8 C :    0.011837
   9 H :    0.263366
  10 H :    0.137126
  11 H :    0.138094
  12 H :    0.141479
  13 H :    0.137883
  14 O :   -0.219950
  15 C :   -0.172909
  16 H :    0.106217
  17 H :    0.108150
  18 H :    0.124613
  19 C :   -0.235449
  20 C :   -0.146171
  21 N :   -0.245968
  22 C :    0.112890
  23 C :   -0.392899
  24 H :    0.128260
  25 H :    0.137972
  26 H :    0.119879
  27 H :    0.148256
  28 H :    0.247829
  29 O :   -0.276937
  30 H :    0.161599
  31 H :    0.126239
  32 H :    0.152118

  Mayer bond orders larger than 0.100000
B(  0-N ,  1-C ) :   1.1418 B(  0-N ,  8-C ) :   1.0174 B(  0-N ,  9-H ) :   0.8329
B(  1-C ,  2-C ) :   1.5525 B(  1-C , 10-H ) :   0.9121 B(  2-C ,  3-C ) :   1.2620
B(  2-C , 19-C ) :   0.9537 B(  3-C ,  4-C ) :   1.2393 B(  3-C ,  8-C ) :   1.2373
B(  4-C ,  5-C ) :   1.4890 B(  4-C , 11-H ) :   0.9300 B(  5-C ,  6-C ) :   1.3119
B(  5-C , 14-O ) :   0.9490 B(  6-C ,  7-C ) :   1.4842 B(  6-C , 12-H ) :   0.9122
B(  7-C ,  8-C ) :   1.2899 B(  7-C , 13-H ) :   0.9201 B( 14-O , 15-C ) :   0.9560
B( 15-C , 16-H ) :   0.9127 B( 15-C , 17-H ) :   0.9110 B( 15-C , 18-H ) :   0.9276
B( 19-C , 20-C ) :   0.9602 B( 19-C , 24-H ) :   0.9223 B( 19-C , 25-H ) :   0.9208
B( 20-C , 21-N ) :   0.9571 B( 20-C , 26-H ) :   0.9173 B( 20-C , 27-H ) :   0.8938
B( 21-N , 22-C ) :   1.1199 B( 21-N , 28-H ) :   0.8276 B( 22-C , 23-C ) :   0.9311
B( 22-C , 29-O ) :   2.0009 B( 23-C , 30-H ) :   0.8967 B( 23-C , 31-H ) :   0.9221
B( 23-C , 32-H ) :   0.9156

Dispersion correction           -0.023550747
FINAL SINGLE POINT ENERGY      -763.325350625366

DIPOLE MOMENT
-------------
                                X             Y             Z
Electronic contribution:     -1.46848       8.20432      -0.09446
Nuclear contribution   :      1.63583      -8.20823       0.12014
                        -----------------------------------------
Total Dipole Moment    :      0.16735      -0.00391       0.02568
                        -----------------------------------------
Magnitude (a.u.)       :      0.16936
Magnitude (Debye)      :      0.43047

Rotational constants in cm-1:     0.022168     0.013069     0.010964
Rotational constants in MHz :   664.587710   391.788434   328.700636

                             ****ORCA TERMINATED NORMALLY****
TOTAL RUN TIME: 0 days 0 hours 4 minutes 55 seconds 114 msec
