                         Program Version 5.0.3 -  RELEASE  -
|  1> ! PBEh-3c def2/J TightSCF DefGrid3
|  2>
|  3> %maxcore 60000
|  4>
|  5> %pal
|  6> nprocs 4
|  7> end
|  8>
|  9> *xyzfile 0 1 24B.xyz
| 10>
| 11>                          ****END OF INPUT****

CARTESIAN COORDINATES (ANGSTROEM)
---------------------------------
  C      1.207010   -0.696867    0.000000
  H      2.143825   -1.237738    0.000000
  C      0.000000   -1.393735    0.000000
  H      0.000000   -2.475475    0.000000
  C     -1.207010   -0.696867    0.000000
  H     -2.143825   -1.237738    0.000000
  C     -1.207010    0.696867    0.000000
  H     -2.143825    1.237738    0.000000
  C      0.000000    1.393735    0.000000
  H      0.000000    2.475475    0.000000
  C      1.207010    0.696867    0.000000
  H      2.143825    1.237738    0.000000

 Total Charge           Charge          ....    0
 Multiplicity           Mult            ....    1
 Number of Electrons    NEL             ....   42
 Basis Dimension        Dim             ....  102

ORBITAL ENERGIES
----------------

  NO   OCC          E(Eh)            E(eV)
   0   2.0000     -10.448742      -284.3247
   1   2.0000     -10.448523      -284.3188
   2   2.0000     -10.448520      -284.3187
   3   2.0000     -10.447908      -284.3020
   4   2.0000     -10.447906      -284.3020
   5   2.0000     -10.447678      -284.2958
   6   2.0000      -0.952165       -25.9097
   7   2.0000      -0.835492       -22.7349
   8   2.0000      -0.835492       -22.7349
   9   2.0000      -0.678972       -18.4758
  10   2.0000      -0.678971       -18.4757
  11   2.0000      -0.591989       -16.1088
  12   2.0000      -0.525836       -14.3087
  13   2.0000      -0.508498       -13.8369
  14   2.0000      -0.481760       -13.1094
  15   2.0000      -0.481758       -13.1093
  16   2.0000      -0.420919       -11.4538
  17   2.0000      -0.398289       -10.8380
  18   2.0000      -0.398288       -10.8380
  19   2.0000      -0.292496        -7.9592
  20   2.0000      -0.292493        -7.9591
  21   0.0000       0.019206         0.5226
  22   0.0000       0.019207         0.5226
  23   0.0000       0.140681         3.8281
  24   0.0000       0.196302         5.3417
  25   0.0000       0.201714         5.4889

MULLIKEN ATOMIC CHARGES
-----------------------
   0 C :   -0.219833
   1 H :    0.219833
   2 C :   -0.219846
   3 H :    0.219845
   4 C :   -0.219832
   5 H :    0.219833
   6 C :   -0.219832
   7 H :    0.219833
   8 C :   -0.219846
   9 H :    0.219845
  10 C :   -0.219832
  11 H :    0.219833
Sum of atomic charges:    0.0000000

LOEWDIN ATOMIC CHARGES
----------------------
   0 C :   -0.135682
   1 H :    0.135684
   2 C :   -0.135688
   3 H :    0.135683
   4 C :   -0.135682
   5 H :    0.135684
   6 C :   -0.135682
   7 H :    0.135684
   8 C :   -0.135688
   9 H :    0.135683
  10 C :   -0.135682
  11 H :    0.135684

  Mayer bond orders larger than 0.100000
B(  0-C ,  1-H ) :   0.9200 B(  0-C ,  2-C ) :   1.4265 B(  0-C , 10-C ) :   1.4265
B(  2-C ,  3-H ) :   0.9200 B(  2-C ,  4-C ) :   1.4265 B(  4-C ,  5-H ) :   0.9200
B(  4-C ,  6-C ) :   1.4265 B(  6-C ,  7-H ) :   0.9200 B(  6-C ,  8-C ) :   1.4265
B(  8-C ,  9-H ) :   0.9200 B(  8-C , 10-C ) :   1.4265 B( 10-C , 11-H ) :   0.9200

Dispersion correction           -0.005880622
FINAL SINGLE POINT ENERGY      -231.725808594819

DIPOLE MOMENT
-------------
                                X             Y             Z
Electronic contribution:     -0.00000      -0.00000       0.00000
Nuclear contribution   :      0.00000       0.00000       0.00000
                        -----------------------------------------
Total Dipole Moment    :     -0.00000      -0.00000       0.00000
                        -----------------------------------------
Magnitude (a.u.)       :      0.00000
Magnitude (Debye)      :      0.00000

Rotational constants in cm-1:     0.190428     0.190428     0.095214
Rotational constants in MHz :  5708.891486  5708.891283  2854.445692

                             ****ORCA TERMINATED NORMALLY****
TOTAL RUN TIME: 0 days 0 hours 1 minutes 11 seconds 705 msec
