                         Program Version 5.0.3 -  RELEASE  -
|  1> ! PBEh-3c def2/J TightSCF DefGrid3
|  2>
|  3> %maxcore 60000
|  4>
|  5> %pal
|  6> nprocs 4
|  7> end
|  8>
|  9> *xyzfile 0 1 14A.xyz
| 10>
| 11>                          ****END OF INPUT****

CARTESIAN COORDINATES (ANGSTROEM)
---------------------------------
  C      0.347419   -0.191974    1.851575
  H      1.350737    0.220393    1.774671
  H      0.403512   -1.215746    2.215772
  H     -0.225915    0.382163    2.574871
  C     -0.394510   -0.185282    0.533513
  O     -1.574843   -0.512240    0.450785
  N      0.334039    0.201706   -0.538223
  H      1.320104    0.417054   -0.435887
  C     -0.271806    0.215264   -1.850130
  H     -1.188935    0.800237   -1.838522
  H      0.427188    0.658607   -2.554178
  H     -0.526990   -0.790183   -2.184247

 Total Charge           Charge          ....    0
 Multiplicity           Mult            ....    1
 Number of Electrons    NEL             ....   40
 Basis Dimension        Dim             ....   89

ORBITAL ENERGIES
----------------

  NO   OCC          E(Eh)            E(eV)
   0   2.0000     -19.446233      -529.1589
   1   2.0000     -14.662665      -398.9914
   2   2.0000     -10.540513      -286.8219
   3   2.0000     -10.465648      -284.7848
   4   2.0000     -10.438657      -284.0503
   5   2.0000      -1.132420       -30.8147
   6   2.0000      -1.018130       -27.7047
   7   2.0000      -0.839301       -22.8385
   8   2.0000      -0.768035       -20.8993
   9   2.0000      -0.656367       -17.8606
  10   2.0000      -0.568366       -15.4660
  11   2.0000      -0.528009       -14.3679
  12   2.0000      -0.520787       -14.1713
  13   2.0000      -0.478599       -13.0233
  14   2.0000      -0.463304       -12.6071
  15   2.0000      -0.450804       -12.2670
  16   2.0000      -0.444384       -12.0923
  17   2.0000      -0.399489       -10.8707
  18   2.0000      -0.301802        -8.2124
  19   2.0000      -0.298845        -8.1320
  20   0.0000       0.069021         1.8781
  21   0.0000       0.112520         3.0618
  22   0.0000       0.175363         4.7719
  23   0.0000       0.179357         4.8806
  24   0.0000       0.204577         5.5668

MULLIKEN ATOMIC CHARGES
-----------------------
   0 C :   -0.747351
   1 H :    0.204073
   2 H :    0.255482
   3 H :    0.259547
   4 C :    0.523023
   5 O :   -0.432759
   6 N :   -0.622693
   7 H :    0.355754
   8 C :   -0.485370
   9 H :    0.246187
  10 H :    0.209603
  11 H :    0.234507
Sum of atomic charges:    0.0000000

LOEWDIN ATOMIC CHARGES
----------------------
   0 C :   -0.390487
   1 H :    0.123022
   2 H :    0.155285
   3 H :    0.156464
   4 C :    0.101578
   5 O :   -0.284452
   6 N :   -0.249979
   7 H :    0.254072
   8 C :   -0.254481
   9 H :    0.137559
  10 H :    0.122796
  11 H :    0.128624

  Mayer bond orders larger than 0.100000
B(  0-C ,  1-H ) :   0.9239 B(  0-C ,  2-H ) :   0.9105 B(  0-C ,  3-H ) :   0.9115
B(  0-C ,  4-C ) :   0.9289 B(  4-C ,  5-O ) :   1.9869 B(  4-C ,  6-N ) :   1.1409
B(  6-N ,  7-H ) :   0.8285 B(  6-N ,  8-C ) :   0.9519 B(  8-C ,  9-H ) :   0.9111
B(  8-C , 10-H ) :   0.9283 B(  8-C , 11-H ) :   0.9144

Dispersion correction           -0.004448318
FINAL SINGLE POINT ENERGY      -247.989086589739

DIPOLE MOMENT
-------------
                                X             Y             Z
Electronic contribution:     -2.04026      -0.62867       0.63438
Nuclear contribution   :      3.49438       1.05324      -0.92512
                        -----------------------------------------
Total Dipole Moment    :      1.45412       0.42456      -0.29074
                        -----------------------------------------
Magnitude (a.u.)       :      1.54248
Magnitude (Debye)      :      3.92067

Rotational constants in cm-1:     0.334677     0.131410     0.097768
Rotational constants in MHz : 10033.362104  3939.584756  2931.023605

                             ****ORCA TERMINATED NORMALLY****
TOTAL RUN TIME: 0 days 0 hours 1 minutes 31 seconds 32 msec
