                         Program Version 5.0.3 -  RELEASE  -
|  1> ! PBEh-3c def2/J TightSCF DefGrid3
|  2>
|  3> %maxcore 60000
|  4>
|  5> %pal
|  6> nprocs 4
|  7> end
|  8>
|  9> *xyzfile 0 1 13r_7.xyz
| 10>
| 11>                          ****END OF INPUT****

CARTESIAN COORDINATES (ANGSTROEM)
---------------------------------
  C     -0.624216    0.285940    0.000000
  H     -0.680921    1.363543    0.000000
  H     -1.489692   -0.358474    0.000000
  N      0.555738   -0.269246    0.000000
  H      0.553690   -1.301767    0.000000
  O      1.685402    0.280004    0.000000

 Total Charge           Charge          ....    0
 Multiplicity           Mult            ....    1
 Number of Electrons    NEL             ....   24
 Basis Dimension        Dim             ....   51

ORBITAL ENERGIES
----------------

  NO   OCC          E(Eh)            E(eV)
   0   2.0000     -19.468534      -529.7657
   1   2.0000     -14.791696      -402.5025
   2   2.0000     -10.485421      -285.3228
   3   2.0000      -1.222774       -33.2734
   4   2.0000      -0.956944       -26.0398
   5   2.0000      -0.740968       -20.1628
   6   2.0000      -0.618875       -16.8404
   7   2.0000      -0.545977       -14.8568
   8   2.0000      -0.513312       -13.9679
   9   2.0000      -0.479654       -13.0521
  10   2.0000      -0.312142        -8.4938
  11   2.0000      -0.272795        -7.4231
  12   0.0000       0.001110         0.0302
  13   0.0000       0.108323         2.9476
  14   0.0000       0.174868         4.7584
  15   0.0000       0.204486         5.5643
  16   0.0000       0.267947         7.2912

MULLIKEN ATOMIC CHARGES
-----------------------
   0 C :   -0.360761
   1 H :    0.256150
   2 H :    0.225602
   3 N :   -0.017937
   4 H :    0.355324
   5 O :   -0.458377
Sum of atomic charges:   -0.0000000

LOEWDIN ATOMIC CHARGES
----------------------
   0 C :   -0.269122
   1 H :    0.149844
   2 H :    0.135195
   3 N :    0.103222
   4 H :    0.238732
   5 O :   -0.357870

  Mayer bond orders larger than 0.100000
B(  0-C ,  1-H ) :   0.9099 B(  0-C ,  2-H ) :   0.9102 B(  0-C ,  3-N ) :   1.5622
B(  0-C ,  5-O ) :   0.3366 B(  3-N ,  4-H ) :   0.7906 B(  3-N ,  5-O ) :   1.4642

Dispersion correction           -0.001420184
FINAL SINGLE POINT ENERGY      -169.422312610751

DIPOLE MOMENT
-------------
                                X             Y             Z
Electronic contribution:      1.87235      -0.20391       0.00000
Nuclear contribution   :     -3.10157      -0.51762       0.00000
                        -----------------------------------------
Total Dipole Moment    :     -1.22922      -0.72153       0.00000
                        -----------------------------------------
Magnitude (a.u.)       :      1.42533
Magnitude (Debye)      :      3.62291

Rotational constants in cm-1:     2.540488     0.393036     0.340377
Rotational constants in MHz : 76161.907165 11782.919601 10204.234425

                             ****ORCA TERMINATED NORMALLY****
TOTAL RUN TIME: 0 days 0 hours 1 minutes 5 seconds 589 msec
