                         Program Version 5.0.3 -  RELEASE  -
|  1> ! PBEh-3c def2/J TightSCF DefGrid3
|  2>
|  3> %maxcore 60000
|  4>
|  5> %pal
|  6> nprocs 4
|  7> end
|  8>
|  9> *xyzfile 0 1 LEU_xbb.xyz
| 10>
| 11>                          ****END OF INPUT****

CARTESIAN COORDINATES (ANGSTROEM)
---------------------------------
  N     -0.155101    0.876163    0.556916
  C      0.073179   -0.382192   -0.142440
  C     -1.109927   -1.328694    0.117223
  O     -1.017823   -2.320335    0.832081
  C      1.395142   -1.004055    0.278934
  C      2.616897   -0.489723   -0.480592
  C      2.807049    1.019643   -0.373552
  C      3.863981   -1.213716    0.013966
  H      0.248575    0.986833    1.471511
  H      0.087304   -0.140727   -1.208182
  H      1.310157   -2.081763    0.143661
  H      1.536235   -0.858853    1.355437
  H      2.472169   -0.738268   -1.536568
  H      2.902253    1.320304    0.672268
  H      3.718575    1.323700   -0.888239
  H      1.976228    1.571147   -0.809930
  H      4.049243   -0.973784    1.062515
  H      4.743547   -0.916971   -0.556511
  H      3.753330   -2.294637   -0.066991
  N     -2.240863   -0.938672   -0.513989
  H     -2.214474   -0.044235   -0.988963
  C     -3.498469   -1.621629   -0.305830
  H     -4.120762   -1.110994    0.429430
  H     -4.044735   -1.689691   -1.243180
  H     -3.280775   -2.620422    0.059296
  C     -0.874605    1.891179    0.024382
  O     -1.439762    1.795845   -1.066313
  C     -0.912549    3.161671    0.834092
  H     -0.299968    3.907785    0.331121
  H     -0.546866    3.031440    1.849635
  H     -1.933792    3.530971    0.857861

 Total Charge           Charge          ....    0
 Multiplicity           Mult            ....    1
 Number of Electrons    NEL             ....  102
 Basis Dimension        Dim             ....  231

ORBITAL ENERGIES
----------------

  NO   OCC          E(Eh)            E(eV)
   0   2.0000     -19.471540      -529.8476
   1   2.0000     -19.451003      -529.2887
   2   2.0000     -14.678359      -399.4185
   3   2.0000     -14.646531      -398.5524
   4   2.0000     -10.563202      -287.4394
   5   2.0000     -10.536353      -286.7087
   6   2.0000     -10.489969      -285.4466
   7   2.0000     -10.456587      -284.5382
   8   2.0000     -10.453242      -284.4472
   9   2.0000     -10.446957      -284.2761
  10   2.0000     -10.438980      -284.0591
  11   2.0000     -10.427061      -283.7347
  12   2.0000     -10.424752      -283.6719
  13   2.0000      -1.157379       -31.4939
  14   2.0000      -1.133217       -30.8364
  15   2.0000      -1.040216       -28.3057
  16   2.0000      -1.009331       -27.4653
  17   2.0000      -0.913863       -24.8675
  18   2.0000      -0.864329       -23.5196
  19   2.0000      -0.820035       -22.3143
  20   2.0000      -0.787589       -21.4314
  21   2.0000      -0.769472       -20.9384
  22   2.0000      -0.720754       -19.6127
  23   2.0000      -0.678759       -18.4700
  24   2.0000      -0.641431       -17.4542
  25   2.0000      -0.637558       -17.3488
  26   2.0000      -0.597297       -16.2533
  27   2.0000      -0.569252       -15.4901
  28   2.0000      -0.557966       -15.1830
  29   2.0000      -0.529305       -14.4031
  30   2.0000      -0.516287       -14.0489
  31   2.0000      -0.513994       -13.9865
  32   2.0000      -0.501863       -13.6564
  33   2.0000      -0.494968       -13.4688
  34   2.0000      -0.483282       -13.1508
  35   2.0000      -0.475512       -12.9393
  36   2.0000      -0.472675       -12.8621
  37   2.0000      -0.457387       -12.4461
  38   2.0000      -0.443326       -12.0635
  39   2.0000      -0.439313       -11.9543
  40   2.0000      -0.434562       -11.8250
  41   2.0000      -0.424070       -11.5395
  42   2.0000      -0.418420       -11.3858
  43   2.0000      -0.414723       -11.2852
  44   2.0000      -0.383389       -10.4325
  45   2.0000      -0.378162       -10.2903
  46   2.0000      -0.375943       -10.2299
  47   2.0000      -0.335869        -9.1395
  48   2.0000      -0.323672        -8.8076
  49   2.0000      -0.292713        -7.9651
  50   2.0000      -0.288635        -7.8542
  51   0.0000       0.039968         1.0876
  52   0.0000       0.068741         1.8705
  53   0.0000       0.105781         2.8785
  54   0.0000       0.129765         3.5311
  55   0.0000       0.150951         4.1076

MULLIKEN ATOMIC CHARGES
-----------------------
   0 N :   -0.610845
   1 C :   -0.234067
   2 C :    0.568951
   3 O :   -0.433615
   4 C :   -0.413115
   5 C :   -0.241560
   6 C :   -0.636892
   7 C :   -0.627993
   8 H :    0.361792
   9 H :    0.268415
  10 H :    0.266517
  11 H :    0.203213
  12 H :    0.215156
  13 H :    0.192236
  14 H :    0.222782
  15 H :    0.231079
  16 H :    0.204804
  17 H :    0.218881
  18 H :    0.222619
  19 N :   -0.653035
  20 H :    0.403234
  21 C :   -0.492243
  22 H :    0.215856
  23 H :    0.219974
  24 H :    0.256720
  25 C :    0.535891
  26 O :   -0.463127
  27 C :   -0.743318
  28 H :    0.261282
  29 H :    0.217363
  30 H :    0.263043
Sum of atomic charges:   -0.0000000

LOEWDIN ATOMIC CHARGES
----------------------
   0 N :   -0.207206
   1 C :   -0.093500
   2 C :    0.102669
   3 O :   -0.282318
   4 C :   -0.227140
   5 C :   -0.162569
   6 C :   -0.357272
   7 C :   -0.351409
   8 H :    0.258645
   9 H :    0.148094
  10 H :    0.151457
  11 H :    0.123678
  12 H :    0.121582
  13 H :    0.117218
  14 H :    0.127790
  15 H :    0.128498
  16 H :    0.123532
  17 H :    0.126710
  18 H :    0.128546
  19 N :   -0.249510
  20 H :    0.266332
  21 C :   -0.255976
  22 H :    0.118523
  23 H :    0.124188
  24 H :    0.148404
  25 C :    0.108894
  26 O :   -0.302796
  27 C :   -0.383766
  28 H :    0.160037
  29 H :    0.130496
  30 H :    0.158170

  Mayer bond orders larger than 0.100000
B(  0-N ,  1-C ) :   0.9018 B(  0-N ,  8-H ) :   0.8193 B(  0-N , 25-C ) :   1.1750
B(  1-C ,  2-C ) :   0.8794 B(  1-C ,  4-C ) :   0.9540 B(  1-C ,  9-H ) :   0.8809
B(  2-C ,  3-O ) :   1.9756 B(  2-C , 19-N ) :   1.1847 B(  3-O , 19-N ) :   0.1046
B(  4-C ,  5-C ) :   0.9706 B(  4-C , 10-H ) :   0.9032 B(  4-C , 11-H ) :   0.9155
B(  5-C ,  6-C ) :   0.9850 B(  5-C ,  7-C ) :   0.9984 B(  5-C , 12-H ) :   0.9068
B(  6-C , 13-H ) :   0.9305 B(  6-C , 14-H ) :   0.9275 B(  6-C , 15-H ) :   0.9212
B(  7-C , 16-H ) :   0.9268 B(  7-C , 17-H ) :   0.9293 B(  7-C , 18-H ) :   0.9282
B( 19-N , 20-H ) :   0.7403 B( 19-N , 21-C ) :   0.9602 B( 21-C , 22-H ) :   0.9202
B( 21-C , 23-H ) :   0.9244 B( 21-C , 24-H ) :   0.9047 B( 25-C , 26-O ) :   1.8810
B( 25-C , 27-C ) :   0.9340 B( 27-C , 28-H ) :   0.9049 B( 27-C , 29-H ) :   0.9209
B( 27-C , 30-H ) :   0.9093

Dispersion correction           -0.018364034
FINAL SINGLE POINT ENERGY      -612.478015699938

DIPOLE MOMENT
-------------
                                X             Y             Z
Electronic contribution:    -10.17871      -1.62283      -0.70174
Nuclear contribution   :     10.58109       2.66266       1.11047
                        -----------------------------------------
Total Dipole Moment    :      0.40238       1.03982       0.40873
                        -----------------------------------------
Magnitude (a.u.)       :      1.18752
Magnitude (Debye)      :      3.01843

Rotational constants in cm-1:     0.029984     0.018835     0.012813
Rotational constants in MHz :   898.903302   564.672007   384.118288

                             ****ORCA TERMINATED NORMALLY****
TOTAL RUN TIME: 0 days 0 hours 3 minutes 7 seconds 435 msec
