                         Program Version 5.0.3 -  RELEASE  -
|  1> ! PBEh-3c def2/J TightSCF DefGrid3
|  2>
|  3> %maxcore 60000
|  4>
|  5> %pal
|  6> nprocs 4
|  7> end
|  8>
|  9> *xyzfile 0 1 C2H5CCNCHCH3.xyz
| 10>
| 11>                          ****END OF INPUT****

CARTESIAN COORDINATES (ANGSTROEM)
---------------------------------
  C     -1.830818   -0.480633   -1.429350
  H     -1.511390   -1.507294   -1.656218
  H     -1.349439    0.191558   -2.153432
  H     -2.917840   -0.424775   -1.579775
  C     -1.466316   -0.091246    0.010752
  H     -1.795826    0.936587    0.223657
  H     -2.003764   -0.750200    0.712359
  C      0.019375   -0.174826    0.301159
  C      0.781802    0.891220    0.629242
  H      0.272819    1.858915    0.688314
  C      2.244654    0.883331    0.922741
  H      2.782313    1.549127    0.228486
  H      2.438376    1.272072    1.935500
  H      2.677897   -0.122108    0.846911
  C      0.608503   -1.477412    0.203433
  N      1.049654   -2.554318    0.116222

 Total Charge           Charge          ....    0
 Multiplicity           Mult            ....    1
 Number of Electrons    NEL             ....   52
 Basis Dimension        Dim             ....  123

ORBITAL ENERGIES
----------------

  NO   OCC          E(Eh)            E(eV)
   0   2.0000     -14.643916      -398.4812
   1   2.0000     -10.494260      -285.5633
   2   2.0000     -10.488618      -285.4098
   3   2.0000     -10.484968      -285.3105
   4   2.0000     -10.464529      -284.7543
   5   2.0000     -10.453103      -284.4434
   6   2.0000     -10.440176      -284.0916
   7   2.0000      -1.004676       -27.3386
   8   2.0000      -0.934692       -25.4343
   9   2.0000      -0.864319       -23.5193
  10   2.0000      -0.796574       -21.6759
  11   2.0000      -0.702823       -19.1248
  12   2.0000      -0.698556       -19.0087
  13   2.0000      -0.554809       -15.0971
  14   2.0000      -0.544059       -14.8046
  15   2.0000      -0.504550       -13.7295
  16   2.0000      -0.491873       -13.3845
  17   2.0000      -0.479190       -13.0394
  18   2.0000      -0.446938       -12.1618
  19   2.0000      -0.443808       -12.0766
  20   2.0000      -0.427894       -11.6436
  21   2.0000      -0.413526       -11.2526
  22   2.0000      -0.412968       -11.2374
  23   2.0000      -0.399888       -10.8815
  24   2.0000      -0.377867       -10.2823
  25   2.0000      -0.305235        -8.3059
  26   0.0000      -0.016610        -0.4520
  27   0.0000       0.064581         1.7573
  28   0.0000       0.125929         3.4267
  29   0.0000       0.143600         3.9075
  30   0.0000       0.158945         4.3251

MULLIKEN ATOMIC CHARGES
-----------------------
   0 C :   -0.642917
   1 H :    0.238271
   2 H :    0.222360
   3 H :    0.225800
   4 C :   -0.468188
   5 H :    0.226183
   6 H :    0.240136
   7 C :    0.061498
   8 C :   -0.193767
   9 H :    0.228637
  10 C :   -0.697518
  11 H :    0.237956
  12 H :    0.238268
  13 H :    0.257604
  14 C :    0.019406
  15 N :   -0.193728
Sum of atomic charges:    0.0000000

LOEWDIN ATOMIC CHARGES
----------------------
   0 C :   -0.358989
   1 H :    0.137615
   2 H :    0.130295
   3 H :    0.132127
   4 C :   -0.219546
   5 H :    0.131742
   6 H :    0.139805
   7 C :   -0.114688
   8 C :   -0.092799
   9 H :    0.138156
  10 C :   -0.358637
  11 H :    0.145275
  12 H :    0.145346
  13 H :    0.150369
  14 C :   -0.011456
  15 N :   -0.094615

  Mayer bond orders larger than 0.100000
B(  0-C ,  1-H ) :   0.9169 B(  0-C ,  2-H ) :   0.9260 B(  0-C ,  3-H ) :   0.9255
B(  0-C ,  4-C ) :   0.9788 B(  4-C ,  5-H ) :   0.9188 B(  4-C ,  6-H ) :   0.9070
B(  4-C ,  7-C ) :   0.9573 B(  7-C ,  8-C ) :   1.7867 B(  7-C , 14-C ) :   0.9942
B(  8-C ,  9-H ) :   0.9161 B(  8-C , 10-C ) :   1.0042 B( 10-C , 11-H ) :   0.9080
B( 10-C , 12-H ) :   0.9081 B( 10-C , 13-H ) :   0.9099 B( 14-C , 15-N ) :   3.1272

Dispersion correction           -0.007590142
FINAL SINGLE POINT ENERGY      -288.139271441953

DIPOLE MOMENT
-------------
                                X             Y             Z
Electronic contribution:      2.42643      -4.65489       1.58183
Nuclear contribution   :     -2.87477       6.19193      -1.46445
                        -----------------------------------------
Total Dipole Moment    :     -0.44834       1.53704       0.11738
                        -----------------------------------------
Magnitude (a.u.)       :      1.60539
Magnitude (Debye)      :      4.08057

Rotational constants in cm-1:     0.112841     0.067240     0.045884
Rotational constants in MHz :  3382.886531  2015.810677  1375.557141

                             ****ORCA TERMINATED NORMALLY****
TOTAL RUN TIME: 0 days 0 hours 1 minutes 47 seconds 356 msec
