                         Program Version 5.0.3 -  RELEASE  -
|  1> ! PBEh-3c def2/J TightSCF DefGrid3
|  2>
|  3> %maxcore 60000
|  4>
|  5> %pal
|  6> nprocs 4
|  7> end
|  8>
|  9> *xyzfile 0 1 60B.xyz
| 10>
| 11>                          ****END OF INPUT****

CARTESIAN COORDINATES (ANGSTROEM)
---------------------------------
  C     -0.434806    0.391382    0.000000
  O     -0.688992    1.575651    0.000000
  O     -1.382704   -0.568758    0.000000
  H     -2.243706   -0.114219    0.000000
  C      0.940833   -0.203924    0.000000
  H      1.679220    0.588646    0.000000
  H      1.065077   -0.834389    0.877706
  H      1.065077   -0.834389   -0.877706

 Total Charge           Charge          ....    0
 Multiplicity           Mult            ....    1
 Number of Electrons    NEL             ....   32
 Basis Dimension        Dim             ....   68

ORBITAL ENERGIES
----------------

  NO   OCC          E(Eh)            E(eV)
   0   2.0000     -19.544817      -531.8415
   1   2.0000     -19.485347      -530.2233
   2   2.0000     -10.585469      -288.0452
   3   2.0000     -10.448802      -284.3264
   4   2.0000      -1.221068       -33.2270
   5   2.0000      -1.123874       -30.5822
   6   2.0000      -0.849965       -23.1287
   7   2.0000      -0.687050       -18.6956
   8   2.0000      -0.560710       -15.2577
   9   2.0000      -0.548725       -14.9316
  10   2.0000      -0.534864       -14.5544
  11   2.0000      -0.470996       -12.8164
  12   2.0000      -0.456749       -12.4288
  13   2.0000      -0.452196       -12.3049
  14   2.0000      -0.377243       -10.2653
  15   2.0000      -0.336209        -9.1487
  16   0.0000       0.045138         1.2283
  17   0.0000       0.125969         3.4278
  18   0.0000       0.166812         4.5392
  19   0.0000       0.206632         5.6227
  20   0.0000       0.220198         5.9919

MULLIKEN ATOMIC CHARGES
-----------------------
   0 C :    0.506637
   1 O :   -0.392853
   2 O :   -0.582799
   3 H :    0.442724
   4 C :   -0.739778
   5 H :    0.258837
   6 H :    0.253617
   7 H :    0.253617
Sum of atomic charges:    0.0000000

LOEWDIN ATOMIC CHARGES
----------------------
   0 C :    0.129591
   1 O :   -0.234350
   2 O :   -0.304012
   3 H :    0.333638
   4 C :   -0.390912
   5 H :    0.152842
   6 H :    0.156601
   7 H :    0.156601

  Mayer bond orders larger than 0.100000
B(  0-C ,  1-O ) :   2.0693 B(  0-C ,  2-O ) :   1.1421 B(  0-C ,  4-C ) :   0.9377
B(  2-O ,  3-H ) :   0.7603 B(  4-C ,  5-H ) :   0.9174 B(  4-C ,  6-H ) :   0.9051
B(  4-C ,  7-H ) :   0.9051

Dispersion correction           -0.002314724
FINAL SINGLE POINT ENERGY      -228.602082177863

DIPOLE MOMENT
-------------
                                X             Y             Z
Electronic contribution:     -3.00419       1.51465       0.00000
Nuclear contribution   :      3.04362      -2.18622       0.00000
                        -----------------------------------------
Total Dipole Moment    :      0.03943      -0.67157       0.00000
                        -----------------------------------------
Magnitude (a.u.)       :      0.67273
Magnitude (Debye)      :      1.70994

Rotational constants in cm-1:     0.375820     0.319151     0.178256
Rotational constants in MHz : 11266.803691  9567.918953  5343.989242

                             ****ORCA TERMINATED NORMALLY****
TOTAL RUN TIME: 0 days 0 hours 1 minutes 3 seconds 147 msec
