                         Program Version 5.0.3 -  RELEASE  -
|  1> ! PBEh-3c def2/J TightSCF DefGrid3
|  2>
|  3> %maxcore 60000
|  4>
|  5> %pal
|  6> nprocs 4
|  7> end
|  8>
|  9> *xyzfile 0 1 c2h2Ne.xyz
| 10>
| 11>                          ****END OF INPUT****

CARTESIAN COORDINATES (ANGSTROEM)
---------------------------------
  H     -1.666650    0.000000   -0.730265
  C     -0.603250    0.000000   -0.730265
  C      0.603250    0.000000   -0.730265
  H      1.666650    0.000000   -0.730265
  Ne     0.000000    0.000000    2.921058

 Total Charge           Charge          ....    0
 Multiplicity           Mult            ....    1
 Number of Electrons    NEL             ....   24
 Basis Dimension        Dim             ....   49

ORBITAL ENERGIES
----------------

  NO   OCC          E(Eh)            E(eV)
   0   2.0000     -31.395914      -854.3263
   1   2.0000     -10.457571      -284.5650
   2   2.0000     -10.455105      -284.4979
   3   2.0000      -1.563015       -42.5318
   4   2.0000      -0.841042       -22.8859
   5   2.0000      -0.638375       -17.3711
   6   2.0000      -0.623330       -16.9617
   7   2.0000      -0.623208       -16.9584
   8   2.0000      -0.622946       -16.9512
   9   2.0000      -0.559850       -15.2343
  10   2.0000      -0.338656        -9.2153
  11   2.0000      -0.338581        -9.2133
  12   0.0000       0.069961         1.9037
  13   0.0000       0.069983         1.9043
  14   0.0000       0.161615         4.3978
  15   0.0000       0.208620         5.6768
  16   0.0000       0.423243        11.5170

MULLIKEN ATOMIC CHARGES
-----------------------
   0 H :    0.237095
   1 C :   -0.237410
   2 C :   -0.237410
   3 H :    0.237095
   4 Ne:    0.000629
Sum of atomic charges:    0.0000000

LOEWDIN ATOMIC CHARGES
----------------------
   0 H :    0.162977
   1 C :   -0.163274
   2 C :   -0.163274
   3 H :    0.162977
   4 Ne:    0.000595

  Mayer bond orders larger than 0.100000
B(  0-H ,  1-C ) :   0.9284 B(  1-C ,  2-C ) :   2.8347 B(  2-C ,  3-H ) :   0.9284

Dispersion correction           -0.000849524
FINAL SINGLE POINT ENERGY      -205.838187548168

DIPOLE MOMENT
-------------
                                X             Y             Z
Electronic contribution:      0.00000      -0.00000       3.30461
Nuclear contribution   :     -0.00000       0.00000      -3.30332
                        -----------------------------------------
Total Dipole Moment    :      0.00000      -0.00000       0.00129
                        -----------------------------------------
Magnitude (a.u.)       :      0.00129
Magnitude (Debye)      :      0.00328

Rotational constants in cm-1:     1.175425     0.111222     0.101608
Rotational constants in MHz : 35238.348898  3334.353451  3046.120782

                             ****ORCA TERMINATED NORMALLY****
TOTAL RUN TIME: 0 days 0 hours 1 minutes 2 seconds 215 msec
