                         Program Version 5.0.3 -  RELEASE  -
|  1> ! PBEh-3c def2/J TightSCF DefGrid3
|  2>
|  3> %maxcore 60000
|  4>
|  5> %pal
|  6> nprocs 4
|  7> end
|  8>
|  9> *xyzfile 0 1 58.xyz
| 10>
| 11>                          ****END OF INPUT****

CARTESIAN COORDINATES (ANGSTROEM)
---------------------------------
  B      0.000000    0.000000    0.000000
  Cl     0.875279    1.516028    0.000000
  Cl     0.875279   -1.516028    0.000000
  Cl    -1.750558    0.000000    0.000000

 Total Charge           Charge          ....    0
 Multiplicity           Mult            ....    1
 Number of Electrons    NEL             ....   56
 Basis Dimension        Dim             ....   69

ORBITAL ENERGIES
----------------

  NO   OCC          E(Eh)            E(eV)
   0   2.0000    -102.330996     -2784.5680
   1   2.0000    -102.330995     -2784.5679
   2   2.0000    -102.330890     -2784.5651
   3   2.0000      -9.799113      -266.6474
   4   2.0000      -9.799111      -266.6474
   5   2.0000      -9.799051      -266.6457
   6   2.0000      -7.485021      -203.6778
   7   2.0000      -7.485021      -203.6778
   8   2.0000      -7.484998      -203.6771
   9   2.0000      -7.479993      -203.5410
  10   2.0000      -7.479977      -203.5405
  11   2.0000      -7.479975      -203.5405
  12   2.0000      -7.478501      -203.5004
  13   2.0000      -7.478500      -203.5003
  14   2.0000      -7.478497      -203.5003
  15   2.0000      -7.128245      -193.9694
  16   2.0000      -0.992224       -26.9998
  17   2.0000      -0.938559       -25.5395
  18   2.0000      -0.938559       -25.5395
  19   2.0000      -0.597128       -16.2487
  20   2.0000      -0.518191       -14.1007
  21   2.0000      -0.518190       -14.1007
  22   2.0000      -0.468061       -12.7366
  23   2.0000      -0.406967       -11.0741
  24   2.0000      -0.406967       -11.0741
  25   2.0000      -0.399574       -10.8730
  26   2.0000      -0.399574       -10.8730
  27   2.0000      -0.373095       -10.1524
  28   0.0000      -0.037184        -1.0118
  29   0.0000       0.084423         2.2973
  30   0.0000       0.172661         4.6983
  31   0.0000       0.172663         4.6984
  32   0.0000       0.256585         6.9820

MULLIKEN ATOMIC CHARGES
-----------------------
   0 B :    0.352686
   1 Cl:   -0.117566
   2 Cl:   -0.117566
   3 Cl:   -0.117554
Sum of atomic charges:   -0.0000000

LOEWDIN ATOMIC CHARGES
----------------------
   0 B :   -0.316361
   1 Cl:    0.105451
   2 Cl:    0.105451
   3 Cl:    0.105459

  Mayer bond orders larger than 0.100000
B(  0-B ,  1-Cl) :   1.2367 B(  0-B ,  2-Cl) :   1.2367 B(  0-B ,  3-Cl) :   1.2367

Dispersion correction           -0.001981080
FINAL SINGLE POINT ENERGY     -1404.026026783632

DIPOLE MOMENT
-------------
                                X             Y             Z
Electronic contribution:     -0.00001       0.00000      -0.00000
Nuclear contribution   :      0.00000       0.00000       0.00000
                        -----------------------------------------
Total Dipole Moment    :     -0.00001       0.00000      -0.00000
                        -----------------------------------------
Magnitude (a.u.)       :      0.00001
Magnitude (Debye)      :      0.00004

Rotational constants in cm-1:     0.103443     0.103443     0.051721
Rotational constants in MHz :  3101.131430  3101.131245  1550.565669

                             ****ORCA TERMINATED NORMALLY****
TOTAL RUN TIME: 0 days 0 hours 0 minutes 17 seconds 418 msec
