                         Program Version 5.0.3 -  RELEASE  -
|  1> ! PBEh-3c def2/J TightSCF DefGrid3
|  2>
|  3> %maxcore 60000
|  4>
|  5> %pal
|  6> nprocs 4
|  7> end
|  8>
|  9> *xyzfile 0 1 reac2.xyz
| 10>
| 11>                          ****END OF INPUT****

CARTESIAN COORDINATES (ANGSTROEM)
---------------------------------
  C      0.000000    0.416575    0.000000
  H     -0.263416    1.473336    0.000000
  O     -1.110471   -0.343273    0.000000
  H      1.876501    0.630870    0.000000
  H     -0.825348   -1.269969    0.000000
  N      1.156576   -0.083929    0.000000

 Total Charge           Charge          ....    0
 Multiplicity           Mult            ....    1
 Number of Electrons    NEL             ....   24
 Basis Dimension        Dim             ....   51

ORBITAL ENERGIES
----------------

  NO   OCC          E(Eh)            E(eV)
   0   2.0000     -19.532203      -531.4983
   1   2.0000     -14.615062      -397.6961
   2   2.0000     -10.542539      -286.8771
   3   2.0000      -1.188500       -32.3407
   4   2.0000      -0.988859       -26.9082
   5   2.0000      -0.720354       -19.6018
   6   2.0000      -0.602997       -16.4084
   7   2.0000      -0.551089       -14.9959
   8   2.0000      -0.478011       -13.0073
   9   2.0000      -0.455820       -12.4035
  10   2.0000      -0.336941        -9.1686
  11   2.0000      -0.328858        -8.9487
  12   0.0000       0.058251         1.5851
  13   0.0000       0.139743         3.8026
  14   0.0000       0.160451         4.3661
  15   0.0000       0.215204         5.8560
  16   0.0000       0.289046         7.8653

MULLIKEN ATOMIC CHARGES
-----------------------
   0 C :    0.168719
   1 H :    0.201124
   2 O :   -0.572716
   3 H :    0.317039
   4 H :    0.439009
   5 N :   -0.553175
Sum of atomic charges:   -0.0000000

LOEWDIN ATOMIC CHARGES
----------------------
   0 C :    0.025685
   1 H :    0.099331
   2 O :   -0.310576
   3 H :    0.234369
   4 H :    0.329946
   5 N :   -0.378755

  Mayer bond orders larger than 0.100000
B(  0-C ,  1-H ) :   0.8806 B(  0-C ,  2-O ) :   1.1347 B(  0-C ,  5-N ) :   2.0193
B(  2-O ,  4-H ) :   0.7627 B(  3-H ,  5-N ) :   0.8445

Dispersion correction           -0.001421278
FINAL SINGLE POINT ENERGY      -169.503241039785

DIPOLE MOMENT
-------------
                                X             Y             Z
Electronic contribution:     -0.73690      -0.43673      -0.00000
Nuclear contribution   :      0.77759       0.82894       0.00000
                        -----------------------------------------
Total Dipole Moment    :      0.04068       0.39221      -0.00000
                        -----------------------------------------
Magnitude (a.u.)       :      0.39431
Magnitude (Debye)      :      1.00226

Rotational constants in cm-1:     2.389720     0.383367     0.330368
Rotational constants in MHz : 71641.999081 11493.064977  9904.198185

                             ****ORCA TERMINATED NORMALLY****
TOTAL RUN TIME: 0 days 0 hours 1 minutes 5 seconds 482 msec
