                         Program Version 5.0.3 -  RELEASE  -
|  1> ! PBEh-3c def2/J TightSCF DefGrid3
|  2>
|  3> %maxcore 60000
|  4>
|  5> %pal
|  6> nprocs 4
|  7> end
|  8>
|  9> *xyzfile 0 1 27.xyz
| 10>
| 11>                          ****END OF INPUT****

CARTESIAN COORDINATES (ANGSTROEM)
---------------------------------
  C      1.205227    0.858192   -1.530088
  H      1.852594    1.710688   -1.373652
  C      1.755477   -0.396504   -1.785072
  H      2.829517   -0.517842   -1.828948
  C      0.920859   -1.494473   -1.990262
  H      1.347329   -2.467544   -2.193881
  C     -0.462635   -1.336487   -1.938270
  H     -1.110589   -2.187840   -2.097927
  C     -1.013005   -0.082010   -1.677940
  H     -2.086206    0.038928   -1.624992
  C     -0.178812    1.015423   -1.476095
  H     -0.606076    1.987681   -1.272116
  N     -2.011951    0.156161    1.802037
  C     -1.397065    1.313829    2.082101
  H     -2.044669    2.167000    2.244613
  C     -0.014851    1.454676    2.172272
  H      0.416998    2.418326    2.403488
  C      0.786101    0.337697    1.958058
  H      1.863670    0.408081    2.012893
  C      0.165549   -0.870958    1.664399
  H      0.741323   -1.766580    1.480324
  C     -1.224965   -0.908996    1.598949
  H     -1.733818   -1.837449    1.370107

 Total Charge           Charge          ....    0
 Multiplicity           Mult            ....    1
 Number of Electrons    NEL             ....   84
 Basis Dimension        Dim             ....  202

ORBITAL ENERGIES
----------------

  NO   OCC          E(Eh)            E(eV)
   0   2.0000     -14.633865      -398.2077
   1   2.0000     -10.477085      -285.0960
   2   2.0000     -10.476271      -285.0738
   3   2.0000     -10.463568      -284.7282
   4   2.0000     -10.452680      -284.4319
   5   2.0000     -10.450980      -284.3856
   6   2.0000     -10.447642      -284.2948
   7   2.0000     -10.447179      -284.2822
   8   2.0000     -10.446709      -284.2694
   9   2.0000     -10.446356      -284.2598
  10   2.0000     -10.445383      -284.2333
  11   2.0000     -10.444820      -284.2180
  12   2.0000      -1.039632       -28.2898
  13   2.0000      -0.950076       -25.8529
  14   2.0000      -0.894680       -24.3455
  15   2.0000      -0.847663       -23.0661
  16   2.0000      -0.833521       -22.6813
  17   2.0000      -0.833336       -22.6762
  18   2.0000      -0.702904       -19.1270
  19   2.0000      -0.702739       -19.1225
  20   2.0000      -0.677136       -18.4258
  21   2.0000      -0.676908       -18.4196
  22   2.0000      -0.594657       -16.1814
  23   2.0000      -0.589960       -16.0536
  24   2.0000      -0.540198       -14.6995
  25   2.0000      -0.530690       -14.4408
  26   2.0000      -0.524024       -14.2594
  27   2.0000      -0.506440       -13.7809
  28   2.0000      -0.485262       -13.2046
  29   2.0000      -0.480026       -13.0622
  30   2.0000      -0.479692       -13.0531
  31   2.0000      -0.461126       -12.5479
  32   2.0000      -0.453436       -12.3386
  33   2.0000      -0.415543       -11.3075
  34   2.0000      -0.414631       -11.2827
  35   2.0000      -0.396398       -10.7865
  36   2.0000      -0.396247       -10.7824
  37   2.0000      -0.327504        -8.9119
  38   2.0000      -0.308560        -8.3963
  39   2.0000      -0.301481        -8.2037
  40   2.0000      -0.289858        -7.8874
  41   2.0000      -0.285774        -7.7763
  42   0.0000       0.002116         0.0576
  43   0.0000       0.013641         0.3712
  44   0.0000       0.020798         0.5659
  45   0.0000       0.023041         0.6270
  46   0.0000       0.141009         3.8371

MULLIKEN ATOMIC CHARGES
-----------------------
   0 C :   -0.219667
   1 H :    0.216321
   2 C :   -0.223966
   3 H :    0.216348
   4 C :   -0.226175
   5 H :    0.217201
   6 C :   -0.223539
   7 H :    0.218743
   8 C :   -0.215056
   9 H :    0.229947
  10 C :   -0.208718
  11 H :    0.220325
  12 N :   -0.363836
  13 C :   -0.046260
  14 H :    0.227967
  15 C :   -0.296952
  16 H :    0.226133
  17 C :   -0.127406
  18 H :    0.230563
  19 C :   -0.274495
  20 H :    0.229561
  21 C :   -0.035048
  22 H :    0.228011
Sum of atomic charges:    0.0000000

LOEWDIN ATOMIC CHARGES
----------------------
   0 C :   -0.134715
   1 H :    0.133638
   2 C :   -0.140765
   3 H :    0.133603
   4 C :   -0.140491
   5 H :    0.133990
   6 C :   -0.137647
   7 H :    0.134649
   8 C :   -0.127586
   9 H :    0.139909
  10 C :   -0.128847
  11 H :    0.136577
  12 N :   -0.144354
  13 C :   -0.062137
  14 H :    0.127323
  15 C :   -0.167807
  16 H :    0.139168
  17 C :   -0.097799
  18 H :    0.139291
  19 C :   -0.153190
  20 H :    0.142370
  21 C :   -0.052913
  22 H :    0.127734

  Mayer bond orders larger than 0.100000
B(  0-C ,  1-H ) :   0.9209 B(  0-C ,  2-C ) :   1.4280 B(  0-C , 10-C ) :   1.4238
B(  2-C ,  3-H ) :   0.9210 B(  2-C ,  4-C ) :   1.4239 B(  4-C ,  5-H ) :   0.9209
B(  4-C ,  6-C ) :   1.4279 B(  6-C ,  7-H ) :   0.9203 B(  6-C ,  8-C ) :   1.4214
B(  8-C ,  9-H ) :   0.9152 B(  8-C , 10-C ) :   1.4333 B( 10-C , 11-H ) :   0.9186
B( 12-N , 13-C ) :   1.4970 B( 12-N , 21-C ) :   1.4933 B( 13-C , 14-H ) :   0.9190
B( 13-C , 15-C ) :   1.3880 B( 15-C , 16-H ) :   0.9147 B( 15-C , 17-C ) :   1.4094
B( 17-C , 18-H ) :   0.9192 B( 17-C , 19-C ) :   1.4220 B( 19-C , 20-H ) :   0.9125
B( 19-C , 21-C ) :   1.3840 B( 21-C , 22-H ) :   0.9185

Dispersion correction           -0.015272664
FINAL SINGLE POINT ENERGY      -479.460422186254

DIPOLE MOMENT
-------------
                                X             Y             Z
Electronic contribution:     -1.85217       0.13925       1.69317
Nuclear contribution   :      2.69419      -0.09692      -1.68798
                        -----------------------------------------
Total Dipole Moment    :      0.84202       0.04233       0.00519
                        -----------------------------------------
Magnitude (a.u.)       :      0.84310
Magnitude (Debye)      :      2.14298

Rotational constants in cm-1:     0.054537     0.022968     0.021802
Rotational constants in MHz :  1634.978989   688.578161   653.605211

                             ****ORCA TERMINATED NORMALLY****
TOTAL RUN TIME: 0 days 0 hours 2 minutes 35 seconds 579 msec
