                         Program Version 5.0.3 -  RELEASE  -
|  1> ! PBEh-3c def2/J TightSCF DefGrid3
|  2>
|  3> %maxcore 60000
|  4>
|  5> %pal
|  6> nprocs 4
|  7> end
|  8>
|  9> *xyzfile 0 1 Tetrahelicene_TS.xyz
| 10>
| 11>                          ****END OF INPUT****

CARTESIAN COORDINATES (ANGSTROEM)
---------------------------------
  C      0.000000    2.498579    0.496164
  C      0.000000    1.314832   -0.315154
  C      0.000000    0.000000    0.336979
  C      0.000000    0.000000    1.756332
  C      0.000000    1.204710    2.513455
  C      0.000000    2.411542    1.911682
  C      0.000000   -1.314832   -0.315154
  C      0.000000   -1.204710    2.513455
  C      0.000000   -2.411542    1.911682
  C      0.000000   -2.498579    0.496164
  H      0.000000    1.124306    3.592319
  H      0.000000    3.326248    2.489536
  C      0.000000   -3.784526   -0.084120
  C      0.000000   -1.562064   -1.711350
  C      0.000000   -3.962560   -1.441680
  C      0.000000   -2.826041   -2.255601
  H      0.000000   -4.638104    0.581390
  H      0.000000   -4.953745   -1.873599
  H      0.000000   -2.930651   -3.332290
  H      0.000000   -0.762882   -2.417658
  C      0.000000    1.562064   -1.711350
  H      0.000000    0.762882   -2.417658
  C      0.000000    3.784526   -0.084120
  H      0.000000    4.638104    0.581390
  C      0.000000    3.962560   -1.441680
  H      0.000000    4.953745   -1.873599
  C      0.000000    2.826041   -2.255601
  H      0.000000    2.930651   -3.332290
  H      0.000000   -3.326248    2.489536
  H      0.000000   -1.124306    3.592319

 Total Charge           Charge          ....    0
 Multiplicity           Mult            ....    1
 Number of Electrons    NEL             ....  120
 Basis Dimension        Dim             ....  294

ORBITAL ENERGIES
----------------

  NO   OCC          E(Eh)            E(eV)
   0   2.0000     -10.477509      -285.1075
   1   2.0000     -10.473390      -284.9954
   2   2.0000     -10.473308      -284.9932
   3   2.0000     -10.465118      -284.7703
   4   2.0000     -10.463151      -284.7168
   5   2.0000     -10.463146      -284.7167
   6   2.0000     -10.451889      -284.4104
   7   2.0000     -10.451888      -284.4103
   8   2.0000     -10.451631      -284.4033
   9   2.0000     -10.451610      -284.4028
  10   2.0000     -10.451165      -284.3907
  11   2.0000     -10.451124      -284.3895
  12   2.0000     -10.450629      -284.3761
  13   2.0000     -10.450561      -284.3742
  14   2.0000     -10.450372      -284.3691
  15   2.0000     -10.450347      -284.3684
  16   2.0000     -10.450111      -284.3620
  17   2.0000     -10.450099      -284.3617
  18   2.0000      -0.992867       -27.0173
  19   2.0000      -0.968160       -26.3450
  20   2.0000      -0.937361       -25.5069
  21   2.0000      -0.901118       -24.5207
  22   2.0000      -0.882121       -24.0037
  23   2.0000      -0.850161       -23.1340
  24   2.0000      -0.841801       -22.9066
  25   2.0000      -0.813529       -22.1372
  26   2.0000      -0.808657       -22.0047
  27   2.0000      -0.726466       -19.7681
  28   2.0000      -0.715972       -19.4826
  29   2.0000      -0.692469       -18.8431
  30   2.0000      -0.682857       -18.5815
  31   2.0000      -0.671676       -18.2772
  32   2.0000      -0.618238       -16.8231
  33   2.0000      -0.595251       -16.1976
  34   2.0000      -0.590103       -16.0575
  35   2.0000      -0.580667       -15.8008
  36   2.0000      -0.546169       -14.8620
  37   2.0000      -0.545640       -14.8476
  38   2.0000      -0.517527       -14.0826
  39   2.0000      -0.515218       -14.0198
  40   2.0000      -0.500555       -13.6208
  41   2.0000      -0.493404       -13.4262
  42   2.0000      -0.485669       -13.2157
  43   2.0000      -0.473361       -12.8808
  44   2.0000      -0.468759       -12.7556
  45   2.0000      -0.460569       -12.5327
  46   2.0000      -0.452330       -12.3085
  47   2.0000      -0.436542       -11.8789
  48   2.0000      -0.426789       -11.6135
  49   2.0000      -0.421667       -11.4742
  50   2.0000      -0.406491       -11.0612
  51   2.0000      -0.398734       -10.8501
  52   2.0000      -0.386736       -10.5236
  53   2.0000      -0.373513       -10.1638
  54   2.0000      -0.356601        -9.7036
  55   2.0000      -0.346589        -9.4312
  56   2.0000      -0.301482        -8.2037
  57   2.0000      -0.297039        -8.0828
  58   2.0000      -0.255792        -6.9605
  59   2.0000      -0.248233        -6.7548
  60   0.0000      -0.039726        -1.0810
  61   0.0000      -0.022360        -0.6084
  62   0.0000       0.017447         0.4748
  63   0.0000       0.017622         0.4795
  64   0.0000       0.061907         1.6846

MULLIKEN ATOMIC CHARGES
-----------------------
   0 C :    0.093550
   1 C :    0.149134
   2 C :    0.170789
   3 C :    0.060173
   4 C :   -0.280032
   5 C :   -0.299554
   6 C :    0.149129
   7 C :   -0.280037
   8 C :   -0.299560
   9 C :    0.093563
  10 H :    0.213934
  11 H :    0.214220
  12 C :   -0.261033
  13 C :   -0.367702
  14 C :   -0.245833
  15 C :   -0.188242
  16 H :    0.214470
  17 H :    0.221398
  18 H :    0.221464
  19 H :    0.198747
  20 C :   -0.367710
  21 H :    0.198750
  22 C :   -0.261030
  23 H :    0.214471
  24 C :   -0.245839
  25 H :    0.221395
  26 C :   -0.188234
  27 H :    0.221465
  28 H :    0.214219
  29 H :    0.213936
Sum of atomic charges:    0.0000000

LOEWDIN ATOMIC CHARGES
----------------------
   0 C :   -0.028705
   1 C :   -0.016484
   2 C :   -0.012490
   3 C :   -0.027848
   4 C :   -0.124761
   5 C :   -0.117967
   6 C :   -0.016485
   7 C :   -0.124761
   8 C :   -0.117967
   9 C :   -0.028705
  10 H :    0.138255
  11 H :    0.138970
  12 C :   -0.120035
  13 C :   -0.128880
  14 C :   -0.135473
  15 C :   -0.130835
  16 H :    0.137247
  17 H :    0.138170
  18 H :    0.137206
  19 H :    0.133461
  20 C :   -0.128880
  21 H :    0.133461
  22 C :   -0.120035
  23 H :    0.137247
  24 C :   -0.135473
  25 H :    0.138169
  26 C :   -0.130835
  27 H :    0.137206
  28 H :    0.138970
  29 H :    0.138255

  Mayer bond orders larger than 0.100000
B(  0-C ,  1-C ) :   1.2662 B(  0-C ,  5-C ) :   1.1820 B(  0-C , 22-C ) :   1.2605
B(  1-C ,  2-C ) :   1.0687 B(  1-C , 20-C ) :   1.2515 B(  2-C ,  3-C ) :   1.3237
B(  2-C ,  6-C ) :   1.0687 B(  3-C ,  4-C ) :   1.1798 B(  3-C ,  7-C ) :   1.1798
B(  4-C ,  5-C ) :   1.6023 B(  4-C , 10-H ) :   0.9248 B(  5-C , 11-H ) :   0.9250
B(  6-C ,  9-C ) :   1.2662 B(  6-C , 13-C ) :   1.2515 B(  7-C ,  8-C ) :   1.6024
B(  7-C , 29-H ) :   0.9248 B(  8-C ,  9-C ) :   1.1820 B(  8-C , 28-H ) :   0.9250
B(  9-C , 12-C ) :   1.2605 B( 12-C , 14-C ) :   1.5052 B( 12-C , 16-H ) :   0.9254
B( 13-C , 15-C ) :   1.5188 B( 13-C , 19-H ) :   0.9117 B( 14-C , 15-C ) :   1.3294
B( 14-C , 17-H ) :   0.9175 B( 15-C , 18-H ) :   0.9183 B( 20-C , 21-H ) :   0.9117
B( 20-C , 26-C ) :   1.5188 B( 22-C , 23-H ) :   0.9254 B( 22-C , 24-C ) :   1.5052
B( 24-C , 25-H ) :   0.9175 B( 24-C , 26-C ) :   1.3294 B( 26-C , 27-H ) :   0.9183

Dispersion correction           -0.023872468
FINAL SINGLE POINT ENERGY      -691.626842740094

DIPOLE MOMENT
-------------
                                X             Y             Z
Electronic contribution:     -0.00000      -0.00000       1.92637
Nuclear contribution   :      0.00000       0.00000      -1.89600
                        -----------------------------------------
Total Dipole Moment    :     -0.00000      -0.00000       0.03037
                        -----------------------------------------
Magnitude (a.u.)       :      0.03037
Magnitude (Debye)      :      0.07720

Rotational constants in cm-1:     0.027665     0.011437     0.008092
Rotational constants in MHz :   829.370326   342.872551   242.584813

                             ****ORCA TERMINATED NORMALLY****
TOTAL RUN TIME: 0 days 0 hours 4 minutes 12 seconds 480 msec
