                         Program Version 5.0.3 -  RELEASE  -
|  1> ! PBEh-3c def2/J TightSCF DefGrid3
|  2>
|  3> %maxcore 60000
|  4>
|  5> %pal
|  6> nprocs 4
|  7> end
|  8>
|  9> *xyzfile 0 1 B11.xyz
| 10>
| 11>                          ****END OF INPUT****

CARTESIAN COORDINATES (ANGSTROEM)
---------------------------------
  C      1.354844   -0.452677    0.585396
  H      0.731177   -1.343318    0.628550
  O      2.039332   -0.526982   -0.666433
  C      0.496426    0.798053    0.724398
  H     -0.053259    0.727453    1.664295
  H      1.145592    1.675656    0.800447
  C     -0.485477    1.005494   -0.432447
  H      0.061765    1.223648   -1.350854
  H     -1.116085    1.869231   -0.213831
  H      2.638223    0.223634   -0.710118
  H      2.063775   -0.510474    1.416623
  C     -1.372713   -0.198173   -0.697009
  H     -2.100308    0.049056   -1.475351
  H     -0.768777   -1.036087   -1.055132
  O     -2.035322   -0.535087    0.523877
  H     -2.592655   -1.298432    0.353790

 Total Charge           Charge          ....    0
 Multiplicity           Mult            ....    1
 Number of Electrons    NEL             ....   50
 Basis Dimension        Dim             ....  110

ORBITAL ENERGIES
----------------

  NO   OCC          E(Eh)            E(eV)
   0   2.0000     -19.482037      -530.1332
   1   2.0000     -19.481411      -530.1161
   2   2.0000     -10.475277      -285.0468
   3   2.0000     -10.473264      -284.9920
   4   2.0000     -10.427158      -283.7374
   5   2.0000     -10.426887      -283.7300
   6   2.0000      -1.118087       -30.4247
   7   2.0000      -1.115512       -30.3546
   8   2.0000      -0.875306       -23.8183
   9   2.0000      -0.790752       -21.5175
  10   2.0000      -0.712306       -19.3828
  11   2.0000      -0.637797       -17.3553
  12   2.0000      -0.578612       -15.7448
  13   2.0000      -0.556292       -15.1375
  14   2.0000      -0.527315       -14.3490
  15   2.0000      -0.508470       -13.8362
  16   2.0000      -0.478155       -13.0113
  17   2.0000      -0.452320       -12.3082
  18   2.0000      -0.436913       -11.8890
  19   2.0000      -0.400848       -10.9076
  20   2.0000      -0.394016       -10.7217
  21   2.0000      -0.380934       -10.3657
  22   2.0000      -0.358109        -9.7447
  23   2.0000      -0.326025        -8.8716
  24   2.0000      -0.315573        -8.5872
  25   0.0000       0.115686         3.1480
  26   0.0000       0.142178         3.8689
  27   0.0000       0.179810         4.8929
  28   0.0000       0.186373         5.0715
  29   0.0000       0.192229         5.2308

MULLIKEN ATOMIC CHARGES
-----------------------
   0 C :   -0.178013
   1 H :    0.220898
   2 O :   -0.627646
   3 C :   -0.465843
   4 H :    0.238675
   5 H :    0.201983
   6 C :   -0.429317
   7 H :    0.214347
   8 H :    0.224231
   9 H :    0.408087
  10 H :    0.195138
  11 C :   -0.176588
  12 H :    0.193207
  13 H :    0.200426
  14 O :   -0.636453
  15 H :    0.416867
Sum of atomic charges:   -0.0000000

LOEWDIN ATOMIC CHARGES
----------------------
   0 C :   -0.099298
   1 H :    0.121568
   2 O :   -0.417875
   3 C :   -0.268526
   4 H :    0.139957
   5 H :    0.117283
   6 C :   -0.253328
   7 H :    0.128984
   8 H :    0.129260
   9 H :    0.304938
  10 H :    0.101771
  11 C :   -0.095298
  12 H :    0.101578
  13 H :    0.104332
  14 O :   -0.423588
  15 H :    0.308243

  Mayer bond orders larger than 0.100000
B(  0-C ,  1-H ) :   0.9096 B(  0-C ,  2-O ) :   1.0047 B(  0-C ,  3-C ) :   0.9699
B(  0-C , 10-H ) :   0.9150 B(  2-O ,  9-H ) :   0.7971 B(  3-C ,  4-H ) :   0.9020
B(  3-C ,  5-H ) :   0.9251 B(  3-C ,  6-C ) :   0.9723 B(  6-C ,  7-H ) :   0.9158
B(  6-C ,  8-H ) :   0.9182 B(  6-C , 11-C ) :   0.9876 B( 11-C , 12-H ) :   0.9107
B( 11-C , 13-H ) :   0.8991 B( 11-C , 14-O ) :   0.9971 B( 14-O , 15-H ) :   0.7940

Dispersion correction           -0.006824704
FINAL SINGLE POINT ENERGY      -308.207722174450

DIPOLE MOMENT
-------------
                                X             Y             Z
Electronic contribution:     -0.05372      -1.47121      -0.14951
Nuclear contribution   :      0.00991       1.62924       0.05853
                        -----------------------------------------
Total Dipole Moment    :     -0.04381       0.15802      -0.09098
                        -----------------------------------------
Magnitude (a.u.)       :      0.18753
Magnitude (Debye)      :      0.47666

Rotational constants in cm-1:     0.194855     0.067116     0.066150
Rotational constants in MHz :  5841.601766  2012.083913  1983.133113

                             ****ORCA TERMINATED NORMALLY****
TOTAL RUN TIME: 0 days 0 hours 1 minutes 9 seconds 18 msec
