                         Program Version 5.0.3 -  RELEASE  -
|  1> ! PBEh-3c def2/J TightSCF DefGrid3
|  2>
|  3> %maxcore 60000
|  4>
|  5> %pal
|  6> nprocs 4
|  7> end
|  8>
|  9> *xyzfile 0 1 hf.xyz
| 10>
| 11>                          ****END OF INPUT****

CARTESIAN COORDINATES (ANGSTROEM)
---------------------------------
  H      0.000000    0.000000   -0.831390
  F      0.000000    0.000000    0.092377

 Total Charge           Charge          ....    0
 Multiplicity           Mult            ....    1
 Number of Electrons    NEL             ....   10
 Basis Dimension        Dim             ....   17

ORBITAL ENERGIES
----------------

  NO   OCC          E(Eh)            E(eV)
   0   2.0000     -25.064294      -682.0341
   1   2.0000      -1.299314       -35.3561
   2   2.0000      -0.597277       -16.2527
   3   2.0000      -0.462972       -12.5981
   4   2.0000      -0.462972       -12.5981
   5   0.0000       0.126972         3.4551
   6   0.0000       0.835585        22.7374
   7   0.0000       1.160594        31.5814
   8   0.0000       1.160594        31.5814
   9   0.0000       1.255927        34.1755

MULLIKEN ATOMIC CHARGES
-----------------------
   0 H :    0.510881
   1 F :   -0.510881
Sum of atomic charges:    0.0000000

LOEWDIN ATOMIC CHARGES
----------------------
   0 H :    0.384778
   1 F :   -0.384778

  Mayer bond orders larger than 0.100000
B(  0-H ,  1-F ) :   0.7308

Dispersion correction           -0.000066327
FINAL SINGLE POINT ENERGY      -100.241847568073

DIPOLE MOMENT
-------------
                                X             Y             Z
Electronic contribution:      0.00000       0.00000       0.14041
Nuclear contribution   :      0.00000       0.00000      -0.86611
                        -----------------------------------------
Total Dipole Moment    :      0.00000       0.00000      -0.72571
                        -----------------------------------------
Magnitude (a.u.)       :      0.72571
Magnitude (Debye)      :      1.84460

Rotational constants in cm-1:     0.000000    20.637826    20.637826
Rotational constants in MHz :     0.000000 618706.472692 618706.472692

                             ****ORCA TERMINATED NORMALLY****
TOTAL RUN TIME: 0 days 0 hours 0 minutes 47 seconds 662 msec
