                         Program Version 5.0.3 -  RELEASE  -
|  1> ! PBEh-3c def2/J TightSCF DefGrid3
|  2>
|  3> %maxcore 60000
|  4>
|  5> %pal
|  6> nprocs 4
|  7> end
|  8>
|  9> *xyzfile 0 1 11a.xyz
| 10>
| 11>                          ****END OF INPUT****

CARTESIAN COORDINATES (ANGSTROEM)
---------------------------------
  C     -1.207195   -0.696975    0.000000
  C     -1.207195    0.696975    0.000000
  C      0.000000   -1.393949    0.000000
  C      0.000000    1.393949    0.000000
  C      1.207195    0.696975    0.000000
  C      1.207195   -0.696975    0.000000
  H      0.000000   -2.474433    0.000000
  H      2.142922   -1.237216    0.000000
  H      2.142922    1.237216    0.000000
  H      0.000000    2.474433    0.000000
  H     -2.142922    1.237216    0.000000
  H     -2.142922   -1.237216    0.000000

 Total Charge           Charge          ....    0
 Multiplicity           Mult            ....    1
 Number of Electrons    NEL             ....   42
 Basis Dimension        Dim             ....  102

ORBITAL ENERGIES
----------------

  NO   OCC          E(Eh)            E(eV)
   0   2.0000     -10.448625      -284.3216
   1   2.0000     -10.448407      -284.3156
   2   2.0000     -10.448405      -284.3155
   3   2.0000     -10.447794      -284.2989
   4   2.0000     -10.447792      -284.2989
   5   2.0000     -10.447564      -284.2927
   6   2.0000      -0.952047       -25.9065
   7   2.0000      -0.835518       -22.7356
   8   2.0000      -0.835517       -22.7356
   9   2.0000      -0.679125       -18.4799
  10   2.0000      -0.679125       -18.4799
  11   2.0000      -0.592195       -16.1145
  12   2.0000      -0.526288       -14.3210
  13   2.0000      -0.508394       -13.8341
  14   2.0000      -0.481919       -13.1137
  15   2.0000      -0.481917       -13.1136
  16   2.0000      -0.420803       -11.4506
  17   2.0000      -0.398423       -10.8417
  18   2.0000      -0.398422       -10.8416
  19   2.0000      -0.292433        -7.9575
  20   2.0000      -0.292430        -7.9574
  21   0.0000       0.019174         0.5217
  22   0.0000       0.019175         0.5218
  23   0.0000       0.141221         3.8428
  24   0.0000       0.196199         5.3388
  25   0.0000       0.202171         5.5013

MULLIKEN ATOMIC CHARGES
-----------------------
   0 C :   -0.219894
   1 C :   -0.219894
   2 C :   -0.219907
   3 C :   -0.219907
   4 C :   -0.219894
   5 C :   -0.219894
   6 H :    0.219907
   7 H :    0.219894
   8 H :    0.219894
   9 H :    0.219907
  10 H :    0.219894
  11 H :    0.219894
Sum of atomic charges:    0.0000000

LOEWDIN ATOMIC CHARGES
----------------------
   0 C :   -0.135649
   1 C :   -0.135649
   2 C :   -0.135655
   3 C :   -0.135655
   4 C :   -0.135649
   5 C :   -0.135649
   6 H :    0.135651
   7 H :    0.135652
   8 H :    0.135652
   9 H :    0.135651
  10 H :    0.135652
  11 H :    0.135652

  Mayer bond orders larger than 0.100000
B(  0-C ,  1-C ) :   1.4267 B(  0-C ,  2-C ) :   1.4267 B(  0-C , 11-H ) :   0.9200
B(  1-C ,  3-C ) :   1.4267 B(  1-C , 10-H ) :   0.9200 B(  2-C ,  5-C ) :   1.4267
B(  2-C ,  6-H ) :   0.9200 B(  3-C ,  4-C ) :   1.4267 B(  3-C ,  9-H ) :   0.9200
B(  4-C ,  5-C ) :   1.4267 B(  4-C ,  8-H ) :   0.9200 B(  5-C ,  7-H ) :   0.9200

Dispersion correction           -0.005881519
FINAL SINGLE POINT ENERGY      -231.725783403927

DIPOLE MOMENT
-------------
                                X             Y             Z
Electronic contribution:      0.00000      -0.00000       0.00000
Nuclear contribution   :      0.00000       0.00000       0.00000
                        -----------------------------------------
Total Dipole Moment    :      0.00000      -0.00000       0.00000
                        -----------------------------------------
Magnitude (a.u.)       :      0.00000
Magnitude (Debye)      :      0.00000

Rotational constants in cm-1:     0.190415     0.190415     0.095208
Rotational constants in MHz :  5708.508255  5708.508089  2854.254086

                             ****ORCA TERMINATED NORMALLY****
TOTAL RUN TIME: 0 days 0 hours 1 minutes 11 seconds 760 msec
