                         Program Version 5.0.3 -  RELEASE  -
|  1> ! PBEh-3c def2/J TightSCF DefGrid3
|  2>
|  3> %maxcore 60000
|  4>
|  5> %pal
|  6> nprocs 4
|  7> end
|  8>
|  9> *xyzfile 0 1 E20.xyz
| 10>
| 11>                          ****END OF INPUT****

CARTESIAN COORDINATES (ANGSTROEM)
---------------------------------
  C      0.000000    0.000000    0.066527
  F      0.000000    0.000000   -1.325991
  H      0.516356    0.894354    0.419821
  H      0.516356   -0.894354    0.419821
  H     -1.032711    0.000000    0.419821

 Total Charge           Charge          ....    0
 Multiplicity           Mult            ....    1
 Number of Electrons    NEL             ....   18
 Basis Dimension        Dim             ....   36

ORBITAL ENERGIES
----------------

  NO   OCC          E(Eh)            E(eV)
   0   2.0000     -25.064293      -682.0341
   1   2.0000     -10.508041      -285.9383
   2   2.0000      -1.295579       -35.2545
   3   2.0000      -0.780427       -21.2365
   4   2.0000      -0.542748       -14.7689
   5   2.0000      -0.542748       -14.7689
   6   2.0000      -0.540105       -14.6970
   7   2.0000      -0.400647       -10.9022
   8   2.0000      -0.400646       -10.9021
   9   0.0000       0.141828         3.8593
  10   0.0000       0.182446         4.9646
  11   0.0000       0.217502         5.9185
  12   0.0000       0.217504         5.9186
  13   0.0000       0.493822        13.4376

MULLIKEN ATOMIC CHARGES
-----------------------
   0 C :   -0.212790
   1 F :   -0.367909
   2 H :    0.193568
   3 H :    0.193568
   4 H :    0.193563
Sum of atomic charges:   -0.0000000

LOEWDIN ATOMIC CHARGES
----------------------
   0 C :   -0.072861
   1 F :   -0.261367
   2 H :    0.111410
   3 H :    0.111410
   4 H :    0.111408

  Mayer bond orders larger than 0.100000
B(  0-C ,  1-F ) :   0.9307 B(  0-C ,  2-H ) :   0.9205 B(  0-C ,  3-H ) :   0.9205
B(  0-C ,  4-H ) :   0.9205

Dispersion correction           -0.000732821
FINAL SINGLE POINT ENERGY      -139.455396893740

DIPOLE MOMENT
-------------
                                X             Y             Z
Electronic contribution:      0.00000       0.00000      -2.93739
Nuclear contribution   :     -0.00000       0.00000       3.69291
                        -----------------------------------------
Total Dipole Moment    :      0.00000       0.00000       0.75552
                        -----------------------------------------
Magnitude (a.u.)       :      0.75552
Magnitude (Debye)      :      1.92039

Rotational constants in cm-1:     5.227058     0.847455     0.847455
Rotational constants in MHz : 156703.242464 25406.062700 25406.062662

                             ****ORCA TERMINATED NORMALLY****
TOTAL RUN TIME: 0 days 0 hours 1 minutes 0 seconds 918 msec
