                         Program Version 5.0.3 -  RELEASE  -
|  1> ! PBEh-3c def2/J TightSCF DefGrid3
|  2>
|  3> %maxcore 60000
|  4>
|  5> %pal
|  6> nprocs 4
|  7> end
|  8>
|  9> *xyzfile 1 1 c2h2f41.xyz
| 10>
| 11>                          ****END OF INPUT****

CARTESIAN COORDINATES (ANGSTROEM)
---------------------------------
  C      0.142033   -0.089792   -1.044076
  H      0.185015    0.947793   -1.387857
  F      1.165761   -0.806296   -1.536502
  F     -1.014839   -0.663603   -1.347771
  C      0.382469   -0.255238    0.452821
  H      0.172270   -1.201567    0.957352
  F      1.295643    0.456612    0.966524
  F     -1.157321    0.586253    1.044959
  H     -1.171029    1.025838    1.894551

 Total Charge           Charge          ....    1
 Multiplicity           Mult            ....    1
 Number of Electrons    NEL             ....   50
 Basis Dimension        Dim             ....   96

ORBITAL ENERGIES
----------------

  NO   OCC          E(Eh)            E(eV)
   0   2.0000     -25.440445      -692.2697
   1   2.0000     -25.406672      -691.3507
   2   2.0000     -25.333473      -689.3589
   3   2.0000     -25.328995      -689.2370
   4   2.0000     -10.909963      -296.8752
   5   2.0000     -10.849824      -295.2387
   6   2.0000      -1.704435       -46.3800
   7   2.0000      -1.625024       -44.2191
   8   2.0000      -1.612862       -43.8882
   9   2.0000      -1.549352       -42.1600
  10   2.0000      -1.120073       -30.4787
  11   2.0000      -0.996784       -27.1239
  12   2.0000      -0.940626       -25.5957
  13   2.0000      -0.916597       -24.9419
  14   2.0000      -0.894001       -24.3270
  15   2.0000      -0.865284       -23.5456
  16   2.0000      -0.839096       -22.8330
  17   2.0000      -0.834681       -22.7128
  18   2.0000      -0.793870       -21.6023
  19   2.0000      -0.780168       -21.2295
  20   2.0000      -0.754473       -20.5302
  21   2.0000      -0.719894       -19.5893
  22   2.0000      -0.696684       -18.9577
  23   2.0000      -0.691052       -18.8045
  24   2.0000      -0.636090       -17.3089
  25   0.0000      -0.301841        -8.2135
  26   0.0000      -0.125520        -3.4156
  27   0.0000      -0.099771        -2.7149
  28   0.0000      -0.059537        -1.6201
  29   0.0000      -0.001857        -0.0505

MULLIKEN ATOMIC CHARGES
-----------------------
   0 C :    0.499341
   1 H :    0.262143
   2 F :   -0.275745
   3 F :   -0.264325
   4 C :    0.370567
   5 H :    0.348357
   6 F :   -0.136573
   7 F :   -0.405513
   8 H :    0.601748
Sum of atomic charges:    1.0000000

LOEWDIN ATOMIC CHARGES
----------------------
   0 C :    0.234582
   1 H :    0.157040
   2 F :   -0.113425
   3 F :   -0.108725
   4 C :    0.352159
   5 H :    0.198252
   6 F :    0.020788
   7 F :   -0.205075
   8 H :    0.464403

  Mayer bond orders larger than 0.100000
B(  0-C ,  1-H ) :   0.8633 B(  0-C ,  2-F ) :   0.9915 B(  0-C ,  3-F ) :   1.0428
B(  0-C ,  4-C ) :   0.8527 B(  4-C ,  5-H ) :   0.8235 B(  4-C ,  6-F ) :   1.2375
B(  4-C ,  7-F ) :   0.3141 B(  7-F ,  8-H ) :   0.6222

Dispersion correction           -0.002609861
FINAL SINGLE POINT ENERGY      -476.055397316567

DIPOLE MOMENT
-------------
                                X             Y             Z
Electronic contribution:      0.59495      -0.21017       0.03134
Nuclear contribution   :     -0.93647       1.02067       1.99004
                        -----------------------------------------
Total Dipole Moment    :     -0.34151       0.81050       2.02138
                        -----------------------------------------
Magnitude (a.u.)       :      2.20443
Magnitude (Debye)      :      5.60321

Rotational constants in cm-1:     0.150872     0.098739     0.063326
Rotational constants in MHz :  4523.013925  2960.130978  1898.457241

                             ****ORCA TERMINATED NORMALLY****
TOTAL RUN TIME: 0 days 0 hours 1 minutes 17 seconds 535 msec
