                         Program Version 5.0.3 -  RELEASE  -
|  1> ! PBEh-3c def2/J TightSCF DefGrid3
|  2>
|  3> %maxcore 60000
|  4>
|  5> %pal
|  6> nprocs 4
|  7> end
|  8>
|  9> *xyzfile 1 1 144A.xyz
| 10>
| 11>                          ****END OF INPUT****

CARTESIAN COORDINATES (ANGSTROEM)
---------------------------------
  C     -0.092140   -0.019860    0.033390
  C     -0.092140   -0.019860    1.547650
  N      1.303660   -0.019860    2.060560
  H      1.824540    0.792760    1.719320
  H      1.833750   -0.875930    1.699760
  H      1.330550   -0.005500    3.083390
  H     -0.572870   -0.910670    1.946460
  H     -0.598190    0.855200    1.949730
  H     -1.118690   -0.018500   -0.326520
  H      0.409780    0.864120   -0.356700
  H      0.412260   -0.901910   -0.354940

 Total Charge           Charge          ....    1
 Multiplicity           Mult            ....    1
 Number of Electrons    NEL             ....   26
 Basis Dimension        Dim             ....   61

ORBITAL ENERGIES
----------------

  NO   OCC          E(Eh)            E(eV)
   0   2.0000     -14.976090      -407.5201
   1   2.0000     -10.695218      -291.0317
   2   2.0000     -10.616261      -288.8831
   3   2.0000      -1.316273       -35.8176
   4   2.0000      -1.054866       -28.7044
   5   2.0000      -0.921863       -25.0852
   6   2.0000      -0.859523       -23.3888
   7   2.0000      -0.856633       -23.3102
   8   2.0000      -0.760612       -20.6973
   9   2.0000      -0.700521       -19.0621
  10   2.0000      -0.637634       -17.3509
  11   2.0000      -0.624381       -16.9903
  12   2.0000      -0.603194       -16.4137
  13   0.0000      -0.130226        -3.5436
  14   0.0000      -0.072044        -1.9604
  15   0.0000      -0.060279        -1.6403
  16   0.0000      -0.028651        -0.7796
  17   0.0000       0.002822         0.0768

MULLIKEN ATOMIC CHARGES
-----------------------
   0 C :   -0.663665
   1 C :   -0.363227
   2 N :   -0.776224
   3 H :    0.454298
   4 H :    0.454910
   5 H :    0.464000
   6 H :    0.308695
   7 H :    0.310721
   8 H :    0.306351
   9 H :    0.252928
  10 H :    0.251211
Sum of atomic charges:    1.0000000

LOEWDIN ATOMIC CHARGES
----------------------
   0 C :   -0.369234
   1 C :   -0.159175
   2 N :   -0.210213
   3 H :    0.307339
   4 H :    0.318646
   5 H :    0.311134
   6 H :    0.163199
   7 H :    0.164401
   8 H :    0.178498
   9 H :    0.148084
  10 H :    0.147321

  Mayer bond orders larger than 0.100000
B(  0-C ,  1-C ) :   0.9811 B(  0-C ,  8-H ) :   0.8923 B(  0-C ,  9-H ) :   0.9057
B(  0-C , 10-H ) :   0.9062 B(  1-C ,  2-N ) :   0.8257 B(  1-C ,  6-H ) :   0.8785
B(  1-C ,  7-H ) :   0.8776 B(  2-N ,  3-H ) :   0.7702 B(  2-N ,  4-H ) :   0.7700
B(  2-N ,  5-H ) :   0.7678

Dispersion correction           -0.003542941
FINAL SINGLE POINT ENERGY      -135.237489940351

DIPOLE MOMENT
-------------
                                X             Y             Z
Electronic contribution:      1.01404       0.01717       1.61915
Nuclear contribution   :      0.11738      -0.03216      -0.54193
                        -----------------------------------------
Total Dipole Moment    :      1.13142      -0.01499       1.07722
                        -----------------------------------------
Magnitude (a.u.)       :      1.56229
Magnitude (Debye)      :      3.97103

Rotational constants in cm-1:     0.984438     0.285646     0.251439
Rotational constants in MHz : 29512.696133  8563.453915  7537.966372

                             ****ORCA TERMINATED NORMALLY****
TOTAL RUN TIME: 0 days 0 hours 0 minutes 44 seconds 478 msec
