                         Program Version 5.0.3 -  RELEASE  -
|  1> ! PBEh-3c def2/J TightSCF DefGrid3
|  2>
|  3> %maxcore 60000
|  4>
|  5> %pal
|  6> nprocs 4
|  7> end
|  8>
|  9> *xyzfile 0 1 11.xyz
| 10>
| 11>                          ****END OF INPUT****

CARTESIAN COORDINATES (ANGSTROEM)
---------------------------------
  N     -2.490408   -0.003354   -0.386535
  H     -1.789822   -0.256316   -1.075247
  H     -3.381952   -0.290811   -0.768062
  C     -2.226214   -0.752016    0.841159
  H     -2.977849   -0.503456    1.588327
  H     -2.208723   -1.840019    0.727214
  H     -1.260242   -0.449217    1.242610
  C      0.336192    1.872373   -0.636960
  H      0.460810    2.283550   -1.636004
  H      0.842763    2.513366    0.080825
  H     -0.730220    1.845844   -0.418538
  C      0.848183    0.454576   -0.634666
  O      0.388204   -0.411160   -1.373840
  N      1.834666    0.181544    0.257665
  H      2.234427    0.936476    0.783018
  C      2.423112   -1.138047    0.335165
  H      1.634935   -1.879377    0.242144
  H      3.144371   -1.310042   -0.463380
  H      2.917765   -1.253915    1.295104

 Total Charge           Charge          ....    0
 Multiplicity           Mult            ....    1
 Number of Electrons    NEL             ....   58
 Basis Dimension        Dim             ....  129

ORBITAL ENERGIES
----------------

  NO   OCC          E(Eh)            E(eV)
   0   2.0000     -19.452845      -529.3388
   1   2.0000     -14.663931      -399.0259
   2   2.0000     -14.587928      -396.9577
   3   2.0000     -10.544899      -286.9413
   4   2.0000     -10.467681      -284.8401
   5   2.0000     -10.434599      -283.9399
   6   2.0000     -10.431788      -283.8634
   7   2.0000      -1.138580       -30.9823
   8   2.0000      -1.020654       -27.7734
   9   2.0000      -0.950033       -25.8517
  10   2.0000      -0.838267       -22.8104
  11   2.0000      -0.768773       -20.9194
  12   2.0000      -0.721439       -19.6314
  13   2.0000      -0.657827       -17.9004
  14   2.0000      -0.568491       -15.4694
  15   2.0000      -0.539400       -14.6778
  16   2.0000      -0.530990       -14.4490
  17   2.0000      -0.516591       -14.0572
  18   2.0000      -0.481588       -13.1047
  19   2.0000      -0.475886       -12.9495
  20   2.0000      -0.464344       -12.6355
  21   2.0000      -0.452536       -12.3141
  22   2.0000      -0.444458       -12.0943
  23   2.0000      -0.437552       -11.9064
  24   2.0000      -0.403641       -10.9836
  25   2.0000      -0.401981       -10.9385
  26   2.0000      -0.308532        -8.3956
  27   2.0000      -0.302021        -8.2184
  28   2.0000      -0.270979        -7.3737
  29   0.0000       0.064070         1.7434
  30   0.0000       0.115339         3.1385
  31   0.0000       0.150638         4.0991
  32   0.0000       0.173166         4.7121
  33   0.0000       0.186770         5.0823

MULLIKEN ATOMIC CHARGES
-----------------------
   0 N :   -0.773153
   1 H :    0.352785
   2 H :    0.311125
   3 C :   -0.498117
   4 H :    0.205819
   5 H :    0.183145
   6 H :    0.207344
   7 C :   -0.766458
   8 H :    0.252157
   9 H :    0.201477
  10 H :    0.298827
  11 C :    0.537416
  12 O :   -0.454079
  13 N :   -0.622589
  14 H :    0.356065
  15 C :   -0.488061
  16 H :    0.253844
  17 H :    0.228078
  18 H :    0.214374
Sum of atomic charges:    0.0000000

LOEWDIN ATOMIC CHARGES
----------------------
   0 N :   -0.500374
   1 H :    0.230693
   2 H :    0.215939
   3 C :   -0.277653
   4 H :    0.113490
   5 H :    0.092544
   6 H :    0.114748
   7 C :   -0.398208
   8 H :    0.154284
   9 H :    0.122565
  10 H :    0.173959
  11 C :    0.108945
  12 O :   -0.294391
  13 N :   -0.246777
  14 H :    0.252685
  15 C :   -0.255431
  16 H :    0.144613
  17 H :    0.124179
  18 H :    0.124190

  Mayer bond orders larger than 0.100000
B(  0-N ,  1-H ) :   0.8116 B(  0-N ,  2-H ) :   0.8683 B(  0-N ,  3-C ) :   1.0399
B(  3-C ,  4-H ) :   0.9278 B(  3-C ,  5-H ) :   0.9186 B(  3-C ,  6-H ) :   0.9254
B(  7-C ,  8-H ) :   0.9106 B(  7-C ,  9-H ) :   0.9228 B(  7-C , 10-H ) :   0.8688
B(  7-C , 11-C ) :   0.9395 B( 11-C , 12-O ) :   1.9157 B( 11-C , 13-N ) :   1.1479
B( 13-N , 14-H ) :   0.8291 B( 13-N , 15-C ) :   0.9517 B( 15-C , 16-H ) :   0.9077
B( 15-C , 17-H ) :   0.9162 B( 15-C , 18-H ) :   0.9266

Dispersion correction           -0.008006709
FINAL SINGLE POINT ENERGY      -343.640503971374

DIPOLE MOMENT
-------------
                                X             Y             Z
Electronic contribution:      3.25904       0.52714      -3.20786
Nuclear contribution   :     -2.39632      -0.30038       4.00457
                        -----------------------------------------
Total Dipole Moment    :      0.86272       0.22676       0.79671
                        -----------------------------------------
Magnitude (a.u.)       :      1.19601
Magnitude (Debye)      :      3.04002

Rotational constants in cm-1:     0.107951     0.044590     0.037937
Rotational constants in MHz :  3236.302470  1336.772927  1137.316538

                             ****ORCA TERMINATED NORMALLY****
TOTAL RUN TIME: 0 days 0 hours 1 minutes 32 seconds 877 msec
