                         Program Version 5.0.3 -  RELEASE  -
|  1> ! PBEh-3c def2/J TightSCF DefGrid3
|  2>
|  3> %maxcore 60000
|  4>
|  5> %pal
|  6> nprocs 4
|  7> end
|  8>
|  9> *xyzfile 0 1 NH3_PhI.xyz
| 10>
| 11>                          ****END OF INPUT****

CARTESIAN COORDINATES (ANGSTROEM)
---------------------------------
  N     -0.004248    4.258880    0.000000
  H      0.462913    4.629465    0.816127
  H      0.462913    4.629465   -0.816127
  H     -0.950065    4.615387    0.000000
  I      0.002591    1.082115    0.000000
  C      0.000000   -1.017015    0.000000
  C      1.201785   -1.711688    0.000000
  C      1.195583   -3.098982    0.000000
  C     -0.003901   -3.794115    0.000000
  C     -1.201440   -3.095624    0.000000
  C     -1.203716   -1.708332    0.000000
  H      2.140755   -1.173756    0.000000
  H      2.135696   -3.636005    0.000000
  H     -0.005430   -4.876495    0.000000
  H     -2.143049   -3.630014    0.000000
  H     -2.141181   -1.167779    0.000000

 Total Charge           Charge          ....    0
 Multiplicity           Mult            ....    1
 Number of Electrons    NEL             ....   76
 Basis Dimension        Dim             ....  147

ORBITAL ENERGIES
----------------

  NO   OCC          E(Eh)            E(eV)
   0   2.0000     -14.619245      -397.8099
   1   2.0000     -10.482903      -285.2543
   2   2.0000     -10.449601      -284.3481
   3   2.0000     -10.449557      -284.3469
   4   2.0000     -10.448706      -284.3237
   5   2.0000     -10.448596      -284.3207
   6   2.0000     -10.446655      -284.2679
   7   2.0000      -7.074124      -192.4967
   8   2.0000      -5.057781      -137.6292
   9   2.0000      -5.040854      -137.1686
  10   2.0000      -5.040686      -137.1641
  11   2.0000      -2.011585       -54.7380
  12   2.0000      -2.006162       -54.5904
  13   2.0000      -2.006075       -54.5881
  14   2.0000      -1.991585       -54.1938
  15   2.0000      -1.991581       -54.1937
  16   2.0000      -0.960689       -26.1417
  17   2.0000      -0.954912       -25.9845
  18   2.0000      -0.849328       -23.1114
  19   2.0000      -0.840019       -22.8581
  20   2.0000      -0.747473       -20.3398
  21   2.0000      -0.684540       -18.6273
  22   2.0000      -0.660063       -17.9612
  23   2.0000      -0.580287       -15.7904
  24   2.0000      -0.532464       -14.4891
  25   2.0000      -0.532385       -14.4869
  26   2.0000      -0.518186       -14.1006
  27   2.0000      -0.512935       -13.9577
  28   2.0000      -0.483870       -13.1668
  29   2.0000      -0.454656       -12.3718
  30   2.0000      -0.430909       -11.7256
  31   2.0000      -0.401863       -10.9352
  32   2.0000      -0.379672       -10.3314
  33   2.0000      -0.327102        -8.9009
  34   2.0000      -0.320127        -8.7111
  35   2.0000      -0.295261        -8.0345
  36   2.0000      -0.288953        -7.8628
  37   2.0000      -0.261102        -7.1049
  38   0.0000       0.017090         0.4650
  39   0.0000       0.018742         0.5100
  40   0.0000       0.031584         0.8594
  41   0.0000       0.132955         3.6179
  42   0.0000       0.162471         4.4211

MULLIKEN ATOMIC CHARGES
-----------------------
   0 N :   -0.946081
   1 H :    0.332555
   2 H :    0.332555
   3 H :    0.332365
   4 I :    0.079426
   5 C :   -0.195380
   6 C :   -0.214874
   7 C :   -0.208535
   8 C :   -0.229258
   9 C :   -0.208527
  10 C :   -0.214812
  11 H :    0.237593
  12 H :    0.222256
  13 H :    0.220994
  14 H :    0.222242
  15 H :    0.237482
Sum of atomic charges:   -0.0000000

LOEWDIN ATOMIC CHARGES
----------------------
   0 N :   -0.626082
   1 H :    0.226049
   2 H :    0.226049
   3 H :    0.225971
   4 I :    0.120325
   5 C :   -0.185118
   6 C :   -0.142707
   7 C :   -0.131033
   8 C :   -0.138124
   9 C :   -0.131041
  10 C :   -0.142721
  11 H :    0.143083
  12 H :    0.137824
  13 H :    0.136666
  14 H :    0.137818
  15 H :    0.143041

  Mayer bond orders larger than 0.100000
B(  0-N ,  1-H ) :   0.8684 B(  0-N ,  2-H ) :   0.8684 B(  0-N ,  3-H ) :   0.8686
B(  4-I ,  5-C ) :   1.0035 B(  5-C ,  6-C ) :   1.3778 B(  5-C , 10-C ) :   1.3777
B(  6-C ,  7-C ) :   1.4336 B(  6-C , 11-H ) :   0.9128 B(  7-C ,  8-C ) :   1.4232
B(  7-C , 12-H ) :   0.9181 B(  8-C ,  9-C ) :   1.4232 B(  8-C , 13-H ) :   0.9193
B(  9-C , 10-C ) :   1.4336 B(  9-C , 14-H ) :   0.9182 B( 10-C , 15-H ) :   0.9129

Dispersion correction           -0.008309136
FINAL SINGLE POINT ENERGY      -585.306175895251

DIPOLE MOMENT
-------------
                                X             Y             Z
Electronic contribution:      0.18845      73.04862      -0.00000
Nuclear contribution   :     -0.19631     -72.26142       0.00000
                        -----------------------------------------
Total Dipole Moment    :     -0.00786       0.78720      -0.00000
                        -----------------------------------------
Magnitude (a.u.)       :      0.78724
Magnitude (Debye)      :      2.00101

Rotational constants in cm-1:     0.186457     0.016763     0.015418
Rotational constants in MHz :  5589.847015   502.551659   462.229602

                             ****ORCA TERMINATED NORMALLY****
TOTAL RUN TIME: 0 days 0 hours 2 minutes 21 seconds 187 msec
