                         Program Version 5.0.3 -  RELEASE  -
|  1> ! PBEh-3c def2/J TightSCF DefGrid3
|  2>
|  3> %maxcore 60000
|  4>
|  5> %pal
|  6> nprocs 4
|  7> end
|  8>
|  9> *xyzfile 0 1 2.xyz
| 10>
| 11>                          ****END OF INPUT****

CARTESIAN COORDINATES (ANGSTROEM)
---------------------------------
  P      0.354522   -1.221043    0.000000
  P     -0.354522    1.221043    0.000000
  F      0.354522   -2.846969    0.000000
  F     -0.354522    2.846969    0.000000
  H      1.280139   -1.020796    1.050923
  H     -1.280139    1.020796    1.050923
  H      1.280139   -1.020796   -1.050923
  H     -1.280139    1.020796   -1.050923

 Total Charge           Charge          ....    0
 Multiplicity           Mult            ....    1
 Number of Electrons    NEL             ....   52
 Basis Dimension        Dim             ....   74

ORBITAL ENERGIES
----------------

  NO   OCC          E(Eh)            E(eV)
   0   2.0000     -77.810359     -2117.3275
   1   2.0000     -77.810312     -2117.3262
   2   2.0000     -25.083230      -682.5494
   3   2.0000     -25.083214      -682.5489
   4   2.0000      -6.877206      -187.1383
   5   2.0000      -6.877175      -187.1374
   6   2.0000      -4.969425      -135.2249
   7   2.0000      -4.969385      -135.2238
   8   2.0000      -4.967151      -135.1631
   9   2.0000      -4.967145      -135.1629
  10   2.0000      -4.965647      -135.1221
  11   2.0000      -4.965634      -135.1218
  12   2.0000      -1.306116       -35.5412
  13   2.0000      -1.306083       -35.5403
  14   2.0000      -0.758628       -20.6433
  15   2.0000      -0.710991       -19.3471
  16   2.0000      -0.557232       -15.1631
  17   2.0000      -0.542782       -14.7698
  18   2.0000      -0.535478       -14.5711
  19   2.0000      -0.527262       -14.3475
  20   2.0000      -0.513543       -13.9742
  21   2.0000      -0.493205       -13.4208
  22   2.0000      -0.436822       -11.8865
  23   2.0000      -0.415266       -11.3000
  24   2.0000      -0.360392        -9.8068
  25   2.0000      -0.296724        -8.0743
  26   0.0000      -0.008894        -0.2420
  27   0.0000       0.063290         1.7222
  28   0.0000       0.063683         1.7329
  29   0.0000       0.107408         2.9227
  30   0.0000       0.128882         3.5071

MULLIKEN ATOMIC CHARGES
-----------------------
   0 P :    0.285359
   1 P :    0.285359
   2 F :   -0.461674
   3 F :   -0.461674
   4 H :    0.088158
   5 H :    0.088158
   6 H :    0.088158
   7 H :    0.088158
Sum of atomic charges:   -0.0000000

LOEWDIN ATOMIC CHARGES
----------------------
   0 P :    0.302363
   1 P :    0.302363
   2 F :   -0.356768
   3 F :   -0.356768
   4 H :    0.027203
   5 H :    0.027203
   6 H :    0.027203
   7 H :    0.027203

  Mayer bond orders larger than 0.100000
B(  0-P ,  1-P ) :   0.4487 B(  0-P ,  2-F ) :   0.8139 B(  0-P ,  4-H ) :   0.9301
B(  0-P ,  6-H ) :   0.9301 B(  1-P ,  3-F ) :   0.8139 B(  1-P ,  5-H ) :   0.9301
B(  1-P ,  7-H ) :   0.9301

Dispersion correction           -0.002886969
FINAL SINGLE POINT ENERGY      -883.611135057613

DIPOLE MOMENT
-------------
                                X             Y             Z
Electronic contribution:     -0.00000       0.00000       0.00000
Nuclear contribution   :      0.00000       0.00000       0.00000
                        -----------------------------------------
Total Dipole Moment    :     -0.00000       0.00000       0.00000
                        -----------------------------------------
Magnitude (a.u.)       :      0.00000
Magnitude (Debye)      :      0.00000

Rotational constants in cm-1:     1.511668     0.039999     0.039787
Rotational constants in MHz : 45318.676828  1199.137445  1192.782340

                             ****ORCA TERMINATED NORMALLY****
TOTAL RUN TIME: 0 days 0 hours 0 minutes 49 seconds 277 msec
