                         Program Version 5.0.3 -  RELEASE  -
|  1> ! PBEh-3c def2/J TightSCF DefGrid3
|  2>
|  3> %maxcore 60000
|  4>
|  5> %pal
|  6> nprocs 4
|  7> end
|  8>
|  9> *xyzfile 0 1 PHE_xan.xyz
| 10>
| 11>                          ****END OF INPUT****

CARTESIAN COORDINATES (ANGSTROEM)
---------------------------------
  N     -1.111016   -0.949020   -0.061117
  C     -0.973333    0.033574    0.991950
  C     -1.090907    1.480424    0.506891
  O     -0.847726    2.411724    1.268271
  C      0.354685   -0.149781    1.743777
  C      1.517001   -0.136072    0.792239
  C      2.057884   -1.334657    0.312509
  C      2.035201    1.072601    0.309714
  C      3.086645   -1.332294   -0.629553
  C      3.063559    1.077389   -0.629275
  C      3.588676   -0.123612   -1.105755
  H     -0.271340   -1.197868   -0.563159
  H     -1.808835   -0.127239    1.674827
  H      0.320371   -1.097520    2.281554
  H      0.431981    0.660626    2.466373
  H      1.682427   -2.275671    0.698116
  H      1.629270    2.004845    0.680990
  H      3.497689   -2.268738   -0.982050
  H      3.458216    2.019090   -0.986364
  H      4.388891   -0.116717   -1.833012
  N     -1.474373    1.630183   -0.778226
  H     -1.684210    0.789629   -1.288637
  C     -1.698165    2.930892   -1.367530
  H     -1.331968    3.672204   -0.663930
  H     -1.156449    3.024234   -2.306312
  H     -2.757584    3.108267   -1.547044
  C     -2.168870   -1.822651   -0.100274
  O     -3.150452   -1.705198    0.616752
  C     -2.034833   -2.934011   -1.114145
  H     -1.978110   -3.880706   -0.580791
  H     -1.159971   -2.830048   -1.751803
  H     -2.931677   -2.956463   -1.727685

 Total Charge           Charge          ....    0
 Multiplicity           Mult            ....    1
 Number of Electrons    NEL             ....  118
 Basis Dimension        Dim             ....  272

ORBITAL ENERGIES
----------------

  NO   OCC          E(Eh)            E(eV)
   0   2.0000     -19.465846      -529.6926
   1   2.0000     -19.454737      -529.3903
   2   2.0000     -14.673171      -399.2773
   3   2.0000     -14.662660      -398.9913
   4   2.0000     -10.559471      -287.3378
   5   2.0000     -10.544319      -286.9255
   6   2.0000     -10.492173      -285.5066
   7   2.0000     -10.466446      -284.8065
   8   2.0000     -10.466377      -284.8046
   9   2.0000     -10.459112      -284.6069
  10   2.0000     -10.458184      -284.5816
  11   2.0000     -10.456292      -284.5302
  12   2.0000     -10.455702      -284.5141
  13   2.0000     -10.451413      -284.3974
  14   2.0000     -10.451379      -284.3965
  15   2.0000     -10.451050      -284.3875
  16   2.0000      -1.153337       -31.3839
  17   2.0000      -1.140262       -31.0281
  18   2.0000      -1.043092       -28.3840
  19   2.0000      -1.017667       -27.6921
  20   2.0000      -0.965962       -26.2852
  21   2.0000      -0.894672       -24.3453
  22   2.0000      -0.851512       -23.1708
  23   2.0000      -0.844162       -22.9708
  24   2.0000      -0.817089       -22.2341
  25   2.0000      -0.794411       -21.6170
  26   2.0000      -0.731663       -19.9096
  27   2.0000      -0.693227       -18.8637
  28   2.0000      -0.673534       -18.3278
  29   2.0000      -0.664503       -18.0821
  30   2.0000      -0.650755       -17.7079
  31   2.0000      -0.610890       -16.6232
  32   2.0000      -0.589285       -16.0352
  33   2.0000      -0.557284       -15.1645
  34   2.0000      -0.553272       -15.0553
  35   2.0000      -0.537177       -14.6173
  36   2.0000      -0.526567       -14.3286
  37   2.0000      -0.517881       -14.0923
  38   2.0000      -0.516587       -14.0571
  39   2.0000      -0.501988       -13.6598
  40   2.0000      -0.490241       -13.3401
  41   2.0000      -0.488480       -13.2922
  42   2.0000      -0.478716       -13.0265
  43   2.0000      -0.473878       -12.8949
  44   2.0000      -0.463681       -12.6174
  45   2.0000      -0.457790       -12.4571
  46   2.0000      -0.447088       -12.1659
  47   2.0000      -0.433857       -11.8059
  48   2.0000      -0.426991       -11.6190
  49   2.0000      -0.421663       -11.4740
  50   2.0000      -0.415046       -11.2940
  51   2.0000      -0.398694       -10.8490
  52   2.0000      -0.388606       -10.5745
  53   2.0000      -0.338608        -9.2140
  54   2.0000      -0.319019        -8.6810
  55   2.0000      -0.304237        -8.2787
  56   2.0000      -0.301588        -8.2066
  57   2.0000      -0.298547        -8.1239
  58   2.0000      -0.289486        -7.8773
  59   0.0000       0.005410         0.1472
  60   0.0000       0.007571         0.2060
  61   0.0000       0.050616         1.3773
  62   0.0000       0.063319         1.7230
  63   0.0000       0.118195         3.2162

MULLIKEN ATOMIC CHARGES
-----------------------
   0 N :   -0.668799
   1 C :   -0.190592
   2 C :    0.552843
   3 O :   -0.447084
   4 C :   -0.510982
   5 C :    0.096010
   6 C :   -0.313288
   7 C :   -0.273820
   8 C :   -0.212297
   9 C :   -0.209069
  10 C :   -0.232078
  11 H :    0.383348
  12 H :    0.308859
  13 H :    0.241957
  14 H :    0.282175
  15 H :    0.224355
  16 H :    0.260093
  17 H :    0.221761
  18 H :    0.224282
  19 H :    0.222433
  20 N :   -0.627992
  21 H :    0.371771
  22 C :   -0.494021
  23 H :    0.263945
  24 H :    0.218757
  25 H :    0.224787
  26 C :    0.511403
  27 O :   -0.410642
  28 C :   -0.759211
  29 H :    0.260680
  30 H :    0.216984
  31 H :    0.263430
Sum of atomic charges:   -0.0000000

LOEWDIN ATOMIC CHARGES
----------------------
   0 N :   -0.246136
   1 C :   -0.088760
   2 C :    0.105743
   3 O :   -0.294791
   4 C :   -0.217920
   5 C :   -0.057865
   6 C :   -0.159504
   7 C :   -0.130180
   8 C :   -0.136029
   9 C :   -0.128085
  10 C :   -0.139374
  11 H :    0.261891
  12 H :    0.172107
  13 H :    0.137149
  14 H :    0.161037
  15 H :    0.134581
  16 H :    0.153649
  17 H :    0.136949
  18 H :    0.138461
  19 H :    0.136954
  20 N :   -0.234542
  21 H :    0.257875
  22 C :   -0.256740
  23 H :    0.153365
  24 H :    0.122869
  25 H :    0.124063
  26 C :    0.104835
  27 O :   -0.266645
  28 C :   -0.391693
  29 H :    0.158949
  30 H :    0.129091
  31 H :    0.158697

  Mayer bond orders larger than 0.100000
B(  0-N ,  1-C ) :   0.9055 B(  0-N , 11-H ) :   0.7895 B(  0-N , 26-C ) :   1.1073
B(  1-C ,  2-C ) :   0.9044 B(  1-C ,  4-C ) :   0.9522 B(  1-C , 12-H ) :   0.8587
B(  2-C ,  3-O ) :   1.9339 B(  2-C , 20-N ) :   1.1683 B(  4-C ,  5-C ) :   0.9531
B(  4-C , 13-H ) :   0.9161 B(  4-C , 14-H ) :   0.8897 B(  5-C ,  6-C ) :   1.3949
B(  5-C ,  7-C ) :   1.3996 B(  6-C ,  8-C ) :   1.4176 B(  6-C , 15-H ) :   0.9168
B(  7-C ,  9-C ) :   1.4246 B(  7-C , 16-H ) :   0.8911 B(  8-C , 10-C ) :   1.4310
B(  8-C , 17-H ) :   0.9193 B(  9-C , 10-C ) :   1.4151 B(  9-C , 18-H ) :   0.9195
B( 10-C , 19-H ) :   0.9190 B( 20-N , 21-H ) :   0.7975 B( 20-N , 22-C ) :   0.9524
B( 22-C , 23-H ) :   0.8990 B( 22-C , 24-H ) :   0.9227 B( 22-C , 25-H ) :   0.9192
B( 26-C , 27-O ) :   2.0126 B( 26-C , 28-C ) :   0.9268 B( 28-C , 29-H ) :   0.9077
B( 28-C , 30-H ) :   0.9193 B( 28-C , 31-H ) :   0.9088

Dispersion correction           -0.021565202
FINAL SINGLE POINT ENERGY      -725.333258958379

DIPOLE MOMENT
-------------
                                X             Y             Z
Electronic contribution:      0.15710       0.90590       4.89099
Nuclear contribution   :      0.70741      -1.67360      -6.58525
                        -----------------------------------------
Total Dipole Moment    :      0.86451      -0.76769      -1.69427
                        -----------------------------------------
Magnitude (a.u.)       :      2.05117
Magnitude (Debye)      :      5.21365

Rotational constants in cm-1:     0.020771     0.014255     0.010537
Rotational constants in MHz :   622.712579   427.364059   315.889478

                             ****ORCA TERMINATED NORMALLY****
TOTAL RUN TIME: 0 days 0 hours 4 minutes 13 seconds 895 msec
