                         Program Version 5.0.3 -  RELEASE  -
|  1> ! PBEh-3c def2/J TightSCF DefGrid3
|  2>
|  3> %maxcore 60000
|  4>
|  5> %pal
|  6> nprocs 4
|  7> end
|  8>
|  9> *xyzfile 0 1 ed3.xyz
| 10>
| 11>                          ****END OF INPUT****

CARTESIAN COORDINATES (ANGSTROEM)
---------------------------------
  C      1.603860    0.943190    0.367496
  C      0.296975    0.570577    1.151019
  N     -0.390627   -0.546540    0.386761
  O      1.439866    1.779068   -0.526784
  O      2.592670    0.292825    0.710924
  H      0.536673    0.177593    2.141705
  C     -1.083805    0.138237   -0.747630
  C     -1.556568    1.469248   -0.162398
  C     -0.778641    1.644045    1.155409
  H     -0.351341    0.301384   -1.531762
  H     -1.879927   -0.506711   -1.121363
  H     -1.328684    2.269486   -0.862224
  H     -2.634247    1.468321    0.008826
  H     -0.325510    2.630297    1.231585
  H     -1.446389    1.520630    2.014062
  C      0.448387   -1.754142    0.054697
  H     -0.218574   -2.614734    0.135861
  H      1.203617   -1.822522    0.836132
  H     -1.124794   -0.886011    1.008257
  H      0.388971   -1.798800   -2.122464
  C      1.110099   -1.745350   -1.306758
  H      1.732033   -2.638767   -1.366637
  H      1.765955   -0.891325   -1.454713

 Total Charge           Charge          ....    0
 Multiplicity           Mult            ....    1
 Number of Electrons    NEL             ....   78
 Basis Dimension        Dim             ....  176

ORBITAL ENERGIES
----------------

  NO   OCC          E(Eh)            E(eV)
   0   2.0000     -19.390734      -527.6487
   1   2.0000     -19.388346      -527.5837
   2   2.0000     -14.780048      -402.1856
   3   2.0000     -10.516629      -286.1720
   4   2.0000     -10.512135      -286.0497
   5   2.0000     -10.493588      -285.5450
   6   2.0000     -10.487871      -285.3895
   7   2.0000     -10.461781      -284.6795
   8   2.0000     -10.453791      -284.4621
   9   2.0000     -10.448916      -284.3295
  10   2.0000      -1.143911       -31.1274
  11   2.0000      -1.096705       -29.8429
  12   2.0000      -1.010040       -27.4846
  13   2.0000      -0.925740       -25.1907
  14   2.0000      -0.865176       -23.5426
  15   2.0000      -0.854407       -23.2496
  16   2.0000      -0.762340       -20.7443
  17   2.0000      -0.718387       -19.5483
  18   2.0000      -0.689410       -18.7598
  19   2.0000      -0.645057       -17.5529
  20   2.0000      -0.605297       -16.4710
  21   2.0000      -0.578334       -15.7373
  22   2.0000      -0.551455       -15.0059
  23   2.0000      -0.536662       -14.6033
  24   2.0000      -0.499195       -13.5838
  25   2.0000      -0.484938       -13.1958
  26   2.0000      -0.479997       -13.0614
  27   2.0000      -0.465898       -12.6777
  28   2.0000      -0.454422       -12.3655
  29   2.0000      -0.442053       -12.0289
  30   2.0000      -0.439608       -11.9624
  31   2.0000      -0.430615       -11.7176
  32   2.0000      -0.426824       -11.6145
  33   2.0000      -0.408200       -11.1077
  34   2.0000      -0.403683       -10.9848
  35   2.0000      -0.393176       -10.6989
  36   2.0000      -0.257178        -6.9982
  37   2.0000      -0.251813        -6.8522
  38   2.0000      -0.247535        -6.7358
  39   0.0000       0.048983         1.3329
  40   0.0000       0.103265         2.8100
  41   0.0000       0.116434         3.1683
  42   0.0000       0.126227         3.4348
  43   0.0000       0.135968         3.6999

MULLIKEN ATOMIC CHARGES
-----------------------
   0 C :    0.473552
   1 C :   -0.265051
   2 N :   -0.527028
   3 O :   -0.515297
   4 O :   -0.519714
   5 H :    0.264321
   6 C :   -0.325458
   7 C :   -0.452546
   8 C :   -0.443945
   9 H :    0.322426
  10 H :    0.248046
  11 H :    0.285653
  12 H :    0.223616
  13 H :    0.290331
  14 H :    0.214315
  15 C :   -0.302323
  16 H :    0.232869
  17 H :    0.305003
  18 H :    0.402740
  19 H :    0.212411
  20 C :   -0.691685
  21 H :    0.251066
  22 H :    0.316697
Sum of atomic charges:   -0.0000000

LOEWDIN ATOMIC CHARGES
----------------------
   0 C :   -0.001691
   1 C :   -0.113233
   2 N :   -0.039090
   3 O :   -0.363602
   4 O :   -0.354861
   5 H :    0.137149
   6 C :   -0.145934
   7 C :   -0.243719
   8 C :   -0.241695
   9 H :    0.169423
  10 H :    0.130634
  11 H :    0.160866
  12 H :    0.125809
  13 H :    0.163304
  14 H :    0.119914
  15 C :   -0.147181
  16 H :    0.125834
  17 H :    0.166204
  18 H :    0.276959
  19 H :    0.124798
  20 C :   -0.373452
  21 H :    0.149763
  22 H :    0.173802

  Mayer bond orders larger than 0.100000
B(  0-C ,  1-C ) :   0.8083 B(  0-C ,  3-O ) :   1.8116 B(  0-C ,  4-O ) :   1.7965
B(  1-C ,  2-N ) :   0.8155 B(  1-C ,  5-H ) :   0.9014 B(  1-C ,  8-C ) :   0.9356
B(  2-N ,  6-C ) :   0.8618 B(  2-N , 15-C ) :   0.8326 B(  2-N , 18-H ) :   0.8028
B(  3-O ,  4-O ) :   0.1456 B(  6-C ,  7-C ) :   0.9522 B(  6-C ,  9-H ) :   0.8663
B(  6-C , 10-H ) :   0.9109 B(  7-C ,  8-C ) :   0.9489 B(  7-C , 11-H ) :   0.9080
B(  7-C , 12-H ) :   0.9224 B(  8-C , 13-H ) :   0.9069 B(  8-C , 14-H ) :   0.9200
B( 15-C , 16-H ) :   0.9103 B( 15-C , 17-H ) :   0.8731 B( 15-C , 20-C ) :   0.9982
B( 19-H , 20-C ) :   0.9191 B( 20-C , 21-H ) :   0.9099 B( 20-C , 22-H ) :   0.8724

Dispersion correction           -0.014338412
FINAL SINGLE POINT ENERGY      -478.715067821786

DIPOLE MOMENT
-------------
                                X             Y             Z
Electronic contribution:      4.82423       3.81835       2.49431
Nuclear contribution   :     -8.16518      -5.82704      -2.15729
                        -----------------------------------------
Total Dipole Moment    :     -3.34095      -2.00869       0.33702
                        -----------------------------------------
Magnitude (a.u.)       :      3.91284
Magnitude (Debye)      :      9.94566

Rotational constants in cm-1:     0.056379     0.046912     0.034099
Rotational constants in MHz :  1690.186067  1406.391800  1022.263395

                             ****ORCA TERMINATED NORMALLY****
TOTAL RUN TIME: 0 days 0 hours 2 minutes 53 seconds 183 msec
