                         Program Version 5.0.3 -  RELEASE  -
|  1> ! PBEh-3c def2/J TightSCF DefGrid3
|  2>
|  3> %maxcore 60000
|  4>
|  5> %pal
|  6> nprocs 4
|  7> end
|  8>
|  9> *xyzfile 0 1 3-methylpentane.xyz
| 10>
| 11>                          ****END OF INPUT****

CARTESIAN COORDINATES (ANGSTROEM)
---------------------------------
  C     -2.095551   -0.452368   -1.482497
  H     -1.908241   -1.530622   -1.586203
  H     -1.702893    0.042212   -2.384341
  H     -3.185885   -0.310570   -1.475034
  C     -1.459227    0.125095   -0.214562
  H     -1.863375   -0.395906    0.671736
  C      0.079831    0.062769   -0.166145
  H      0.461290    0.563875   -1.076999
  C      0.602947    0.853063    1.049361
  H      0.263823    0.349528    1.972293
  H      0.119324    1.844319    1.051425
  C      2.122015    1.043149    1.097537
  H      2.489701    1.534417    0.183455
  H      2.412881    1.672003    1.951323
  H      2.656036    0.087974    1.199172
  C      0.593732   -1.383154   -0.171471
  H      1.691768   -1.425706   -0.169683
  H      0.235962   -1.925205    0.719398
  H      0.251379   -1.934540   -1.058224
  H     -1.765518    1.179666   -0.110539

 Total Charge           Charge          ....    0
 Multiplicity           Mult            ....    1
 Number of Electrons    NEL             ....   50
 Basis Dimension        Dim             ....  118

ORBITAL ENERGIES
----------------

  NO   OCC          E(Eh)            E(eV)
   0   2.0000     -10.438813      -284.0546
   1   2.0000     -10.430543      -283.8295
   2   2.0000     -10.430501      -283.8284
   3   2.0000     -10.423445      -283.6364
   4   2.0000     -10.423418      -283.6356
   5   2.0000     -10.421400      -283.5807
   6   2.0000      -0.902197       -24.5500
   7   2.0000      -0.832576       -22.6556
   8   2.0000      -0.788014       -21.4429
   9   2.0000      -0.727192       -19.7879
  10   2.0000      -0.667316       -18.1586
  11   2.0000      -0.618526       -16.8310
  12   2.0000      -0.523965       -14.2578
  13   2.0000      -0.510826       -13.9003
  14   2.0000      -0.484615       -13.1870
  15   2.0000      -0.469865       -12.7857
  16   2.0000      -0.447447       -12.1757
  17   2.0000      -0.440682       -11.9916
  18   2.0000      -0.422147       -11.4872
  19   2.0000      -0.410676       -11.1751
  20   2.0000      -0.398598       -10.8464
  21   2.0000      -0.380116       -10.3435
  22   2.0000      -0.361350        -9.8328
  23   2.0000      -0.357276        -9.7220
  24   2.0000      -0.353987        -9.6325
  25   0.0000       0.128573         3.4986
  26   0.0000       0.165155         4.4941
  27   0.0000       0.170504         4.6396
  28   0.0000       0.175710         4.7813
  29   0.0000       0.192237         5.2310

MULLIKEN ATOMIC CHARGES
-----------------------
   0 C :   -0.643458
   1 H :    0.210760
   2 H :    0.207424
   3 H :    0.218959
   4 C :   -0.392452
   5 H :    0.199074
   6 C :   -0.210338
   7 H :    0.194623
   8 C :   -0.392593
   9 H :    0.199117
  10 H :    0.206977
  11 C :   -0.643298
  12 H :    0.207418
  13 H :    0.218913
  14 H :    0.210729
  15 C :   -0.640602
  16 H :    0.219758
  17 H :    0.202258
  18 H :    0.219796
  19 H :    0.206936
Sum of atomic charges:    0.0000000

LOEWDIN ATOMIC CHARGES
----------------------
   0 C :   -0.362655
   1 H :    0.122678
   2 H :    0.123008
   3 H :    0.127294
   4 C :   -0.237937
   5 H :    0.118802
   6 C :   -0.156908
   7 H :    0.115389
   8 C :   -0.237917
   9 H :    0.118812
  10 H :    0.120281
  11 C :   -0.362606
  12 H :    0.123000
  13 H :    0.127283
  14 H :    0.122645
  15 C :   -0.355303
  16 H :    0.125716
  17 H :    0.122382
  18 H :    0.125759
  19 H :    0.120278

  Mayer bond orders larger than 0.100000
B(  0-C ,  1-H ) :   0.9266 B(  0-C ,  2-H ) :   0.9293 B(  0-C ,  3-H ) :   0.9305
B(  0-C ,  4-C ) :   0.9927 B(  4-C ,  5-H ) :   0.9176 B(  4-C ,  6-C ) :   0.9794
B(  4-C , 19-H ) :   0.9231 B(  6-C ,  7-H ) :   0.9086 B(  6-C ,  8-C ) :   0.9792
B(  6-C , 15-C ) :   0.9777 B(  8-C ,  9-H ) :   0.9176 B(  8-C , 10-H ) :   0.9231
B(  8-C , 11-C ) :   0.9927 B( 11-C , 12-H ) :   0.9293 B( 11-C , 13-H ) :   0.9305
B( 11-C , 14-H ) :   0.9266 B( 15-C , 16-H ) :   0.9263 B( 15-C , 17-H ) :   0.9274
B( 15-C , 18-H ) :   0.9263

Dispersion correction           -0.009201902
FINAL SINGLE POINT ENERGY      -236.561538722899

DIPOLE MOMENT
-------------
                                X             Y             Z
Electronic contribution:     -0.42027       0.68085       0.29466
Nuclear contribution   :      0.40862      -0.65001      -0.29348
                        -----------------------------------------
Total Dipole Moment    :     -0.01164       0.03084       0.00118
                        -----------------------------------------
Magnitude (a.u.)       :      0.03299
Magnitude (Debye)      :      0.08385

Rotational constants in cm-1:     0.217305     0.061191     0.052680
Rotational constants in MHz :  6514.646192  1834.452396  1579.299434

                             ****ORCA TERMINATED NORMALLY****
TOTAL RUN TIME: 0 days 0 hours 1 minutes 18 seconds 948 msec
