                         Program Version 5.0.3 -  RELEASE  -
|  1> ! PBEh-3c def2/J TightSCF DefGrid3
|  2>
|  3> %maxcore 60000
|  4>
|  5> %pal
|  6> nprocs 4
|  7> end
|  8>
|  9> *xyzfile 0 2 ch3nh.xyz
| 10>
| 11>                          ****END OF INPUT****

CARTESIAN COORDINATES (ANGSTROEM)
---------------------------------
  C     -0.692708    0.008758    0.000000
  H     -1.055208    0.557909    0.878215
  H     -1.133982   -0.986003    0.000000
  H     -1.055208    0.557909   -0.878215
  N      0.748581   -0.080360    0.000000
  H      1.096332    0.882576   -0.000000

 Total Charge           Charge          ....    0
 Multiplicity           Mult            ....    2
 Number of Electrons    NEL             ....   17
 Basis Dimension        Dim             ....   38

ORBITAL ENERGIES
----------------
                 SPIN UP ORBITALS
  NO   OCC          E(Eh)            E(eV)
   0   1.0000     -14.647098      -398.5678
   1   1.0000     -10.457648      -284.5671
   2   1.0000      -0.979396       -26.6507
   3   1.0000      -0.733920       -19.9710
   4   1.0000      -0.530581       -14.4378
   5   1.0000      -0.503512       -13.7013
   6   1.0000      -0.458931       -12.4882
   7   1.0000      -0.340141        -9.2557
   8   1.0000      -0.324980        -8.8432
   9   0.0000       0.137757         3.7486
  10   0.0000       0.192051         5.2260
  11   0.0000       0.215911         5.8752
  12   0.0000       0.220568         6.0019
  13   0.0000       0.247135         6.7249

                 SPIN DOWN ORBITALS
  NO   OCC          E(Eh)            E(eV)
   0   1.0000     -14.625575      -397.9821
   1   1.0000     -10.458842      -284.5996
   2   1.0000      -0.930285       -25.3144
   3   1.0000      -0.713221       -19.4077
   4   1.0000      -0.517545       -14.0831
   5   1.0000      -0.472609       -12.8604
   6   1.0000      -0.451474       -12.2852
   7   1.0000      -0.314628        -8.5615
   8   0.0000      -0.028659        -0.7798
   9   0.0000       0.145295         3.9537
  10   0.0000       0.200076         5.4443
  11   0.0000       0.221862         6.0372
  12   0.0000       0.228646         6.2218

MULLIKEN ATOMIC CHARGES AND SPIN POPULATIONS
--------------------------------------------
   0 C :   -0.533902   -0.088506
   1 H :    0.216523    0.055930
   2 H :    0.229986    0.000366
   3 H :    0.216523    0.055930
   4 N :   -0.429540    1.017344
   5 H :    0.300410   -0.041065
Sum of atomic charges         :    0.0000000

LOEWDIN ATOMIC CHARGES AND SPIN POPULATIONS
-------------------------------------------
   0 C :   -0.305701   -0.032584
   1 H :    0.123475    0.045115
   2 H :    0.123620    0.000075
   3 H :    0.123475    0.045115
   4 N :   -0.271910    0.968408
   5 H :    0.207040   -0.026130

  Mayer bond orders larger than 0.100000
B(  0-C ,  1-H ) :   0.9008 B(  0-C ,  2-H ) :   0.9133 B(  0-C ,  3-H ) :   0.9008
B(  0-C ,  4-N ) :   1.0765 B(  4-N ,  5-H ) :   0.8588

Dispersion correction           -0.001228493
FINAL SINGLE POINT ENERGY       -94.978176803738

DIPOLE MOMENT
-------------
                                X             Y             Z
Electronic contribution:      1.52031      -0.31392       0.00000
Nuclear contribution   :     -2.01114       0.94935       0.00000
                        -----------------------------------------
Total Dipole Moment    :     -0.49083       0.63543       0.00000
                        -----------------------------------------
Magnitude (a.u.)       :      0.80292
Magnitude (Debye)      :      2.04086

Rotational constants in cm-1:     4.173828     0.846270     0.808555
Rotational constants in MHz : 125128.211287 25370.534419 24239.863950

                             ****ORCA TERMINATED NORMALLY****
TOTAL RUN TIME: 0 days 0 hours 1 minutes 11 seconds 495 msec
