                         Program Version 5.0.3 -  RELEASE  -
|  1> ! PBEh-3c def2/J TightSCF DefGrid3
|  2>
|  3> %maxcore 60000
|  4>
|  5> %pal
|  6> nprocs 4
|  7> end
|  8>
|  9> *xyzfile -1 1 EA_f-.xyz
| 10>
| 11>                          ****END OF INPUT****

CARTESIAN COORDINATES (ANGSTROEM)
---------------------------------
  F      0.000000    0.000000    0.000000

 Total Charge           Charge          ....   -1
 Multiplicity           Mult            ....    1
 Number of Electrons    NEL             ....   10
 Basis Dimension        Dim             ....   15

ORBITAL ENERGIES
----------------

  NO   OCC          E(Eh)            E(eV)
   0   2.0000     -24.484780      -666.2647
   1   2.0000      -0.678486       -18.4625
   2   2.0000       0.079568         2.1652
   3   2.0000       0.079568         2.1652
   4   2.0000       0.079568         2.1652
   5   0.0000       1.702752        46.3342
   6   0.0000       1.702752        46.3342
   7   0.0000       1.702752        46.3342
   8   0.0000       1.718066        46.7510
   9   0.0000       1.718066        46.7510

MULLIKEN ATOMIC CHARGES
-----------------------
   0 F :   -1.000000
Sum of atomic charges:   -1.0000000

LOEWDIN ATOMIC CHARGES
----------------------
   0 F :   -1.000000

Dispersion correction            0.000000000
FINAL SINGLE POINT ENERGY       -99.588142094658

DIPOLE MOMENT
-------------
                                X             Y             Z
Electronic contribution:      0.00000       0.00000       0.00000
Nuclear contribution   :      0.00000       0.00000       0.00000
                        -----------------------------------------
Total Dipole Moment    :      0.00000       0.00000       0.00000
                        -----------------------------------------
Magnitude (a.u.)       :      0.00000
Magnitude (Debye)      :      0.00001

Rotational constants in cm-1:     0.000000     0.000000     0.000000
Rotational constants in MHz :     0.000000     0.000000     0.000000

                             ****ORCA TERMINATED NORMALLY****
TOTAL RUN TIME: 0 days 0 hours 0 minutes 6 seconds 814 msec
