                         Program Version 5.0.3 -  RELEASE  -
|  1> ! PBEh-3c def2/J TightSCF DefGrid3
|  2>
|  3> %maxcore 60000
|  4>
|  5> %pal
|  6> nprocs 4
|  7> end
|  8>
|  9> *xyzfile -1 3 EA_14.xyz
| 10>
| 11>                          ****END OF INPUT****

CARTESIAN COORDINATES (ANGSTROEM)
---------------------------------
  Si     0.000000    0.000000    0.782990
  H      0.000000    0.000000   -0.782990

 Total Charge           Charge          ....   -1
 Multiplicity           Mult            ....    3
 Number of Electrons    NEL             ....   16
 Basis Dimension        Dim             ....   20

ORBITAL ENERGIES
----------------
                 SPIN UP ORBITALS
  NO   OCC          E(Eh)            E(eV)
   0   1.0000     -66.462118     -1808.5262
   1   1.0000      -5.236704      -142.4980
   2   1.0000      -3.530463       -96.0688
   3   1.0000      -3.530463       -96.0688
   4   1.0000      -3.523485       -95.8789
   5   1.0000      -0.281358        -7.6561
   6   1.0000      -0.061221        -1.6659
   7   1.0000       0.029442         0.8012
   8   1.0000       0.029442         0.8012
   9   0.0000       0.326850         8.8941
  10   0.0000       0.402756        10.9596
  11   0.0000       0.674831        18.3631
  12   0.0000       0.685236        18.6462
  13   0.0000       0.685236        18.6462

                 SPIN DOWN ORBITALS
  NO   OCC          E(Eh)            E(eV)
   0   1.0000     -66.456610     -1808.3763
   1   1.0000      -5.230397      -142.3263
   2   1.0000      -3.520266       -95.7913
   3   1.0000      -3.517207       -95.7081
   4   1.0000      -3.517207       -95.7081
   5   1.0000      -0.223548        -6.0830
   6   1.0000      -0.031388        -0.8541
   7   0.0000       0.208325         5.6688
   8   0.0000       0.208325         5.6688
   9   0.0000       0.355235         9.6664
  10   0.0000       0.435427        11.8486
  11   0.0000       0.687565        18.7096

MULLIKEN ATOMIC CHARGES AND SPIN POPULATIONS
--------------------------------------------
   0 Si:   -0.849470    2.060426
   1 H :   -0.150530   -0.060426
Sum of atomic charges         :   -1.0000000

LOEWDIN ATOMIC CHARGES AND SPIN POPULATIONS
-------------------------------------------
   0 Si:   -0.891308    2.030611
   1 H :   -0.108692   -0.030611

  Mayer bond orders larger than 0.100000
B(  0-Si,  1-H ) :   0.9376

Dispersion correction           -0.000211711
FINAL SINGLE POINT ENERGY      -289.650096048134

DIPOLE MOMENT
-------------
                                X             Y             Z
Electronic contribution:      0.00000      -0.00000       1.27102
Nuclear contribution   :      0.00000       0.00000      -1.42135
                        -----------------------------------------
Total Dipole Moment    :      0.00000      -0.00000      -0.15034
                        -----------------------------------------
Magnitude (a.u.)       :      0.15034
Magnitude (Debye)      :      0.38213

Rotational constants in cm-1:     0.000000     7.064430     7.064430
Rotational constants in MHz :     0.000000 211786.298363 211786.298363

                             ****ORCA TERMINATED NORMALLY****
TOTAL RUN TIME: 0 days 0 hours 0 minutes 54 seconds 950 msec
