                         Program Version 5.0.3 -  RELEASE  -
|  1> ! PBEh-3c def2/J TightSCF DefGrid3
|  2>
|  3> %maxcore 60000
|  4>
|  5> %pal
|  6> nprocs 4
|  7> end
|  8>
|  9> *xyzfile 0 1 GLU_xbi.xyz
| 10>
| 11>                          ****END OF INPUT****

CARTESIAN COORDINATES (ANGSTROEM)
---------------------------------
  N      1.833782    0.424007    0.160996
  H      2.146390    1.303861    0.542003
  C      0.406885    0.252328    0.057969
  H      0.186534   -0.221531   -0.898747
  C     -0.097424   -0.644048    1.199097
  C     -0.211913    1.643707    0.124246
  H      0.123113   -0.148113    2.145042
  H      0.480563   -1.566627    1.153641
  C     -1.595311   -0.974898    1.146200
  O      0.357263    2.554913    0.724418
  H     -1.838682   -1.664012    1.951338
  H     -2.191714   -0.072604    1.255408
  C     -1.939404   -1.605841   -0.170292
  O     -1.790668   -2.940415   -0.151096
  O     -2.270805   -1.000474   -1.173449
  C      2.687215   -0.543329   -0.255518
  C      4.154605   -0.223194   -0.110642
  O      2.289617   -1.607731   -0.721435
  H      4.616635   -0.986756    0.510443
  H      4.337480    0.756076    0.324263
  H      4.617269   -0.273506   -1.093426
  N     -1.406004    1.760432   -0.490271
  C     -2.162830    2.994134   -0.471212
  H     -1.792120    0.937606   -0.936918
  H     -2.307239    3.375094   -1.480272
  H     -3.136431    2.845381   -0.007464
  H     -1.597534    3.718885    0.105841
  H     -1.952381   -3.243552   -1.058086

 Total Charge           Charge          ....    0
 Multiplicity           Mult            ....    1
 Number of Electrons    NEL             ....  108
 Basis Dimension        Dim             ....  238

ORBITAL ENERGIES
----------------

  NO   OCC          E(Eh)            E(eV)
   0   2.0000     -19.561402      -532.2928
   1   2.0000     -19.509885      -530.8909
   2   2.0000     -19.463894      -529.6395
   3   2.0000     -19.449075      -529.2362
   4   2.0000     -14.662857      -398.9966
   5   2.0000     -14.656292      -398.8180
   6   2.0000     -10.604143      -288.5534
   7   2.0000     -10.550669      -287.0983
   8   2.0000     -10.543739      -286.9097
   9   2.0000     -10.490426      -285.4590
  10   2.0000     -10.467033      -284.8225
  11   2.0000     -10.466896      -284.8187
  12   2.0000     -10.458621      -284.5935
  13   2.0000     -10.437567      -284.0206
  14   2.0000      -1.241647       -33.7869
  15   2.0000      -1.150347       -31.3025
  16   2.0000      -1.144384       -31.1403
  17   2.0000      -1.134234       -30.8641
  18   2.0000      -1.025270       -27.8990
  19   2.0000      -1.022738       -27.8301
  20   2.0000      -0.912912       -24.8416
  21   2.0000      -0.850588       -23.1457
  22   2.0000      -0.813076       -22.1249
  23   2.0000      -0.784194       -21.3390
  24   2.0000      -0.731322       -19.9003
  25   2.0000      -0.685413       -18.6510
  26   2.0000      -0.661646       -18.0043
  27   2.0000      -0.651836       -17.7374
  28   2.0000      -0.604275       -16.4432
  29   2.0000      -0.587777       -15.9942
  30   2.0000      -0.575951       -15.6724
  31   2.0000      -0.557244       -15.1634
  32   2.0000      -0.538335       -14.6488
  33   2.0000      -0.530458       -14.4345
  34   2.0000      -0.524834       -14.2815
  35   2.0000      -0.514859       -14.0100
  36   2.0000      -0.506374       -13.7791
  37   2.0000      -0.502935       -13.6856
  38   2.0000      -0.484729       -13.1902
  39   2.0000      -0.469239       -12.7687
  40   2.0000      -0.464953       -12.6520
  41   2.0000      -0.456597       -12.4246
  42   2.0000      -0.451337       -12.2815
  43   2.0000      -0.444693       -12.1007
  44   2.0000      -0.432374       -11.7655
  45   2.0000      -0.427329       -11.6282
  46   2.0000      -0.417942       -11.3728
  47   2.0000      -0.398555       -10.8452
  48   2.0000      -0.391672       -10.6579
  49   2.0000      -0.355773        -9.6811
  50   2.0000      -0.321328        -8.7438
  51   2.0000      -0.307468        -8.3666
  52   2.0000      -0.302245        -8.2245
  53   2.0000      -0.295665        -8.0454
  54   0.0000       0.021010         0.5717
  55   0.0000       0.051569         1.4033
  56   0.0000       0.071617         1.9488
  57   0.0000       0.115543         3.1441
  58   0.0000       0.140500         3.8232

MULLIKEN ATOMIC CHARGES
-----------------------
   0 N :   -0.643991
   1 H :    0.382035
   2 C :   -0.185124
   3 H :    0.275983
   4 C :   -0.445800
   5 C :    0.534408
   6 H :    0.248681
   7 H :    0.280998
   8 C :   -0.559746
   9 O :   -0.451034
  10 H :    0.270716
  11 H :    0.262915
  12 C :    0.547482
  13 O :   -0.561737
  14 O :   -0.425920
  15 C :    0.526767
  16 C :   -0.746338
  17 O :   -0.448150
  18 H :    0.254535
  19 H :    0.218132
  20 H :    0.256925
  21 N :   -0.657168
  22 C :   -0.497228
  23 H :    0.405392
  24 H :    0.226474
  25 H :    0.219251
  26 H :    0.263277
  27 H :    0.448266
Sum of atomic charges:   -0.0000000

LOEWDIN ATOMIC CHARGES
----------------------
   0 N :   -0.220907
   1 H :    0.268332
   2 C :   -0.096020
   3 H :    0.147930
   4 C :   -0.223876
   5 C :    0.108697
   6 H :    0.141092
   7 H :    0.153754
   8 C :   -0.272587
   9 O :   -0.299554
  10 H :    0.155502
  11 H :    0.149113
  12 C :    0.149446
  13 O :   -0.275888
  14 O :   -0.255915
  15 C :    0.105676
  16 C :   -0.386849
  17 O :   -0.296423
  18 H :    0.155093
  19 H :    0.129901
  20 H :    0.156542
  21 N :   -0.240790
  22 C :   -0.256350
  23 H :    0.264773
  24 H :    0.125766
  25 H :    0.122524
  26 H :    0.152483
  27 H :    0.338535

  Mayer bond orders larger than 0.100000
B(  0-N ,  1-H ) :   0.7805 B(  0-N ,  2-C ) :   0.9389 B(  0-N , 15-C ) :   1.1549
B(  2-C ,  3-H ) :   0.8715 B(  2-C ,  4-C ) :   0.9533 B(  2-C ,  5-C ) :   0.9007
B(  4-C ,  6-H ) :   0.9057 B(  4-C ,  7-H ) :   0.8871 B(  4-C ,  8-C ) :   0.9604
B(  5-C ,  9-O ) :   1.9503 B(  5-C , 21-N ) :   1.1769 B(  8-C , 10-H ) :   0.8950
B(  8-C , 11-H ) :   0.8981 B(  8-C , 12-C ) :   0.9238 B(  9-O , 21-N ) :   0.1025
B( 12-C , 13-O ) :   1.1868 B( 12-C , 14-O ) :   1.9385 B( 13-O , 27-H ) :   0.7545
B( 15-C , 16-C ) :   0.9287 B( 15-C , 17-O ) :   1.9514 B( 16-C , 18-H ) :   0.9116
B( 16-C , 19-H ) :   0.9208 B( 16-C , 20-H ) :   0.9104 B( 21-N , 22-C ) :   0.9551
B( 21-N , 23-H ) :   0.7350 B( 22-C , 24-H ) :   0.9197 B( 22-C , 25-H ) :   0.9219
B( 22-C , 26-H ) :   0.9007

Dispersion correction           -0.016953114
FINAL SINGLE POINT ENERGY      -722.205903528049

DIPOLE MOMENT
-------------
                                X             Y             Z
Electronic contribution:     -2.29140      -4.58922      -2.36500
Nuclear contribution   :      1.56997       4.54497       2.66074
                        -----------------------------------------
Total Dipole Moment    :     -0.72143      -0.04425       0.29574
                        -----------------------------------------
Magnitude (a.u.)       :      0.78095
Magnitude (Debye)      :      1.98502

Rotational constants in cm-1:     0.024465     0.018301     0.011896
Rotational constants in MHz :   733.444026   548.635342   356.622757

                             ****ORCA TERMINATED NORMALLY****
TOTAL RUN TIME: 0 days 0 hours 3 minutes 12 seconds 906 msec
