                         Program Version 5.0.3 -  RELEASE  -
|  1> ! PBEh-3c def2/J TightSCF DefGrid3
|  2>
|  3> %maxcore 60000
|  4>
|  5> %pal
|  6> nprocs 4
|  7> end
|  8>
|  9> *xyzfile 0 1 methanol_ecl.xyz
| 10>
| 11>                          ****END OF INPUT****

CARTESIAN COORDINATES (ANGSTROEM)
---------------------------------
  C      0.135450    0.333545    0.000000
  O      0.174467   -1.077408    0.000000
  H      0.643915    0.720293    0.879445
  H      0.643915    0.720293   -0.879445
  H     -0.881204    0.720771    0.000000
  H     -0.716544   -1.417494    0.000000

 Total Charge           Charge          ....    0
 Multiplicity           Mult            ....    1
 Number of Electrons    NEL             ....   18
 Basis Dimension        Dim             ....   38

ORBITAL ENERGIES
----------------

  NO   OCC          E(Eh)            E(eV)
   0   2.0000     -19.479521      -530.0647
   1   2.0000     -10.471567      -284.9458
   2   2.0000      -1.119972       -30.4760
   3   2.0000      -0.762030       -20.7359
   4   2.0000      -0.570642       -15.5279
   5   2.0000      -0.496449       -13.5091
   6   2.0000      -0.483625       -13.1601
   7   2.0000      -0.385964       -10.5026
   8   2.0000      -0.322610        -8.7787
   9   0.0000       0.127866         3.4794
  10   0.0000       0.194870         5.3027
  11   0.0000       0.212034         5.7698
  12   0.0000       0.232567         6.3285
  13   0.0000       0.261573         7.1177

MULLIKEN ATOMIC CHARGES
-----------------------
   0 C :   -0.362001
   1 O :   -0.633495
   2 H :    0.199654
   3 H :    0.199654
   4 H :    0.179875
   5 H :    0.416313
Sum of atomic charges:    0.0000000

LOEWDIN ATOMIC CHARGES
----------------------
   0 C :   -0.196816
   1 O :   -0.425302
   2 H :    0.107210
   3 H :    0.107210
   4 H :    0.099751
   5 H :    0.307946

  Mayer bond orders larger than 0.100000
B(  0-C ,  1-O ) :   1.0087 B(  0-C ,  2-H ) :   0.9183 B(  0-C ,  3-H ) :   0.9183
B(  0-C ,  4-H ) :   0.9338 B(  1-O ,  5-H ) :   0.7965

Dispersion correction           -0.001080461
FINAL SINGLE POINT ENERGY      -115.464922558595

DIPOLE MOMENT
-------------
                                X             Y             Z
Electronic contribution:      0.12474      -1.80172       0.00000
Nuclear contribution   :     -0.77094       2.14951       0.00000
                        -----------------------------------------
Total Dipole Moment    :     -0.64619       0.34779       0.00000
                        -----------------------------------------
Magnitude (a.u.)       :      0.73384
Magnitude (Debye)      :      1.86527

Rotational constants in cm-1:     4.362681     0.834006     0.804336
Rotational constants in MHz : 130789.896688 25002.884360 24113.388643

                             ****ORCA TERMINATED NORMALLY****
TOTAL RUN TIME: 0 days 0 hours 0 minutes 45 seconds 520 msec
