                         Program Version 5.0.3 -  RELEASE  -
|  1> ! PBEh-3c def2/J TightSCF DefGrid3
|  2>
|  3> %maxcore 60000
|  4>
|  5> %pal
|  6> nprocs 4
|  7> end
|  8>
|  9> *xyzfile 0 1 13B.xyz
| 10>
| 11>                          ****END OF INPUT****

CARTESIAN COORDINATES (ANGSTROEM)
---------------------------------
  O     -0.534220    0.957094    0.000000
  H      0.202149    1.572778    0.000000
  C     -0.004194   -0.364723    0.000000
  H     -0.854222   -1.040150    0.000000
  H      0.595243   -0.562500   -0.888636
  H      0.595243   -0.562500    0.888636

 Total Charge           Charge          ....    0
 Multiplicity           Mult            ....    1
 Number of Electrons    NEL             ....   18
 Basis Dimension        Dim             ....   38

ORBITAL ENERGIES
----------------

  NO   OCC          E(Eh)            E(eV)
   0   2.0000     -19.481481      -530.1180
   1   2.0000     -10.473029      -284.9856
   2   2.0000      -1.115906       -30.3654
   3   2.0000      -0.761134       -20.7115
   4   2.0000      -0.565631       -15.3916
   5   2.0000      -0.497959       -13.5502
   6   2.0000      -0.479174       -13.0390
   7   2.0000      -0.387839       -10.5536
   8   2.0000      -0.325295        -8.8517
   9   0.0000       0.130696         3.5564
  10   0.0000       0.194409         5.2901
  11   0.0000       0.219361         5.9691
  12   0.0000       0.233751         6.3607
  13   0.0000       0.237738         6.4692

MULLIKEN ATOMIC CHARGES
-----------------------
   0 O :   -0.630462
   1 H :    0.412334
   2 C :   -0.370196
   3 H :    0.218642
   4 H :    0.184841
   5 H :    0.184841
Sum of atomic charges:   -0.0000000

LOEWDIN ATOMIC CHARGES
----------------------
   0 O :   -0.427023
   1 H :    0.304929
   2 C :   -0.196764
   3 H :    0.122716
   4 H :    0.098071
   5 H :    0.098071

  Mayer bond orders larger than 0.100000
B(  0-O ,  1-H ) :   0.7975 B(  0-O ,  2-C ) :   1.0137 B(  2-C ,  3-H ) :   0.9251
B(  2-C ,  4-H ) :   0.9184 B(  2-C ,  5-H ) :   0.9184

Dispersion correction           -0.001080789
FINAL SINGLE POINT ENERGY      -115.466882179333

DIPOLE MOMENT
-------------
                                X             Y             Z
Electronic contribution:     -0.75665       1.61401       0.00000
Nuclear contribution   :      1.44429      -1.75675       0.00000
                        -----------------------------------------
Total Dipole Moment    :      0.68764      -0.14274       0.00000
                        -----------------------------------------
Magnitude (a.u.)       :      0.70230
Magnitude (Debye)      :      1.78511

Rotational constants in cm-1:     4.299102     0.824859     0.796139
Rotational constants in MHz : 128883.835352 24728.635924 23867.643101

                             ****ORCA TERMINATED NORMALLY****
TOTAL RUN TIME: 0 days 0 hours 1 minutes 11 seconds 417 msec
