                         Program Version 5.0.3 -  RELEASE  -
|  1> ! PBEh-3c def2/J TightSCF DefGrid3
|  2>
|  3> %maxcore 60000
|  4>
|  5> %pal
|  6> nprocs 4
|  7> end
|  8>
|  9> *xyzfile 0 1 r6.xyz
| 10>
| 11>                          ****END OF INPUT****

CARTESIAN COORDINATES (ANGSTROEM)
---------------------------------
  C     -0.789789    0.562726    0.000000
  C     -0.332027   -0.266372    1.197191
  C     -0.332027   -0.266372   -1.197191
  C      1.073570   -0.730841   -0.773440
  C      1.073570   -0.730841    0.773440
  C     -0.357495    0.465938    2.527237
  C     -0.357495    0.465938   -2.527237
  H     -0.262026    1.523553    0.000000
  H     -1.861241    0.767783    0.000000
  H     -0.983812   -1.143023    1.260011
  H     -0.983812   -1.143023   -1.260011
  H      1.321790   -1.703865   -1.195311
  H      1.812198   -0.022353   -1.152756
  H      1.321790   -1.703865    1.195311
  H      1.812198   -0.022353    1.152756
  H      0.275003    1.353783    2.479331
  H      0.013820   -0.165165    3.334923
  H     -1.366520    0.784866    2.788463
  H      0.275003    1.353783   -2.479331
  H     -1.366520    0.784866   -2.788463
  H      0.013820   -0.165165   -3.334923

 Total Charge           Charge          ....    0
 Multiplicity           Mult            ....    1
 Number of Electrons    NEL             ....   56
 Basis Dimension        Dim             ....  133

ORBITAL ENERGIES
----------------

  NO   OCC          E(Eh)            E(eV)
   0   2.0000     -10.432279      -283.8767
   1   2.0000     -10.432246      -283.8759
   2   2.0000     -10.422804      -283.6189
   3   2.0000     -10.422622      -283.6140
   4   2.0000     -10.420972      -283.5691
   5   2.0000     -10.417776      -283.4821
   6   2.0000     -10.417764      -283.4818
   7   2.0000      -0.936856       -25.4931
   8   2.0000      -0.846829       -23.0434
   9   2.0000      -0.798340       -21.7239
  10   2.0000      -0.758232       -20.6325
  11   2.0000      -0.706186       -19.2163
  12   2.0000      -0.627572       -17.0771
  13   2.0000      -0.612349       -16.6629
  14   2.0000      -0.546357       -14.8671
  15   2.0000      -0.500971       -13.6321
  16   2.0000      -0.499415       -13.5898
  17   2.0000      -0.471973       -12.8430
  18   2.0000      -0.460236       -12.5237
  19   2.0000      -0.448139       -12.1945
  20   2.0000      -0.433578       -11.7982
  21   2.0000      -0.411256       -11.1908
  22   2.0000      -0.380979       -10.3670
  23   2.0000      -0.370232       -10.0745
  24   2.0000      -0.363511        -9.8916
  25   2.0000      -0.362550        -9.8655
  26   2.0000      -0.351826        -9.5737
  27   2.0000      -0.348810        -9.4916
  28   0.0000       0.127458         3.4683
  29   0.0000       0.149959         4.0806
  30   0.0000       0.154665         4.2087
  31   0.0000       0.183730         4.9996
  32   0.0000       0.196545         5.3483

MULLIKEN ATOMIC CHARGES
-----------------------
   0 C :   -0.386661
   1 C :   -0.230804
   2 C :   -0.230804
   3 C :   -0.418661
   4 C :   -0.418661
   5 C :   -0.635188
   6 C :   -0.635188
   7 H :    0.193778
   8 H :    0.216731
   9 H :    0.209015
  10 H :    0.209015
  11 H :    0.218880
  12 H :    0.209734
  13 H :    0.218879
  14 H :    0.209734
  15 H :    0.203584
  16 H :    0.216044
  17 H :    0.215471
  18 H :    0.203584
  19 H :    0.215471
  20 H :    0.216044
Sum of atomic charges:    0.0000000

LOEWDIN ATOMIC CHARGES
----------------------
   0 C :   -0.228458
   1 C :   -0.157692
   2 C :   -0.157692
   3 C :   -0.236295
   4 C :   -0.236295
   5 C :   -0.353239
   6 C :   -0.353238
   7 H :    0.118156
   8 H :    0.123451
   9 H :    0.119125
  10 H :    0.119125
  11 H :    0.124778
  12 H :    0.122379
  13 H :    0.124778
  14 H :    0.122379
  15 H :    0.122459
  16 H :    0.126179
  17 H :    0.125729
  18 H :    0.122459
  19 H :    0.125729
  20 H :    0.126179

  Mayer bond orders larger than 0.100000
B(  0-C ,  1-C ) :   0.9776 B(  0-C ,  2-C ) :   0.9776 B(  0-C ,  7-H ) :   0.9185
B(  0-C ,  8-H ) :   0.9276 B(  1-C ,  4-C ) :   0.9686 B(  1-C ,  5-C ) :   0.9992
B(  1-C ,  9-H ) :   0.9109 B(  2-C ,  3-C ) :   0.9686 B(  2-C ,  6-C ) :   0.9992
B(  2-C , 10-H ) :   0.9109 B(  3-C ,  4-C ) :   0.9673 B(  3-C , 11-H ) :   0.9319
B(  3-C , 12-H ) :   0.9285 B(  4-C , 13-H ) :   0.9319 B(  4-C , 14-H ) :   0.9285
B(  5-C , 15-H ) :   0.9284 B(  5-C , 16-H ) :   0.9310 B(  5-C , 17-H ) :   0.9307
B(  6-C , 18-H ) :   0.9284 B(  6-C , 19-H ) :   0.9307 B(  6-C , 20-H ) :   0.9310

Dispersion correction           -0.010689161
FINAL SINGLE POINT ENERGY      -274.587370822340

DIPOLE MOMENT
-------------
                                X             Y             Z
Electronic contribution:     -0.08351      -1.24692       0.00000
Nuclear contribution   :      0.05228       1.20458      -0.00000
                        -----------------------------------------
Total Dipole Moment    :     -0.03124      -0.04234       0.00000
                        -----------------------------------------
Magnitude (a.u.)       :      0.05261
Magnitude (Debye)      :      0.13374

Rotational constants in cm-1:     0.168360     0.060599     0.048878
Rotational constants in MHz :  5047.318655  1816.699038  1465.313987

                             ****ORCA TERMINATED NORMALLY****
TOTAL RUN TIME: 0 days 0 hours 1 minutes 33 seconds 105 msec
