                         Program Version 5.0.3 -  RELEASE  -
|  1> ! PBEh-3c def2/J TightSCF DefGrid3
|  2>
|  3> %maxcore 60000
|  4>
|  5> %pal
|  6> nprocs 4
|  7> end
|  8>
|  9> *xyzfile 1 2 IP_80.xyz
| 10>
| 11>                          ****END OF INPUT****

CARTESIAN COORDINATES (ANGSTROEM)
---------------------------------
  C      0.000000    0.000000    0.745516
  S      0.000000    0.000000   -0.745516

 Total Charge           Charge          ....    1
 Multiplicity           Mult            ....    2
 Number of Electrons    NEL             ....   21
 Basis Dimension        Dim             ....   33

ORBITAL ENERGIES
----------------
                 SPIN UP ORBITALS
  NO   OCC          E(Eh)            E(eV)
   0   1.0000     -89.993156     -2448.8383
   1   1.0000     -10.942432      -297.7587
   2   1.0000      -8.632121      -234.8920
   3   1.0000      -6.522364      -177.4826
   4   1.0000      -6.515872      -177.3059
   5   1.0000      -6.515872      -177.3059
   6   1.0000      -1.279639       -34.8208
   7   1.0000      -0.922217       -25.0948
   8   1.0000      -0.774419       -21.0730
   9   1.0000      -0.730257       -19.8713
  10   1.0000      -0.730257       -19.8713
  11   0.0000      -0.383001       -10.4220
  12   0.0000      -0.383001       -10.4220
  13   0.0000      -0.116002        -3.1566
  14   0.0000       0.082067         2.2332
  15   0.0000       0.154860         4.2140

                 SPIN DOWN ORBITALS
  NO   OCC          E(Eh)            E(eV)
   0   1.0000     -89.994819     -2448.8835
   1   1.0000     -10.912050      -296.9320
   2   1.0000      -8.633835      -234.9386
   3   1.0000      -6.521727      -177.4652
   4   1.0000      -6.521727      -177.4652
   5   1.0000      -6.518292      -177.3717
   6   1.0000      -1.256841       -34.2004
   7   1.0000      -0.872297       -23.7364
   8   1.0000      -0.718815       -19.5600
   9   1.0000      -0.718815       -19.5600
  10   0.0000      -0.471723       -12.8362
  11   0.0000      -0.342229        -9.3125
  12   0.0000      -0.342229        -9.3125
  13   0.0000      -0.101770        -2.7693
  14   0.0000       0.090663         2.4671

MULLIKEN ATOMIC CHARGES AND SPIN POPULATIONS
--------------------------------------------
   0 C :    0.308139    1.326279
   1 S :    0.691861   -0.326279
Sum of atomic charges         :    1.0000000

LOEWDIN ATOMIC CHARGES AND SPIN POPULATIONS
-------------------------------------------
   0 C :    0.219493    1.278501
   1 S :    0.780507   -0.278501

  Mayer bond orders larger than 0.100000
B(  0-C ,  1-S ) :   2.7243

Dispersion correction           -0.000426616
FINAL SINGLE POINT ENERGY      -435.238876126533

DIPOLE MOMENT
-------------
                                X             Y             Z
Electronic contribution:      0.00000      -0.00000       0.33673
Nuclear contribution   :      0.00000       0.00000       0.01176
                        -----------------------------------------
Total Dipole Moment    :      0.00000      -0.00000       0.34850
                        -----------------------------------------
Magnitude (a.u.)       :      0.34850
Magnitude (Debye)      :      0.88581

Rotational constants in cm-1:     0.000000     0.867826     0.867826
Rotational constants in MHz :     0.000000 26016.780089 26016.780089

                             ****ORCA TERMINATED NORMALLY****
TOTAL RUN TIME: 0 days 0 hours 0 minutes 13 seconds 60 msec
