                         Program Version 5.0.3 -  RELEASE  -
|  1> ! PBEh-3c def2/J TightSCF DefGrid3
|  2>
|  3> %maxcore 60000
|  4>
|  5> %pal
|  6> nprocs 4
|  7> end
|  8>
|  9> *xyzfile 0 2 P30.xyz
| 10>
| 11>                          ****END OF INPUT****

CARTESIAN COORDINATES (ANGSTROEM)
---------------------------------
  C     -1.173791    0.149382    0.000000
  O      0.059760    0.734210    0.000000
  C      1.170329   -0.057841    0.000000
  H     -1.257854   -0.927646    0.000000
  H     -1.998161    0.839066    0.000000
  O      2.271118    0.396531    0.000000
  H      0.928599   -1.133703    0.000000

 Total Charge           Charge          ....    0
 Multiplicity           Mult            ....    2
 Number of Electrons    NEL             ....   31
 Basis Dimension        Dim             ....   66

ORBITAL ENERGIES
----------------
                 SPIN UP ORBITALS
  NO   OCC          E(Eh)            E(eV)
   0   1.0000     -19.577960      -532.7434
   1   1.0000     -19.509634      -530.8841
   2   1.0000     -10.595821      -288.3269
   3   1.0000     -10.517970      -286.2085
   4   1.0000      -1.247207       -33.9382
   5   1.0000      -1.164784       -31.6954
   6   1.0000      -0.821210       -22.3463
   7   1.0000      -0.708265       -19.2729
   8   1.0000      -0.620350       -16.8806
   9   1.0000      -0.568709       -15.4753
  10   1.0000      -0.550919       -14.9913
  11   1.0000      -0.511326       -13.9139
  12   1.0000      -0.449527       -12.2323
  13   1.0000      -0.436289       -11.8720
  14   1.0000      -0.359891        -9.7931
  15   1.0000      -0.259599        -7.0640
  16   0.0000       0.023126         0.6293
  17   0.0000       0.131953         3.5906
  18   0.0000       0.170627         4.6430
  19   0.0000       0.186709         5.0806
  20   0.0000       0.227726         6.1967

                 SPIN DOWN ORBITALS
  NO   OCC          E(Eh)            E(eV)
   0   1.0000     -19.574760      -532.6563
   1   1.0000     -19.508008      -530.8399
   2   1.0000     -10.595956      -288.3306
   3   1.0000     -10.501856      -285.7700
   4   1.0000      -1.239133       -33.7185
   5   1.0000      -1.159253       -31.5449
   6   1.0000      -0.793061       -21.5803
   7   1.0000      -0.698287       -19.0014
   8   1.0000      -0.608485       -16.5577
   9   1.0000      -0.562227       -15.2990
  10   1.0000      -0.525139       -14.2898
  11   1.0000      -0.506347       -13.7784
  12   1.0000      -0.444422       -12.0933
  13   1.0000      -0.407389       -11.0856
  14   1.0000      -0.358153        -9.7458
  15   0.0000      -0.026257        -0.7145
  16   0.0000       0.039764         1.0820
  17   0.0000       0.142574         3.8796
  18   0.0000       0.188452         5.1280
  19   0.0000       0.193743         5.2720

MULLIKEN ATOMIC CHARGES AND SPIN POPULATIONS
--------------------------------------------
   0 C :   -0.249385    1.027340
   1 O :   -0.371622    0.054634
   2 C :    0.329688   -0.012357
   3 H :    0.213103   -0.059369
   4 H :    0.239822   -0.061695
   5 O :   -0.319194    0.052117
   6 H :    0.157587   -0.000670
Sum of atomic charges         :    0.0000000

LOEWDIN ATOMIC CHARGES AND SPIN POPULATIONS
-------------------------------------------
   0 C :   -0.169123    0.918027
   1 O :   -0.126587    0.095975
   2 C :    0.115355   -0.001275
   3 H :    0.120226   -0.029837
   4 H :    0.139892   -0.030560
   5 O :   -0.164124    0.048151
   6 H :    0.084361   -0.000482

  Mayer bond orders larger than 0.100000
B(  0-C ,  1-O ) :   1.0717 B(  0-C ,  3-H ) :   0.8983 B(  0-C ,  4-H ) :   0.9131
B(  1-O ,  2-C ) :   1.0304 B(  2-C ,  5-O ) :   2.1269 B(  2-C ,  6-H ) :   0.8701

Dispersion correction           -0.001911017
FINAL SINGLE POINT ENERGY      -227.899660874125

DIPOLE MOMENT
-------------
                                X             Y             Z
Electronic contribution:      2.70062       1.19479       0.00000
Nuclear contribution   :     -3.83036      -1.99503       0.00000
                        -----------------------------------------
Total Dipole Moment    :     -1.12974      -0.80024       0.00000
                        -----------------------------------------
Magnitude (a.u.)       :      1.38445
Magnitude (Debye)      :      3.51899

Rotational constants in cm-1:     1.902878     0.166193     0.152844
Rotational constants in MHz : 57046.846223  4982.336348  4582.142851

                             ****ORCA TERMINATED NORMALLY****
TOTAL RUN TIME: 0 days 0 hours 2 minutes 40 seconds 306 msec
