                         Program Version 5.0.3 -  RELEASE  -
|  1> ! PBEh-3c def2/J TightSCF DefGrid3
|  2>
|  3> %maxcore 60000
|  4>
|  5> %pal
|  6> nprocs 4
|  7> end
|  8>
|  9> *xyzfile -1 3 EA_23.xyz
| 10>
| 11>                          ****END OF INPUT****

CARTESIAN COORDINATES (ANGSTROEM)
---------------------------------
  P      0.000000    0.000000    0.782308
  O      0.000000    0.000000   -0.782308

 Total Charge           Charge          ....   -1
 Multiplicity           Mult            ....    3
 Number of Electrons    NEL             ....   24
 Basis Dimension        Dim             ....   33

ORBITAL ENERGIES
----------------
                 SPIN UP ORBITALS
  NO   OCC          E(Eh)            E(eV)
   0   1.0000     -77.469177     -2108.0435
   1   1.0000     -19.203182      -522.5451
   2   1.0000      -6.538707      -177.9273
   3   1.0000      -4.632406      -126.0542
   4   1.0000      -4.632406      -126.0542
   5   1.0000      -4.627738      -125.9272
   6   1.0000      -0.792931       -21.5767
   7   1.0000      -0.331211        -9.0127
   8   1.0000      -0.152950        -4.1620
   9   1.0000      -0.152950        -4.1620
  10   1.0000      -0.136971        -3.7272
  11   1.0000       0.046094         1.2543
  12   1.0000       0.046094         1.2543
  13   0.0000       0.352104         9.5812
  14   0.0000       0.523654        14.2494
  15   0.0000       0.832841        22.6628
  16   0.0000       0.832841        22.6628
  17   0.0000       0.861060        23.4306

                 SPIN DOWN ORBITALS
  NO   OCC          E(Eh)            E(eV)
   0   1.0000     -77.463125     -2107.8788
   1   1.0000     -19.183535      -522.0105
   2   1.0000      -6.532254      -177.7517
   3   1.0000      -4.624829      -125.8480
   4   1.0000      -4.618467      -125.6749
   5   1.0000      -4.618467      -125.6749
   6   1.0000      -0.746511       -20.3136
   7   1.0000      -0.264999        -7.2110
   8   1.0000      -0.098976        -2.6933
   9   1.0000      -0.075907        -2.0655
  10   1.0000      -0.075907        -2.0655
  11   0.0000       0.243867         6.6359
  12   0.0000       0.243867         6.6359
  13   0.0000       0.378268        10.2932
  14   0.0000       0.552176        15.0255
  15   0.0000       0.874238        23.7892

MULLIKEN ATOMIC CHARGES AND SPIN POPULATIONS
--------------------------------------------
   0 P :   -0.287680    1.456515
   1 O :   -0.712320    0.543485
Sum of atomic charges         :   -1.0000000

LOEWDIN ATOMIC CHARGES AND SPIN POPULATIONS
-------------------------------------------
   0 P :   -0.392745    1.436112
   1 O :   -0.607255    0.563888

  Mayer bond orders larger than 0.100000
B(  0-P ,  1-O ) :   1.7440

Dispersion correction           -0.000292118
FINAL SINGLE POINT ENERGY      -415.989233750873

DIPOLE MOMENT
-------------
                                X             Y             Z
Electronic contribution:     -0.00000      -0.00000       0.81048
Nuclear contribution   :      0.00000       0.00000      -0.49141
                        -----------------------------------------
Total Dipole Moment    :     -0.00000      -0.00000       0.31907
                        -----------------------------------------
Magnitude (a.u.)       :      0.31907
Magnitude (Debye)      :      0.81102

Rotational constants in cm-1:     0.000000     0.652739     0.652739
Rotational constants in MHz :     0.000000 19568.616594 19568.616594

                             ****ORCA TERMINATED NORMALLY****
TOTAL RUN TIME: 0 days 0 hours 0 minutes 26 seconds 309 msec
