                         Program Version 5.0.3 -  RELEASE  -
|  1> ! PBEh-3c def2/J TightSCF DefGrid3
|  2>
|  3> %maxcore 60000
|  4>
|  5> %pal
|  6> nprocs 4
|  7> end
|  8>
|  9> *xyzfile 0 1 pyr.xyz
| 10>
| 11>                          ****END OF INPUT****

CARTESIAN COORDINATES (ANGSTROEM)
---------------------------------
  C      0.000000    1.135740    0.717503
  C      0.000000    1.190661   -0.668108
  C      0.000000    0.000000   -1.374944
  C      0.000000   -1.190661   -0.668108
  C      0.000000   -1.135740    0.717503
  N      0.000000    0.000000    1.408992
  H      0.000000    2.049911    1.301722
  H      0.000000    2.145889   -1.175862
  H      0.000000    0.000000   -2.457735
  H      0.000000   -2.145889   -1.175862
  H      0.000000   -2.049911    1.301722

 Total Charge           Charge          ....    0
 Multiplicity           Mult            ....    1
 Number of Electrons    NEL             ....   42
 Basis Dimension        Dim             ....  100

ORBITAL ENERGIES
----------------

  NO   OCC          E(Eh)            E(eV)
   0   2.0000     -14.637909      -398.3178
   1   2.0000     -10.481470      -285.2153
   2   2.0000     -10.481441      -285.2145
   3   2.0000     -10.469245      -284.8826
   4   2.0000     -10.457576      -284.5651
   5   2.0000     -10.457564      -284.5648
   6   2.0000      -1.051998       -28.6263
   7   2.0000      -0.904171       -24.6037
   8   2.0000      -0.856756       -23.3135
   9   2.0000      -0.711526       -19.3616
  10   2.0000      -0.709960       -19.3190
  11   2.0000      -0.602568       -16.3967
  12   2.0000      -0.549877       -14.9629
  13   2.0000      -0.536083       -14.5876
  14   2.0000      -0.492778       -13.4092
  15   2.0000      -0.467473       -12.7206
  16   2.0000      -0.459605       -12.5065
  17   2.0000      -0.422102       -11.4860
  18   2.0000      -0.335099        -9.1185
  19   2.0000      -0.312306        -8.4983
  20   2.0000      -0.307107        -8.3568
  21   0.0000      -0.002311        -0.0629
  22   0.0000       0.010054         0.2736
  23   0.0000       0.144382         3.9288
  24   0.0000       0.186174         5.0661
  25   0.0000       0.195439         5.3182

MULLIKEN ATOMIC CHARGES
-----------------------
   0 C :   -0.038066
   1 C :   -0.299252
   2 C :   -0.131250
   3 C :   -0.299252
   4 C :   -0.038066
   5 N :   -0.355179
   6 H :    0.231748
   7 H :    0.231827
   8 H :    0.233914
   9 H :    0.231827
  10 H :    0.231748
Sum of atomic charges:   -0.0000000

LOEWDIN ATOMIC CHARGES
----------------------
   0 C :   -0.057745
   1 C :   -0.164382
   2 C :   -0.103633
   3 C :   -0.164382
   4 C :   -0.057745
   5 N :   -0.135465
   6 H :    0.129395
   7 H :    0.142016
   8 H :    0.140530
   9 H :    0.142016
  10 H :    0.129395

  Mayer bond orders larger than 0.100000
B(  0-C ,  1-C ) :   1.3809 B(  0-C ,  5-N ) :   1.5041 B(  0-C ,  6-H ) :   0.9176
B(  1-C ,  2-C ) :   1.4150 B(  1-C ,  7-H ) :   0.9131 B(  2-C ,  3-C ) :   1.4150
B(  2-C ,  8-H ) :   0.9187 B(  3-C ,  4-C ) :   1.3809 B(  3-C ,  9-H ) :   0.9131
B(  4-C ,  5-N ) :   1.5041 B(  4-C , 10-H ) :   0.9176

Dispersion correction           -0.005328651
FINAL SINGLE POINT ENERGY      -247.729913228505

DIPOLE MOMENT
-------------
                                X             Y             Z
Electronic contribution:     -0.00000       0.00000       1.32622
Nuclear contribution   :      0.00000      -0.00000      -2.19155
                        -----------------------------------------
Total Dipole Moment    :     -0.00000       0.00000      -0.86533
                        -----------------------------------------
Magnitude (a.u.)       :      0.86533
Magnitude (Debye)      :      2.19949

Rotational constants in cm-1:     0.203604     0.196395     0.099967
Rotational constants in MHz :  6103.888987  5887.777288  2996.942887

                             ****ORCA TERMINATED NORMALLY****
TOTAL RUN TIME: 0 days 0 hours 1 minutes 37 seconds 245 msec
