                         Program Version 5.0.3 -  RELEASE  -
|  1> ! PBEh-3c def2/J TightSCF DefGrid3
|  2>
|  3> %maxcore 60000
|  4>
|  5> %pal
|  6> nprocs 4
|  7> end
|  8>
|  9> *xyzfile 0 1 ts3.xyz
| 10>
| 11>                          ****END OF INPUT****

CARTESIAN COORDINATES (ANGSTROEM)
---------------------------------
  C      1.546576    1.052525    0.339695
  C      0.344325    0.465128    1.106421
  N     -0.438201   -0.582847    0.405989
  O      1.765345    0.679537   -0.876506
  O      2.174692    1.905295    0.914130
  H      0.705679    0.064344    2.056471
  C     -1.287676    0.119226   -0.580672
  C     -1.410406    1.570700   -0.079614
  C     -0.707460    1.565442    1.282174
  H     -0.801009    0.057580   -1.554910
  H     -2.246328   -0.394660   -0.655142
  H     -0.907089    2.251661   -0.767176
  H     -2.449397    1.892603   -0.008326
  H     -0.262781    2.522072    1.550736
  H     -1.404356    1.291134    2.080847
  C      0.358843   -2.105965   -0.306701
  H     -0.603249   -2.571104   -0.516718
  H      0.782811   -2.465132    0.628466
  H     -1.045715   -0.995793    1.109685
  H      0.875664   -2.006952   -2.377148
  C      1.241128   -1.835958   -1.371065
  H      2.277352   -2.117982   -1.217797
  H      1.491251   -0.360855   -1.162840

 Total Charge           Charge          ....    0
 Multiplicity           Mult            ....    1
 Number of Electrons    NEL             ....   78
 Basis Dimension        Dim             ....  176

ORBITAL ENERGIES
----------------

  NO   OCC          E(Eh)            E(eV)
   0   2.0000     -19.476022      -529.9695
   1   2.0000     -19.444771      -529.1191
   2   2.0000     -14.719119      -400.5276
   3   2.0000     -10.551453      -287.1196
   4   2.0000     -10.502776      -285.7951
   5   2.0000     -10.500097      -285.7222
   6   2.0000     -10.498083      -285.6673
   7   2.0000     -10.461967      -284.6846
   8   2.0000     -10.461164      -284.6627
   9   2.0000     -10.385733      -282.6102
  10   2.0000      -1.174073       -31.9481
  11   2.0000      -1.090611       -29.6770
  12   2.0000      -1.081035       -29.4165
  13   2.0000      -0.899016       -24.4635
  14   2.0000      -0.854796       -23.2602
  15   2.0000      -0.841646       -22.9023
  16   2.0000      -0.736871       -20.0513
  17   2.0000      -0.690703       -18.7950
  18   2.0000      -0.677871       -18.4458
  19   2.0000      -0.628252       -17.0956
  20   2.0000      -0.618589       -16.8327
  21   2.0000      -0.591579       -16.0977
  22   2.0000      -0.554676       -15.0935
  23   2.0000      -0.540843       -14.7171
  24   2.0000      -0.528240       -14.3741
  25   2.0000      -0.492804       -13.4099
  26   2.0000      -0.480514       -13.0755
  27   2.0000      -0.475219       -12.9314
  28   2.0000      -0.460074       -12.5192
  29   2.0000      -0.459836       -12.5128
  30   2.0000      -0.432899       -11.7798
  31   2.0000      -0.425614       -11.5815
  32   2.0000      -0.412765       -11.2319
  33   2.0000      -0.403720       -10.9858
  34   2.0000      -0.397284       -10.8106
  35   2.0000      -0.379207       -10.3188
  36   2.0000      -0.325535        -8.8583
  37   2.0000      -0.302625        -8.2348
  38   2.0000      -0.237212        -6.4549
  39   0.0000       0.042062         1.1446
  40   0.0000       0.062463         1.6997
  41   0.0000       0.080698         2.1959
  42   0.0000       0.134222         3.6524
  43   0.0000       0.142615         3.8808

MULLIKEN ATOMIC CHARGES
-----------------------
   0 C :    0.532883
   1 C :   -0.257540
   2 N :   -0.554348
   3 O :   -0.575621
   4 O :   -0.409377
   5 H :    0.274537
   6 C :   -0.292581
   7 C :   -0.485450
   8 C :   -0.440719
   9 H :    0.280658
  10 H :    0.236259
  11 H :    0.268330
  12 H :    0.242192
  13 H :    0.286354
  14 H :    0.220615
  15 C :   -0.264590
  16 H :    0.225989
  17 H :    0.233401
  18 H :    0.369572
  19 H :    0.212495
  20 C :   -0.820081
  21 H :    0.244367
  22 H :    0.472656
Sum of atomic charges:   -0.0000000

LOEWDIN ATOMIC CHARGES
----------------------
   0 C :    0.088635
   1 C :   -0.120756
   2 N :   -0.163981
   3 O :   -0.332802
   4 O :   -0.242144
   5 H :    0.147884
   6 C :   -0.155622
   7 C :   -0.251670
   8 C :   -0.232240
   9 H :    0.148962
  10 H :    0.128288
  11 H :    0.147500
  12 H :    0.135588
  13 H :    0.157916
  14 H :    0.122014
  15 C :   -0.102582
  16 H :    0.121972
  17 H :    0.127858
  18 H :    0.257748
  19 H :    0.126666
  20 C :   -0.575625
  21 H :    0.141380
  22 H :    0.325012

  Mayer bond orders larger than 0.100000
B(  0-C ,  1-C ) :   0.8922 B(  0-C ,  3-O ) :   1.3491 B(  0-C ,  4-O ) :   1.9845
B(  1-C ,  2-N ) :   0.8722 B(  1-C ,  5-H ) :   0.8967 B(  1-C ,  8-C ) :   0.9534
B(  2-N ,  6-C ) :   0.9192 B(  2-N , 15-C ) :   0.4469 B(  2-N , 18-H ) :   0.8202
B(  3-O , 22-H ) :   0.4269 B(  6-C ,  7-C ) :   0.9476 B(  6-C ,  9-H ) :   0.8871
B(  6-C , 10-H ) :   0.9202 B(  7-C ,  8-C ) :   0.9597 B(  7-C , 11-H ) :   0.9102
B(  7-C , 12-H ) :   0.9239 B(  8-C , 13-H ) :   0.8967 B(  8-C , 14-H ) :   0.9192
B( 15-C , 16-H ) :   0.9147 B( 15-C , 17-H ) :   0.9153 B( 15-C , 20-C ) :   1.3381
B( 19-H , 20-C ) :   0.9326 B( 20-C , 21-H ) :   0.9103 B( 20-C , 22-H ) :   0.3057

Dispersion correction           -0.014050491
FINAL SINGLE POINT ENERGY      -478.658990254297

DIPOLE MOMENT
-------------
                                X             Y             Z
Electronic contribution:      5.31951       4.86656       2.42766
Nuclear contribution   :     -7.94867      -6.06695      -1.64529
                        -----------------------------------------
Total Dipole Moment    :     -2.62916      -1.20038       0.78237
                        -----------------------------------------
Magnitude (a.u.)       :      2.99425
Magnitude (Debye)      :      7.61078

Rotational constants in cm-1:     0.055519     0.044131     0.030822
Rotational constants in MHz :  1664.429134  1323.005638   924.014872

                             ****ORCA TERMINATED NORMALLY****
TOTAL RUN TIME: 0 days 0 hours 2 minutes 31 seconds 188 msec
