                         Program Version 5.0.3 -  RELEASE  -
|  1> ! PBEh-3c def2/J TightSCF DefGrid3
|  2>
|  3> %maxcore 60000
|  4>
|  5> %pal
|  6> nprocs 4
|  7> end
|  8>
|  9> *xyzfile 0 1 52.xyz
| 10>
| 11>                          ****END OF INPUT****

CARTESIAN COORDINATES (ANGSTROEM)
---------------------------------
  Si     0.000000    0.000000    1.177834
  Si     0.000000    0.000000   -1.177834
  H      1.207704   -0.697268    1.695866
  H      0.000000    1.394537    1.695866
  H     -1.207704   -0.697268    1.695866
  H      1.207704    0.697268   -1.695866
  H      0.000000   -1.394537   -1.695866
  H     -1.207704    0.697268   -1.695866

 Total Charge           Charge          ....    0
 Multiplicity           Mult            ....    1
 Number of Electrons    NEL             ....   34
 Basis Dimension        Dim             ....   48

ORBITAL ENERGIES
----------------

  NO   OCC          E(Eh)            E(eV)
   0   2.0000     -66.731263     -1815.8500
   1   2.0000     -66.731184     -1815.8478
   2   2.0000      -5.515126      -150.0742
   3   2.0000      -5.515089      -150.0732
   4   2.0000      -3.805670      -103.5575
   5   2.0000      -3.805670      -103.5575
   6   2.0000      -3.805655      -103.5571
   7   2.0000      -3.805630      -103.5565
   8   2.0000      -3.805630      -103.5565
   9   2.0000      -3.805151      -103.5434
  10   2.0000      -0.636230       -17.3127
  11   2.0000      -0.569501       -15.4969
  12   2.0000      -0.416164       -11.3244
  13   2.0000      -0.416163       -11.3244
  14   2.0000      -0.390250       -10.6192
  15   2.0000      -0.390249       -10.6192
  16   2.0000      -0.341709        -9.2984
  17   0.0000       0.041706         1.1349
  18   0.0000       0.041707         1.1349
  19   0.0000       0.057725         1.5708
  20   0.0000       0.118886         3.2351
  21   0.0000       0.121799         3.3143

MULLIKEN ATOMIC CHARGES
-----------------------
   0 Si:    0.016316
   1 Si:    0.016315
   2 H :   -0.005442
   3 H :   -0.005431
   4 H :   -0.005442
   5 H :   -0.005442
   6 H :   -0.005431
   7 H :   -0.005442
Sum of atomic charges:    0.0000000

LOEWDIN ATOMIC CHARGES
----------------------
   0 Si:    0.041891
   1 Si:    0.041891
   2 H :   -0.013966
   3 H :   -0.013959
   4 H :   -0.013966
   5 H :   -0.013966
   6 H :   -0.013959
   7 H :   -0.013966

  Mayer bond orders larger than 0.100000
B(  0-Si,  1-Si) :   0.9853 B(  0-Si,  2-H ) :   0.9633 B(  0-Si,  3-H ) :   0.9633
B(  0-Si,  4-H ) :   0.9633 B(  1-Si,  5-H ) :   0.9633 B(  1-Si,  6-H ) :   0.9633
B(  1-Si,  7-H ) :   0.9633

Dispersion correction           -0.002465499
FINAL SINGLE POINT ENERGY      -581.845834826045

DIPOLE MOMENT
-------------
                                X             Y             Z
Electronic contribution:     -0.00000      -0.00000      -0.00000
Nuclear contribution   :      0.00000       0.00000      -0.00000
                        -----------------------------------------
Total Dipole Moment    :     -0.00000      -0.00000      -0.00000
                        -----------------------------------------
Magnitude (a.u.)       :      0.00000
Magnitude (Debye)      :      0.00000

Rotational constants in cm-1:     1.433261     0.166575     0.166575
Rotational constants in MHz : 42968.071430  4993.785706  4993.785704

                             ****ORCA TERMINATED NORMALLY****
TOTAL RUN TIME: 0 days 0 hours 0 minutes 13 seconds 150 msec
