                         Program Version 5.0.3 -  RELEASE  -
|  1> ! PBEh-3c def2/J TightSCF DefGrid3
|  2>
|  3> %maxcore 60000
|  4>
|  5> %pal
|  6> nprocs 4
|  7> end
|  8>
|  9> *xyzfile 0 1 39.xyz
| 10>
| 11>                          ****END OF INPUT****

CARTESIAN COORDINATES (ANGSTROEM)
---------------------------------
  N      1.238522   -2.772123    0.006662
  C     -0.048310   -2.322968   -0.202551
  C     -0.051158   -0.947608   -0.305969
  C      1.313743   -0.531366   -0.150611
  C      1.930880    0.738414   -0.160390
  C      3.304535    0.798722    0.023213
  C      4.069735   -0.378508    0.215466
  C      3.480094   -1.627854    0.227767
  C      2.092104   -1.693488    0.042613
  H      1.505097   -3.733297    0.113907
  H     -0.862223   -3.026239   -0.262729
  H      1.336124    1.627555   -0.307950
  H      5.136290   -0.268003    0.353315
  H      4.078119   -2.517697    0.375972
  O      4.039534    1.954017    0.038057
  C      3.317449    3.159331   -0.149161
  H      2.576864    3.304972    0.640444
  H      2.817672    3.175718   -1.120314
  H      4.051578    3.958143   -0.107423
  C     -1.222025   -0.039663   -0.531493
  C     -2.551303   -0.784887   -0.661171
  N     -3.684750    0.095766   -0.875269
  C     -4.427849    0.724628    0.089032
  C     -4.231441    0.247096    1.514637
  H     -1.063799    0.552728   -1.438237
  H     -1.299522    0.679026    0.289914
  H     -2.733314   -1.380793    0.231638
  H     -2.500769   -1.480868   -1.500114
  H     -3.805030    0.494593   -1.793409
  O     -5.231736    1.599249   -0.198286
  H     -4.861307    0.854094    2.156380
  H     -3.193326    0.340675    1.832235
  H     -4.520474   -0.799358    1.613818

 Total Charge           Charge          ....    0
 Multiplicity           Mult            ....    1
 Number of Electrons    NEL             ....  124
 Basis Dimension        Dim             ....  287

ORBITAL ENERGIES
----------------

  NO   OCC          E(Eh)            E(eV)
   0   2.0000     -19.521496      -531.2069
   1   2.0000     -19.448999      -529.2342
   2   2.0000     -14.687395      -399.6643
   3   2.0000     -14.656106      -398.8129
   4   2.0000     -10.544514      -286.9308
   5   2.0000     -10.502707      -285.7932
   6   2.0000     -10.487576      -285.3815
   7   2.0000     -10.487410      -285.3769
   8   2.0000     -10.483335      -285.2661
   9   2.0000     -10.478520      -285.1350
  10   2.0000     -10.454720      -284.4874
  11   2.0000     -10.452343      -284.4227
  12   2.0000     -10.447588      -284.2933
  13   2.0000     -10.447160      -284.2817
  14   2.0000     -10.443921      -284.1935
  15   2.0000     -10.442644      -284.1588
  16   2.0000     -10.438954      -284.0584
  17   2.0000      -1.169871       -31.8338
  18   2.0000      -1.135210       -30.8906
  19   2.0000      -1.089792       -29.6548
  20   2.0000      -1.021234       -27.7892
  21   2.0000      -0.939878       -25.5754
  22   2.0000      -0.903911       -24.5967
  23   2.0000      -0.847842       -23.0710
  24   2.0000      -0.834993       -22.7213
  25   2.0000      -0.825401       -22.4603
  26   2.0000      -0.805365       -21.9151
  27   2.0000      -0.778328       -21.1794
  28   2.0000      -0.738214       -20.0878
  29   2.0000      -0.694847       -18.9078
  30   2.0000      -0.669873       -18.2282
  31   2.0000      -0.649195       -17.6655
  32   2.0000      -0.635996       -17.3063
  33   2.0000      -0.616577       -16.7779
  34   2.0000      -0.581974       -15.8363
  35   2.0000      -0.565241       -15.3810
  36   2.0000      -0.551532       -15.0079
  37   2.0000      -0.547802       -14.9064
  38   2.0000      -0.530504       -14.4358
  39   2.0000      -0.527054       -14.3419
  40   2.0000      -0.517696       -14.0872
  41   2.0000      -0.508767       -13.8443
  42   2.0000      -0.502732       -13.6800
  43   2.0000      -0.487013       -13.2523
  44   2.0000      -0.480908       -13.0862
  45   2.0000      -0.467657       -12.7256
  46   2.0000      -0.463773       -12.6199
  47   2.0000      -0.455477       -12.3942
  48   2.0000      -0.453309       -12.3352
  49   2.0000      -0.444737       -12.1019
  50   2.0000      -0.434989       -11.8367
  51   2.0000      -0.421543       -11.4708
  52   2.0000      -0.417101       -11.3499
  53   2.0000      -0.411161       -11.1883
  54   2.0000      -0.406542       -11.0626
  55   2.0000      -0.382157       -10.3990
  56   2.0000      -0.352468        -9.5912
  57   2.0000      -0.321628        -8.7520
  58   2.0000      -0.302890        -8.2420
  59   2.0000      -0.295418        -8.0387
  60   2.0000      -0.247929        -6.7465
  61   2.0000      -0.241085        -6.5603
  62   0.0000       0.004600         0.1252
  63   0.0000       0.057054         1.5525
  64   0.0000       0.065390         1.7794
  65   0.0000       0.089525         2.4361
  66   0.0000       0.117993         3.2108

MULLIKEN ATOMIC CHARGES
-----------------------
   0 N :   -0.706390
   1 C :   -0.058294
   2 C :    0.004205
   3 C :    0.091841
   4 C :   -0.485094
   5 C :    0.393706
   6 C :   -0.316603
   7 C :   -0.251999
   8 C :    0.350821
   9 H :    0.358398
  10 H :    0.236390
  11 H :    0.224117
  12 H :    0.235311
  13 H :    0.214362
  14 O :   -0.466781
  15 C :   -0.405306
  16 H :    0.205593
  17 H :    0.205139
  18 H :    0.241243
  19 C :   -0.501363
  20 C :   -0.280563
  21 N :   -0.612599
  22 C :    0.493049
  23 C :   -0.783114
  24 H :    0.225955
  25 H :    0.226877
  26 H :    0.231257
  27 H :    0.238554
  28 H :    0.358329
  29 O :   -0.416845
  30 H :    0.273181
  31 H :    0.236898
  32 H :    0.239726
Sum of atomic charges:    0.0000000

LOEWDIN ATOMIC CHARGES
----------------------
   0 N :   -0.158310
   1 C :   -0.094311
   2 C :   -0.107217
   3 C :   -0.050358
   4 C :   -0.195048
   5 C :    0.060012
   6 C :   -0.155544
   7 C :   -0.146690
   8 C :    0.004485
   9 H :    0.261785
  10 H :    0.133529
  11 H :    0.141020
  12 H :    0.146581
  13 H :    0.137706
  14 O :   -0.190582
  15 C :   -0.179991
  16 H :    0.113344
  17 H :    0.113131
  18 H :    0.130409
  19 C :   -0.237156
  20 C :   -0.147664
  21 N :   -0.245070
  22 C :    0.106975
  23 C :   -0.398839
  24 H :    0.134583
  25 H :    0.133538
  26 H :    0.130062
  27 H :    0.129005
  28 H :    0.258471
  29 O :   -0.272890
  30 H :    0.156967
  31 H :    0.142350
  32 H :    0.145715

  Mayer bond orders larger than 0.100000
B(  0-N ,  1-C ) :   1.1303 B(  0-N ,  8-C ) :   1.0048 B(  0-N ,  9-H ) :   0.8340
B(  1-C ,  2-C ) :   1.5351 B(  1-C , 10-H ) :   0.9125 B(  2-C ,  3-C ) :   1.2614
B(  2-C , 19-C ) :   0.9603 B(  3-C ,  4-C ) :   1.2538 B(  3-C ,  8-C ) :   1.2518
B(  4-C ,  5-C ) :   1.4181 B(  4-C , 11-H ) :   0.9145 B(  5-C ,  6-C ) :   1.3000
B(  5-C , 14-O ) :   1.0268 B(  6-C ,  7-C ) :   1.5289 B(  6-C , 12-H ) :   0.9084
B(  7-C ,  8-C ) :   1.2725 B(  7-C , 13-H ) :   0.9198 B( 14-O , 15-C ) :   0.9557
B( 15-C , 16-H ) :   0.9067 B( 15-C , 17-H ) :   0.9069 B( 15-C , 18-H ) :   0.9231
B( 19-C , 20-C ) :   0.9841 B( 19-C , 24-H ) :   0.9080 B( 19-C , 25-H ) :   0.9046
B( 20-C , 21-N ) :   0.9608 B( 20-C , 26-H ) :   0.9024 B( 20-C , 27-H ) :   0.9086
B( 21-N , 22-C ) :   1.1475 B( 21-N , 28-H ) :   0.8231 B( 22-C , 23-C ) :   0.9273
B( 22-C , 29-O ) :   2.0353 B( 23-C , 30-H ) :   0.9154 B( 23-C , 31-H ) :   0.9062
B( 23-C , 32-H ) :   0.9095

Dispersion correction           -0.020959488
FINAL SINGLE POINT ENERGY      -763.323097704300

DIPOLE MOMENT
-------------
                                X             Y             Z
Electronic contribution:      5.78502      -3.86156      -1.91763
Nuclear contribution   :     -4.91819       2.40685       1.92562
                        -----------------------------------------
Total Dipole Moment    :      0.86682      -1.45471       0.00800
                        -----------------------------------------
Magnitude (a.u.)       :      1.69341
Magnitude (Debye)      :      4.30430

Rotational constants in cm-1:     0.025874     0.006975     0.005761
Rotational constants in MHz :   775.673033   209.112987   172.700152

                             ****ORCA TERMINATED NORMALLY****
TOTAL RUN TIME: 0 days 0 hours 4 minutes 11 seconds 140 msec
