                         Program Version 5.0.3 -  RELEASE  -
|  1> ! PBEh-3c def2/J TightSCF DefGrid3
|  2>
|  3> %maxcore 60000
|  4>
|  5> %pal
|  6> nprocs 4
|  7> end
|  8>
|  9> *xyzfile 0 1 cf2.xyz
| 10>
| 11>                          ****END OF INPUT****

CARTESIAN COORDINATES (ANGSTROEM)
---------------------------------
  C      0.000000    0.601028    0.000000
  F     -1.027990   -0.189988    0.000000
  F      1.027990   -0.189988    0.000000

 Total Charge           Charge          ....    0
 Multiplicity           Mult            ....    1
 Number of Electrons    NEL             ....   24
 Basis Dimension        Dim             ....   45

ORBITAL ENERGIES
----------------

  NO   OCC          E(Eh)            E(eV)
   0   2.0000     -25.173154      -684.9964
   1   2.0000     -25.173152      -684.9963
   2   2.0000     -10.649535      -289.7886
   3   2.0000      -1.467239       -39.9256
   4   2.0000      -1.386231       -37.7213
   5   2.0000      -0.786219       -21.3941
   6   2.0000      -0.674511       -18.3544
   7   2.0000      -0.628087       -17.0911
   8   2.0000      -0.627764       -17.0823
   9   2.0000      -0.546806       -14.8793
  10   2.0000      -0.523127       -14.2350
  11   2.0000      -0.354888        -9.6570
  12   0.0000      -0.040931        -1.1138
  13   0.0000       0.209082         5.6894
  14   0.0000       0.252347         6.8667
  15   0.0000       0.472058        12.8454
  16   0.0000       0.480032        13.0623

MULLIKEN ATOMIC CHARGES
-----------------------
   0 C :    0.432590
   1 F :   -0.216295
   2 F :   -0.216295
Sum of atomic charges:   -0.0000000

LOEWDIN ATOMIC CHARGES
----------------------
   0 C :    0.135893
   1 F :   -0.067947
   2 F :   -0.067947

  Mayer bond orders larger than 0.100000
B(  0-C ,  1-F ) :   1.1641 B(  0-C ,  2-F ) :   1.1641

Dispersion correction           -0.000362460
FINAL SINGLE POINT ENERGY      -237.233215425508

DIPOLE MOMENT
-------------
                                X             Y             Z
Electronic contribution:      0.00000      -0.59334      -0.00000
Nuclear contribution   :      0.00000       0.35207       0.00000
                        -----------------------------------------
Total Dipole Moment    :      0.00000      -0.24128      -0.00000
                        -----------------------------------------
Magnitude (a.u.)       :      0.24128
Magnitude (Debye)      :      0.61328

Rotational constants in cm-1:     2.952162     0.419838     0.367565
Rotational constants in MHz : 88503.599243 12586.414485 11019.317759

                             ****ORCA TERMINATED NORMALLY****
TOTAL RUN TIME: 0 days 0 hours 0 minutes 23 seconds 974 msec
