                         Program Version 5.0.3 -  RELEASE  -
|  1> ! PBEh-3c def2/J TightSCF DefGrid3
|  2>
|  3> %maxcore 60000
|  4>
|  5> %pal
|  6> nprocs 4
|  7> end
|  8>
|  9> *xyzfile 0 1 B38.xyz
| 10>
| 11>                          ****END OF INPUT****

CARTESIAN COORDINATES (ANGSTROEM)
---------------------------------
  C      2.040990    0.349745   -0.333083
  H      2.805900    1.095179   -0.095167
  O      2.402974   -0.926174    0.189582
  C      0.677246    0.825770    0.153170
  H      0.703760    0.920819    1.244260
  H      0.502461    1.831176   -0.241782
  C     -0.458112   -0.106527   -0.261399
  H     -0.256731   -1.116729    0.093898
  H     -0.517784   -0.155131   -1.350921
  H      2.486270   -0.832498    1.142546
  H      2.026784    0.223737   -1.415463
  C     -1.799156    0.351935    0.278038
  H     -1.766197    0.383825    1.372663
  H     -2.018459    1.364093   -0.079468
  O     -2.789618   -0.569027   -0.172168
  H     -3.638663   -0.278396    0.169760

 Total Charge           Charge          ....    0
 Multiplicity           Mult            ....    1
 Number of Electrons    NEL             ....   50
 Basis Dimension        Dim             ....  110

ORBITAL ENERGIES
----------------

  NO   OCC          E(Eh)            E(eV)
   0   2.0000     -19.484188      -530.1917
   1   2.0000     -19.481467      -530.1177
   2   2.0000     -10.480481      -285.1884
   3   2.0000     -10.478963      -285.1471
   4   2.0000     -10.437342      -284.0145
   5   2.0000     -10.425858      -283.7020
   6   2.0000      -1.120642       -30.4942
   7   2.0000      -1.118026       -30.4230
   8   2.0000      -0.882949       -24.0263
   9   2.0000      -0.796693       -21.6791
  10   2.0000      -0.702436       -19.1143
  11   2.0000      -0.658520       -17.9192
  12   2.0000      -0.576095       -15.6763
  13   2.0000      -0.549268       -14.9464
  14   2.0000      -0.542538       -14.7632
  15   2.0000      -0.506750       -13.7894
  16   2.0000      -0.500510       -13.6196
  17   2.0000      -0.444333       -12.0909
  18   2.0000      -0.437205       -11.8970
  19   2.0000      -0.415641       -11.3102
  20   2.0000      -0.385064       -10.4781
  21   2.0000      -0.380433       -10.3521
  22   2.0000      -0.370464       -10.0808
  23   2.0000      -0.325519        -8.8578
  24   2.0000      -0.321064        -8.7366
  25   0.0000       0.124180         3.3791
  26   0.0000       0.130854         3.5607
  27   0.0000       0.158132         4.3030
  28   0.0000       0.179691         4.8896
  29   0.0000       0.189184         5.1480

MULLIKEN ATOMIC CHARGES
-----------------------
   0 C :   -0.154746
   1 H :    0.190538
   2 O :   -0.619914
   3 C :   -0.467506
   4 H :    0.196329
   5 H :    0.208832
   6 C :   -0.432689
   7 H :    0.240674
   8 H :    0.221345
   9 H :    0.408235
  10 H :    0.210424
  11 C :   -0.129681
  12 H :    0.170523
  13 H :    0.170762
  14 O :   -0.627395
  15 H :    0.414268
Sum of atomic charges:    0.0000000

LOEWDIN ATOMIC CHARGES
----------------------
   0 C :   -0.093040
   1 H :    0.099887
   2 O :   -0.411450
   3 C :   -0.266847
   4 H :    0.115447
   5 H :    0.125551
   6 C :   -0.252111
   7 H :    0.138172
   8 H :    0.130209
   9 H :    0.305150
  10 H :    0.120238
  11 C :   -0.089993
  12 H :    0.093919
  13 H :    0.093916
  14 O :   -0.416504
  15 H :    0.307456

  Mayer bond orders larger than 0.100000
B(  0-C ,  1-H ) :   0.9155 B(  0-C ,  2-O ) :   1.0174 B(  0-C ,  3-C ) :   0.9726
B(  0-C , 10-H ) :   0.9151 B(  2-O ,  9-H ) :   0.7960 B(  3-C ,  4-H ) :   0.9196
B(  3-C ,  5-H ) :   0.9109 B(  3-C ,  6-C ) :   0.9620 B(  6-C ,  7-H ) :   0.9024
B(  6-C ,  8-H ) :   0.9138 B(  6-C , 11-C ) :   0.9960 B( 11-C , 12-H ) :   0.9052
B( 11-C , 13-H ) :   0.9053 B( 11-C , 14-O ) :   1.0263 B( 14-O , 15-H ) :   0.7941

Dispersion correction           -0.006422880
FINAL SINGLE POINT ENERGY      -308.206400333365

DIPOLE MOMENT
-------------
                                X             Y             Z
Electronic contribution:     -0.57324      -2.55188      -0.13781
Nuclear contribution   :      0.33473       3.55570       0.87587
                        -----------------------------------------
Total Dipole Moment    :     -0.23852       1.00382       0.73807
                        -----------------------------------------
Magnitude (a.u.)       :      1.26858
Magnitude (Debye)      :      3.22447

Rotational constants in cm-1:     0.319412     0.045937     0.042844
Rotational constants in MHz :  9575.743032  1377.141806  1284.420076

                             ****ORCA TERMINATED NORMALLY****
TOTAL RUN TIME: 0 days 0 hours 1 minutes 33 seconds 536 msec
