                         Program Version 5.0.3 -  RELEASE  -
|  1> ! PBEh-3c def2/J TightSCF DefGrid3
|  2>
|  3> %maxcore 60000
|  4>
|  5> %pal
|  6> nprocs 4
|  7> end
|  8>
|  9> *xyzfile 0 1 MeI_pyr.xyz
| 10>
| 11>                          ****END OF INPUT****

CARTESIAN COORDINATES (ANGSTROEM)
---------------------------------
  C     -0.000354   -3.763893    0.000000
  I      0.000190   -1.630948    0.000000
  H      1.027767   -4.109230    0.000000
  H     -0.513816   -4.109580    0.890515
  H     -0.513816   -4.109580   -0.890515
  C     -1.191759    3.556532    0.000000
  C     -1.138322    2.171519    0.000000
  N      0.000000    1.485156    0.000000
  H      2.049750    1.583343    0.000000
  H      2.146103    4.064702    0.000000
  H     -0.000527    5.345268    0.000000
  H     -2.146802    4.064117    0.000000
  H     -2.049772    1.582757    0.000000
  C      1.138128    2.171836    0.000000
  C     -0.000379    4.262535    0.000000
  C      1.191196    3.556862    0.000000

 Total Charge           Charge          ....    0
 Multiplicity           Mult            ....    1
 Number of Electrons    NEL             ....   76
 Basis Dimension        Dim             ....  147

ORBITAL ENERGIES
----------------

  NO   OCC          E(Eh)            E(eV)
   0   2.0000     -14.649263      -398.6267
   1   2.0000     -10.487165      -285.3703
   2   2.0000     -10.487141      -285.3696
   3   2.0000     -10.473942      -285.0104
   4   2.0000     -10.462856      -284.7088
   5   2.0000     -10.462036      -284.6865
   6   2.0000     -10.462024      -284.6861
   7   2.0000      -7.066636      -192.2929
   8   2.0000      -5.049871      -137.4140
   9   2.0000      -5.033588      -136.9709
  10   2.0000      -5.033392      -136.9656
  11   2.0000      -2.003659       -54.5223
  12   2.0000      -1.998610       -54.3849
  13   2.0000      -1.998433       -54.3801
  14   2.0000      -1.984322       -53.9961
  15   2.0000      -1.984321       -53.9961
  16   2.0000      -1.059644       -28.8344
  17   2.0000      -0.909250       -24.7420
  18   2.0000      -0.862379       -23.4665
  19   2.0000      -0.818957       -22.2850
  20   2.0000      -0.717595       -19.5268
  21   2.0000      -0.714933       -19.4543
  22   2.0000      -0.693531       -18.8719
  23   2.0000      -0.607630       -16.5344
  24   2.0000      -0.555815       -15.1245
  25   2.0000      -0.540194       -14.6994
  26   2.0000      -0.497836       -13.5468
  27   2.0000      -0.479413       -13.0455
  28   2.0000      -0.479342       -13.0436
  29   2.0000      -0.474560       -12.9134
  30   2.0000      -0.465841       -12.6762
  31   2.0000      -0.427268       -11.6265
  32   2.0000      -0.388641       -10.5755
  33   2.0000      -0.341325        -9.2879
  34   2.0000      -0.315765        -8.5924
  35   2.0000      -0.311775        -8.4838
  36   2.0000      -0.279190        -7.5972
  37   2.0000      -0.277835        -7.5603
  38   0.0000      -0.008240        -0.2242
  39   0.0000       0.005743         0.1563
  40   0.0000       0.032891         0.8950
  41   0.0000       0.142175         3.8688
  42   0.0000       0.172054         4.6818

MULLIKEN ATOMIC CHARGES
-----------------------
   0 C :   -0.833522
   1 I :    0.014838
   2 H :    0.258862
   3 H :    0.259147
   4 H :    0.259147
   5 C :   -0.304159
   6 C :   -0.012961
   7 N :   -0.392103
   8 H :    0.242987
   9 H :    0.235618
  10 H :    0.236812
  11 H :    0.235621
  12 H :    0.243059
  13 C :   -0.012905
  14 C :   -0.126286
  15 C :   -0.304155
Sum of atomic charges:    0.0000000

LOEWDIN ATOMIC CHARGES
----------------------
   0 C :   -0.511126
   1 I :    0.044342
   2 H :    0.141542
   3 H :    0.141568
   4 H :    0.141568
   5 C :   -0.161475
   6 C :   -0.051348
   7 N :   -0.131336
   8 H :    0.134419
   9 H :    0.143886
  10 H :    0.141959
  11 H :    0.143887
  12 H :    0.134447
  13 C :   -0.051339
  14 C :   -0.099520
  15 C :   -0.161474

  Mayer bond orders larger than 0.100000
B(  0-C ,  1-I ) :   0.9943 B(  0-C ,  2-H ) :   0.9016 B(  0-C ,  3-H ) :   0.9013
B(  0-C ,  4-H ) :   0.9013 B(  5-C ,  6-C ) :   1.3854 B(  5-C , 11-H ) :   0.9124
B(  5-C , 14-C ) :   1.4114 B(  6-C ,  7-N ) :   1.4715 B(  6-C , 12-H ) :   0.9115
B(  7-N , 13-C ) :   1.4715 B(  8-H , 13-C ) :   0.9115 B(  9-H , 15-C ) :   0.9124
B( 10-H , 14-C ) :   0.9177 B( 13-C , 15-C ) :   1.3854 B( 14-C , 15-C ) :   1.4114

Dispersion correction           -0.007958052
FINAL SINGLE POINT ENERGY      -585.299418764730

DIPOLE MOMENT
-------------
                                X             Y             Z
Electronic contribution:      0.01317    -110.38663      -0.00000
Nuclear contribution   :     -0.01333     111.13220       0.00000
                        -----------------------------------------
Total Dipole Moment    :     -0.00016       0.74557      -0.00000
                        -----------------------------------------
Magnitude (a.u.)       :      0.74557
Magnitude (Debye)      :      1.89508

Rotational constants in cm-1:     0.195614     0.013096     0.012303
Rotational constants in MHz :  5864.358576   392.612291   368.835356

                             ****ORCA TERMINATED NORMALLY****
TOTAL RUN TIME: 0 days 0 hours 2 minutes 23 seconds 385 msec
