                         Program Version 5.0.3 -  RELEASE  -
|  1> ! PBEh-3c def2/J TightSCF DefGrid3
|  2>
|  3> %maxcore 60000
|  4>
|  5> %pal
|  6> nprocs 4
|  7> end
|  8>
|  9> *xyzfile 0 1 GLY_xae.xyz
| 10>
| 11>                          ****END OF INPUT****

CARTESIAN COORDINATES (ANGSTROEM)
---------------------------------
  C      2.782001   -1.028116   -0.247509
  H      3.105045   -0.583984   -1.191664
  H      3.686642   -1.236205    0.328001
  N      2.027697   -2.225868   -0.474954
  H      1.080648   -2.222059   -0.129991
  C      1.901225   -0.047903    0.510699
  O      0.742268   -0.313854    0.809147
  C      2.551993   -3.251590   -1.188846
  O      3.691299   -3.210602   -1.640812
  N      2.507095    1.124437    0.811159
  H      3.468873    1.241493    0.544788
  C      1.836953    2.182120    1.537782
  H      2.272880    2.322450    2.525338
  H      1.887737    3.118997    0.987640
  H      0.798327    1.888652    1.649300
  C      1.646023   -4.444234   -1.376303
  H      1.570778   -4.658019   -2.439384
  H      0.650875   -4.293788   -0.965490
  H      2.104447   -5.306531   -0.897698

 Total Charge           Charge          ....    0
 Multiplicity           Mult            ....    1
 Number of Electrons    NEL             ....   70
 Basis Dimension        Dim             ....  155

ORBITAL ENERGIES
----------------

  NO   OCC          E(Eh)            E(eV)
   0   2.0000     -19.475171      -529.9463
   1   2.0000     -19.445886      -529.1495
   2   2.0000     -14.677962      -399.4077
   3   2.0000     -14.655177      -398.7876
   4   2.0000     -10.563099      -287.4365
   5   2.0000     -10.540366      -286.8180
   6   2.0000     -10.487250      -285.3726
   7   2.0000     -10.477505      -285.1074
   8   2.0000     -10.435525      -283.9651
   9   2.0000      -1.161270       -31.5998
  10   2.0000      -1.132535       -30.8178
  11   2.0000      -1.038512       -28.2594
  12   2.0000      -1.018874       -27.7250
  13   2.0000      -0.857270       -23.3275
  14   2.0000      -0.817468       -22.2444
  15   2.0000      -0.767426       -20.8827
  16   2.0000      -0.674188       -18.3456
  17   2.0000      -0.658167       -17.9096
  18   2.0000      -0.604504       -16.4494
  19   2.0000      -0.551601       -15.0098
  20   2.0000      -0.545823       -14.8526
  21   2.0000      -0.539504       -14.6807
  22   2.0000      -0.518521       -14.1097
  23   2.0000      -0.516188       -14.0462
  24   2.0000      -0.489701       -13.3254
  25   2.0000      -0.472005       -12.8439
  26   2.0000      -0.459591       -12.5061
  27   2.0000      -0.449222       -12.2239
  28   2.0000      -0.447965       -12.1897
  29   2.0000      -0.436414       -11.8754
  30   2.0000      -0.398485       -10.8433
  31   2.0000      -0.332156        -9.0384
  32   2.0000      -0.320879        -8.7315
  33   2.0000      -0.299795        -8.1578
  34   2.0000      -0.296974        -8.0811
  35   0.0000       0.048817         1.3284
  36   0.0000       0.072224         1.9653
  37   0.0000       0.113368         3.0849
  38   0.0000       0.142642         3.8815
  39   0.0000       0.158917         4.3244

MULLIKEN ATOMIC CHARGES
-----------------------
   0 C :   -0.347901
   1 H :    0.256745
   2 H :    0.252008
   3 N :   -0.644504
   4 H :    0.384383
   5 C :    0.517867
   6 O :   -0.438725
   7 C :    0.526630
   8 O :   -0.440088
   9 N :   -0.635917
  10 H :    0.362981
  11 C :   -0.494396
  12 H :    0.225478
  13 H :    0.224756
  14 H :    0.269917
  15 C :   -0.747457
  16 H :    0.255941
  17 H :    0.216847
  18 H :    0.255434
Sum of atomic charges:   -0.0000000

LOEWDIN ATOMIC CHARGES
----------------------
   0 C :   -0.172293
   1 H :    0.145427
   2 H :    0.143193
   3 N :   -0.239596
   4 H :    0.267381
   5 C :    0.108691
   6 O :   -0.284413
   7 C :    0.104655
   8 O :   -0.288913
   9 N :   -0.242718
  10 H :    0.256490
  11 C :   -0.256100
  12 H :    0.124250
  13 H :    0.125382
  14 H :    0.156569
  15 C :   -0.388436
  16 H :    0.155362
  17 H :    0.129309
  18 H :    0.155758

  Mayer bond orders larger than 0.100000
B(  0-C ,  1-H ) :   0.8871 B(  0-C ,  2-H ) :   0.8901 B(  0-C ,  3-N ) :   0.9721
B(  0-C ,  5-C ) :   0.9121 B(  3-N ,  4-H ) :   0.7759 B(  3-N ,  7-C ) :   1.1423
B(  5-C ,  6-O ) :   1.9612 B(  5-C ,  9-N ) :   1.1506 B(  7-C ,  8-O ) :   1.9714
B(  7-C , 15-C ) :   0.9313 B(  9-N , 10-H ) :   0.8257 B(  9-N , 11-C ) :   0.9436
B( 11-C , 12-H ) :   0.9192 B( 11-C , 13-H ) :   0.9211 B( 11-C , 14-H ) :   0.8980
B( 15-C , 16-H ) :   0.9120 B( 15-C , 17-H ) :   0.9211 B( 15-C , 18-H ) :   0.9109

Dispersion correction           -0.008898954
FINAL SINGLE POINT ENERGY      -455.561020060674

DIPOLE MOMENT
-------------
                                X             Y             Z
Electronic contribution:      1.08996      -1.32338      -1.05972
Nuclear contribution   :     -1.11785       2.45380       1.63189
                        -----------------------------------------
Total Dipole Moment    :     -0.02789       1.13042       0.57217
                        -----------------------------------------
Magnitude (a.u.)       :      1.26728
Magnitude (Debye)      :      3.22117

Rotational constants in cm-1:     0.168472     0.022802     0.020313
Rotational constants in MHz :  5050.673508   683.594460   608.981154

                             ****ORCA TERMINATED NORMALLY****
TOTAL RUN TIME: 0 days 0 hours 1 minutes 40 seconds 141 msec
