                         Program Version 5.0.3 -  RELEASE  -
|  1> ! PBEh-3c def2/J TightSCF DefGrid3
|  2>
|  3> %maxcore 60000
|  4>
|  5> %pal
|  6> nprocs 4
|  7> end
|  8>
|  9> *xyzfile 0 1 07b.xyz
| 10>
| 11>                          ****END OF INPUT****

CARTESIAN COORDINATES (ANGSTROEM)
---------------------------------
  N     -0.342309    1.763553    0.000000
  N      1.653326    0.611228    0.000000
  C     -0.412875   -0.619258    0.000000
  C      1.042801   -0.629459    0.000000
  C     -1.034852    0.580722    0.000000
  C      1.039338    1.843551    0.000000
  C     -1.131784   -1.926913    0.000000
  O      1.711491   -1.664859    0.000000
  O      1.637262    2.904781    0.000000
  H     -0.822886    2.647665    0.000000
  H      2.695201    0.625860    0.000000
  H     -2.112145    0.669690    0.000000
  H     -0.856474   -2.514346   -0.874772
  H     -0.856474   -2.514346    0.874772
  H     -2.209620   -1.777871    0.000000

 Total Charge           Charge          ....    0
 Multiplicity           Mult            ....    1
 Number of Electrons    NEL             ....   66
 Basis Dimension        Dim             ....  147

ORBITAL ENERGIES
----------------

  NO   OCC          E(Eh)            E(eV)
   0   2.0000     -19.479391      -530.0612
   1   2.0000     -19.473344      -529.8966
   2   2.0000     -14.712900      -400.3584
   3   2.0000     -14.701994      -400.0616
   4   2.0000     -10.606635      -288.6212
   5   2.0000     -10.569163      -287.6015
   6   2.0000     -10.527941      -286.4798
   7   2.0000     -10.473199      -284.9902
   8   2.0000     -10.445163      -284.2273
   9   2.0000      -1.193620       -32.4801
  10   2.0000      -1.150947       -31.3189
  11   2.0000      -1.088333       -29.6150
  12   2.0000      -1.033902       -28.1339
  13   2.0000      -0.916092       -24.9281
  14   2.0000      -0.804417       -21.8893
  15   2.0000      -0.763142       -20.7662
  16   2.0000      -0.747960       -20.3530
  17   2.0000      -0.645536       -17.5659
  18   2.0000      -0.640411       -17.4265
  19   2.0000      -0.590394       -16.0654
  20   2.0000      -0.553088       -15.0503
  21   2.0000      -0.541181       -14.7263
  22   2.0000      -0.508651       -13.8411
  23   2.0000      -0.490765       -13.3544
  24   2.0000      -0.488361       -13.2890
  25   2.0000      -0.466060       -12.6821
  26   2.0000      -0.456927       -12.4336
  27   2.0000      -0.447274       -12.1709
  28   2.0000      -0.417362       -11.3570
  29   2.0000      -0.356886        -9.7114
  30   2.0000      -0.338844        -9.2204
  31   2.0000      -0.325644        -8.8612
  32   2.0000      -0.285992        -7.7822
  33   0.0000      -0.016493        -0.4488
  34   0.0000       0.040545         1.1033
  35   0.0000       0.099230         2.7002
  36   0.0000       0.138712         3.7745
  37   0.0000       0.155448         4.2300

MULLIKEN ATOMIC CHARGES
-----------------------
   0 N :   -0.681607
   1 N :   -0.718106
   2 C :   -0.158436
   3 C :    0.566741
   4 C :    0.047499
   5 C :    0.674565
   6 C :   -0.674479
   7 O :   -0.403481
   8 O :   -0.420716
   9 H :    0.391595
  10 H :    0.401555
  11 H :    0.262198
  12 H :    0.249653
  13 H :    0.249653
  14 H :    0.213365
Sum of atomic charges:   -0.0000000

LOEWDIN ATOMIC CHARGES
----------------------
   0 N :   -0.190481
   1 N :   -0.191875
   2 C :   -0.147623
   3 C :    0.126681
   4 C :   -0.027864
   5 C :    0.144719
   6 C :   -0.333704
   7 O :   -0.260620
   8 O :   -0.269268
   9 H :    0.281739
  10 H :    0.294148
  11 H :    0.146259
  12 H :    0.148709
  13 H :    0.148709
  14 H :    0.130470

  Mayer bond orders larger than 0.100000
B(  0-N ,  4-C ) :   1.0535 B(  0-N ,  5-C ) :   1.0379 B(  0-N ,  9-H ) :   0.8086
B(  1-N ,  3-C ) :   1.0032 B(  1-N ,  5-C ) :   1.0573 B(  1-N , 10-H ) :   0.7948
B(  2-C ,  3-C ) :   1.0236 B(  2-C ,  4-C ) :   1.6524 B(  2-C ,  6-C ) :   0.9894
B(  3-C ,  7-O ) :   2.0363 B(  4-C , 11-H ) :   0.9036 B(  5-C ,  8-O ) :   2.0397
B(  6-C , 12-H ) :   0.9086 B(  6-C , 13-H ) :   0.9086 B(  6-C , 14-H ) :   0.9284

Dispersion correction           -0.008135080
FINAL SINGLE POINT ENERGY      -453.172892893532

DIPOLE MOMENT
-------------
                                X             Y             Z
Electronic contribution:      4.97617       4.83629       0.00000
Nuclear contribution   :     -6.62529      -4.50667       0.00000
                        -----------------------------------------
Total Dipole Moment    :     -1.64911       0.32962       0.00000
                        -----------------------------------------
Magnitude (a.u.)       :      1.68173
Magnitude (Debye)      :      4.27462

Rotational constants in cm-1:     0.107568     0.047037     0.032924
Rotational constants in MHz :  3224.810238  1410.134360   987.027540

                             ****ORCA TERMINATED NORMALLY****
TOTAL RUN TIME: 0 days 0 hours 1 minutes 45 seconds 260 msec
