                         Program Version 5.0.3 -  RELEASE  -
|  1> ! PBEh-3c def2/J TightSCF DefGrid3
|  2>
|  3> %maxcore 60000
|  4>
|  5> %pal
|  6> nprocs 4
|  7> end
|  8>
|  9> *xyzfile 0 1 B32.xyz
| 10>
| 11>                          ****END OF INPUT****

CARTESIAN COORDINATES (ANGSTROEM)
---------------------------------
  C      2.034731    0.354822    0.328040
  H      2.016982    0.212854    1.413865
  O      2.325788   -0.873183   -0.337543
  C      0.674076    0.829778   -0.149306
  H      0.494639    1.827756    0.259985
  H      0.709675    0.928350   -1.237076
  C     -0.455902   -0.113744    0.256249
  H     -0.516379   -0.174924    1.345432
  H     -0.250424   -1.117002   -0.114748
  H      3.158309   -1.205500    0.006659
  H      2.794129    1.107475    0.095688
  C     -1.798396    0.347791   -0.276510
  H     -2.013301    1.361048    0.081073
  H     -1.770523    0.377441   -1.370907
  O     -2.790065   -0.569311    0.180867
  H     -3.635942   -0.289424   -0.177399

 Total Charge           Charge          ....    0
 Multiplicity           Mult            ....    1
 Number of Electrons    NEL             ....   50
 Basis Dimension        Dim             ....  110

ORBITAL ENERGIES
----------------

  NO   OCC          E(Eh)            E(eV)
   0   2.0000     -19.482554      -530.1472
   1   2.0000     -19.477758      -530.0167
   2   2.0000     -10.480128      -285.1788
   3   2.0000     -10.474385      -285.0225
   4   2.0000     -10.431078      -283.8441
   5   2.0000     -10.420723      -283.5623
   6   2.0000      -1.119086       -30.4519
   7   2.0000      -1.114113       -30.3166
   8   2.0000      -0.879699       -23.9378
   9   2.0000      -0.795132       -21.6366
  10   2.0000      -0.692984       -18.8571
  11   2.0000      -0.647441       -17.6178
  12   2.0000      -0.582109       -15.8400
  13   2.0000      -0.564847       -15.3703
  14   2.0000      -0.529991       -14.4218
  15   2.0000      -0.512661       -13.9502
  16   2.0000      -0.472244       -12.8504
  17   2.0000      -0.451509       -12.2862
  18   2.0000      -0.431558       -11.7433
  19   2.0000      -0.400843       -10.9075
  20   2.0000      -0.388691       -10.5768
  21   2.0000      -0.377639       -10.2761
  22   2.0000      -0.365306        -9.9405
  23   2.0000      -0.323634        -8.8065
  24   2.0000      -0.317952        -8.6519
  25   0.0000       0.130132         3.5411
  26   0.0000       0.134277         3.6539
  27   0.0000       0.155941         4.2434
  28   0.0000       0.183426         4.9913
  29   0.0000       0.197688         5.3794

MULLIKEN ATOMIC CHARGES
-----------------------
   0 C :   -0.148663
   1 H :    0.177438
   2 O :   -0.630742
   3 C :   -0.448450
   4 H :    0.204202
   5 H :    0.221763
   6 C :   -0.439376
   7 H :    0.212958
   8 H :    0.249797
   9 H :    0.417083
  10 H :    0.187786
  11 C :   -0.131975
  12 H :    0.168443
  13 H :    0.175005
  14 O :   -0.628807
  15 H :    0.413538
Sum of atomic charges:   -0.0000000

LOEWDIN ATOMIC CHARGES
----------------------
   0 C :   -0.088562
   1 H :    0.097154
   2 O :   -0.419264
   3 C :   -0.253315
   4 H :    0.122857
   5 H :    0.129163
   6 C :   -0.251773
   7 H :    0.126300
   8 H :    0.141445
   9 H :    0.308481
  10 H :    0.099113
  11 C :   -0.089724
  12 H :    0.092746
  13 H :    0.096077
  14 O :   -0.417612
  15 H :    0.306913

  Mayer bond orders larger than 0.100000
B(  0-C ,  1-H ) :   0.9064 B(  0-C ,  2-O ) :   1.0099 B(  0-C ,  3-C ) :   0.9921
B(  0-C , 10-H ) :   0.9104 B(  2-O ,  9-H ) :   0.7933 B(  3-C ,  4-H ) :   0.9193
B(  3-C ,  5-H ) :   0.9100 B(  3-C ,  6-C ) :   0.9662 B(  6-C ,  7-H ) :   0.9147
B(  6-C ,  8-H ) :   0.9004 B(  6-C , 11-C ) :   0.9979 B( 11-C , 12-H ) :   0.9058
B( 11-C , 13-H ) :   0.9047 B( 11-C , 14-O ) :   1.0241 B( 14-O , 15-H ) :   0.7947

Dispersion correction           -0.006363882
FINAL SINGLE POINT ENERGY      -308.205558348588

DIPOLE MOMENT
-------------
                                X             Y             Z
Electronic contribution:     -0.72565      -2.44406      -0.25630
Nuclear contribution   :      1.02096       3.13144       0.31269
                        -----------------------------------------
Total Dipole Moment    :      0.29532       0.68738       0.05639
                        -----------------------------------------
Magnitude (a.u.)       :      0.75025
Magnitude (Debye)      :      1.90699

Rotational constants in cm-1:     0.324206     0.046276     0.043179
Rotational constants in MHz :  9719.454082  1387.315556  1294.479769

                             ****ORCA TERMINATED NORMALLY****
TOTAL RUN TIME: 0 days 0 hours 1 minutes 37 seconds 183 msec
