                         Program Version 5.0.3 -  RELEASE  -
|  1> ! PBEh-3c def2/J TightSCF DefGrid3
|  2>
|  3> %maxcore 60000
|  4>
|  5> %pal
|  6> nprocs 4
|  7> end
|  8>
|  9> *xyzfile 0 1 Cl2.xyz
| 10>
| 11>                          ****END OF INPUT****

CARTESIAN COORDINATES (ANGSTROEM)
---------------------------------
  Cl     0.000000    0.000000    1.007616
  Cl     0.000000    0.000000   -1.007616

 Total Charge           Charge          ....    0
 Multiplicity           Mult            ....    1
 Number of Electrons    NEL             ....   34
 Basis Dimension        Dim             ....   36

ORBITAL ENERGIES
----------------

  NO   OCC          E(Eh)            E(eV)
   0   2.0000    -102.358117     -2785.3060
   1   2.0000    -102.358068     -2785.3046
   2   2.0000      -9.823342      -267.3067
   3   2.0000      -9.823335      -267.3065
   4   2.0000      -7.513980      -204.4658
   5   2.0000      -7.513876      -204.4630
   6   2.0000      -7.500842      -204.1083
   7   2.0000      -7.500842      -204.1083
   8   2.0000      -7.500840      -204.1082
   9   2.0000      -7.500840      -204.1082
  10   2.0000      -1.025855       -27.9149
  11   2.0000      -0.849850       -23.1256
  12   2.0000      -0.519117       -14.1259
  13   2.0000      -0.463376       -12.6091
  14   2.0000      -0.463376       -12.6091
  15   2.0000      -0.357402        -9.7254
  16   2.0000      -0.357402        -9.7254
  17   0.0000      -0.092842        -2.5264
  18   0.0000       0.442723        12.0471
  19   0.0000       0.557836        15.1795
  20   0.0000       0.601639        16.3714
  21   0.0000       0.634786        17.2734

MULLIKEN ATOMIC CHARGES
-----------------------
   0 Cl:    0.000000
   1 Cl:   -0.000000
Sum of atomic charges:   -0.0000000

LOEWDIN ATOMIC CHARGES
----------------------
   0 Cl:    0.000000
   1 Cl:   -0.000000

  Mayer bond orders larger than 0.100000
B(  0-Cl,  1-Cl) :   1.0316

Dispersion correction           -0.000448143
FINAL SINGLE POINT ENERGY      -919.359153161041

DIPOLE MOMENT
-------------
                                X             Y             Z
Electronic contribution:      0.00000       0.00000      -0.00000
Nuclear contribution   :      0.00000       0.00000       0.00000
                        -----------------------------------------
Total Dipole Moment    :      0.00000       0.00000      -0.00000
                        -----------------------------------------
Magnitude (a.u.)       :      0.00000
Magnitude (Debye)      :      0.00000

Rotational constants in cm-1:     0.000000     0.234166     0.234166
Rotational constants in MHz :     0.000000  7020.113967  7020.113967

                             ****ORCA TERMINATED NORMALLY****
TOTAL RUN TIME: 0 days 0 hours 0 minutes 56 seconds 656 msec
