                         Program Version 5.0.3 -  RELEASE  -
|  1> ! PBEh-3c def2/J TightSCF DefGrid3
|  2>
|  3> %maxcore 60000
|  4>
|  5> %pal
|  6> nprocs 4
|  7> end
|  8>
|  9> *xyzfile 1 2 6p1.xyz
| 10>
| 11>                          ****END OF INPUT****

CARTESIAN COORDINATES (ANGSTROEM)
---------------------------------
  C     -1.265777    0.175681    0.153016
  C      0.198311    0.157198    0.174353
  C      0.965552   -0.675703   -0.679624
  O      0.766896    0.946279    1.015127
  H      1.739585    0.915903    1.005196
  H      0.464985   -1.332106   -1.380438
  H      2.050516   -0.672318   -0.649303
  H     -1.646025   -0.841269    0.304102
  H     -1.604911    0.475880   -0.846562
  H     -1.669132    0.850455    0.904134

 Total Charge           Charge          ....    1
 Multiplicity           Mult            ....    2
 Number of Electrons    NEL             ....   31
 Basis Dimension        Dim             ....   72

ORBITAL ENERGIES
----------------
                 SPIN UP ORBITALS
  NO   OCC          E(Eh)            E(eV)
   0   1.0000     -19.822884      -539.4081
   1   1.0000     -10.817729      -294.3654
   2   1.0000     -10.732473      -292.0454
   3   1.0000     -10.651856      -289.8517
   4   1.0000      -1.484564       -40.3970
   5   1.0000      -1.143108       -31.1055
   6   1.0000      -1.042950       -28.3801
   7   1.0000      -0.949868       -25.8472
   8   1.0000      -0.836170       -22.7533
   9   1.0000      -0.792211       -21.5572
  10   1.0000      -0.775568       -21.1043
  11   1.0000      -0.713091       -19.4042
  12   1.0000      -0.676971       -18.4213
  13   1.0000      -0.671571       -18.2744
  14   1.0000      -0.665707       -18.1148
  15   1.0000      -0.568057       -15.4576
  16   0.0000      -0.228956        -6.2302
  17   0.0000      -0.106825        -2.9069
  18   0.0000      -0.046812        -1.2738
  19   0.0000      -0.023153        -0.6300
  20   0.0000      -0.001764        -0.0480

                 SPIN DOWN ORBITALS
  NO   OCC          E(Eh)            E(eV)
   0   1.0000     -19.817452      -539.2603
   1   1.0000     -10.816956      -294.3443
   2   1.0000     -10.719830      -291.7014
   3   1.0000     -10.651690      -289.8472
   4   1.0000      -1.473520       -40.0965
   5   1.0000      -1.120738       -30.4968
   6   1.0000      -1.020568       -27.7711
   7   1.0000      -0.945931       -25.7401
   8   1.0000      -0.823260       -22.4020
   9   1.0000      -0.785151       -21.3651
  10   1.0000      -0.743314       -20.2266
  11   1.0000      -0.706575       -19.2269
  12   1.0000      -0.671866       -18.2824
  13   1.0000      -0.662743       -18.0341
  14   1.0000      -0.654729       -17.8161
  15   0.0000      -0.357384        -9.7249
  16   0.0000      -0.173105        -4.7104
  17   0.0000      -0.104088        -2.8324
  18   0.0000      -0.039948        -1.0870
  19   0.0000      -0.018983        -0.5166

MULLIKEN ATOMIC CHARGES AND SPIN POPULATIONS
--------------------------------------------
   0 C :   -0.745761    0.003946
   1 C :    0.470354    0.080054
   2 C :   -0.436414    0.839980
   3 O :   -0.420637    0.154688
   4 H :    0.499658   -0.005959
   5 H :    0.336909   -0.043766
   6 H :    0.331730   -0.044545
   7 H :    0.315825    0.008117
   8 H :    0.318309    0.009666
   9 H :    0.330028   -0.002180
Sum of atomic charges         :    1.0000000

LOEWDIN ATOMIC CHARGES AND SPIN POPULATIONS
-------------------------------------------
   0 C :   -0.352641    0.011703
   1 C :    0.182323    0.098462
   2 C :   -0.076979    0.766838
   3 O :   -0.105020    0.155474
   4 H :    0.377705   -0.004489
   5 H :    0.197471   -0.022327
   6 H :    0.185497   -0.022098
   7 H :    0.198835    0.008125
   8 H :    0.201507    0.009461
   9 H :    0.191302   -0.001148

  Mayer bond orders larger than 0.100000
B(  0-C ,  1-C ) :   0.9849 B(  0-C ,  7-H ) :   0.8597 B(  0-C ,  8-H ) :   0.8550
B(  0-C ,  9-H ) :   0.8779 B(  1-C ,  2-C ) :   1.2057 B(  1-C ,  3-O ) :   1.4260
B(  2-C ,  5-H ) :   0.8749 B(  2-C ,  6-H ) :   0.8752 B(  3-O ,  4-H ) :   0.7124

Dispersion correction           -0.003328634
FINAL SINGLE POINT ENERGY      -192.398180867731

DIPOLE MOMENT
-------------
                                X             Y             Z
Electronic contribution:      2.30122       1.05245       1.17688
Nuclear contribution   :     -1.62072      -1.56408      -1.70901
                        -----------------------------------------
Total Dipole Moment    :      0.68050      -0.51163      -0.53213
                        -----------------------------------------
Magnitude (a.u.)       :      1.00399
Magnitude (Debye)      :      2.55195

Rotational constants in cm-1:     0.346927     0.301543     0.166231
Rotational constants in MHz : 10400.614840  9040.036638  4983.478802

                             ****ORCA TERMINATED NORMALLY****
TOTAL RUN TIME: 0 days 0 hours 3 minutes 9 seconds 48 msec
