                         Program Version 5.0.3 -  RELEASE  -
|  1> ! PBEh-3c def2/J TightSCF DefGrid3
|  2>
|  3> %maxcore 60000
|  4>
|  5> %pal
|  6> nprocs 4
|  7> end
|  8>
|  9> *xyzfile 0 1 C6Cl6.xyz
| 10>
| 11>                          ****END OF INPUT****

CARTESIAN COORDINATES (ANGSTROEM)
---------------------------------
  C     -1.204588    0.695466    0.000000
  C     -1.204588   -0.695467    0.000000
  C     -0.000000   -1.390963    0.000000
  C      1.204588   -0.695466    0.000000
  C      1.204588    0.695466    0.000000
  C     -0.000000    1.390963    0.000000
  Cl    -2.682721   -1.548887    0.000000
  Cl    -0.000000   -3.097652    0.000000
  Cl     2.682721   -1.548888    0.000000
  Cl     2.682721    1.548887    0.000000
  Cl    -0.000000    3.097652    0.000000
  Cl    -2.682721    1.548887    0.000000

 Total Charge           Charge          ....    0
 Multiplicity           Mult            ....    1
 Number of Electrons    NEL             ....  138
 Basis Dimension        Dim             ....  198

ORBITAL ENERGIES
----------------

  NO   OCC          E(Eh)            E(eV)
   0   2.0000    -102.337256     -2784.7383
   1   2.0000    -102.337223     -2784.7374
   2   2.0000    -102.337215     -2784.7372
   3   2.0000    -102.337179     -2784.7362
   4   2.0000    -102.337171     -2784.7360
   5   2.0000    -102.337092     -2784.7338
   6   2.0000     -10.559615      -287.3417
   7   2.0000     -10.559429      -287.3367
   8   2.0000     -10.559427      -287.3366
   9   2.0000     -10.558785      -287.3192
  10   2.0000     -10.558783      -287.3191
  11   2.0000     -10.558552      -287.3128
  12   2.0000      -9.804661      -266.7984
  13   2.0000      -9.804648      -266.7980
  14   2.0000      -9.804638      -266.7978
  15   2.0000      -9.804624      -266.7974
  16   2.0000      -9.804616      -266.7972
  17   2.0000      -9.804578      -266.7961
  18   2.0000      -7.492677      -203.8861
  19   2.0000      -7.492669      -203.8859
  20   2.0000      -7.492659      -203.8856
  21   2.0000      -7.492657      -203.8856
  22   2.0000      -7.492650      -203.8854
  23   2.0000      -7.492633      -203.8849
  24   2.0000      -7.483946      -203.6485
  25   2.0000      -7.483945      -203.6485
  26   2.0000      -7.483933      -203.6482
  27   2.0000      -7.483930      -203.6481
  28   2.0000      -7.483924      -203.6479
  29   2.0000      -7.483921      -203.6478
  30   2.0000      -7.483404      -203.6338
  31   2.0000      -7.483387      -203.6333
  32   2.0000      -7.483377      -203.6330
  33   2.0000      -7.483358      -203.6325
  34   2.0000      -7.483350      -203.6323
  35   2.0000      -7.483339      -203.6320
  36   2.0000      -1.088357       -29.6157
  37   2.0000      -1.034035       -28.1375
  38   2.0000      -1.034007       -28.1368
  39   2.0000      -0.979767       -26.6608
  40   2.0000      -0.979742       -26.6601
  41   2.0000      -0.955321       -25.9956
  42   2.0000      -0.929653       -25.2971
  43   2.0000      -0.832446       -22.6520
  44   2.0000      -0.832444       -22.6519
  45   2.0000      -0.713139       -19.4055
  46   2.0000      -0.713138       -19.4055
  47   2.0000      -0.643254       -17.5038
  48   2.0000      -0.600338       -16.3360
  49   2.0000      -0.557591       -15.1728
  50   2.0000      -0.546767       -14.8783
  51   2.0000      -0.535578       -14.5738
  52   2.0000      -0.535560       -14.5733
  53   2.0000      -0.499903       -13.6030
  54   2.0000      -0.499886       -13.6026
  55   2.0000      -0.475545       -12.9402
  56   2.0000      -0.475527       -12.9398
  57   2.0000      -0.419728       -11.4214
  58   2.0000      -0.419715       -11.4210
  59   2.0000      -0.414620       -11.2824
  60   2.0000      -0.414616       -11.2823
  61   2.0000      -0.413555       -11.2534
  62   2.0000      -0.405183       -11.0256
  63   2.0000      -0.386550       -10.5186
  64   2.0000      -0.386546       -10.5185
  65   2.0000      -0.370947       -10.0940
  66   2.0000      -0.356192        -9.6925
  67   2.0000      -0.305637        -8.3168
  68   2.0000      -0.305631        -8.3166
  69   0.0000      -0.038101        -1.0368
  70   0.0000      -0.038098        -1.0367
  71   0.0000      -0.017258        -0.4696
  72   0.0000       0.063117         1.7175
  73   0.0000       0.063153         1.7185

MULLIKEN ATOMIC CHARGES
-----------------------
   0 C :    0.025694
   1 C :    0.025694
   2 C :    0.025730
   3 C :    0.025693
   4 C :    0.025694
   5 C :    0.025730
   6 Cl:   -0.025715
   7 Cl:   -0.025688
   8 Cl:   -0.025715
   9 Cl:   -0.025715
  10 Cl:   -0.025688
  11 Cl:   -0.025715
Sum of atomic charges:   -0.0000000

LOEWDIN ATOMIC CHARGES
----------------------
   0 C :   -0.160345
   1 C :   -0.160345
   2 C :   -0.160394
   3 C :   -0.160345
   4 C :   -0.160345
   5 C :   -0.160394
   6 Cl:    0.160334
   7 Cl:    0.160417
   8 Cl:    0.160334
   9 Cl:    0.160334
  10 Cl:    0.160417
  11 Cl:    0.160334

  Mayer bond orders larger than 0.100000
B(  0-C ,  1-C ) :   1.2292 B(  0-C ,  5-C ) :   1.2292 B(  0-C , 11-Cl) :   1.2128
B(  1-C ,  2-C ) :   1.2292 B(  1-C ,  6-Cl) :   1.2128 B(  2-C ,  3-C ) :   1.2292
B(  2-C ,  7-Cl) :   1.2128 B(  3-C ,  4-C ) :   1.2292 B(  3-C ,  8-Cl) :   1.2128
B(  4-C ,  5-C ) :   1.2292 B(  4-C ,  9-Cl) :   1.2128 B(  5-C , 10-Cl) :   1.2128

Dispersion correction           -0.012432337
FINAL SINGLE POINT ENERGY     -2986.333186924826

DIPOLE MOMENT
-------------
                                X             Y             Z
Electronic contribution:     -0.00000       0.00000      -0.00000
Nuclear contribution   :      0.00000      -0.00000       0.00000
                        -----------------------------------------
Total Dipole Moment    :     -0.00000       0.00000      -0.00000
                        -----------------------------------------
Magnitude (a.u.)       :      0.00000
Magnitude (Debye)      :      0.00000

Rotational constants in cm-1:     0.015461     0.015461     0.007731
Rotational constants in MHz :   463.521626   463.509176   231.757700

                             ****ORCA TERMINATED NORMALLY****
TOTAL RUN TIME: 0 days 0 hours 1 minutes 30 seconds 713 msec
