                         Program Version 5.0.3 -  RELEASE  -
|  1> ! PBEh-3c def2/J TightSCF DefGrid3
|  2>
|  3> %maxcore 60000
|  4>
|  5> %pal
|  6> nprocs 4
|  7> end
|  8>
|  9> *xyzfile 0 1 c3.xyz
| 10>
| 11>                          ****END OF INPUT****

CARTESIAN COORDINATES (ANGSTROEM)
---------------------------------
  C      0.000000   -1.248414   -1.461842
  C      0.000000    1.248414   -1.461842
  C     -1.244438    0.000000    0.322618
  C      1.244438    0.000000    0.322618
  C      0.000000    0.000000   -2.346300
  C     -1.254009   -1.239003   -0.582116
  C     -1.254009    1.239003   -0.582116
  C      1.254009    1.239003   -0.582116
  C      1.254009   -1.239003   -0.582116
  C      0.000000    0.000000    1.237813
  H     -0.881756    0.000000   -2.993304
  H      0.881756    0.000000   -2.993304
  H     -1.314329   -2.155664    0.005906
  H     -1.314329    2.155664    0.005906
  H      1.314329    2.155664    0.005906
  H      1.314329   -2.155664    0.005906
  H     -2.144875   -1.212798   -1.216376
  H     -2.144875    1.212798   -1.216376
  H      2.144875    1.212798   -1.216376
  H      2.144875   -1.212798   -1.216376
  C      0.000000    1.220174    2.162326
  C      0.000000   -1.220174    2.162326
  H      0.000000   -2.143016   -2.089220
  H      0.000000    2.143016   -2.089220
  H     -2.139384    0.000000    0.954291
  H      2.139384    0.000000    0.954291
  H      0.882020    1.198817    2.805607
  H      0.882020   -1.198817    2.805607
  H     -0.882020   -1.198817    2.805607
  H     -0.882020    1.198817    2.805607
  H      0.000000    2.168692    1.633333
  H      0.000000   -2.168692    1.633333

 Total Charge           Charge          ....    0
 Multiplicity           Mult            ....    1
 Number of Electrons    NEL             ....   92
 Basis Dimension        Dim             ....  220

ORBITAL ENERGIES
----------------

  NO   OCC          E(Eh)            E(eV)
   0   2.0000     -10.441838      -284.1369
   1   2.0000     -10.430807      -283.8367
   2   2.0000     -10.430800      -283.8365
   3   2.0000     -10.430800      -283.8365
   4   2.0000     -10.430684      -283.8333
   5   2.0000     -10.421658      -283.5877
   6   2.0000     -10.421591      -283.5859
   7   2.0000     -10.421582      -283.5857
   8   2.0000     -10.421558      -283.5850
   9   2.0000     -10.421280      -283.5774
  10   2.0000     -10.415635      -283.4238
  11   2.0000     -10.415578      -283.4223
  12   2.0000      -0.969708       -26.3871
  13   2.0000      -0.886454       -24.1216
  14   2.0000      -0.853687       -23.2300
  15   2.0000      -0.852961       -23.2102
  16   2.0000      -0.794046       -21.6071
  17   2.0000      -0.757379       -20.6093
  18   2.0000      -0.740128       -20.1399
  19   2.0000      -0.697735       -18.9863
  20   2.0000      -0.656450       -17.8629
  21   2.0000      -0.642980       -17.4964
  22   2.0000      -0.629197       -17.1213
  23   2.0000      -0.568071       -15.4580
  24   2.0000      -0.526115       -14.3163
  25   2.0000      -0.510362       -13.8876
  26   2.0000      -0.509561       -13.8659
  27   2.0000      -0.497085       -13.5264
  28   2.0000      -0.492543       -13.4028
  29   2.0000      -0.462473       -12.5845
  30   2.0000      -0.452332       -12.3086
  31   2.0000      -0.449098       -12.2206
  32   2.0000      -0.445629       -12.1262
  33   2.0000      -0.438457       -11.9310
  34   2.0000      -0.432401       -11.7662
  35   2.0000      -0.424987       -11.5645
  36   2.0000      -0.420248       -11.4355
  37   2.0000      -0.392725       -10.6866
  38   2.0000      -0.370855       -10.0915
  39   2.0000      -0.367714       -10.0060
  40   2.0000      -0.367643       -10.0041
  41   2.0000      -0.358367        -9.7517
  42   2.0000      -0.356867        -9.7108
  43   2.0000      -0.319377        -8.6907
  44   2.0000      -0.313961        -8.5433
  45   2.0000      -0.311831        -8.4854
  46   0.0000       0.111236         3.0269
  47   0.0000       0.154212         4.1963
  48   0.0000       0.158762         4.3201
  49   0.0000       0.167098         4.5470
  50   0.0000       0.172735         4.7003

MULLIKEN ATOMIC CHARGES
-----------------------
   0 C :   -0.231550
   1 C :   -0.231550
   2 C :   -0.205422
   3 C :   -0.205422
   4 C :   -0.412453
   5 C :   -0.420528
   6 C :   -0.420528
   7 C :   -0.420528
   8 C :   -0.420528
   9 C :   -0.065895
  10 H :    0.211772
  11 H :    0.211772
  12 H :    0.220152
  13 H :    0.220152
  14 H :    0.220152
  15 H :    0.220152
  16 H :    0.214231
  17 H :    0.214231
  18 H :    0.214231
  19 H :    0.214231
  20 C :   -0.628735
  21 C :   -0.628735
  22 H :    0.213646
  23 H :    0.213646
  24 H :    0.205371
  25 H :    0.205371
  26 H :    0.214009
  27 H :    0.214009
  28 H :    0.214009
  29 H :    0.214009
  30 H :    0.218362
  31 H :    0.218362
Sum of atomic charges:   -0.0000000

LOEWDIN ATOMIC CHARGES
----------------------
   0 C :   -0.144354
   1 C :   -0.144354
   2 C :   -0.131697
   3 C :   -0.131697
   4 C :   -0.223496
   5 C :   -0.222368
   6 C :   -0.222369
   7 C :   -0.222369
   8 C :   -0.222368
   9 C :   -0.091058
  10 H :    0.119929
  11 H :    0.119929
  12 H :    0.121295
  13 H :    0.121295
  14 H :    0.121295
  15 H :    0.121295
  16 H :    0.121584
  17 H :    0.121584
  18 H :    0.121584
  19 H :    0.121584
  20 C :   -0.341735
  21 C :   -0.341735
  22 H :    0.120600
  23 H :    0.120600
  24 H :    0.119785
  25 H :    0.119785
  26 H :    0.125849
  27 H :    0.125849
  28 H :    0.125849
  29 H :    0.125849
  30 H :    0.122030
  31 H :    0.122030

  Mayer bond orders larger than 0.100000
B(  0-C ,  4-C ) :   0.9754 B(  0-C ,  5-C ) :   0.9718 B(  0-C ,  8-C ) :   0.9718
B(  0-C , 22-H ) :   0.9208 B(  1-C ,  4-C ) :   0.9754 B(  1-C ,  6-C ) :   0.9718
B(  1-C ,  7-C ) :   0.9718 B(  1-C , 23-H ) :   0.9208 B(  2-C ,  5-C ) :   0.9766
B(  2-C ,  6-C ) :   0.9766 B(  2-C ,  9-C ) :   0.9422 B(  2-C , 24-H ) :   0.9185
B(  3-C ,  7-C ) :   0.9766 B(  3-C ,  8-C ) :   0.9766 B(  3-C ,  9-C ) :   0.9422
B(  3-C , 25-H ) :   0.9185 B(  4-C , 10-H ) :   0.9240 B(  4-C , 11-H ) :   0.9240
B(  5-C , 12-H ) :   0.9196 B(  5-C , 16-H ) :   0.9221 B(  6-C , 13-H ) :   0.9196
B(  6-C , 17-H ) :   0.9221 B(  7-C , 14-H ) :   0.9196 B(  7-C , 18-H ) :   0.9221
B(  8-C , 15-H ) :   0.9196 B(  8-C , 19-H ) :   0.9221 B(  9-C , 20-C ) :   0.9909
B(  9-C , 21-C ) :   0.9909 B( 20-C , 26-H ) :   0.9274 B( 20-C , 29-H ) :   0.9274
B( 20-C , 30-H ) :   0.9196 B( 21-C , 27-H ) :   0.9274 B( 21-C , 28-H ) :   0.9274
B( 21-C , 31-H ) :   0.9196

Dispersion correction           -0.023516070
FINAL SINGLE POINT ENERGY      -468.344505567116

DIPOLE MOMENT
-------------
                                X             Y             Z
Electronic contribution:     -0.00000       0.00000      -3.07269
Nuclear contribution   :      0.00000       0.00000       3.05243
                        -----------------------------------------
Total Dipole Moment    :     -0.00000       0.00000      -0.02025
                        -----------------------------------------
Magnitude (a.u.)       :      0.02025
Magnitude (Debye)      :      0.05148

Rotational constants in cm-1:     0.048392     0.034438     0.031600
Rotational constants in MHz :  1450.752137  1032.416489   947.339065

                             ****ORCA TERMINATED NORMALLY****
TOTAL RUN TIME: 0 days 0 hours 3 minutes 16 seconds 479 msec
