                         Program Version 5.0.3 -  RELEASE  -
|  1> ! PBEh-3c def2/J TightSCF DefGrid3
|  2>
|  3> %maxcore 60000
|  4>
|  5> %pal
|  6> nprocs 4
|  7> end
|  8>
|  9> *xyzfile 0 1 B15.xyz
| 10>
| 11>                          ****END OF INPUT****

CARTESIAN COORDINATES (ANGSTROEM)
---------------------------------
  C      1.370096   -0.340890    0.653787
  H      0.764139   -1.225809    0.836661
  O      2.060268   -0.596642   -0.570087
  C      0.487183    0.899769    0.590614
  H     -0.066426    0.964789    1.529242
  H      1.118124    1.791791    0.532800
  C     -0.487183    0.899757   -0.590632
  H      0.066425    0.964761   -1.529260
  H     -1.118124    1.791780   -0.532834
  H      2.658041    0.140575   -0.722352
  H      2.076243   -0.251423    1.484400
  C     -1.370097   -0.340902   -0.653781
  H     -2.076243   -0.251451   -1.484397
  H     -0.764141   -1.225825   -0.836637
  O     -2.060271   -0.596633    0.570097
  H     -2.658014    0.140607    0.722369

 Total Charge           Charge          ....    0
 Multiplicity           Mult            ....    1
 Number of Electrons    NEL             ....   50
 Basis Dimension        Dim             ....  110

ORBITAL ENERGIES
----------------

  NO   OCC          E(Eh)            E(eV)
   0   2.0000     -19.483489      -530.1727
   1   2.0000     -19.483474      -530.1723
   2   2.0000     -10.475568      -285.0547
   3   2.0000     -10.475547      -285.0541
   4   2.0000     -10.432685      -283.8878
   5   2.0000     -10.432467      -283.8819
   6   2.0000      -1.119735       -30.4695
   7   2.0000      -1.117398       -30.4059
   8   2.0000      -0.878030       -23.8924
   9   2.0000      -0.791855       -21.5475
  10   2.0000      -0.719183       -19.5700
  11   2.0000      -0.650192       -17.6926
  12   2.0000      -0.569025       -15.4840
  13   2.0000      -0.540511       -14.7081
  14   2.0000      -0.531050       -14.4506
  15   2.0000      -0.525136       -14.2897
  16   2.0000      -0.484758       -13.1909
  17   2.0000      -0.462686       -12.5903
  18   2.0000      -0.424186       -11.5427
  19   2.0000      -0.419938       -11.4271
  20   2.0000      -0.397678       -10.8214
  21   2.0000      -0.371364       -10.1053
  22   2.0000      -0.370211       -10.0739
  23   2.0000      -0.323909        -8.8140
  24   2.0000      -0.319316        -8.6890
  25   0.0000       0.111330         3.0295
  26   0.0000       0.143843         3.9142
  27   0.0000       0.174999         4.7620
  28   0.0000       0.183265         4.9869
  29   0.0000       0.189886         5.1671

MULLIKEN ATOMIC CHARGES
-----------------------
   0 C :   -0.180782
   1 H :    0.230848
   2 O :   -0.625881
   3 C :   -0.453734
   4 H :    0.221214
   5 H :    0.204214
   6 C :   -0.453736
   7 H :    0.221216
   8 H :    0.204214
   9 H :    0.408128
  10 H :    0.195994
  11 C :   -0.180780
  12 H :    0.195994
  13 H :    0.230847
  14 O :   -0.625881
  15 H :    0.408128
Sum of atomic charges:    0.0000000

LOEWDIN ATOMIC CHARGES
----------------------
   0 C :   -0.099139
   1 H :    0.126038
   2 O :   -0.416146
   3 C :   -0.269002
   4 H :    0.132747
   5 H :    0.118024
   6 C :   -0.269002
   7 H :    0.132748
   8 H :    0.118024
   9 H :    0.305055
  10 H :    0.102422
  11 C :   -0.099138
  12 H :    0.102422
  13 H :    0.126038
  14 O :   -0.416146
  15 H :    0.305054

  Mayer bond orders larger than 0.100000
B(  0-C ,  1-H ) :   0.9068 B(  0-C ,  2-O ) :   1.0059 B(  0-C ,  3-C ) :   0.9699
B(  0-C , 10-H ) :   0.9148 B(  2-O ,  9-H ) :   0.7970 B(  3-C ,  4-H ) :   0.9068
B(  3-C ,  5-H ) :   0.9252 B(  3-C ,  6-C ) :   0.9673 B(  6-C ,  7-H ) :   0.9068
B(  6-C ,  8-H ) :   0.9252 B(  6-C , 11-C ) :   0.9699 B( 11-C , 12-H ) :   0.9148
B( 11-C , 13-H ) :   0.9068 B( 11-C , 14-O ) :   1.0059 B( 14-O , 15-H ) :   0.7970

Dispersion correction           -0.006872563
FINAL SINGLE POINT ENERGY      -308.208371697698

DIPOLE MOMENT
-------------
                                X             Y             Z
Electronic contribution:     -0.00000      -1.84316       0.00001
Nuclear contribution   :      0.00003       2.93936      -0.00001
                        -----------------------------------------
Total Dipole Moment    :      0.00003       1.09620       0.00000
                        -----------------------------------------
Magnitude (a.u.)       :      1.09620
Magnitude (Debye)      :      2.78631

Rotational constants in cm-1:     0.195546     0.066239     0.065222
Rotational constants in MHz :  5862.314103  1985.800731  1955.317024

                             ****ORCA TERMINATED NORMALLY****
TOTAL RUN TIME: 0 days 0 hours 1 minutes 15 seconds 72 msec
