                         Program Version 5.0.3 -  RELEASE  -
|  1> ! PBEh-3c def2/J TightSCF DefGrid3
|  2>
|  3> %maxcore 60000
|  4>
|  5> %pal
|  6> nprocs 4
|  7> end
|  8>
|  9> *xyzfile 1 1 i24p.xyz
| 10>
| 11>                          ****END OF INPUT****

CARTESIAN COORDINATES (ANGSTROEM)
---------------------------------
  C     -2.807764   -0.957700   -0.269565
  C     -2.507759   -0.378578   -1.665075
  C     -0.997889   -0.113531   -1.618921
  C     -0.718495    0.341495   -0.144387
  C     -2.010247    0.002867    0.646419
  C      0.572705   -0.004579    0.415829
  C      1.749879    0.092678   -0.436194
  C      0.742723   -0.194316    1.873606
  C      2.060550    1.657488   -0.366528
  Si     3.356236   -0.995216   -0.082962
  H      1.472673   -0.090472   -1.481098
  C      0.826942    2.394333   -0.905429
  H      2.290760    1.955394    0.662136
  H      2.949645    1.849734   -0.977123
  C     -0.452530    2.030789   -0.142822
  H      0.978736    3.479196   -0.817212
  H      0.716198    2.172745   -1.972129
  C     -0.514463    2.679991    1.238994
  H     -1.340712    2.318980   -0.718343
  H     -1.344158    2.297688    1.842062
  H      0.415807    2.548147    1.801746
  H     -0.672900    3.757222    1.107096
  C      4.308124   -0.894957   -1.718113
  C      4.367861   -0.255003    1.341427
  C      2.782948   -2.763319    0.291953
  H      5.242041   -1.469180   -1.645735
  H      3.725258   -1.311637   -2.550681
  H      4.577667    0.139085   -1.972629
  H      5.348747   -0.749324    1.379664
  H      4.552106    0.818356    1.200165
  H      3.899622   -0.398214    2.323944
  H      3.649059   -3.436090    0.357560
  H      2.246129   -2.833410    1.247486
  H      2.126804   -3.148619   -0.500882
  H      1.759778    0.031505    2.204831
  H      0.000237    0.347211    2.464246
  H      0.565956   -1.269728    2.060232
  C     -4.267957   -1.079924    0.108486
  C     -5.148005    0.127666   -0.108141
  C     -4.743192   -2.224211    0.615918
  H     -6.147246   -0.036802    0.308064
  H     -4.728989    1.030223    0.361113
  H     -5.257536    0.347473   -1.179744
  H     -5.788099   -2.326379    0.903517
  H     -4.101661   -3.094929    0.748791
  H     -2.345647   -1.954006   -0.206181
  H     -2.787571   -1.055570   -2.478795
  H     -3.056044    0.562366   -1.801218
  H     -0.455468   -1.047649   -1.812427
  H     -0.666242    0.618957   -2.359151
  H     -1.825389   -0.432471    1.631477
  H     -2.599229    0.914220    0.794724

 Total Charge           Charge          ....    1
 Multiplicity           Mult            ....    1
 Number of Electrons    NEL             ....  154
 Basis Dimension        Dim             ....  354

ORBITAL ENERGIES
----------------

  NO   OCC          E(Eh)            E(eV)
   0   2.0000     -66.868035     -1819.5718
   1   2.0000     -10.694180      -291.0034
   2   2.0000     -10.628882      -289.2266
   3   2.0000     -10.625923      -289.1461
   4   2.0000     -10.607713      -288.6505
   5   2.0000     -10.601678      -288.4863
   6   2.0000     -10.595478      -288.3176
   7   2.0000     -10.584263      -288.0124
   8   2.0000     -10.578831      -287.8646
   9   2.0000     -10.573656      -287.7238
  10   2.0000     -10.568061      -287.5716
  11   2.0000     -10.564879      -287.4850
  12   2.0000     -10.555433      -287.2279
  13   2.0000     -10.550936      -287.1056
  14   2.0000     -10.537473      -286.7392
  15   2.0000     -10.537024      -286.7270
  16   2.0000     -10.532803      -286.6121
  17   2.0000     -10.525693      -286.4187
  18   2.0000     -10.522902      -286.3427
  19   2.0000      -5.637396      -153.4014
  20   2.0000      -3.930320      -106.9494
  21   2.0000      -3.928169      -106.8909
  22   2.0000      -3.928068      -106.8882
  23   2.0000      -1.131940       -30.8017
  24   2.0000      -1.060788       -28.8655
  25   2.0000      -1.028087       -27.9757
  26   2.0000      -1.000534       -27.2259
  27   2.0000      -0.981438       -26.7063
  28   2.0000      -0.935130       -25.4462
  29   2.0000      -0.923766       -25.1369
  30   2.0000      -0.918616       -24.9968
  31   2.0000      -0.900927       -24.5155
  32   2.0000      -0.878448       -23.9038
  33   2.0000      -0.874535       -23.7973
  34   2.0000      -0.862242       -23.4628
  35   2.0000      -0.850274       -23.1371
  36   2.0000      -0.813581       -22.1387
  37   2.0000      -0.793414       -21.5899
  38   2.0000      -0.772327       -21.0161
  39   2.0000      -0.730034       -19.8652
  40   2.0000      -0.711708       -19.3666
  41   2.0000      -0.693622       -18.8744
  42   2.0000      -0.691866       -18.8266
  43   2.0000      -0.667567       -18.1654
  44   2.0000      -0.656291       -17.8586
  45   2.0000      -0.639740       -17.4082
  46   2.0000      -0.634885       -17.2761
  47   2.0000      -0.625473       -17.0200
  48   2.0000      -0.622294       -16.9335
  49   2.0000      -0.609674       -16.5901
  50   2.0000      -0.607284       -16.5250
  51   2.0000      -0.594996       -16.1907
  52   2.0000      -0.592783       -16.1304
  53   2.0000      -0.583216       -15.8701
  54   2.0000      -0.579837       -15.7782
  55   2.0000      -0.576351       -15.6833
  56   2.0000      -0.573642       -15.6096
  57   2.0000      -0.568694       -15.4750
  58   2.0000      -0.564283       -15.3549
  59   2.0000      -0.558371       -15.1940
  60   2.0000      -0.556743       -15.1497
  61   2.0000      -0.554579       -15.0909
  62   2.0000      -0.552053       -15.0221
  63   2.0000      -0.549157       -14.9433
  64   2.0000      -0.538849       -14.6628
  65   2.0000      -0.528455       -14.3800
  66   2.0000      -0.522954       -14.2303
  67   2.0000      -0.515859       -14.0372
  68   2.0000      -0.514355       -13.9963
  69   2.0000      -0.505881       -13.7657
  70   2.0000      -0.493773       -13.4362
  71   2.0000      -0.487903       -13.2765
  72   2.0000      -0.479704       -13.0534
  73   2.0000      -0.470466       -12.8020
  74   2.0000      -0.469952       -12.7880
  75   2.0000      -0.465165       -12.6578
  76   2.0000      -0.383577       -10.4377
  77   0.0000      -0.217749        -5.9253
  78   0.0000      -0.051454        -1.4001
  79   0.0000      -0.037723        -1.0265
  80   0.0000      -0.027524        -0.7490
  81   0.0000      -0.021152        -0.5756

MULLIKEN ATOMIC CHARGES
-----------------------
   0 C :   -0.316285
   1 C :   -0.417699
   2 C :   -0.457625
   3 C :   -0.111336
   4 C :   -0.433202
   5 C :    0.310667
   6 C :   -0.600627
   7 C :   -0.771351
   8 C :   -0.452756
   9 Si:    1.043583
  10 H :    0.283675
  11 C :   -0.429950
  12 H :    0.251584
  13 H :    0.287839
  14 C :   -0.271701
  15 H :    0.283262
  16 H :    0.253634
  17 C :   -0.659348
  18 H :    0.293889
  19 H :    0.254282
  20 H :    0.227200
  21 H :    0.277149
  22 C :   -0.936792
  23 C :   -0.962919
  24 C :   -0.944986
  25 H :    0.264417
  26 H :    0.248337
  27 H :    0.243550
  28 H :    0.270818
  29 H :    0.246333
  30 H :    0.238147
  31 H :    0.268990
  32 H :    0.231614
  33 H :    0.243845
  34 H :    0.285101
  35 H :    0.298533
  36 H :    0.306367
  37 C :    0.201033
  38 C :   -0.714311
  39 C :   -0.534039
  40 H :    0.257968
  41 H :    0.210880
  42 H :    0.236788
  43 H :    0.235214
  44 H :    0.218320
  45 H :    0.235274
  46 H :    0.270217
  47 H :    0.230480
  48 H :    0.246000
  49 H :    0.256013
  50 H :    0.255796
  51 H :    0.248123
Sum of atomic charges:    1.0000000

LOEWDIN ATOMIC CHARGES
----------------------
   0 C :   -0.130516
   1 C :   -0.222626
   2 C :   -0.220220
   3 C :   -0.070178
   4 C :   -0.213847
   5 C :    0.209252
   6 C :   -0.295873
   7 C :   -0.350495
   8 C :   -0.189967
   9 Si:    0.598053
  10 H :    0.161522
  11 C :   -0.234659
  12 H :    0.138799
  13 H :    0.157512
  14 C :   -0.089103
  15 H :    0.161768
  16 H :    0.140287
  17 C :   -0.357447
  18 H :    0.160048
  19 H :    0.142779
  20 H :    0.131117
  21 H :    0.158513
  22 C :   -0.559009
  23 C :   -0.567327
  24 C :   -0.565109
  25 H :    0.163352
  26 H :    0.153188
  27 H :    0.150014
  28 H :    0.165984
  29 H :    0.151224
  30 H :    0.144980
  31 H :    0.165244
  32 H :    0.142389
  33 H :    0.151918
  34 H :    0.163990
  35 H :    0.170274
  36 H :    0.194534
  37 C :   -0.062216
  38 C :   -0.348998
  39 C :   -0.258607
  40 H :    0.149273
  41 H :    0.125698
  42 H :    0.140040
  43 H :    0.141546
  44 H :    0.132843
  45 H :    0.132837
  46 H :    0.149349
  47 H :    0.131876
  48 H :    0.137777
  49 H :    0.138192
  50 H :    0.140531
  51 H :    0.139492

  Mayer bond orders larger than 0.100000
B(  0-C ,  1-C ) :   0.9552 B(  0-C ,  4-C ) :   0.9395 B(  0-C , 37-C ) :   0.9955
B(  0-C , 45-H ) :   0.9074 B(  1-C ,  2-C ) :   0.9708 B(  1-C , 46-H ) :   0.9114
B(  1-C , 47-H ) :   0.9095 B(  2-C ,  3-C ) :   0.9254 B(  2-C , 48-H ) :   0.9094
B(  2-C , 49-H ) :   0.9061 B(  3-C ,  4-C ) :   0.9323 B(  3-C ,  5-C ) :   1.0932
B(  3-C , 14-C ) :   0.7727 B(  4-C , 50-H ) :   0.9104 B(  4-C , 51-H ) :   0.9002
B(  5-C ,  6-C ) :   1.0928 B(  5-C ,  7-C ) :   1.0248 B(  5-C , 14-C ) :   0.1024
B(  6-C ,  8-C ) :   0.8613 B(  6-C ,  9-Si) :   0.7485 B(  6-C , 10-H ) :   0.8703
B(  7-C , 34-H ) :   0.8832 B(  7-C , 35-H ) :   0.8793 B(  7-C , 36-H ) :   0.8446
B(  8-C , 11-C ) :   0.9607 B(  8-C , 12-H ) :   0.8964 B(  8-C , 13-H ) :   0.8929
B(  9-Si, 22-C ) :   0.9869 B(  9-Si, 23-C ) :   0.9573 B(  9-Si, 24-C ) :   0.9723
B( 11-C , 14-C ) :   0.9633 B( 11-C , 15-H ) :   0.8891 B( 11-C , 16-H ) :   0.9026
B( 14-C , 17-C ) :   0.9784 B( 14-C , 18-H ) :   0.8744 B( 17-C , 19-H ) :   0.9041
B( 17-C , 20-H ) :   0.9137 B( 17-C , 21-H ) :   0.8995 B( 22-C , 25-H ) :   0.8984
B( 22-C , 26-H ) :   0.9016 B( 22-C , 27-H ) :   0.9026 B( 23-C , 28-H ) :   0.8952
B( 23-C , 29-H ) :   0.9039 B( 23-C , 30-H ) :   0.9043 B( 24-C , 31-H ) :   0.8982
B( 24-C , 32-H ) :   0.9065 B( 24-C , 33-H ) :   0.9038 B( 37-C , 38-C ) :   0.9606
B( 37-C , 39-C ) :   1.8644 B( 38-C , 40-H ) :   0.9193 B( 38-C , 41-H ) :   0.9146
B( 38-C , 42-H ) :   0.9088 B( 39-C , 43-H ) :   0.9234 B( 39-C , 44-H ) :   0.9300

Dispersion correction           -0.038517778
FINAL SINGLE POINT ENERGY      -993.156114789655

DIPOLE MOMENT
-------------
                                X             Y             Z
Electronic contribution:     -0.14536      -2.20908      -1.87482
Nuclear contribution   :      1.15762       2.99320       2.15534
                        -----------------------------------------
Total Dipole Moment    :      1.01226       0.78411       0.28052
                        -----------------------------------------
Magnitude (a.u.)       :      1.31080
Magnitude (Debye)      :      3.33179

Rotational constants in cm-1:     0.019551     0.006344     0.005739
Rotational constants in MHz :   586.119791   190.202267   172.047640

                             ****ORCA TERMINATED NORMALLY****
TOTAL RUN TIME: 0 days 0 hours 7 minutes 18 seconds 824 msec
