                         Program Version 5.0.3 -  RELEASE  -
|  1> ! PBEh-3c def2/J TightSCF DefGrid3
|  2>
|  3> %maxcore 60000
|  4>
|  5> %pal
|  6> nprocs 4
|  7> end
|  8>
|  9> *xyzfile 0 1 TYR_xah.xyz
| 10>
| 11>                          ****END OF INPUT****

CARTESIAN COORDINATES (ANGSTROEM)
---------------------------------
  N      1.404354   -0.966181    0.085774
  C      1.399013    0.025822   -0.967469
  C      1.484610    1.466303   -0.457847
  O      1.331157    2.408855   -1.228855
  C      0.157508   -0.130061   -1.859435
  C     -1.102433   -0.097332   -1.042418
  C     -1.718350   -1.282826   -0.623551
  C     -1.654418    1.115970   -0.616136
  C     -2.843875   -1.269141    0.196161
  C     -2.780445    1.140617    0.201205
  C     -3.375654   -0.051707    0.614391
  O     -4.480320   -0.088775    1.417380
  H      0.509533   -1.202292    0.489237
  H      2.301925   -0.143913   -1.555944
  H      0.174323    0.682406   -2.583631
  H      0.232922   -1.076649   -2.395150
  H     -1.324141   -2.233810   -0.962940
  H     -1.199352    2.045504   -0.932958
  H     -3.323293   -2.186349    0.508504
  H     -3.199664    2.089534    0.515097
  H     -4.746918    0.817460    1.603742
  N      1.740202    1.598372    0.860814
  H      1.884561    0.749644    1.380426
  C      1.923362    2.889591    1.483528
  H      1.649084    3.643376    0.751874
  H      1.286035    2.987002    2.359904
  H      2.960457    3.044510    1.777624
  C      2.434675   -1.861001    0.231329
  O      3.491365   -1.756908   -0.372186
  C      2.168440   -2.978463    1.211859
  H      2.143286   -3.918063    0.663662
  H      1.234888   -2.857798    1.756539
  H      2.995972   -3.030630    1.914462

 Total Charge           Charge          ....    0
 Multiplicity           Mult            ....    1
 Number of Electrons    NEL             ....  126
 Basis Dimension        Dim             ....  287

ORBITAL ENERGIES
----------------

  NO   OCC          E(Eh)            E(eV)
   0   2.0000     -19.533894      -531.5443
   1   2.0000     -19.464968      -529.6687
   2   2.0000     -19.454736      -529.3903
   3   2.0000     -14.672183      -399.2504
   4   2.0000     -14.662527      -398.9876
   5   2.0000     -10.558589      -287.3138
   6   2.0000     -10.544082      -286.9191
   7   2.0000     -10.520509      -286.2776
   8   2.0000     -10.490516      -285.4614
   9   2.0000     -10.466876      -284.8182
  10   2.0000     -10.461412      -284.6695
  11   2.0000     -10.460010      -284.6313
  12   2.0000     -10.457605      -284.5659
  13   2.0000     -10.456441      -284.5342
  14   2.0000     -10.453382      -284.4510
  15   2.0000     -10.450494      -284.3724
  16   2.0000     -10.449495      -284.3452
  17   2.0000      -1.180891       -32.1337
  18   2.0000      -1.152467       -31.3602
  19   2.0000      -1.140090       -31.0234
  20   2.0000      -1.042277       -28.3618
  21   2.0000      -1.017401       -27.6849
  22   2.0000      -0.964864       -26.2553
  23   2.0000      -0.891802       -24.2672
  24   2.0000      -0.849691       -23.1213
  25   2.0000      -0.848479       -23.0883
  26   2.0000      -0.815692       -22.1961
  27   2.0000      -0.793136       -21.5823
  28   2.0000      -0.731367       -19.9015
  29   2.0000      -0.710805       -19.3420
  30   2.0000      -0.676216       -18.4008
  31   2.0000      -0.666126       -18.1262
  32   2.0000      -0.651129       -17.7181
  33   2.0000      -0.623227       -16.9589
  34   2.0000      -0.610432       -16.6107
  35   2.0000      -0.571491       -15.5511
  36   2.0000      -0.554763       -15.0959
  37   2.0000      -0.553852       -15.0711
  38   2.0000      -0.533344       -14.5130
  39   2.0000      -0.520195       -14.1552
  40   2.0000      -0.516917       -14.0660
  41   2.0000      -0.506886       -13.7931
  42   2.0000      -0.499701       -13.5976
  43   2.0000      -0.492925       -13.4132
  44   2.0000      -0.489148       -13.3104
  45   2.0000      -0.483634       -13.1604
  46   2.0000      -0.477783       -13.0011
  47   2.0000      -0.469195       -12.7674
  48   2.0000      -0.460500       -12.5308
  49   2.0000      -0.457031       -12.4364
  50   2.0000      -0.446937       -12.1618
  51   2.0000      -0.433395       -11.7933
  52   2.0000      -0.425024       -11.5655
  53   2.0000      -0.420405       -11.4398
  54   2.0000      -0.401599       -10.9281
  55   2.0000      -0.393229       -10.7003
  56   2.0000      -0.391498       -10.6532
  57   2.0000      -0.337749        -9.1906
  58   2.0000      -0.317970        -8.6524
  59   2.0000      -0.306316        -8.3353
  60   2.0000      -0.302969        -8.2442
  61   2.0000      -0.294715        -8.0196
  62   2.0000      -0.268639        -7.3100
  63   0.0000       0.001980         0.0539
  64   0.0000       0.021663         0.5895
  65   0.0000       0.051558         1.4030
  66   0.0000       0.063510         1.7282
  67   0.0000       0.113290         3.0828

MULLIKEN ATOMIC CHARGES
-----------------------
   0 N :   -0.668470
   1 C :   -0.190177
   2 C :    0.552809
   3 O :   -0.448164
   4 C :   -0.508768
   5 C :    0.072952
   6 C :   -0.300319
   7 C :   -0.258843
   8 C :   -0.288885
   9 C :   -0.343862
  10 C :    0.357948
  11 O :   -0.606117
  12 H :    0.383227
  13 H :    0.307617
  14 H :    0.279385
  15 H :    0.240812
  16 H :    0.225779
  17 H :    0.263172
  18 H :    0.239870
  19 H :    0.221282
  20 H :    0.431015
  21 N :   -0.628288
  22 H :    0.372227
  23 C :   -0.493869
  24 H :    0.263385
  25 H :    0.217529
  26 H :    0.225046
  27 C :    0.510832
  28 O :   -0.411030
  29 C :   -0.759447
  30 H :    0.260557
  31 H :    0.217628
  32 H :    0.263170
Sum of atomic charges:    0.0000000

LOEWDIN ATOMIC CHARGES
----------------------
   0 N :   -0.245908
   1 C :   -0.089936
   2 C :    0.106169
   3 O :   -0.295644
   4 C :   -0.217474
   5 C :   -0.082965
   6 C :   -0.143204
   7 C :   -0.114936
   8 C :   -0.164682
   9 C :   -0.188381
  10 C :    0.061411
  11 O :   -0.312960
  12 H :    0.261826
  13 H :    0.171431
  14 H :    0.159480
  15 H :    0.136633
  16 H :    0.136542
  17 H :    0.155485
  18 H :    0.147809
  19 H :    0.135114
  20 H :    0.326079
  21 N :   -0.234956
  22 H :    0.258104
  23 C :   -0.256907
  24 H :    0.153076
  25 H :    0.122163
  26 H :    0.124179
  27 C :    0.104521
  28 O :   -0.267126
  29 C :   -0.391781
  30 H :    0.158919
  31 H :    0.129401
  32 H :    0.158518

  Mayer bond orders larger than 0.100000
B(  0-N ,  1-C ) :   0.9054 B(  0-N , 12-H ) :   0.7896 B(  0-N , 27-C ) :   1.1077
B(  1-C ,  2-C ) :   0.9050 B(  1-C ,  4-C ) :   0.9521 B(  1-C , 13-H ) :   0.8590
B(  2-C ,  3-O ) :   1.9328 B(  2-C , 21-N ) :   1.1683 B(  4-C ,  5-C ) :   0.9538
B(  4-C , 14-H ) :   0.8914 B(  4-C , 15-H ) :   0.9168 B(  5-C ,  6-C ) :   1.3894
B(  5-C ,  7-C ) :   1.4079 B(  6-C ,  8-C ) :   1.4386 B(  6-C , 16-H ) :   0.9168
B(  7-C ,  9-C ) :   1.4257 B(  7-C , 17-H ) :   0.8891 B(  8-C , 10-C ) :   1.3731
B(  8-C , 18-H ) :   0.9082 B(  9-C , 10-C ) :   1.3335 B(  9-C , 19-H ) :   0.9168
B( 10-C , 11-O ) :   1.0754 B( 11-O , 20-H ) :   0.7793 B( 21-N , 22-H ) :   0.7971
B( 21-N , 23-C ) :   0.9530 B( 23-C , 24-H ) :   0.8991 B( 23-C , 25-H ) :   0.9229
B( 23-C , 26-H ) :   0.9192 B( 27-C , 28-O ) :   2.0124 B( 27-C , 29-C ) :   0.9267
B( 29-C , 30-H ) :   0.9077 B( 29-C , 31-H ) :   0.9191 B( 29-C , 32-H ) :   0.9090

Dispersion correction           -0.022275449
FINAL SINGLE POINT ENERGY      -800.402432729994

DIPOLE MOMENT
-------------
                                X             Y             Z
Electronic contribution:     -4.05496       0.63381      -3.64864
Nuclear contribution   :      2.98565      -0.85247       5.21490
                        -----------------------------------------
Total Dipole Moment    :     -1.06931      -0.21866       1.56625
                        -----------------------------------------
Magnitude (a.u.)       :      1.90903
Magnitude (Debye)      :      4.85236

Rotational constants in cm-1:     0.019830     0.010740     0.008599
Rotational constants in MHz :   594.493201   321.986498   257.804562

                             ****ORCA TERMINATED NORMALLY****
TOTAL RUN TIME: 0 days 0 hours 4 minutes 37 seconds 611 msec
