                         Program Version 5.0.3 -  RELEASE  -
|  1> ! PBEh-3c def2/J TightSCF DefGrid3
|  2>
|  3> %maxcore 60000
|  4>
|  5> %pal
|  6> nprocs 4
|  7> end
|  8>
|  9> *xyzfile -1 1 18A.xyz
| 10>
| 11>                          ****END OF INPUT****

CARTESIAN COORDINATES (ANGSTROEM)
---------------------------------
  O      1.081584    0.535522    1.164534
  O      0.731405    1.117288   -1.029012
  C      0.552963    0.415822    0.019326
  H     -0.182535   -0.436034   -0.095031

 Total Charge           Charge          ....   -1
 Multiplicity           Mult            ....    1
 Number of Electrons    NEL             ....   24
 Basis Dimension        Dim             ....   47

ORBITAL ENERGIES
----------------

  NO   OCC          E(Eh)            E(eV)
   0   2.0000     -19.193642      -522.2855
   1   2.0000     -19.191695      -522.2326
   2   2.0000     -10.295421      -280.1527
   3   2.0000      -0.875921       -23.8350
   4   2.0000      -0.789820       -21.4921
   5   2.0000      -0.381608       -10.3841
   6   2.0000      -0.260127        -7.0784
   7   2.0000      -0.221790        -6.0352
   8   2.0000      -0.201369        -5.4795
   9   2.0000      -0.057409        -1.5622
  10   2.0000      -0.055187        -1.5017
  11   2.0000      -0.051724        -1.4075
  12   0.0000       0.325891         8.8679
  13   0.0000       0.422602        11.4996
  14   0.0000       0.565504        15.3881
  15   0.0000       0.583941        15.8899
  16   0.0000       0.754272        20.5248

MULLIKEN ATOMIC CHARGES
-----------------------
   0 O :   -0.597002
   1 O :   -0.605115
   2 C :    0.237593
   3 H :   -0.035475
Sum of atomic charges:   -1.0000000

LOEWDIN ATOMIC CHARGES
----------------------
   0 O :   -0.464196
   1 O :   -0.473330
   2 C :   -0.025775
   3 H :   -0.036698

  Mayer bond orders larger than 0.100000
B(  0-O ,  1-O ) :   0.1477 B(  0-O ,  2-C ) :   1.7770 B(  1-O ,  2-C ) :   1.7681
B(  2-C ,  3-H ) :   0.8573

Dispersion correction           -0.000739369
FINAL SINGLE POINT ENERGY      -188.782407830759

DIPOLE MOMENT
-------------
                                X             Y             Z
Electronic contribution:      0.59175       0.67939       0.10570
Nuclear contribution   :     -0.90682      -1.05102      -0.13669
                        -----------------------------------------
Total Dipole Moment    :     -0.31507      -0.37163      -0.03100
                        -----------------------------------------
Magnitude (a.u.)       :      0.48820
Magnitude (Debye)      :      1.24092

Rotational constants in cm-1:     3.453762     0.399666     0.358214
Rotational constants in MHz : 103541.175069 11981.699045 10738.993161

                             ****ORCA TERMINATED NORMALLY****
TOTAL RUN TIME: 0 days 0 hours 0 minutes 43 seconds 99 msec
