                         Program Version 5.0.3 -  RELEASE  -
|  1> ! PBEh-3c def2/J TightSCF DefGrid3
|  2>
|  3> %maxcore 60000
|  4>
|  5> %pal
|  6> nprocs 4
|  7> end
|  8>
|  9> *xyzfile 0 1 BN_Sumanene_TS.xyz
| 10>
| 11>                          ****END OF INPUT****

CARTESIAN COORDINATES (ANGSTROEM)
---------------------------------
  C      2.980668    1.801920   -0.000018
  B      2.786849    0.128805    0.000011
  N      1.396826   -0.023372    0.000034
  B      0.715660    1.205335    0.000016
  N      1.545896    2.338606   -0.000001
  B      0.686620   -1.224009    0.000015
  N      1.252331   -2.509669    0.000025
  B      2.693885   -2.473225    0.000015
  N      3.430459   -1.173653    0.000006
  N     -0.719077   -1.200943   -0.000029
  B     -1.283486   -2.480034   -0.000022
  C      0.068315   -3.484012    0.000008
  N     -0.678802    1.218724    0.000002
  B     -1.502730    2.347964    0.000007
  N     -0.696867    3.557343    0.000010
  B      0.795864    3.568896    0.000001
  B     -1.403363    0.014513   -0.000023
  N     -2.799614    0.169998   -0.000023
  C     -3.048091    1.683966    0.000006
  N     -2.734192   -2.383543   -0.000027
  B     -3.490014   -1.094835   -0.000017
  H      1.326770    4.637378   -0.000002
  H     -1.116050    4.473346    0.000018
  H      4.433197   -1.271154   -0.000004
  H      3.355767   -3.465921    0.000010
  H     -3.321379   -3.202054   -0.000018
  H     -4.680606   -1.168553    0.000001
  H     -3.638408    1.960220    0.875204
  H     -3.638436    1.960254   -0.875161
  H      3.514064    2.176995   -0.875042
  H      3.514102    2.177026    0.874969
  H      0.126941   -4.133164   -0.875296
  H      0.126904   -4.133149    0.875325

 Total Charge           Charge          ....    0
 Multiplicity           Mult            ....    1
 Number of Electrons    NEL             ....  138
 Basis Dimension        Dim             ....  339

ORBITAL ENERGIES
----------------

  NO   OCC          E(Eh)            E(eV)
   0   2.0000     -14.625276      -397.9740
   1   2.0000     -14.625235      -397.9729
   2   2.0000     -14.625173      -397.9712
   3   2.0000     -14.621272      -397.8650
   4   2.0000     -14.621210      -397.8634
   5   2.0000     -14.621086      -397.8600
   6   2.0000     -14.584517      -396.8649
   7   2.0000     -14.584450      -396.8631
   8   2.0000     -14.584355      -396.8605
   9   2.0000     -10.465907      -284.7918
  10   2.0000     -10.465732      -284.7870
  11   2.0000     -10.465650      -284.7848
  12   2.0000      -6.975220      -189.8054
  13   2.0000      -6.974956      -189.7982
  14   2.0000      -6.974781      -189.7934
  15   2.0000      -6.974621      -189.7891
  16   2.0000      -6.974469      -189.7849
  17   2.0000      -6.974178      -189.7770
  18   2.0000      -6.947244      -189.0441
  19   2.0000      -6.947176      -189.0423
  20   2.0000      -6.947019      -189.0380
  21   2.0000      -1.032194       -28.0874
  22   2.0000      -0.994322       -27.0569
  23   2.0000      -0.994212       -27.0539
  24   2.0000      -0.953411       -25.9436
  25   2.0000      -0.953321       -25.9412
  26   2.0000      -0.937821       -25.5194
  27   2.0000      -0.932698       -25.3800
  28   2.0000      -0.903923       -24.5970
  29   2.0000      -0.903813       -24.5940
  30   2.0000      -0.755580       -20.5604
  31   2.0000      -0.743945       -20.2438
  32   2.0000      -0.743769       -20.2390
  33   2.0000      -0.643329       -17.5059
  34   2.0000      -0.622244       -16.9321
  35   2.0000      -0.622141       -16.9293
  36   2.0000      -0.604657       -16.4535
  37   2.0000      -0.577664       -15.7190
  38   2.0000      -0.577430       -15.7127
  39   2.0000      -0.555707       -15.1216
  40   2.0000      -0.555517       -15.1164
  41   2.0000      -0.541334       -14.7305
  42   2.0000      -0.505430       -13.7535
  43   2.0000      -0.493675       -13.4336
  44   2.0000      -0.490113       -13.3366
  45   2.0000      -0.490070       -13.3355
  46   2.0000      -0.487190       -13.2571
  47   2.0000      -0.487033       -13.2528
  48   2.0000      -0.473692       -12.8898
  49   2.0000      -0.455067       -12.3830
  50   2.0000      -0.455023       -12.3818
  51   2.0000      -0.453842       -12.3497
  52   2.0000      -0.435976       -11.8635
  53   2.0000      -0.433887       -11.8067
  54   2.0000      -0.433740       -11.8027
  55   2.0000      -0.400787       -10.9060
  56   2.0000      -0.400740       -10.9047
  57   2.0000      -0.397889       -10.8271
  58   2.0000      -0.366512        -9.9733
  59   2.0000      -0.366369        -9.9694
  60   2.0000      -0.357695        -9.7334
  61   2.0000      -0.357590        -9.7305
  62   2.0000      -0.355859        -9.6834
  63   2.0000      -0.345489        -9.4012
  64   2.0000      -0.334678        -9.1070
  65   2.0000      -0.334514        -9.1026
  66   2.0000      -0.306212        -8.3324
  67   2.0000      -0.289583        -7.8800
  68   2.0000      -0.289570        -7.8796
  69   0.0000       0.031370         0.8536
  70   0.0000       0.040611         1.1051
  71   0.0000       0.040757         1.1091
  72   0.0000       0.072873         1.9830
  73   0.0000       0.072965         1.9855

MULLIKEN ATOMIC CHARGES
-----------------------
   0 C :   -0.512104
   1 B :    0.487536
   2 N :   -0.467732
   3 B :    0.562880
   4 N :   -0.475438
   5 B :    0.563772
   6 N :   -0.476243
   7 B :    0.233437
   8 N :   -0.682125
   9 N :   -0.467951
  10 B :    0.488075
  11 C :   -0.511940
  12 N :   -0.467495
  13 B :    0.487842
  14 N :   -0.682374
  15 B :    0.232750
  16 B :    0.563644
  17 N :   -0.475903
  18 C :   -0.511776
  19 N :   -0.683057
  20 B :    0.232988
  21 H :    0.034383
  22 H :    0.358274
  23 H :    0.358228
  24 H :    0.034570
  25 H :    0.358182
  26 H :    0.034433
  27 H :    0.230557
  28 H :    0.230557
  29 H :    0.230426
  30 H :    0.230425
  31 H :    0.230589
  32 H :    0.230588
Sum of atomic charges:   -0.0000000

LOEWDIN ATOMIC CHARGES
----------------------
   0 C :   -0.209245
   1 B :    0.118092
   2 N :   -0.135762
   3 B :    0.084289
   4 N :   -0.162943
   5 B :    0.084801
   6 N :   -0.163341
   7 B :    0.062286
   8 N :   -0.308103
   9 N :   -0.135958
  10 B :    0.118293
  11 C :   -0.208905
  12 N :   -0.135601
  13 B :    0.117570
  14 N :   -0.308025
  15 B :    0.061273
  16 B :    0.084721
  17 N :   -0.163112
  18 C :   -0.208742
  19 N :   -0.308707
  20 B :    0.061717
  21 H :   -0.003049
  22 H :    0.264067
  23 H :    0.264003
  24 H :   -0.003014
  25 H :    0.263911
  26 H :   -0.003051
  27 H :    0.145509
  28 H :    0.145509
  29 H :    0.145319
  30 H :    0.145318
  31 H :    0.145441
  32 H :    0.145441

  Mayer bond orders larger than 0.100000
B(  0-C ,  1-B ) :   0.9189 B(  0-C ,  4-N ) :   0.9349 B(  0-C , 29-H ) :   0.9124
B(  0-C , 30-H ) :   0.9124 B(  1-B ,  2-N ) :   1.1688 B(  1-B ,  8-N ) :   1.1759
B(  2-N ,  3-B ) :   1.0077 B(  2-N ,  5-B ) :   1.1022 B(  3-B ,  4-N ) :   1.0711
B(  3-B , 12-N ) :   1.1026 B(  4-N , 15-B ) :   1.2331 B(  5-B ,  6-N ) :   1.0716
B(  5-B ,  9-N ) :   1.0067 B(  6-N ,  7-B ) :   1.2326 B(  6-N , 11-C ) :   0.9344
B(  7-B ,  8-N ) :   1.1093 B(  7-B , 24-H ) :   0.9646 B(  8-N , 23-H ) :   0.8274
B(  9-N , 10-B ) :   1.1692 B(  9-N , 16-B ) :   1.1027 B( 10-B , 11-C ) :   0.9188
B( 10-B , 19-N ) :   1.1751 B( 11-C , 31-H ) :   0.9124 B( 11-C , 32-H ) :   0.9124
B( 12-N , 13-B ) :   1.1697 B( 12-N , 16-B ) :   1.0067 B( 13-B , 14-N ) :   1.1751
B( 13-B , 18-C ) :   0.9187 B( 14-N , 15-B ) :   1.1097 B( 14-N , 22-H ) :   0.8274
B( 15-B , 21-H ) :   0.9647 B( 16-B , 17-N ) :   1.0711 B( 17-N , 18-C ) :   0.9342
B( 17-N , 20-B ) :   1.2337 B( 18-C , 27-H ) :   0.9124 B( 18-C , 28-H ) :   0.9124
B( 19-N , 20-B ) :   1.1090 B( 19-N , 25-H ) :   0.8275 B( 20-B , 26-H ) :   0.9646

Dispersion correction           -0.025116812
FINAL SINGLE POINT ENERGY      -836.906988704283

DIPOLE MOMENT
-------------
                                X             Y             Z
Electronic contribution:     -0.00324      -0.01694       0.00000
Nuclear contribution   :      0.00382       0.01761       0.00000
                        -----------------------------------------
Total Dipole Moment    :      0.00058       0.00067       0.00001
                        -----------------------------------------
Magnitude (a.u.)       :      0.00089
Magnitude (Debye)      :      0.00227

Rotational constants in cm-1:     0.014055     0.014047     0.007053
Rotational constants in MHz :   421.350294   421.127068   211.435686

                             ****ORCA TERMINATED NORMALLY****
TOTAL RUN TIME: 0 days 0 hours 5 minutes 37 seconds 758 msec
