                         Program Version 5.0.3 -  RELEASE  -
|  1> ! PBEh-3c def2/J TightSCF DefGrid3
|  2>
|  3> %maxcore 60000
|  4>
|  5> %pal
|  6> nprocs 4
|  7> end
|  8>
|  9> *xyzfile 0 1 P9.xyz
| 10>
| 11>                          ****END OF INPUT****

CARTESIAN COORDINATES (ANGSTROEM)
---------------------------------
  C     -0.171043    2.370956    0.189025
  C      0.418101    1.180558    0.197424
  C      0.000000    0.000000   -0.640822
  C     -0.418101   -1.180558    0.197424
  C      0.171043   -2.370956    0.189025
  H     -1.021683    2.581069   -0.451609
  H      0.175957    3.181155    0.819210
  H      1.265148    1.009448    0.857965
  H      0.828552   -0.300686   -1.291604
  H     -0.828552    0.300686   -1.291604
  H     -1.265148   -1.009448    0.857965
  H      1.021683   -2.581069   -0.451609
  H     -0.175957   -3.181155    0.819210

 Total Charge           Charge          ....    0
 Multiplicity           Mult            ....    1
 Number of Electrons    NEL             ....   38
 Basis Dimension        Dim             ....   91

ORBITAL ENERGIES
----------------

  NO   OCC          E(Eh)            E(eV)
   0   2.0000     -10.448539      -284.3192
   1   2.0000     -10.448482      -284.3177
   2   2.0000     -10.445733      -284.2429
   3   2.0000     -10.434690      -283.9423
   4   2.0000     -10.434685      -283.9422
   5   2.0000      -0.904473       -24.6120
   6   2.0000      -0.847122       -23.0514
   7   2.0000      -0.762115       -20.7382
   8   2.0000      -0.639908       -17.4128
   9   2.0000      -0.617679       -16.8079
  10   2.0000      -0.548126       -14.9153
  11   2.0000      -0.498629       -13.5684
  12   2.0000      -0.488971       -13.3056
  13   2.0000      -0.488891       -13.3034
  14   2.0000      -0.415615       -11.3094
  15   2.0000      -0.405915       -11.0455
  16   2.0000      -0.400023       -10.8852
  17   2.0000      -0.311355        -8.4724
  18   2.0000      -0.298332        -8.1180
  19   0.0000       0.027287         0.7425
  20   0.0000       0.067369         1.8332
  21   0.0000       0.161588         4.3970
  22   0.0000       0.182457         4.9649
  23   0.0000       0.186294         5.0693

MULLIKEN ATOMIC CHARGES
-----------------------
   0 C :   -0.488148
   1 C :   -0.121442
   2 C :   -0.544143
   3 C :   -0.121442
   4 C :   -0.488148
   5 H :    0.209495
   6 H :    0.217008
   7 H :    0.223633
   8 H :    0.231525
   9 H :    0.231525
  10 H :    0.223633
  11 H :    0.209495
  12 H :    0.217008
Sum of atomic charges:   -0.0000000

LOEWDIN ATOMIC CHARGES
----------------------
   0 C :   -0.274260
   1 C :   -0.137169
   2 C :   -0.235373
   3 C :   -0.137169
   4 C :   -0.274260
   5 H :    0.127695
   6 H :    0.132923
   7 H :    0.131957
   8 H :    0.136541
   9 H :    0.136541
  10 H :    0.131957
  11 H :    0.127695
  12 H :    0.132923

  Mayer bond orders larger than 0.100000
B(  0-C ,  1-C ) :   1.9320 B(  0-C ,  5-H ) :   0.9305 B(  0-C ,  6-H ) :   0.9289
B(  1-C ,  2-C ) :   0.9764 B(  1-C ,  7-H ) :   0.9148 B(  2-C ,  3-C ) :   0.9764
B(  2-C ,  8-H ) :   0.9129 B(  2-C ,  9-H ) :   0.9129 B(  3-C ,  4-C ) :   1.9320
B(  3-C , 10-H ) :   0.9148 B(  4-C , 11-H ) :   0.9305 B(  4-C , 12-H ) :   0.9289

Dispersion correction           -0.005197853
FINAL SINGLE POINT ENERGY      -194.855256231792

DIPOLE MOMENT
-------------
                                X             Y             Z
Electronic contribution:     -0.00000      -0.00000       0.25827
Nuclear contribution   :      0.00000       0.00000      -0.28403
                        -----------------------------------------
Total Dipole Moment    :     -0.00000      -0.00000      -0.02576
                        -----------------------------------------
Magnitude (a.u.)       :      0.02576
Magnitude (Debye)      :      0.06548

Rotational constants in cm-1:     0.674661     0.077949     0.077366
Rotational constants in MHz : 20225.816650  2336.842327  2319.386574

                             ****ORCA TERMINATED NORMALLY****
TOTAL RUN TIME: 0 days 0 hours 1 minutes 9 seconds 519 msec
