                         Program Version 5.0.3 -  RELEASE  -
|  1> ! PBEh-3c def2/J TightSCF DefGrid3
|  2>
|  3> %maxcore 60000
|  4>
|  5> %pal
|  6> nprocs 4
|  7> end
|  8>
|  9> *xyzfile 0 1 TYR_xab.xyz
| 10>
| 11>                          ****END OF INPUT****

CARTESIAN COORDINATES (ANGSTROEM)
---------------------------------
  N      0.879964    0.703731   -0.511306
  C      1.107045   -0.554613    0.183582
  C      2.532431   -1.060133   -0.079407
  O      2.766903   -2.019084   -0.808091
  C      0.077183   -1.584918   -0.266444
  C     -1.322381   -1.057276   -0.137528
  C     -2.075928   -0.726197   -1.267401
  C     -1.891589   -0.828864    1.118098
  C     -3.352427   -0.181621   -1.158262
  C     -3.166754   -0.286808    1.242818
  C     -3.900054    0.042807    0.102216
  O     -5.154672    0.580221    0.158962
  H      0.264227    0.696692   -1.307986
  H      1.001102   -0.347809    1.250993
  H      0.295143   -1.864790   -1.297341
  H      0.219863   -2.484876    0.331757
  H     -1.665479   -0.915293   -2.252611
  H     -1.335562   -1.080111    2.013278
  H     -3.934499    0.066988   -2.034554
  H     -3.592690   -0.121092    2.225409
  H     -5.403843    0.665875    1.084996
  N      3.480065   -0.348291    0.566809
  H      3.178939    0.510009    1.014489
  C      4.883632   -0.611295    0.334724
  H      5.221978   -0.205872   -0.619390
  H      5.465749   -0.167152    1.136682
  H      5.047104   -1.685037    0.320746
  C      1.213847    1.896264    0.036601
  O      1.875455    1.981943    1.072750
  C      0.721625    3.116785   -0.696866
  H      0.016912    3.640099   -0.054024
  H      0.235999    2.881354   -1.640481
  H      1.563310    3.780576   -0.876054

 Total Charge           Charge          ....    0
 Multiplicity           Mult            ....    1
 Number of Electrons    NEL             ....  126
 Basis Dimension        Dim             ....  287

ORBITAL ENERGIES
----------------

  NO   OCC          E(Eh)            E(eV)
   0   2.0000     -19.533575      -531.5356
   1   2.0000     -19.469809      -529.8004
   2   2.0000     -19.451124      -529.2920
   3   2.0000     -14.674906      -399.3245
   4   2.0000     -14.645086      -398.5131
   5   2.0000     -10.560805      -287.3741
   6   2.0000     -10.535396      -286.6827
   7   2.0000     -10.520318      -286.2724
   8   2.0000     -10.492470      -285.5146
   9   2.0000     -10.460980      -284.6577
  10   2.0000     -10.460471      -284.6439
  11   2.0000     -10.460059      -284.6327
  12   2.0000     -10.459146      -284.6078
  13   2.0000     -10.456569      -284.5377
  14   2.0000     -10.452729      -284.4332
  15   2.0000     -10.449683      -284.3503
  16   2.0000     -10.449655      -284.3496
  17   2.0000      -1.180664       -32.1275
  18   2.0000      -1.155385       -31.4396
  19   2.0000      -1.132804       -30.8252
  20   2.0000      -1.039079       -28.2748
  21   2.0000      -1.008687       -27.4478
  22   2.0000      -0.965775       -26.2801
  23   2.0000      -0.893703       -24.3189
  24   2.0000      -0.850699       -23.1487
  25   2.0000      -0.848772       -23.0963
  26   2.0000      -0.815580       -22.1931
  27   2.0000      -0.785966       -21.3872
  28   2.0000      -0.727736       -19.8027
  29   2.0000      -0.712552       -19.3895
  30   2.0000      -0.674096       -18.3431
  31   2.0000      -0.669606       -18.2209
  32   2.0000      -0.639209       -17.3938
  33   2.0000      -0.623974       -16.9792
  34   2.0000      -0.600104       -16.3297
  35   2.0000      -0.572569       -15.5804
  36   2.0000      -0.564455       -15.3596
  37   2.0000      -0.551469       -15.0062
  38   2.0000      -0.537962       -14.6387
  39   2.0000      -0.517821       -14.0906
  40   2.0000      -0.512415       -13.9435
  41   2.0000      -0.505655       -13.7596
  42   2.0000      -0.499764       -13.5993
  43   2.0000      -0.493594       -13.4314
  44   2.0000      -0.484292       -13.1783
  45   2.0000      -0.480957       -13.0875
  46   2.0000      -0.473452       -12.8833
  47   2.0000      -0.470244       -12.7960
  48   2.0000      -0.463045       -12.6001
  49   2.0000      -0.451528       -12.2867
  50   2.0000      -0.438188       -11.9237
  51   2.0000      -0.430538       -11.7155
  52   2.0000      -0.418727       -11.3942
  53   2.0000      -0.414981       -11.2922
  54   2.0000      -0.407224       -11.0811
  55   2.0000      -0.398571       -10.8457
  56   2.0000      -0.392638       -10.6842
  57   2.0000      -0.335167        -9.1203
  58   2.0000      -0.323335        -8.7984
  59   2.0000      -0.306894        -8.3510
  60   2.0000      -0.294314        -8.0087
  61   2.0000      -0.288811        -7.8590
  62   2.0000      -0.268194        -7.2979
  63   0.0000       0.001482         0.0403
  64   0.0000       0.022916         0.6236
  65   0.0000       0.045667         1.2427
  66   0.0000       0.066409         1.8071
  67   0.0000       0.112775         3.0688

MULLIKEN ATOMIC CHARGES
-----------------------
   0 N :   -0.615659
   1 C :   -0.210296
   2 C :    0.581873
   3 O :   -0.439885
   4 C :   -0.547181
   5 C :    0.136739
   6 C :   -0.302754
   7 C :   -0.252106
   8 C :   -0.282793
   9 C :   -0.338155
  10 C :    0.353774
  11 O :   -0.605637
  12 H :    0.373664
  13 H :    0.265749
  14 H :    0.263579
  15 H :    0.263445
  16 H :    0.220807
  17 H :    0.219702
  18 H :    0.240248
  19 H :    0.220518
  20 H :    0.430845
  21 N :   -0.654312
  22 H :    0.405782
  23 C :   -0.490719
  24 H :    0.220677
  25 H :    0.218954
  26 H :    0.246491
  27 C :    0.544442
  28 O :   -0.467217
  29 C :   -0.743364
  30 H :    0.262674
  31 H :    0.219795
  32 H :    0.260320
Sum of atomic charges:    0.0000000

LOEWDIN ATOMIC CHARGES
----------------------
   0 N :   -0.208850
   1 C :   -0.089173
   2 C :    0.102946
   3 O :   -0.280715
   4 C :   -0.222000
   5 C :   -0.075348
   6 C :   -0.137126
   7 C :   -0.115134
   8 C :   -0.160099
   9 C :   -0.186461
  10 C :    0.061676
  11 O :   -0.312585
  12 H :    0.262628
  13 H :    0.143363
  14 H :    0.148839
  15 H :    0.152792
  16 H :    0.135717
  17 H :    0.138473
  18 H :    0.148304
  19 H :    0.134993
  20 H :    0.325986
  21 N :   -0.249436
  22 H :    0.267538
  23 C :   -0.253369
  24 H :    0.120760
  25 H :    0.125866
  26 H :    0.140616
  27 C :    0.116753
  28 O :   -0.303933
  29 C :   -0.382631
  30 H :    0.160596
  31 H :    0.131301
  32 H :    0.157713

  Mayer bond orders larger than 0.100000
B(  0-N ,  1-C ) :   0.9121 B(  0-N , 12-H ) :   0.8079 B(  0-N , 27-C ) :   1.1819
B(  1-C ,  2-C ) :   0.8790 B(  1-C ,  4-C ) :   0.9567 B(  1-C , 13-H ) :   0.8803
B(  2-C ,  3-O ) :   1.9471 B(  2-C , 21-N ) :   1.1888 B(  3-O , 21-N ) :   0.1008
B(  4-C ,  5-C ) :   0.9311 B(  4-C , 14-H ) :   0.9040 B(  4-C , 15-H ) :   0.9111
B(  5-C ,  6-C ) :   1.4027 B(  5-C ,  7-C ) :   1.3831 B(  6-C ,  8-C ) :   1.4401
B(  6-C , 16-H ) :   0.9184 B(  7-C ,  9-C ) :   1.4410 B(  7-C , 17-H ) :   0.9212
B(  8-C , 10-C ) :   1.3745 B(  8-C , 18-H ) :   0.9079 B(  9-C , 10-C ) :   1.3310
B(  9-C , 19-H ) :   0.9161 B( 10-C , 11-O ) :   1.0753 B( 11-O , 20-H ) :   0.7794
B( 21-N , 22-H ) :   0.7342 B( 21-N , 23-C ) :   0.9630 B( 23-C , 24-H ) :   0.9176
B( 23-C , 25-H ) :   0.9268 B( 23-C , 26-H ) :   0.9118 B( 27-C , 28-O ) :   1.8749
B( 27-C , 29-C ) :   0.9349 B( 29-C , 30-H ) :   0.9058 B( 29-C , 31-H ) :   0.9204
B( 29-C , 32-H ) :   0.9085

Dispersion correction           -0.021657426
FINAL SINGLE POINT ENERGY      -800.401894999184

DIPOLE MOMENT
-------------
                                X             Y             Z
Electronic contribution:     -7.24462      -2.57287       0.92070
Nuclear contribution   :      6.35583       3.48922      -0.64024
                        -----------------------------------------
Total Dipole Moment    :     -0.88879       0.91635       0.28046
                        -----------------------------------------
Magnitude (a.u.)       :      1.30702
Magnitude (Debye)      :      3.32218

Rotational constants in cm-1:     0.029064     0.008240     0.007211
Rotational constants in MHz :   871.315409   247.029154   216.180472

                             ****ORCA TERMINATED NORMALLY****
TOTAL RUN TIME: 0 days 0 hours 5 minutes 9 seconds 318 msec
