                         Program Version 5.0.3 -  RELEASE  -
|  1> ! PBEh-3c def2/J TightSCF DefGrid3
|  2>
|  3> %maxcore 60000
|  4>
|  5> %pal
|  6> nprocs 4
|  7> end
|  8>
|  9> *xyzfile 0 1 pb2me6.xyz
| 10>
| 11>                          ****END OF INPUT****

CARTESIAN COORDINATES (ANGSTROEM)
---------------------------------
  Pb    -0.000000    0.000000    1.437498
  Pb    -0.000000   -0.000000   -1.437498
  C      1.798212    1.038198    2.268697
  C     -0.000000   -2.076396    2.268697
  C     -1.798212    1.038198    2.268697
  C      1.798212   -1.038198   -2.268697
  C     -0.000000    2.076396   -2.268697
  C     -1.798212   -1.038198   -2.268697
  H      1.746348    1.008254    3.357190
  H      2.700273    0.530416    1.929611
  H      1.809490    2.073297    1.929611
  H     -0.000000    2.016509   -3.357190
  H     -0.890783    2.603713   -1.929611
  H      0.890783    2.603713   -1.929611
  H     -1.746348   -1.008254   -3.357190
  H     -1.809490   -2.073297   -1.929611
  H     -2.700273   -0.530416   -1.929611
  H     -1.809490    2.073297    1.929611
  H     -2.700273    0.530416    1.929611
  H     -1.746348    1.008254    3.357190
  H      1.746348   -1.008254   -3.357190
  H      2.700273   -0.530416   -1.929611
  H      1.809490   -2.073297   -1.929611
  H     -0.890783   -2.603713    1.929611
  H      0.890783   -2.603713    1.929611
  H     -0.000000   -2.016509    3.357190

 Total Charge           Charge          ....    0
 Multiplicity           Mult            ....    1
 Number of Electrons    NEL             ....   98
 Basis Dimension        Dim             ....  178

ORBITAL ENERGIES
----------------

  NO   OCC          E(Eh)            E(eV)
   0   2.0000     -10.425345      -283.6881
   1   2.0000     -10.425341      -283.6879
   2   2.0000     -10.425332      -283.6877
   3   2.0000     -10.425332      -283.6877
   4   2.0000     -10.425331      -283.6877
   5   2.0000     -10.425328      -283.6876
   6   2.0000      -5.665925      -154.1777
   7   2.0000      -5.665912      -154.1773
   8   2.0000      -3.458845       -94.1199
   9   2.0000      -3.458118       -94.1002
  10   2.0000      -3.458077       -94.0991
  11   2.0000      -3.458077       -94.0991
  12   2.0000      -3.457989       -94.0967
  13   2.0000      -3.457989       -94.0967
  14   2.0000      -0.908508       -24.7218
  15   2.0000      -0.905302       -24.6345
  16   2.0000      -0.905297       -24.6344
  17   2.0000      -0.902264       -24.5519
  18   2.0000      -0.902254       -24.5516
  19   2.0000      -0.893918       -24.3247
  20   2.0000      -0.893911       -24.3246
  21   2.0000      -0.888605       -24.1802
  22   2.0000      -0.888603       -24.1801
  23   2.0000      -0.885671       -24.1003
  24   2.0000      -0.773150       -21.0385
  25   2.0000      -0.766749       -20.8643
  26   2.0000      -0.742096       -20.1934
  27   2.0000      -0.742093       -20.1934
  28   2.0000      -0.740807       -20.1584
  29   2.0000      -0.740804       -20.1583
  30   2.0000      -0.555662       -15.1203
  31   2.0000      -0.498446       -13.5634
  32   2.0000      -0.457774       -12.4567
  33   2.0000      -0.451426       -12.2839
  34   2.0000      -0.451425       -12.2839
  35   2.0000      -0.450668       -12.2633
  36   2.0000      -0.450665       -12.2632
  37   2.0000      -0.450235       -12.2515
  38   2.0000      -0.444622       -12.0988
  39   2.0000      -0.444619       -12.0987
  40   2.0000      -0.443850       -12.0778
  41   2.0000      -0.443848       -12.0777
  42   2.0000      -0.442392       -12.0381
  43   2.0000      -0.441528       -12.0146
  44   2.0000      -0.306383        -8.3371
  45   2.0000      -0.306381        -8.3371
  46   2.0000      -0.291202        -7.9240
  47   2.0000      -0.291201        -7.9240
  48   2.0000      -0.255001        -6.9389
  49   0.0000       0.000964         0.0262
  50   0.0000       0.044438         1.2092
  51   0.0000       0.044440         1.2093
  52   0.0000       0.081051         2.2055
  53   0.0000       0.089998         2.4490

MULLIKEN ATOMIC CHARGES
-----------------------
   0 Pb:    0.711774
   1 Pb:    0.711774
   2 C :   -0.936347
   3 C :   -0.936431
   4 C :   -0.936347
   5 C :   -0.936347
   6 C :   -0.936432
   7 C :   -0.936347
   8 H :    0.234508
   9 H :    0.232275
  10 H :    0.232287
  11 H :    0.234549
  12 H :    0.232331
  13 H :    0.232331
  14 H :    0.234508
  15 H :    0.232287
  16 H :    0.232275
  17 H :    0.232287
  18 H :    0.232275
  19 H :    0.234508
  20 H :    0.234508
  21 H :    0.232275
  22 H :    0.232287
  23 H :    0.232330
  24 H :    0.232330
  25 H :    0.234549
Sum of atomic charges:    0.0000000

LOEWDIN ATOMIC CHARGES
----------------------
   0 Pb:    0.395890
   1 Pb:    0.395890
   2 C :   -0.559359
   3 C :   -0.559385
   4 C :   -0.559359
   5 C :   -0.559359
   6 C :   -0.559385
   7 C :   -0.559359
   8 H :    0.142404
   9 H :    0.142492
  10 H :    0.142497
  11 H :    0.142413
  12 H :    0.142508
  13 H :    0.142508
  14 H :    0.142404
  15 H :    0.142496
  16 H :    0.142492
  17 H :    0.142496
  18 H :    0.142492
  19 H :    0.142404
  20 H :    0.142404
  21 H :    0.142492
  22 H :    0.142496
  23 H :    0.142508
  24 H :    0.142508
  25 H :    0.142413

  Mayer bond orders larger than 0.100000
B(  0-Pb,  1-Pb) :   0.8080 B(  0-Pb,  2-C ) :   0.8505 B(  0-Pb,  3-C ) :   0.8505
B(  0-Pb,  4-C ) :   0.8505 B(  1-Pb,  5-C ) :   0.8505 B(  1-Pb,  6-C ) :   0.8505
B(  1-Pb,  7-C ) :   0.8505 B(  2-C ,  8-H ) :   0.9106 B(  2-C ,  9-H ) :   0.9162
B(  2-C , 10-H ) :   0.9162 B(  3-C , 23-H ) :   0.9162 B(  3-C , 24-H ) :   0.9162
B(  3-C , 25-H ) :   0.9106 B(  4-C , 17-H ) :   0.9162 B(  4-C , 18-H ) :   0.9162
B(  4-C , 19-H ) :   0.9106 B(  5-C , 20-H ) :   0.9106 B(  5-C , 21-H ) :   0.9162
B(  5-C , 22-H ) :   0.9162 B(  6-C , 11-H ) :   0.9106 B(  6-C , 12-H ) :   0.9162
B(  6-C , 13-H ) :   0.9162 B(  7-C , 14-H ) :   0.9106 B(  7-C , 15-H ) :   0.9162
B(  7-C , 16-H ) :   0.9162

Dispersion correction           -0.011745434
FINAL SINGLE POINT ENERGY      -624.640655638277

DIPOLE MOMENT
-------------
                                X             Y             Z
Electronic contribution:      0.00000       0.00000       0.00000
Nuclear contribution   :     -0.00000      -0.00000       0.00000
                        -----------------------------------------
Total Dipole Moment    :      0.00000       0.00000       0.00000
                        -----------------------------------------
Magnitude (a.u.)       :      0.00000
Magnitude (Debye)      :      0.00000

Rotational constants in cm-1:     0.039488     0.010849     0.010849
Rotational constants in MHz :  1183.833660   325.234336   325.234335

                             ****ORCA TERMINATED NORMALLY****
TOTAL RUN TIME: 0 days 0 hours 3 minutes 18 seconds 958 msec
