                         Program Version 5.0.3 -  RELEASE  -
|  1> ! PBEh-3c def2/J TightSCF DefGrid3
|  2>
|  3> %maxcore 60000
|  4>
|  5> %pal
|  6> nprocs 4
|  7> end
|  8>
|  9> *xyzfile 0 1 4O.xyz
| 10>
| 11>                          ****END OF INPUT****

CARTESIAN COORDINATES (ANGSTROEM)
---------------------------------
  C      0.013555   -0.151170   -0.361883
  C      0.127587    0.650433    1.753360
  C      0.105119   -0.694368    1.835814
  N      0.036624   -1.153994    0.539583
  N      0.071438    0.952439    0.411993
  H      0.180380    1.397424    2.529197
  H      0.133887   -1.343003    2.696659
  C     -0.006248   -2.546448    0.172017
  C      0.080195    2.293976   -0.122685
  H      0.872001   -3.077127    0.541556
  H     -0.900055   -3.031481    0.566775
  H     -0.021946   -2.608718   -0.912650
  H     -0.789330    2.855812    0.221002
  H      0.982662    2.826281    0.179582
  H      0.056919    2.229698   -1.208170
  O     -0.032041    0.616165   -3.184950
  H      0.063185    0.203139   -2.302347
  H     -0.973934    0.580944   -3.354851

 Total Charge           Charge          ....    0
 Multiplicity           Mult            ....    1
 Number of Electrons    NEL             ....   62
 Basis Dimension        Dim             ....  140

ORBITAL ENERGIES
----------------

  NO   OCC          E(Eh)            E(eV)
   0   2.0000     -19.420328      -528.4540
   1   2.0000     -14.694607      -399.8606
   2   2.0000     -14.692872      -399.8134
   3   2.0000     -10.477931      -285.1190
   4   2.0000     -10.477039      -285.0947
   5   2.0000     -10.476972      -285.0929
   6   2.0000     -10.468347      -284.8582
   7   2.0000     -10.457852      -284.5726
   8   2.0000      -1.146118       -31.1875
   9   2.0000      -1.046933       -28.4885
  10   2.0000      -1.025742       -27.9119
  11   2.0000      -0.873740       -23.7757
  12   2.0000      -0.822374       -22.3779
  13   2.0000      -0.773994       -21.0615
  14   2.0000      -0.682051       -18.5596
  15   2.0000      -0.649550       -17.6752
  16   2.0000      -0.600936       -16.3523
  17   2.0000      -0.546671       -14.8757
  18   2.0000      -0.530567       -14.4375
  19   2.0000      -0.523542       -14.2463
  20   2.0000      -0.509353       -13.8602
  21   2.0000      -0.502806       -13.6820
  22   2.0000      -0.500835       -13.6284
  23   2.0000      -0.453558       -12.3419
  24   2.0000      -0.442678       -12.0459
  25   2.0000      -0.440802       -11.9948
  26   2.0000      -0.392458       -10.6793
  27   2.0000      -0.328437        -8.9372
  28   2.0000      -0.308408        -8.3922
  29   2.0000      -0.278778        -7.5859
  30   2.0000      -0.273856        -7.4520
  31   0.0000       0.055363         1.5065
  32   0.0000       0.073002         1.9865
  33   0.0000       0.146662         3.9909
  34   0.0000       0.151999         4.1361
  35   0.0000       0.168009         4.5718

MULLIKEN ATOMIC CHARGES
-----------------------
   0 C :    0.087213
   1 C :   -0.075847
   2 C :   -0.089546
   3 N :   -0.414590
   4 N :   -0.405565
   5 H :    0.248901
   6 H :    0.248380
   7 C :   -0.497393
   8 C :   -0.514305
   9 H :    0.228006
  10 H :    0.226321
  11 H :    0.263473
  12 H :    0.221986
  13 H :    0.226237
  14 H :    0.283730
  15 O :   -0.875687
  16 H :    0.454961
  17 H :    0.383724
Sum of atomic charges:   -0.0000000

LOEWDIN ATOMIC CHARGES
----------------------
   0 C :   -0.198591
   1 C :   -0.123018
   2 C :   -0.124931
   3 N :   -0.041458
   4 N :   -0.039698
   5 H :    0.143366
   6 H :    0.142891
   7 C :   -0.243615
   8 C :   -0.251328
   9 H :    0.127842
  10 H :    0.126578
  11 H :    0.152193
  12 H :    0.124823
  13 H :    0.127380
  14 H :    0.160713
  15 O :   -0.645356
  16 H :    0.276456
  17 H :    0.285752

  Mayer bond orders larger than 0.100000
B(  0-C ,  3-N ) :   1.2089 B(  0-C ,  4-N ) :   1.2434 B(  0-C , 16-H ) :   0.1556
B(  1-C ,  2-C ) :   1.6854 B(  1-C ,  4-N ) :   1.1020 B(  1-C ,  5-H ) :   0.9026
B(  2-C ,  3-N ) :   1.1072 B(  2-C ,  6-H ) :   0.9024 B(  3-N ,  7-C ) :   0.9443
B(  4-N ,  8-C ) :   0.9342 B(  7-C ,  9-H ) :   0.9149 B(  7-C , 10-H ) :   0.9148
B(  7-C , 11-H ) :   0.9112 B(  8-C , 12-H ) :   0.9162 B(  8-C , 13-H ) :   0.9158
B(  8-C , 14-H ) :   0.8813 B( 15-O , 16-H ) :   0.6643 B( 15-O , 17-H ) :   0.8333

Dispersion correction           -0.008492835
FINAL SINGLE POINT ENERGY      -380.404670196143

DIPOLE MOMENT
-------------
                                X             Y             Z
Electronic contribution:      0.24247      -0.24694       2.90363
Nuclear contribution   :     -0.73816      -0.10053      -1.07638
                        -----------------------------------------
Total Dipole Moment    :     -0.49569      -0.34747       1.82725
                        -----------------------------------------
Magnitude (a.u.)       :      1.92491
Magnitude (Debye)      :      4.89274

Rotational constants in cm-1:     0.079447     0.052868     0.032230
Rotational constants in MHz :  2381.770662  1584.934373   966.245603

                             ****ORCA TERMINATED NORMALLY****
TOTAL RUN TIME: 0 days 0 hours 1 minutes 7 seconds 731 msec
