                         Program Version 5.0.3 -  RELEASE  -
|  1> ! PBEh-3c def2/J TightSCF DefGrid3
|  2>
|  3> %maxcore 60000
|  4>
|  5> %pal
|  6> nprocs 4
|  7> end
|  8>
|  9> *xyzfile 1 1 2p1.xyz
| 10>
| 11>                          ****END OF INPUT****

CARTESIAN COORDINATES (ANGSTROEM)
---------------------------------
  C     -1.169867   -0.170265    0.918701
  C      0.294384   -0.067214    0.628906
  O      0.527081   -0.543763   -0.774897
  C      0.986068    0.187354   -1.648889
  H     -1.314566    0.112647    1.964241
  H     -1.530977   -1.191086    0.793467
  H     -1.756647    0.509859    0.300292
  H      0.900338   -0.759794    1.212424
  H      0.697636    0.945583    0.684268
  H      1.108202   -0.249047   -2.641096
  H      1.258349    1.225725   -1.437418

 Total Charge           Charge          ....    1
 Multiplicity           Mult            ....    1
 Number of Electrons    NEL             ....   32
 Basis Dimension        Dim             ....   74

ORBITAL ENERGIES
----------------

  NO   OCC          E(Eh)            E(eV)
   0   2.0000     -19.855117      -540.2852
   1   2.0000     -10.824752      -294.5565
   2   2.0000     -10.725084      -291.8444
   3   2.0000     -10.615615      -288.8656
   4   2.0000      -1.510027       -41.0899
   5   2.0000      -1.110951       -30.2305
   6   2.0000      -0.993158       -27.0252
   7   2.0000      -0.925799       -25.1923
   8   2.0000      -0.850219       -23.1356
   9   2.0000      -0.831621       -22.6296
  10   2.0000      -0.780527       -21.2392
  11   2.0000      -0.713140       -19.4055
  12   2.0000      -0.668436       -18.1891
  13   2.0000      -0.641275       -17.4500
  14   2.0000      -0.625452       -17.0194
  15   2.0000      -0.604605       -16.4521
  16   0.0000      -0.290608        -7.9078
  17   0.0000      -0.104897        -2.8544
  18   0.0000      -0.063383        -1.7247
  19   0.0000      -0.028257        -0.7689
  20   0.0000       0.008436         0.2295

MULLIKEN ATOMIC CHARGES
-----------------------
   0 C :   -0.669012
   1 C :   -0.226405
   2 O :   -0.205189
   3 C :    0.034751
   4 H :    0.294979
   5 H :    0.285427
   6 H :    0.260417
   7 H :    0.317952
   8 H :    0.268184
   9 H :    0.336054
  10 H :    0.302845
Sum of atomic charges:    1.0000000

LOEWDIN ATOMIC CHARGES
----------------------
   0 C :   -0.366807
   1 C :   -0.045452
   2 O :    0.049268
   3 C :    0.173665
   4 H :    0.180267
   5 H :    0.166999
   6 H :    0.154788
   7 H :    0.174479
   8 H :    0.148473
   9 H :    0.193607
  10 H :    0.170714

  Mayer bond orders larger than 0.100000
B(  0-C ,  1-C ) :   0.9860 B(  0-C ,  4-H ) :   0.8803 B(  0-C ,  5-H ) :   0.8933
B(  0-C ,  6-H ) :   0.9053 B(  1-C ,  2-O ) :   0.6921 B(  1-C ,  7-H ) :   0.8684
B(  1-C ,  8-H ) :   0.8867 B(  2-O ,  3-C ) :   1.7242 B(  3-C ,  9-H ) :   0.8518
B(  3-C , 10-H ) :   0.8581

Dispersion correction           -0.003511635
FINAL SINGLE POINT ENERGY      -193.004124299392

DIPOLE MOMENT
-------------
                                X             Y             Z
Electronic contribution:      2.42285      -0.82293      -3.06404
Nuclear contribution   :     -1.60616       1.51860       2.22869
                        -----------------------------------------
Total Dipole Moment    :      0.81669       0.69567      -0.83535
                        -----------------------------------------
Magnitude (a.u.)       :      1.35969
Magnitude (Debye)      :      3.45606

Rotational constants in cm-1:     0.792239     0.153101     0.147908
Rotational constants in MHz : 23750.729511  4589.862143  4434.181330

                             ****ORCA TERMINATED NORMALLY****
TOTAL RUN TIME: 0 days 0 hours 1 minutes 40 seconds 974 msec
