                         Program Version 5.0.3 -  RELEASE  -
|  1> ! PBEh-3c def2/J TightSCF DefGrid3
|  2>
|  3> %maxcore 60000
|  4>
|  5> %pal
|  6> nprocs 4
|  7> end
|  8>
|  9> *xyzfile 0 1 E29.xyz
| 10>
| 11>                          ****END OF INPUT****

CARTESIAN COORDINATES (ANGSTROEM)
---------------------------------
  O      0.000000    0.000000    1.490890
  C     -1.168020    0.134863    0.666264
  C     -0.733407   -0.225161   -0.755818
  C      0.733407    0.225161   -0.755818
  C      1.168020   -0.134863    0.666264
  H     -1.948982   -0.520287    1.058629
  H     -1.528826    1.169574    0.718316
  H     -1.338386    0.268638   -1.517496
  H     -0.799386   -1.304610   -0.915340
  H      1.338386   -0.268638   -1.517496
  H      0.799386    1.304610   -0.915340
  H      1.528826   -1.169574    0.718316
  H      1.948982    0.520287    1.058629

 Total Charge           Charge          ....    0
 Multiplicity           Mult            ....    1
 Number of Electrons    NEL             ....   40
 Basis Dimension        Dim             ....   91

ORBITAL ENERGIES
----------------

  NO   OCC          E(Eh)            E(eV)
   0   2.0000     -19.481528      -530.1193
   1   2.0000     -10.477901      -285.1182
   2   2.0000     -10.477861      -285.1171
   3   2.0000     -10.440555      -284.1019
   4   2.0000     -10.440339      -284.0961
   5   2.0000      -1.127575       -30.6829
   6   2.0000      -0.873859       -23.7789
   7   2.0000      -0.818763       -22.2797
   8   2.0000      -0.666883       -18.1468
   9   2.0000      -0.662466       -18.0266
  10   2.0000      -0.563471       -15.3328
  11   2.0000      -0.552392       -15.0313
  12   2.0000      -0.483399       -13.1539
  13   2.0000      -0.483148       -13.1471
  14   2.0000      -0.457172       -12.4403
  15   2.0000      -0.407084       -11.0773
  16   2.0000      -0.402081       -10.9412
  17   2.0000      -0.383931       -10.4473
  18   2.0000      -0.365476        -9.9451
  19   2.0000      -0.296066        -8.0564
  20   0.0000       0.133983         3.6459
  21   0.0000       0.160732         4.3737
  22   0.0000       0.169451         4.6110
  23   0.0000       0.185477         5.0471
  24   0.0000       0.197565         5.3760

MULLIKEN ATOMIC CHARGES
-----------------------
   0 O :   -0.477494
   1 C :   -0.124475
   2 C :   -0.489521
   3 C :   -0.489521
   4 C :   -0.124475
   5 H :    0.207599
   6 H :    0.188663
   7 H :    0.231280
   8 H :    0.225201
   9 H :    0.231280
  10 H :    0.225201
  11 H :    0.188663
  12 H :    0.207599
Sum of atomic charges:    0.0000000

LOEWDIN ATOMIC CHARGES
----------------------
   0 O :   -0.282453
   1 C :   -0.078302
   2 C :   -0.261083
   3 C :   -0.261083
   4 C :   -0.078302
   5 H :    0.115798
   6 H :    0.104446
   7 H :    0.132292
   8 H :    0.128076
   9 H :    0.132292
  10 H :    0.128076
  11 H :    0.104446
  12 H :    0.115798

  Mayer bond orders larger than 0.100000
B(  0-O ,  1-C ) :   0.9812 B(  0-O ,  4-C ) :   0.9812 B(  1-C ,  2-C ) :   0.9694
B(  1-C ,  5-H ) :   0.9166 B(  1-C ,  6-H ) :   0.9103 B(  2-C ,  3-C ) :   0.9711
B(  2-C ,  7-H ) :   0.9222 B(  2-C ,  8-H ) :   0.9181 B(  3-C ,  4-C ) :   0.9694
B(  3-C ,  9-H ) :   0.9222 B(  3-C , 10-H ) :   0.9181 B(  4-C , 11-H ) :   0.9103
B(  4-C , 12-H ) :   0.9166

Dispersion correction           -0.005196483
FINAL SINGLE POINT ENERGY      -231.944073960313

DIPOLE MOMENT
-------------
                                X             Y             Z
Electronic contribution:      0.00000       0.00000       2.59496
Nuclear contribution   :     -0.00000       0.00000      -3.33403
                        -----------------------------------------
Total Dipole Moment    :      0.00000       0.00000      -0.73907
                        -----------------------------------------
Magnitude (a.u.)       :      0.73907
Magnitude (Debye)      :      1.87856

Rotational constants in cm-1:     0.235778     0.232987     0.132965
Rotational constants in MHz :  7068.452789  6984.762439  3986.189310

                             ****ORCA TERMINATED NORMALLY****
TOTAL RUN TIME: 0 days 0 hours 1 minutes 5 seconds 506 msec
