                         Program Version 5.0.3 -  RELEASE  -
|  1> ! PBEh-3c def2/J TightSCF DefGrid3
|  2>
|  3> %maxcore 60000
|  4>
|  5> %pal
|  6> nprocs 4
|  7> end
|  8>
|  9> *xyzfile 0 1 25.xyz
| 10>
| 11>                          ****END OF INPUT****

CARTESIAN COORDINATES (ANGSTROEM)
---------------------------------
  F     -1.241534   -0.171917    0.192068
  H      0.653378    1.463031    1.104477
  H      0.058307   -1.633033   -0.828359
  H      0.000524   -1.826131    1.087905
  F      1.982725   -0.714697   -1.963136
  H     -2.049592   -0.305166   -2.880319
  B      0.078101   -0.983574    0.188509
  Si     1.700690    0.404518    0.833848
  B      1.348781    0.021425   -1.032909
  O      0.206427   -0.422289    3.433164
  O     -2.066221    0.568994   -2.476566
  H     -0.090364    0.450722    3.128718
  Al    -1.165110    1.083193   -1.136140
  H     -1.252846    2.531238   -0.563550
  Si     1.290057   -1.311771    2.521597
  H      0.546678    0.845457   -1.609308

 Total Charge           Charge          ....    0
 Multiplicity           Mult            ....    1
 Number of Electrons    NEL             ....   92
 Basis Dimension        Dim             ....  158

ORBITAL ENERGIES
----------------

  NO   OCC          E(Eh)            E(eV)
   0   2.0000     -66.786586     -1817.3554
   1   2.0000     -66.727036     -1815.7350
   2   2.0000     -56.665133     -1541.9367
   3   2.0000     -25.167891      -684.8531
   4   2.0000     -25.110604      -683.2943
   5   2.0000     -19.515446      -531.0423
   6   2.0000     -19.491179      -530.3820
   7   2.0000      -7.064723      -192.2409
   8   2.0000      -7.027271      -191.2218
   9   2.0000      -5.556010      -151.1867
  10   2.0000      -5.509237      -149.9140
  11   2.0000      -4.398025      -119.6763
  12   2.0000      -3.847658      -104.7001
  13   2.0000      -3.845188      -104.6329
  14   2.0000      -3.842357      -104.5559
  15   2.0000      -3.801565      -103.4458
  16   2.0000      -3.798776      -103.3700
  17   2.0000      -3.797185      -103.3266
  18   2.0000      -2.889460       -78.6262
  19   2.0000      -2.888695       -78.6054
  20   2.0000      -2.883166       -78.4549
  21   2.0000      -1.378308       -37.5057
  22   2.0000      -1.338568       -36.4243
  23   2.0000      -1.119247       -30.4562
  24   2.0000      -1.087154       -29.5830
  25   2.0000      -0.729244       -19.8437
  26   2.0000      -0.672320       -18.2948
  27   2.0000      -0.635718       -17.2988
  28   2.0000      -0.618731       -16.8365
  29   2.0000      -0.611276       -16.6337
  30   2.0000      -0.585997       -15.9458
  31   2.0000      -0.579160       -15.7597
  32   2.0000      -0.563146       -15.3240
  33   2.0000      -0.549947       -14.9648
  34   2.0000      -0.533268       -14.5110
  35   2.0000      -0.509334       -13.8597
  36   2.0000      -0.463938       -12.6244
  37   2.0000      -0.437977       -11.9180
  38   2.0000      -0.420910       -11.4535
  39   2.0000      -0.413411       -11.2495
  40   2.0000      -0.408366       -11.1122
  41   2.0000      -0.391950       -10.6655
  42   2.0000      -0.380658       -10.3582
  43   2.0000      -0.352501        -9.5920
  44   2.0000      -0.298965        -8.1353
  45   2.0000      -0.271083        -7.3766
  46   0.0000      -0.045883        -1.2485
  47   0.0000      -0.028190        -0.7671
  48   0.0000      -0.000958        -0.0261
  49   0.0000       0.019967         0.5433
  50   0.0000       0.029461         0.8017

MULLIKEN ATOMIC CHARGES
-----------------------
   0 F :   -0.404822
   1 H :    0.007852
   2 H :    0.078063
   3 H :    0.005723
   4 F :   -0.257618
   5 H :    0.442109
   6 B :   -0.112080
   7 Si:   -0.151666
   8 B :    0.257611
   9 O :   -0.730069
  10 O :   -0.796275
  11 H :    0.445570
  12 Al:    0.897924
  13 H :   -0.071186
  14 Si:    0.475234
  15 H :   -0.086370
Sum of atomic charges:   -0.0000000

LOEWDIN ATOMIC CHARGES
----------------------
   0 F :   -0.144981
   1 H :   -0.001081
   2 H :    0.076765
   3 H :    0.062567
   4 F :   -0.148097
   5 H :    0.330337
   6 B :   -0.183870
   7 Si:    0.010603
   8 B :   -0.029558
   9 O :   -0.456948
  10 O :   -0.465128
  11 H :    0.323860
  12 Al:    0.398771
  13 H :   -0.057551
  14 Si:    0.253454
  15 H :    0.030858

  Mayer bond orders larger than 0.100000
B(  0-F ,  6-B ) :   0.5552 B(  0-F , 12-Al) :   0.4307 B(  1-H ,  7-Si) :   0.9218
B(  2-H ,  6-B ) :   0.8503 B(  3-H ,  6-B ) :   0.7672 B(  3-H , 14-Si) :   0.1706
B(  4-F ,  8-B ) :   1.1317 B(  5-H , 10-O ) :   0.7529 B(  6-B ,  7-Si) :   0.5744
B(  6-B ,  8-B ) :   0.3863 B(  6-B , 14-Si) :   0.1918 B(  7-Si,  8-B ) :   0.9728
B(  7-Si, 14-Si) :   0.7754 B(  8-B , 12-Al) :   0.1019 B(  8-B , 15-H ) :   0.6277
B(  9-O , 11-H ) :   0.7473 B(  9-O , 14-Si) :   1.0359 B( 10-O , 12-Al) :   1.0706
B( 12-Al, 13-H ) :   0.9512 B( 12-Al, 15-H ) :   0.2789

Dispersion correction           -0.009173900
FINAL SINGLE POINT ENERGY     -1223.721061220944

DIPOLE MOMENT
-------------
                                X             Y             Z
Electronic contribution:      3.18001      -2.10715      -2.37506
Nuclear contribution   :     -3.52203       2.29346       2.17145
                        -----------------------------------------
Total Dipole Moment    :     -0.34202       0.18631      -0.20361
                        -----------------------------------------
Magnitude (a.u.)       :      0.43949
Magnitude (Debye)      :      1.11709

Rotational constants in cm-1:     0.047287     0.020553     0.016483
Rotational constants in MHz :  1417.620731   616.166035   494.136661

                             ****ORCA TERMINATED NORMALLY****
TOTAL RUN TIME: 0 days 0 hours 2 minutes 14 seconds 877 msec
