                         Program Version 5.0.3 -  RELEASE  -
|  1> ! PBEh-3c def2/J TightSCF DefGrid3
|  2>
|  3> %maxcore 60000
|  4>
|  5> %pal
|  6> nprocs 4
|  7> end
|  8>
|  9> *xyzfile 0 1 P52.xyz
| 10>
| 11>                          ****END OF INPUT****

CARTESIAN COORDINATES (ANGSTROEM)
---------------------------------
  C     -0.571671   -1.031911    0.000000
  C      0.656945   -1.902397    0.000000
  C      1.780062   -1.193667    0.000000
  C      1.520696    0.288806    0.000000
  C      0.000000    0.379382    0.000000
  C     -0.695455    1.510119    0.000000
  C     -2.188320    1.622336    0.000000
  H     -1.203598   -1.220531    0.874204
  H      0.604611   -2.982265    0.000000
  H      2.777083   -1.611679    0.000000
  H      1.959385    0.778675   -0.875106
  H      1.959385    0.778675    0.875106
  H     -1.203598   -1.220531   -0.874204
  H     -0.149320    2.449191    0.000000
  H     -2.542183    2.172516    0.876244
  H     -2.673126    0.647425    0.000000
  H     -2.542183    2.172516   -0.876244

 Total Charge           Charge          ....    0
 Multiplicity           Mult            ....    1
 Number of Electrons    NEL             ....   52
 Basis Dimension        Dim             ....  125

ORBITAL ENERGIES
----------------

  NO   OCC          E(Eh)            E(eV)
   0   2.0000     -10.442557      -284.1564
   1   2.0000     -10.437617      -284.0220
   2   2.0000     -10.437341      -284.0145
   3   2.0000     -10.436593      -283.9941
   4   2.0000     -10.436330      -283.9870
   5   2.0000     -10.430117      -283.8179
   6   2.0000     -10.426946      -283.7316
   7   2.0000      -0.944620       -25.7044
   8   2.0000      -0.861639       -23.4464
   9   2.0000      -0.796133       -21.6639
  10   2.0000      -0.777107       -21.1462
  11   2.0000      -0.696475       -18.9521
  12   2.0000      -0.605234       -16.4693
  13   2.0000      -0.590248       -16.0615
  14   2.0000      -0.547903       -14.9092
  15   2.0000      -0.504092       -13.7170
  16   2.0000      -0.480634       -13.0787
  17   2.0000      -0.459534       -12.5045
  18   2.0000      -0.451825       -12.2948
  19   2.0000      -0.449410       -12.2291
  20   2.0000      -0.429919       -11.6987
  21   2.0000      -0.410147       -11.1607
  22   2.0000      -0.400381       -10.8949
  23   2.0000      -0.368294       -10.0218
  24   2.0000      -0.299471        -8.1490
  25   2.0000      -0.262786        -7.1508
  26   0.0000       0.052344         1.4243
  27   0.0000       0.054961         1.4956
  28   0.0000       0.157616         4.2890
  29   0.0000       0.175132         4.7656
  30   0.0000       0.184207         5.0125

MULLIKEN ATOMIC CHARGES
-----------------------
   0 C :   -0.508621
   1 C :   -0.195094
   2 C :   -0.200904
   3 C :   -0.489012
   4 C :    0.109227
   5 C :   -0.263063
   6 C :   -0.689491
   7 H :    0.234362
   8 H :    0.211351
   9 H :    0.211684
  10 H :    0.235189
  11 H :    0.235189
  12 H :    0.234362
  13 H :    0.200903
  14 H :    0.224190
  15 H :    0.225540
  16 H :    0.224190
Sum of atomic charges:   -0.0000000

LOEWDIN ATOMIC CHARGES
----------------------
   0 C :   -0.235341
   1 C :   -0.146136
   2 C :   -0.145942
   3 C :   -0.229383
   4 C :   -0.054875
   5 C :   -0.167108
   6 C :   -0.357666
   7 H :    0.137290
   8 H :    0.130113
   9 H :    0.130276
  10 H :    0.137873
  11 H :    0.137873
  12 H :    0.137290
  13 H :    0.127088
  14 H :    0.133797
  15 H :    0.131055
  16 H :    0.133797

  Mayer bond orders larger than 0.100000
B(  0-C ,  1-C ) :   1.0022 B(  0-C ,  4-C ) :   0.9798 B(  0-C ,  7-H ) :   0.9009
B(  0-C , 12-H ) :   0.9009 B(  1-C ,  2-C ) :   1.9039 B(  1-C ,  8-H ) :   0.9243
B(  2-C ,  3-C ) :   1.0007 B(  2-C ,  9-H ) :   0.9241 B(  3-C ,  4-C ) :   0.9795
B(  3-C , 10-H ) :   0.9025 B(  3-C , 11-H ) :   0.9025 B(  4-C ,  5-C ) :   1.8618
B(  5-C ,  6-C ) :   1.0019 B(  5-C , 13-H ) :   0.9285 B(  6-C , 14-H ) :   0.9179
B(  6-C , 15-H ) :   0.9266 B(  6-C , 16-H ) :   0.9179

Dispersion correction           -0.008402348
FINAL SINGLE POINT ENERGY      -272.122670609872

DIPOLE MOMENT
-------------
                                X             Y             Z
Electronic contribution:      3.08643      -2.03614      -0.00000
Nuclear contribution   :     -3.12565       2.03706       0.00000
                        -----------------------------------------
Total Dipole Moment    :     -0.03922       0.00092      -0.00000
                        -----------------------------------------
Magnitude (a.u.)       :      0.03923
Magnitude (Debye)      :      0.09972

Rotational constants in cm-1:     0.211686     0.061587     0.048992
Rotational constants in MHz :  6346.196864  1846.335866  1468.740723

                             ****ORCA TERMINATED NORMALLY****
TOTAL RUN TIME: 0 days 0 hours 0 minutes 55 seconds 315 msec
