                         Program Version 5.0.3 -  RELEASE  -
|  1> ! PBEh-3c def2/J TightSCF DefGrid3
|  2>
|  3> %maxcore 60000
|  4>
|  5> %pal
|  6> nprocs 4
|  7> end
|  8>
|  9> *xyzfile 0 1 22_benCl-Nm3B.xyz
| 10>
| 11>                          ****END OF INPUT****

CARTESIAN COORDINATES (ANGSTROEM)
---------------------------------
  N     -4.403628    0.003356    3.894350
  C     -5.231718   -1.074214    3.388785
  C     -4.114028   -0.203131    5.300015
  C     -5.065000    1.279020    3.699968
  H     -5.027241   -0.220060    5.916981
  H     -3.593998   -1.150521    5.432396
  H     -3.470363    0.596298    5.663510
  H     -6.026503    1.337442    4.235674
  H     -4.424188    2.083133    4.058008
  H     -5.254103    1.436697    2.639381
  H     -6.201676   -1.135411    3.908711
  H     -5.421511   -0.924313    2.327182
  H     -4.715156   -2.024330    3.514793

 Total Charge           Charge          ....    0
 Multiplicity           Mult            ....    1
 Number of Electrons    NEL             ....   34
 Basis Dimension        Dim             ....   78

ORBITAL ENERGIES
----------------

  NO   OCC          E(Eh)            E(eV)
   0   2.0000     -14.623084      -397.9143
   1   2.0000     -10.446488      -284.2634
   2   2.0000     -10.446486      -284.2633
   3   2.0000     -10.446416      -284.2614
   4   2.0000      -1.019130       -27.7319
   5   2.0000      -0.783256       -21.3135
   6   2.0000      -0.783228       -21.3127
   7   2.0000      -0.660161       -17.9639
   8   2.0000      -0.527167       -14.3449
   9   2.0000      -0.522902       -14.2289
  10   2.0000      -0.522872       -14.2281
  11   2.0000      -0.444029       -12.0827
  12   2.0000      -0.444010       -12.0821
  13   2.0000      -0.418109       -11.3773
  14   2.0000      -0.406763       -11.0686
  15   2.0000      -0.406712       -11.0672
  16   2.0000      -0.260665        -7.0931
  17   0.0000       0.125791         3.4230
  18   0.0000       0.197052         5.3621
  19   0.0000       0.197062         5.3623
  20   0.0000       0.206661         5.6235
  21   0.0000       0.212684         5.7874

MULLIKEN ATOMIC CHARGES
-----------------------
   0 N :   -0.368523
   1 C :   -0.490881
   2 C :   -0.490842
   3 C :   -0.490868
   4 H :    0.175804
   5 H :    0.218938
   6 H :    0.218935
   7 H :    0.175808
   8 H :    0.218954
   9 H :    0.218957
  10 H :    0.175815
  11 H :    0.218936
  12 H :    0.218967
Sum of atomic charges:   -0.0000000

LOEWDIN ATOMIC CHARGES
----------------------
   0 N :   -0.233215
   1 C :   -0.259152
   2 C :   -0.259143
   3 C :   -0.259149
   4 H :    0.093376
   5 H :    0.121748
   6 H :    0.121745
   7 H :    0.093388
   8 H :    0.121759
   9 H :    0.121752
  10 H :    0.093387
  11 H :    0.121743
  12 H :    0.121763

  Mayer bond orders larger than 0.100000
B(  0-N ,  1-C ) :   0.9988 B(  0-N ,  2-C ) :   0.9988 B(  0-N ,  3-C ) :   0.9988
B(  1-C , 10-H ) :   0.9058 B(  1-C , 11-H ) :   0.9283 B(  1-C , 12-H ) :   0.9283
B(  2-C ,  4-H ) :   0.9058 B(  2-C ,  5-H ) :   0.9283 B(  2-C ,  6-H ) :   0.9283
B(  3-C ,  7-H ) :   0.9058 B(  3-C ,  8-H ) :   0.9283 B(  3-C ,  9-H ) :   0.9283

Dispersion correction           -0.004887711
FINAL SINGLE POINT ENERGY      -174.087078516902

DIPOLE MOMENT
-------------
                                X             Y             Z
Electronic contribution:      1.26645       0.00876      -0.74467
Nuclear contribution   :     -1.51521      -0.01042       0.89081
                        -----------------------------------------
Total Dipole Moment    :     -0.24876      -0.00166       0.14614
                        -----------------------------------------
Magnitude (a.u.)       :      0.28852
Magnitude (Debye)      :      0.73335

Rotational constants in cm-1:     0.294156     0.294082     0.167607
Rotational constants in MHz :  8818.578700  8816.349846  5024.720953

                             ****ORCA TERMINATED NORMALLY****
TOTAL RUN TIME: 0 days 0 hours 1 minutes 15 seconds 888 msec
