                         Program Version 5.0.3 -  RELEASE  -
|  1> ! PBEh-3c def2/J TightSCF DefGrid3
|  2>
|  3> %maxcore 60000
|  4>
|  5> %scf
|  6>     guess hcore
|  7> end
|  8>
|  9> %pal
| 10> nprocs 4
| 11> end
| 12>
| 13> *xyzfile 0 2 HS.xyz
| 14>
| 15>                          ****END OF INPUT****

CARTESIAN COORDINATES (ANGSTROEM)
---------------------------------
  S      0.000000    0.000000    0.670102
  H      0.000000    0.000000   -0.670102

 Total Charge           Charge          ....    0
 Multiplicity           Mult            ....    2
 Number of Electrons    NEL             ....   17
 Basis Dimension        Dim             ....   20

ORBITAL ENERGIES
----------------
                 SPIN UP ORBITALS
  NO   OCC          E(Eh)            E(eV)
   0   1.0000     -89.608377     -2438.3679
   1   1.0000      -8.248529      -224.4539
   2   1.0000      -6.148337      -167.3048
   3   1.0000      -6.135541      -166.9565
   4   1.0000      -6.127641      -166.7416
   5   1.0000      -0.816503       -22.2182
   6   1.0000      -0.460960       -12.5434
   7   1.0000      -0.369066       -10.0428
   8   1.0000      -0.316161        -8.6032
   9   0.0000       0.077120         2.0985
  10   0.0000       0.371449        10.1077
  11   0.0000       0.575085        15.6488
  12   0.0000       0.657942        17.9035
  13   0.0000       0.690275        18.7833

                 SPIN DOWN ORBITALS
  NO   OCC          E(Eh)            E(eV)
   0   1.0000     -89.602101     -2438.1971
   1   1.0000      -8.242160      -224.2806
   2   1.0000      -6.131778      -166.8541
   3   1.0000      -6.125006      -166.6699
   4   1.0000      -6.123984      -166.6421
   5   1.0000      -0.763279       -20.7699
   6   1.0000      -0.444556       -12.0970
   7   1.0000      -0.299096        -8.1388
   8   0.0000      -0.130125        -3.5409
   9   0.0000       0.090181         2.4540
  10   0.0000       0.391868        10.6633
  11   0.0000       0.590778        16.0759
  12   0.0000       0.708509        19.2795

MULLIKEN ATOMIC CHARGES AND SPIN POPULATIONS
--------------------------------------------
   0 S :   -0.176753    1.032428
   1 H :    0.176753   -0.032428
Sum of atomic charges         :    0.0000000

LOEWDIN ATOMIC CHARGES AND SPIN POPULATIONS
-------------------------------------------
   0 S :   -0.101967    1.019909
   1 H :    0.101967   -0.019909

  Mayer bond orders larger than 0.100000
B(  0-S ,  1-H ) :   0.9352

Dispersion correction           -0.000186066
FINAL SINGLE POINT ENERGY      -398.286831366342

DIPOLE MOMENT
-------------
                                X             Y             Z
Electronic contribution:     -0.00000      -0.00000       0.77851
Nuclear contribution   :      0.00000       0.00000      -1.22020
                        -----------------------------------------
Total Dipole Moment    :     -0.00000      -0.00000      -0.44169
                        -----------------------------------------
Magnitude (a.u.)       :      0.44169
Magnitude (Debye)      :      1.12269

Rotational constants in cm-1:     0.000000     9.603720     9.603720
Rotational constants in MHz :     0.000000 287912.275292 287912.275292

                             ****ORCA TERMINATED NORMALLY****
TOTAL RUN TIME: 0 days 0 hours 0 minutes 4 seconds 806 msec
