                         Program Version 5.0.3 -  RELEASE  -
|  1> ! PBEh-3c def2/J TightSCF DefGrid3
|  2>
|  3> %maxcore 60000
|  4>
|  5> %pal
|  6> nprocs 4
|  7> end
|  8>
|  9> *xyzfile 0 1 C10.xyz
| 10>
| 11>                          ****END OF INPUT****

CARTESIAN COORDINATES (ANGSTROEM)
---------------------------------
  C      2.428545    0.917056    0.034515
  C      1.772223   -0.455451    0.151418
  C      0.457054   -0.570058   -0.623043
  C     -0.707260    0.254182   -0.042560
  C     -1.884436   -0.734742   -0.037668
  O     -2.800557   -0.405768    1.002629
  C     -1.165938   -2.074305    0.158699
  O      3.636889    0.976477    0.780789
  O     -0.882043    1.413125   -0.834254
  O      2.723025   -1.392600   -0.359138
  O      0.036015   -1.957430   -0.607412
  C     -1.717445    2.411125   -0.251508
  H      1.772969    1.693478    0.437527
  H      2.610646    1.137844   -1.027742
  H      1.582777   -0.670361    1.215994
  H      0.619151   -0.290833   -1.670037
  H     -0.509854    0.541391    1.003993
  H     -2.374508   -0.698848   -1.020378
  H     -3.602308   -0.935964    0.906563
  H     -1.720123   -2.939096   -0.218336
  H     -0.951969   -2.225465    1.227659
  H      4.172837    0.215428    0.513491
  H      2.283187   -2.254301   -0.409425
  H     -2.748640    2.060029   -0.130820
  H     -1.333630    2.720615    0.731094
  H     -1.696606    3.264472   -0.932049

 Total Charge           Charge          ....    0
 Multiplicity           Mult            ....    1
 Number of Electrons    NEL             ....   96
 Basis Dimension        Dim             ....  208

ORBITAL ENERGIES
----------------

  NO   OCC          E(Eh)            E(eV)
   0   2.0000     -19.512108      -530.9514
   1   2.0000     -19.510538      -530.9087
   2   2.0000     -19.507089      -530.8149
   3   2.0000     -19.489476      -530.3356
   4   2.0000     -19.475208      -529.9473
   5   2.0000     -10.506427      -285.8944
   6   2.0000     -10.505504      -285.8693
   7   2.0000     -10.498820      -285.6874
   8   2.0000     -10.497733      -285.6578
   9   2.0000     -10.490398      -285.4583
  10   2.0000     -10.481877      -285.2264
  11   2.0000     -10.476942      -285.0921
  12   2.0000      -1.168164       -31.7873
  13   2.0000      -1.146327       -31.1932
  14   2.0000      -1.139131       -30.9973
  15   2.0000      -1.127920       -30.6923
  16   2.0000      -1.102480       -30.0000
  17   2.0000      -0.881664       -23.9913
  18   2.0000      -0.857027       -23.3209
  19   2.0000      -0.801756       -21.8169
  20   2.0000      -0.759900       -20.6779
  21   2.0000      -0.703631       -19.1468
  22   2.0000      -0.675564       -18.3830
  23   2.0000      -0.663577       -18.0569
  24   2.0000      -0.616296       -16.7703
  25   2.0000      -0.594487       -16.1768
  26   2.0000      -0.583151       -15.8684
  27   2.0000      -0.549981       -14.9657
  28   2.0000      -0.543964       -14.8020
  29   2.0000      -0.532784       -14.4978
  30   2.0000      -0.518071       -14.0974
  31   2.0000      -0.507138       -13.7999
  32   2.0000      -0.489559       -13.3216
  33   2.0000      -0.479534       -13.0488
  34   2.0000      -0.470624       -12.8063
  35   2.0000      -0.469233       -12.7685
  36   2.0000      -0.461872       -12.5682
  37   2.0000      -0.442523       -12.0417
  38   2.0000      -0.410844       -11.1796
  39   2.0000      -0.407047       -11.0763
  40   2.0000      -0.400375       -10.8947
  41   2.0000      -0.382601       -10.4111
  42   2.0000      -0.373858       -10.1732
  43   2.0000      -0.350932        -9.5493
  44   2.0000      -0.344064        -9.3624
  45   2.0000      -0.322088        -8.7645
  46   2.0000      -0.314029        -8.5452
  47   2.0000      -0.305821        -8.3218
  48   0.0000       0.088319         2.4033
  49   0.0000       0.111167         3.0250
  50   0.0000       0.129829         3.5328
  51   0.0000       0.140197         3.8150
  52   0.0000       0.160241         4.3604

MULLIKEN ATOMIC CHARGES
-----------------------
   0 C :   -0.132701
   1 C :   -0.006885
   2 C :    0.012197
   3 C :    0.005237
   4 C :   -0.020197
   5 O :   -0.630104
   6 C :   -0.171899
   7 O :   -0.631912
   8 O :   -0.477024
   9 O :   -0.659595
  10 O :   -0.497983
  11 C :   -0.377264
  12 H :    0.211557
  13 H :    0.189809
  14 H :    0.191468
  15 H :    0.242920
  16 H :    0.210678
  17 H :    0.218215
  18 H :    0.420879
  19 H :    0.214725
  20 H :    0.204221
  21 H :    0.425378
  22 H :    0.432854
  23 H :    0.210544
  24 H :    0.193194
  25 H :    0.221690
Sum of atomic charges:    0.0000000

LOEWDIN ATOMIC CHARGES
----------------------
   0 C :   -0.092972
   1 C :   -0.051078
   2 C :   -0.019075
   3 C :   -0.020804
   4 C :   -0.045331
   5 O :   -0.396509
   6 C :   -0.092661
   7 O :   -0.409188
   8 O :   -0.253247
   9 O :   -0.410219
  10 O :   -0.265816
  11 C :   -0.182329
  12 H :    0.123230
  13 H :    0.107807
  14 H :    0.106732
  15 H :    0.135804
  16 H :    0.118642
  17 H :    0.118561
  18 H :    0.315214
  19 H :    0.123135
  20 H :    0.112322
  21 H :    0.314936
  22 H :    0.317970
  23 H :    0.113020
  24 H :    0.107181
  25 H :    0.124676

  Mayer bond orders larger than 0.100000
B(  0-C ,  1-C ) :   0.9587 B(  0-C ,  7-O ) :   1.0256 B(  0-C , 12-H ) :   0.9084
B(  0-C , 13-H ) :   0.8979 B(  1-C ,  2-C ) :   0.9412 B(  1-C ,  9-O ) :   0.9853
B(  1-C , 14-H ) :   0.8921 B(  2-C ,  3-C ) :   0.9309 B(  2-C , 10-O ) :   0.9344
B(  2-C , 15-H ) :   0.8886 B(  3-C ,  4-C ) :   0.9465 B(  3-C ,  8-O ) :   0.9667
B(  3-C , 16-H ) :   0.8799 B(  4-C ,  5-O ) :   1.0169 B(  4-C ,  6-C ) :   0.9296
B(  4-C , 17-H ) :   0.8836 B(  5-O , 18-H ) :   0.7871 B(  6-C , 10-O ) :   0.9772
B(  6-C , 19-H ) :   0.9180 B(  6-C , 20-H ) :   0.8922 B(  7-O , 21-H ) :   0.7740
B(  8-O , 11-C ) :   0.9544 B(  9-O , 22-H ) :   0.7634 B( 11-C , 23-H ) :   0.9069
B( 11-C , 24-H ) :   0.9150 B( 11-C , 25-H ) :   0.9275

Dispersion correction           -0.014230534
FINAL SINGLE POINT ENERGY      -649.845387879454

DIPOLE MOMENT
-------------
                                X             Y             Z
Electronic contribution:      2.41640      -3.86173      -1.11395
Nuclear contribution   :     -4.08734       3.22201       1.10545
                        -----------------------------------------
Total Dipole Moment    :     -1.67093      -0.63972      -0.00850
                        -----------------------------------------
Magnitude (a.u.)       :      1.78922
Magnitude (Debye)      :      4.54784

Rotational constants in cm-1:     0.042706     0.020873     0.015649
Rotational constants in MHz :  1280.307907   625.755022   469.149278

                             ****ORCA TERMINATED NORMALLY****
TOTAL RUN TIME: 0 days 0 hours 3 minutes 1 seconds 259 msec
