                         Program Version 5.0.3 -  RELEASE  -
|  1> ! PBEh-3c def2/J TightSCF DefGrid3
|  2>
|  3> %maxcore 60000
|  4>
|  5> %pal
|  6> nprocs 4
|  7> end
|  8>
|  9> *xyzfile 0 2 41.xyz
| 10>
| 11>                          ****END OF INPUT****

CARTESIAN COORDINATES (ANGSTROEM)
---------------------------------
  Na     0.917503   -1.127019   -1.873449
  H      1.929384    0.458959    0.143203
  S      2.120720   -2.350212    0.094368
  H      1.224006    1.868066    0.987755
  F     -2.182266    2.410988   -0.613240
  H     -1.442227   -0.236836   -2.230174
  B     -1.181971   -0.014758   -1.079017
  Al    -1.856404   -0.074226    1.142048
  B      1.037845   -1.966328    1.390596
  S      0.444166   -0.207162    1.855188
  H      0.248443    1.763226   -1.371986
  H      0.585878   -2.714153    2.206736
  H     -1.268181   -1.071238   -0.378665
  C      0.997241    0.912568    0.504886
  C     -1.502546    1.277709   -0.192699
  C     -0.071593    1.070415   -0.585548

 Total Charge           Charge          ....    0
 Multiplicity           Mult            ....    2
 Number of Electrons    NEL             ....   99
 Basis Dimension        Dim             ....  171

ORBITAL ENERGIES
----------------
                 SPIN UP ORBITALS
  NO   OCC          E(Eh)            E(eV)
   0   1.0000     -89.620618     -2438.7010
   1   1.0000     -89.527269     -2436.1608
   2   1.0000     -56.642450     -1541.3194
   3   1.0000     -38.977508     -1060.6319
   4   1.0000     -25.064746      -682.0464
   5   1.0000     -10.492820      -285.5242
   6   1.0000     -10.492132      -285.5054
   7   1.0000     -10.455928      -284.5203
   8   1.0000      -8.259217      -224.7447
   9   1.0000      -8.166682      -222.2267
  10   1.0000      -6.998476      -190.4382
  11   1.0000      -6.936657      -188.7560
  12   1.0000      -6.148806      -167.3175
  13   1.0000      -6.146426      -167.2527
  14   1.0000      -6.144468      -167.1995
  15   1.0000      -6.055717      -164.7844
  16   1.0000      -6.055012      -164.7653
  17   1.0000      -6.051593      -164.6722
  18   1.0000      -4.378769      -119.1524
  19   1.0000      -2.867985       -78.0418
  20   1.0000      -2.866675       -78.0062
  21   1.0000      -2.863930       -77.9315
  22   1.0000      -2.415802       -65.7373
  23   1.0000      -1.290948       -35.1285
  24   1.0000      -1.290360       -35.1125
  25   1.0000      -1.290165       -35.1072
  26   1.0000      -1.289045       -35.0767
  27   1.0000      -0.929368       -25.2894
  28   1.0000      -0.852535       -23.1986
  29   1.0000      -0.762276       -20.7426
  30   1.0000      -0.740730       -20.1563
  31   1.0000      -0.633409       -17.2359
  32   1.0000      -0.604248       -16.4424
  33   1.0000      -0.557634       -15.1740
  34   1.0000      -0.534386       -14.5414
  35   1.0000      -0.514483       -13.9998
  36   1.0000      -0.512024       -13.9329
  37   1.0000      -0.485453       -13.2098
  38   1.0000      -0.472457       -12.8562
  39   1.0000      -0.452985       -12.3263
  40   1.0000      -0.408886       -11.1264
  41   1.0000      -0.403754       -10.9867
  42   1.0000      -0.376106       -10.2344
  43   1.0000      -0.367885       -10.0107
  44   1.0000      -0.355432        -9.6718
  45   1.0000      -0.318581        -8.6690
  46   1.0000      -0.295421        -8.0388
  47   1.0000      -0.277737        -7.5576
  48   1.0000      -0.257904        -7.0179
  49   1.0000      -0.251662        -6.8481
  50   0.0000      -0.026091        -0.7100
  51   0.0000      -0.017952        -0.4885
  52   0.0000       0.001759         0.0479
  53   0.0000       0.018028         0.4906
  54   0.0000       0.035490         0.9657

                 SPIN DOWN ORBITALS
  NO   OCC          E(Eh)            E(eV)
   0   1.0000     -89.620155     -2438.6884
   1   1.0000     -89.527250     -2436.1603
   2   1.0000     -56.638555     -1541.2134
   3   1.0000     -38.977500     -1060.6317
   4   1.0000     -25.064598      -682.0424
   5   1.0000     -10.492516      -285.5159
   6   1.0000     -10.490011      -285.4477
   7   1.0000     -10.455636      -284.5123
   8   1.0000      -8.258686      -224.7303
   9   1.0000      -8.166664      -222.2262
  10   1.0000      -6.998515      -190.4393
  11   1.0000      -6.936367      -188.7481
  12   1.0000      -6.148465      -167.3082
  13   1.0000      -6.145282      -167.2216
  14   1.0000      -6.143913      -167.1844
  15   1.0000      -6.055710      -164.7843
  16   1.0000      -6.054933      -164.7631
  17   1.0000      -6.051590      -164.6721
  18   1.0000      -4.372329      -118.9771
  19   1.0000      -2.863401       -77.9171
  20   1.0000      -2.862147       -77.8830
  21   1.0000      -2.856716       -77.7352
  22   1.0000      -2.415786       -65.7369
  23   1.0000      -1.290938       -35.1282
  24   1.0000      -1.290327       -35.1116
  25   1.0000      -1.289706       -35.0947
  26   1.0000      -1.289024       -35.0761
  27   1.0000      -0.926967       -25.2241
  28   1.0000      -0.849820       -23.1248
  29   1.0000      -0.760899       -20.7051
  30   1.0000      -0.739344       -20.1186
  31   1.0000      -0.630688       -17.1619
  32   1.0000      -0.602118       -16.3845
  33   1.0000      -0.555903       -15.1269
  34   1.0000      -0.530854       -14.4453
  35   1.0000      -0.513453       -13.9718
  36   1.0000      -0.509872       -13.8743
  37   1.0000      -0.484783       -13.1916
  38   1.0000      -0.470396       -12.8001
  39   1.0000      -0.445492       -12.1225
  40   1.0000      -0.407196       -11.0804
  41   1.0000      -0.400713       -10.9039
  42   1.0000      -0.372846       -10.1457
  43   1.0000      -0.363357        -9.8874
  44   1.0000      -0.354288        -9.6407
  45   1.0000      -0.316883        -8.6228
  46   1.0000      -0.293161        -7.9773
  47   1.0000      -0.269128        -7.3233
  48   1.0000      -0.250469        -6.8156
  49   0.0000      -0.097909        -2.6642
  50   0.0000      -0.025604        -0.6967
  51   0.0000      -0.009807        -0.2669
  52   0.0000       0.019268         0.5243
  53   0.0000       0.036725         0.9993

MULLIKEN ATOMIC CHARGES AND SPIN POPULATIONS
--------------------------------------------
   0 Na:    0.654717    0.000796
   1 H :    0.285819    0.002115
   2 S :   -0.429146    0.002867
   3 H :    0.284101    0.000007
   4 F :   -0.339400    0.002687
   5 H :    0.089274   -0.002024
   6 B :   -0.354323    0.019623
   7 Al:    0.497227    0.860314
   8 B :    0.034066   -0.005486
   9 S :   -0.168729    0.040012
  10 H :    0.264418    0.014296
  11 H :    0.067492    0.000377
  12 H :   -0.007033   -0.010652
  13 C :   -0.536613    0.008414
  14 C :    0.117156    0.068904
  15 C :   -0.459026   -0.002251
Sum of atomic charges         :    0.0000000

LOEWDIN ATOMIC CHARGES AND SPIN POPULATIONS
-------------------------------------------
   0 Na:    0.084292    0.001342
   1 H :    0.167620    0.001111
   2 S :   -0.002316    0.002359
   3 H :    0.149188   -0.000051
   4 F :   -0.210074    0.004346
   5 H :    0.077929   -0.001069
   6 B :   -0.319589    0.022797
   7 Al:    0.275819    0.849550
   8 B :   -0.307663   -0.001733
   9 S :    0.311790    0.040751
  10 H :    0.174139    0.007885
  11 H :    0.015250    0.000155
  12 H :    0.085854   -0.003488
  13 C :   -0.279708    0.011196
  14 C :   -0.015680    0.057585
  15 C :   -0.206851    0.007264

  Mayer bond orders larger than 0.100000
B(  0-Na,  2-S ) :   0.4141 B(  1-H , 13-C ) :   0.8498 B(  2-S ,  8-B ) :   1.6656
B(  3-H , 13-C ) :   0.8834 B(  4-F , 14-C ) :   0.9029 B(  5-H ,  6-B ) :   0.9441
B(  6-B ,  7-Al) :   0.2569 B(  6-B , 12-H ) :   0.7024 B(  6-B , 14-C ) :   0.7565
B(  6-B , 15-C ) :   0.8666 B(  7-Al,  9-S ) :   0.5413 B(  7-Al, 12-H ) :   0.2317
B(  7-Al, 14-C ) :   0.9689 B(  8-B ,  9-S ) :   0.7995 B(  8-B , 11-H ) :   0.9471
B(  9-S , 13-C ) :   0.9699 B( 10-H , 15-C ) :   0.8761 B( 13-C , 15-C ) :   0.9110
B( 14-C , 15-C ) :   0.9246

Dispersion correction           -0.011484027
FINAL SINGLE POINT ENERGY     -1466.586888788154

DIPOLE MOMENT
-------------
                                X             Y             Z
Electronic contribution:     -3.90979      -0.66090      -1.38387
Nuclear contribution   :      4.06360       0.80931       0.10133
                        -----------------------------------------
Total Dipole Moment    :      0.15381       0.14841      -1.28254
                        -----------------------------------------
Magnitude (a.u.)       :      1.30023
Magnitude (Debye)      :      3.30492

Rotational constants in cm-1:     0.043898     0.020162     0.016630
Rotational constants in MHz :  1316.014999   604.450043   498.562735

                             ****ORCA TERMINATED NORMALLY****
TOTAL RUN TIME: 0 days 0 hours 4 minutes 56 seconds 594 msec
