                         Program Version 5.0.3 -  RELEASE  -
|  1> ! PBEh-3c def2/J TightSCF DefGrid3
|  2>
|  3> %maxcore 60000
|  4>
|  5> %pal
|  6> nprocs 4
|  7> end
|  8>
|  9> *xyzfile 0 1 SI5H12_3.xyz
| 10>
| 11>                          ****END OF INPUT****

CARTESIAN COORDINATES (ANGSTROEM)
---------------------------------
  Si     0.951117   -2.342483    0.000000
  Si     2.898490   -1.033259    0.000000
  Si    -0.994337   -1.004531    0.000000
  Si    -0.508648    1.291967    0.000000
  Si    -2.470621    2.578543    0.000000
  H      0.949750   -3.219573   -1.202178
  H      0.949750   -3.219573    1.202178
  H     -1.816209   -1.316572    1.200820
  H     -1.816209   -1.316572   -1.200820
  H      0.308521    1.617751   -1.200509
  H      0.308521    1.617751    1.200509
  H     -2.170743    4.033812    0.000000
  H     -3.278502    2.260993   -1.205436
  H     -3.278502    2.260993    1.205436
  H      4.118856   -1.880750    0.000000
  H      2.924382   -0.164248   -1.204282
  H      2.924382   -0.164248    1.204282

 Total Charge           Charge          ....    0
 Multiplicity           Mult            ....    1
 Number of Electrons    NEL             ....   82
 Basis Dimension        Dim             ....  114

ORBITAL ENERGIES
----------------

  NO   OCC          E(Eh)            E(eV)
   0   2.0000     -66.736396     -1815.9897
   1   2.0000     -66.734745     -1815.9447
   2   2.0000     -66.734708     -1815.9437
   3   2.0000     -66.732956     -1815.8960
   4   2.0000     -66.732633     -1815.8873
   5   2.0000      -5.518360      -150.1622
   6   2.0000      -5.517207      -150.1308
   7   2.0000      -5.516806      -150.1199
   8   2.0000      -5.516448      -150.1102
   9   2.0000      -5.515828      -150.0933
  10   2.0000      -3.809071      -103.6501
  11   2.0000      -3.808871      -103.6447
  12   2.0000      -3.808743      -103.6412
  13   2.0000      -3.807842      -103.6166
  14   2.0000      -3.807696      -103.6127
  15   2.0000      -3.807567      -103.6092
  16   2.0000      -3.807510      -103.6076
  17   2.0000      -3.807313      -103.6022
  18   2.0000      -3.807208      -103.5994
  19   2.0000      -3.807037      -103.5947
  20   2.0000      -3.806931      -103.5919
  21   2.0000      -3.806649      -103.5842
  22   2.0000      -3.806479      -103.5796
  23   2.0000      -3.806346      -103.5759
  24   2.0000      -3.806125      -103.5699
  25   2.0000      -0.658728       -17.9249
  26   2.0000      -0.632587       -17.2136
  27   2.0000      -0.598360       -16.2822
  28   2.0000      -0.564910       -15.3720
  29   2.0000      -0.533239       -14.5102
  30   2.0000      -0.432076       -11.7574
  31   2.0000      -0.415958       -11.3188
  32   2.0000      -0.410796       -11.1783
  33   2.0000      -0.407092       -11.0775
  34   2.0000      -0.402383       -10.9494
  35   2.0000      -0.393107       -10.6970
  36   2.0000      -0.381180       -10.3724
  37   2.0000      -0.373052       -10.1513
  38   2.0000      -0.356797        -9.7089
  39   2.0000      -0.330628        -8.9968
  40   2.0000      -0.316302        -8.6070
  41   0.0000       0.002592         0.0705
  42   0.0000       0.014554         0.3960
  43   0.0000       0.016856         0.4587
  44   0.0000       0.033644         0.9155
  45   0.0000       0.038585         1.0500

MULLIKEN ATOMIC CHARGES
-----------------------
   0 Si:   -0.047144
   1 Si:    0.021179
   2 Si:   -0.036160
   3 Si:   -0.093980
   4 Si:    0.055931
   5 H :    0.017989
   6 H :    0.017989
   7 H :    0.019783
   8 H :    0.019783
   9 H :    0.015760
  10 H :    0.015760
  11 H :    0.000469
  12 H :   -0.003991
  13 H :   -0.003991
  14 H :    0.004449
  15 H :   -0.001913
  16 H :   -0.001913
Sum of atomic charges:    0.0000000

LOEWDIN ATOMIC CHARGES
----------------------
   0 Si:    0.001291
   1 Si:    0.044627
   2 Si:    0.007508
   3 Si:   -0.010681
   4 Si:    0.054763
   5 H :   -0.003178
   6 H :   -0.003178
   7 H :   -0.003080
   8 H :   -0.003080
   9 H :   -0.004179
  10 H :   -0.004179
  11 H :   -0.012686
  12 H :   -0.013362
  13 H :   -0.013362
  14 H :   -0.011700
  15 H :   -0.012761
  16 H :   -0.012761

  Mayer bond orders larger than 0.100000
B(  0-Si,  1-Si) :   0.9871 B(  0-Si,  2-Si) :   0.9705 B(  0-Si,  5-H ) :   0.9647
B(  0-Si,  6-H ) :   0.9647 B(  1-Si, 14-H ) :   0.9672 B(  1-Si, 15-H ) :   0.9633
B(  1-Si, 16-H ) :   0.9633 B(  2-Si,  3-Si) :   0.9757 B(  2-Si,  7-H ) :   0.9654
B(  2-Si,  8-H ) :   0.9654 B(  3-Si,  4-Si) :   0.9790 B(  3-Si,  9-H ) :   0.9607
B(  3-Si, 10-H ) :   0.9607 B(  4-Si, 11-H ) :   0.9644 B(  4-Si, 12-H ) :   0.9638
B(  4-Si, 13-H ) :   0.9638

Dispersion correction           -0.008576526
FINAL SINGLE POINT ENERGY     -1452.860461703670

DIPOLE MOMENT
-------------
                                X             Y             Z
Electronic contribution:     -0.36379      -1.51361      -0.00000
Nuclear contribution   :      0.36496       1.50035       0.00000
                        -----------------------------------------
Total Dipole Moment    :      0.00117      -0.01326      -0.00000
                        -----------------------------------------
Magnitude (a.u.)       :      0.01332
Magnitude (Debye)      :      0.03385

Rotational constants in cm-1:     0.090636     0.019045     0.016178
Rotational constants in MHz :  2717.190395   570.949547   485.013322

                             ****ORCA TERMINATED NORMALLY****
TOTAL RUN TIME: 0 days 0 hours 1 minutes 41 seconds 702 msec
