                         Program Version 5.0.3 -  RELEASE  -
|  1> ! PBEh-3c def2/J TightSCF DefGrid3
|  2>
|  3> %maxcore 60000
|  4>
|  5> %pal
|  6> nprocs 4
|  7> end
|  8>
|  9> *xyzfile 0 1 P1.xyz
| 10>
| 11>                          ****END OF INPUT****

CARTESIAN COORDINATES (ANGSTROEM)
---------------------------------
  C      0.000000    0.000000    0.000000
  C      0.000000    0.000000   -1.301157
  C      0.000000    0.000000    1.301157
  H     -0.655509   -0.655509   -1.864833
  H      0.655509    0.655509   -1.864833
  H     -0.655509    0.655509    1.864833
  H      0.655509   -0.655509    1.864833

 Total Charge           Charge          ....    0
 Multiplicity           Mult            ....    1
 Number of Electrons    NEL             ....   22
 Basis Dimension        Dim             ....   53

ORBITAL ENERGIES
----------------

  NO   OCC          E(Eh)            E(eV)
   0   2.0000     -10.471949      -284.9562
   1   2.0000     -10.448300      -284.3127
   2   2.0000     -10.448202      -284.3100
   3   2.0000      -0.886186       -24.1144
   4   2.0000      -0.790338       -21.5062
   5   2.0000      -0.590359       -16.0645
   6   2.0000      -0.515466       -14.0265
   7   2.0000      -0.503998       -13.7145
   8   2.0000      -0.503998       -13.7145
   9   2.0000      -0.314128        -8.5479
  10   2.0000      -0.314128        -8.5479
  11   0.0000       0.043775         1.1912
  12   0.0000       0.043775         1.1912
  13   0.0000       0.177877         4.8403
  14   0.0000       0.191604         5.2138
  15   0.0000       0.281874         7.6702

MULLIKEN ATOMIC CHARGES
-----------------------
   0 C :    0.329290
   1 C :   -0.643403
   2 C :   -0.643404
   3 H :    0.239379
   4 H :    0.239379
   5 H :    0.239379
   6 H :    0.239379
Sum of atomic charges:   -0.0000000

LOEWDIN ATOMIC CHARGES
----------------------
   0 C :    0.012944
   1 C :   -0.312779
   2 C :   -0.312779
   3 H :    0.153153
   4 H :    0.153153
   5 H :    0.153153
   6 H :    0.153153

  Mayer bond orders larger than 0.100000
B(  0-C ,  1-C ) :   1.8941 B(  0-C ,  2-C ) :   1.8941 B(  1-C ,  3-H ) :   0.9075
B(  1-C ,  4-H ) :   0.9075 B(  2-C ,  5-H ) :   0.9075 B(  2-C ,  6-H ) :   0.9075

Dispersion correction           -0.001882608
FINAL SINGLE POINT ENERGY      -116.385992220668

DIPOLE MOMENT
-------------
                                X             Y             Z
Electronic contribution:      0.00000      -0.00000       0.00000
Nuclear contribution   :      0.00000       0.00000       0.00000
                        -----------------------------------------
Total Dipole Moment    :      0.00000      -0.00000       0.00000
                        -----------------------------------------
Magnitude (a.u.)       :      0.00000
Magnitude (Debye)      :      0.00000

Rotational constants in cm-1:     4.865065     0.298769     0.298769
Rotational constants in MHz : 145850.986072  8956.865117  8956.865117

                             ****ORCA TERMINATED NORMALLY****
TOTAL RUN TIME: 0 days 0 hours 0 minutes 55 seconds 891 msec
