                         Program Version 5.0.3 -  RELEASE  -
|  1> ! PBEh-3c def2/J TightSCF DefGrid3
|  2>
|  3> %maxcore 60000
|  4>
|  5> %pal
|  6> nprocs 4
|  7> end
|  8>
|  9> *xyzfile 0 1 35B.xyz
| 10>
| 11>                          ****END OF INPUT****

CARTESIAN COORDINATES (ANGSTROEM)
---------------------------------
  C      0.000000    0.000000    0.000000
  C      0.881774    0.881774    0.881774
  H      1.521898    1.521898    0.274781
  H      0.274781    1.521898    1.521898
  H      1.521898    0.274781    1.521898
  C     -0.881774    0.881774   -0.881774
  H     -1.521898    0.274781   -1.521898
  H     -1.521898    1.521898   -0.274781
  H     -0.274781    1.521898   -1.521898
  C     -0.881774   -0.881774    0.881774
  H     -1.521898   -1.521898    0.274781
  H     -1.521898   -0.274781    1.521898
  H     -0.274781   -1.521898    1.521898
  C      0.881774   -0.881774   -0.881774
  H      1.521898   -1.521898   -0.274781
  H      0.274781   -1.521898   -1.521898
  H      1.521898   -0.274781   -1.521898

 Total Charge           Charge          ....    0
 Multiplicity           Mult            ....    1
 Number of Electrons    NEL             ....   42
 Basis Dimension        Dim             ....   99

ORBITAL ENERGIES
----------------

  NO   OCC          E(Eh)            E(eV)
   0   2.0000     -10.446153      -284.2543
   1   2.0000     -10.416942      -283.4594
   2   2.0000     -10.416942      -283.4594
   3   2.0000     -10.416942      -283.4594
   4   2.0000     -10.416829      -283.4563
   5   2.0000      -0.913693       -24.8629
   6   2.0000      -0.762293       -20.7430
   7   2.0000      -0.762293       -20.7430
   8   2.0000      -0.762293       -20.7430
   9   2.0000      -0.596925       -16.2431
  10   2.0000      -0.505096       -13.7444
  11   2.0000      -0.505096       -13.7444
  12   2.0000      -0.505096       -13.7444
  13   2.0000      -0.452442       -12.3116
  14   2.0000      -0.452442       -12.3116
  15   2.0000      -0.411398       -11.1947
  16   2.0000      -0.411398       -11.1947
  17   2.0000      -0.411398       -11.1947
  18   2.0000      -0.364843        -9.9279
  19   2.0000      -0.364843        -9.9279
  20   2.0000      -0.364843        -9.9279
  21   0.0000       0.118179         3.2158
  22   0.0000       0.187115         5.0917
  23   0.0000       0.187116         5.0917
  24   0.0000       0.187116         5.0917
  25   0.0000       0.219242         5.9659

MULLIKEN ATOMIC CHARGES
-----------------------
   0 C :   -0.111820
   1 C :   -0.605977
   2 H :    0.211311
   3 H :    0.211311
   4 H :    0.211311
   5 C :   -0.605977
   6 H :    0.211311
   7 H :    0.211311
   8 H :    0.211311
   9 C :   -0.605977
  10 H :    0.211311
  11 H :    0.211311
  12 H :    0.211311
  13 C :   -0.605977
  14 H :    0.211311
  15 H :    0.211311
  16 H :    0.211311
Sum of atomic charges:   -0.0000000

LOEWDIN ATOMIC CHARGES
----------------------
   0 C :   -0.116115
   1 C :   -0.343631
   2 H :    0.124220
   3 H :    0.124220
   4 H :    0.124220
   5 C :   -0.343631
   6 H :    0.124220
   7 H :    0.124220
   8 H :    0.124220
   9 C :   -0.343631
  10 H :    0.124220
  11 H :    0.124220
  12 H :    0.124220
  13 C :   -0.343631
  14 H :    0.124220
  15 H :    0.124220
  16 H :    0.124220

  Mayer bond orders larger than 0.100000
B(  0-C ,  1-C ) :   0.9827 B(  0-C ,  5-C ) :   0.9827 B(  0-C ,  9-C ) :   0.9827
B(  0-C , 13-C ) :   0.9827 B(  1-C ,  2-H ) :   0.9304 B(  1-C ,  3-H ) :   0.9304
B(  1-C ,  4-H ) :   0.9304 B(  5-C ,  6-H ) :   0.9304 B(  5-C ,  7-H ) :   0.9304
B(  5-C ,  8-H ) :   0.9304 B(  9-C , 10-H ) :   0.9304 B(  9-C , 11-H ) :   0.9304
B(  9-C , 12-H ) :   0.9304 B( 13-C , 14-H ) :   0.9304 B( 13-C , 15-H ) :   0.9304
B( 13-C , 16-H ) :   0.9304

Dispersion correction           -0.007724716
FINAL SINGLE POINT ENERGY      -197.340832647430

DIPOLE MOMENT
-------------
                                X             Y             Z
Electronic contribution:      0.00000      -0.00000       0.00000
Nuclear contribution   :      0.00000      -0.00000       0.00000
                        -----------------------------------------
Total Dipole Moment    :      0.00000      -0.00000       0.00000
                        -----------------------------------------
Magnitude (a.u.)       :      0.00000
Magnitude (Debye)      :      0.00000

Rotational constants in cm-1:     0.149613     0.149613     0.149613
Rotational constants in MHz :  4485.288731  4485.288731  4485.288731

                             ****ORCA TERMINATED NORMALLY****
TOTAL RUN TIME: 0 days 0 hours 1 minutes 10 seconds 385 msec
