                         Program Version 5.0.3 -  RELEASE  -
|  1> ! PBEh-3c def2/J TightSCF DefGrid3
|  2>
|  3> %maxcore 60000
|  4>
|  5> %pal
|  6> nprocs 4
|  7> end
|  8>
|  9> *xyzfile 0 1 reac9.xyz
| 10>
| 11>                          ****END OF INPUT****

CARTESIAN COORDINATES (ANGSTROEM)
---------------------------------
  C      0.000000    0.759038    0.000000
  H     -0.781174    1.509717    0.000000
  C      1.280382    1.112661    0.000000
  H      2.084515    0.388850    0.000000
  H      1.555670    2.157995    0.000000
  H      0.468551   -1.541748    0.000000
  S     -0.688116   -0.859063    0.000000

 Total Charge           Charge          ....    0
 Multiplicity           Mult            ....    1
 Number of Electrons    NEL             ....   32
 Basis Dimension        Dim             ....   56

ORBITAL ENERGIES
----------------

  NO   OCC          E(Eh)            E(eV)
   0   2.0000     -89.594152     -2437.9808
   1   2.0000     -10.484432      -285.2959
   2   2.0000     -10.443484      -284.1817
   3   2.0000      -8.235865      -224.1093
   4   2.0000      -6.126922      -166.7220
   5   2.0000      -6.123314      -166.6239
   6   2.0000      -6.118349      -166.4887
   7   2.0000      -0.904463       -24.6117
   8   2.0000      -0.795449       -21.6453
   9   2.0000      -0.649934       -17.6856
  10   2.0000      -0.529855       -14.4181
  11   2.0000      -0.510937       -13.9033
  12   2.0000      -0.430947       -11.7267
  13   2.0000      -0.393938       -10.7196
  14   2.0000      -0.379446       -10.3252
  15   2.0000      -0.268184        -7.2976
  16   0.0000       0.034947         0.9509
  17   0.0000       0.064022         1.7421
  18   0.0000       0.125750         3.4218
  19   0.0000       0.162237         4.4147
  20   0.0000       0.191203         5.2029

MULLIKEN ATOMIC CHARGES
-----------------------
   0 C :   -0.312173
   1 H :    0.256286
   2 C :   -0.453885
   3 H :    0.213592
   4 H :    0.227559
   5 H :    0.185261
   6 S :   -0.116640
Sum of atomic charges:    0.0000000

LOEWDIN ATOMIC CHARGES
----------------------
   0 C :   -0.268123
   1 H :    0.144373
   2 C :   -0.310945
   3 H :    0.130529
   4 H :    0.141072
   5 H :    0.105064
   6 S :    0.058031

  Mayer bond orders larger than 0.100000
B(  0-C ,  1-H ) :   0.8994 B(  0-C ,  2-C ) :   1.8639 B(  0-C ,  6-S ) :   1.0928
B(  2-C ,  3-H ) :   0.9330 B(  2-C ,  4-H ) :   0.9233 B(  5-H ,  6-S ) :   0.9241

Dispersion correction           -0.002409200
FINAL SINGLE POINT ENERGY      -476.148311645535

DIPOLE MOMENT
-------------
                                X             Y             Z
Electronic contribution:     -2.96080      -2.42566      -0.00000
Nuclear contribution   :      3.34792       2.54066       0.00000
                        -----------------------------------------
Total Dipole Moment    :      0.38712       0.11499      -0.00000
                        -----------------------------------------
Magnitude (a.u.)       :      0.40384
Magnitude (Debye)      :      1.02648

Rotational constants in cm-1:     1.703691     0.193030     0.173385
Rotational constants in MHz : 51075.365728  5786.901974  5197.966010

                             ****ORCA TERMINATED NORMALLY****
TOTAL RUN TIME: 0 days 0 hours 0 minutes 37 seconds 194 msec
