                         Program Version 5.0.3 -  RELEASE  -
|  1> ! PBEh-3c def2/J TightSCF DefGrid3
|  2>
|  3> %maxcore 60000
|  4>
|  5> %pal
|  6> nprocs 4
|  7> end
|  8>
|  9> *xyzfile 0 1 AD2.xyz
| 10>
| 11>                          ****END OF INPUT****

CARTESIAN COORDINATES (ANGSTROEM)
---------------------------------
  C      0.684160    0.337751   -1.911482
  C     -0.684160   -0.337751   -1.911482
  H      1.489645   -0.401434   -1.911482
  H      0.812773    0.969660   -2.794292
  H      0.812773    0.969660   -1.028673
  H     -1.489645    0.401434   -1.911482
  H     -0.812773   -0.969660   -2.794292
  H     -0.812773   -0.969660   -1.028673
  C      0.684160   -0.337751    1.911482
  C     -0.684160    0.337751    1.911482
  H      1.489645    0.401434    1.911482
  H      0.812773   -0.969660    2.794292
  H      0.812773   -0.969660    1.028673
  H     -1.489645   -0.401434    1.911482
  H     -0.812773    0.969660    2.794292
  H     -0.812773    0.969660    1.028673

 Total Charge           Charge          ....    0
 Multiplicity           Mult            ....    1
 Number of Electrons    NEL             ....   36
 Basis Dimension        Dim             ....   84

ORBITAL ENERGIES
----------------

  NO   OCC          E(Eh)            E(eV)
   0   2.0000     -10.422867      -283.6206
   1   2.0000     -10.422866      -283.6206
   2   2.0000     -10.422664      -283.6151
   3   2.0000     -10.422655      -283.6149
   4   2.0000      -0.840428       -22.8692
   5   2.0000      -0.836337       -22.7579
   6   2.0000      -0.689435       -18.7605
   7   2.0000      -0.687502       -18.7079
   8   2.0000      -0.501037       -13.6339
   9   2.0000      -0.493295       -13.4232
  10   2.0000      -0.489112       -13.3094
  11   2.0000      -0.480964       -13.0877
  12   2.0000      -0.418713       -11.3938
  13   2.0000      -0.417211       -11.3529
  14   2.0000      -0.392458       -10.6793
  15   2.0000      -0.391576       -10.6553
  16   2.0000      -0.391453       -10.6520
  17   2.0000      -0.390382       -10.6228
  18   0.0000       0.113327         3.0838
  19   0.0000       0.174457         4.7472
  20   0.0000       0.178335         4.8527
  21   0.0000       0.187005         5.0887
  22   0.0000       0.211076         5.7437

MULLIKEN ATOMIC CHARGES
-----------------------
   0 C :   -0.642381
   1 C :   -0.642381
   2 H :    0.211755
   3 H :    0.214534
   4 H :    0.216092
   5 H :    0.211755
   6 H :    0.214534
   7 H :    0.216092
   8 C :   -0.642381
   9 C :   -0.642381
  10 H :    0.211755
  11 H :    0.214534
  12 H :    0.216092
  13 H :    0.211755
  14 H :    0.214534
  15 H :    0.216092
Sum of atomic charges:   -0.0000000

LOEWDIN ATOMIC CHARGES
----------------------
   0 C :   -0.371109
   1 C :   -0.371109
   2 H :    0.123722
   3 H :    0.123884
   4 H :    0.123503
   5 H :    0.123722
   6 H :    0.123884
   7 H :    0.123503
   8 C :   -0.371109
   9 C :   -0.371109
  10 H :    0.123722
  11 H :    0.123884
  12 H :    0.123503
  13 H :    0.123722
  14 H :    0.123884
  15 H :    0.123503

  Mayer bond orders larger than 0.100000
B(  0-C ,  1-C ) :   0.9942 B(  0-C ,  2-H ) :   0.9315 B(  0-C ,  3-H ) :   0.9301
B(  0-C ,  4-H ) :   0.9264 B(  1-C ,  5-H ) :   0.9315 B(  1-C ,  6-H ) :   0.9301
B(  1-C ,  7-H ) :   0.9264 B(  8-C ,  9-C ) :   0.9942 B(  8-C , 10-H ) :   0.9315
B(  8-C , 11-H ) :   0.9301 B(  8-C , 12-H ) :   0.9264 B(  9-C , 13-H ) :   0.9315
B(  9-C , 14-H ) :   0.9301 B(  9-C , 15-H ) :   0.9264

Dispersion correction           -0.005175231
FINAL SINGLE POINT ENERGY      -159.303769658037

DIPOLE MOMENT
-------------
                                X             Y             Z
Electronic contribution:     -0.00000      -0.00000      -0.00000
Nuclear contribution   :      0.00000       0.00000      -0.00000
                        -----------------------------------------
Total Dipole Moment    :     -0.00000      -0.00000      -0.00000
                        -----------------------------------------
Magnitude (a.u.)       :      0.00000
Magnitude (Debye)      :      0.00000

Rotational constants in cm-1:     0.333980     0.070318     0.064150
Rotational constants in MHz : 10012.474307  2108.078473  1923.169982

                             ****ORCA TERMINATED NORMALLY****
TOTAL RUN TIME: 0 days 0 hours 1 minutes 12 seconds 325 msec
