                         Program Version 5.0.3 -  RELEASE  -
|  1> ! PBEh-3c def2/J TightSCF DefGrid3
|  2>
|  3> %maxcore 60000
|  4>
|  5> %pal
|  6> nprocs 4
|  7> end
|  8>
|  9> *xyzfile 0 1 B63.xyz
| 10>
| 11>                          ****END OF INPUT****

CARTESIAN COORDINATES (ANGSTROEM)
---------------------------------
  C     -1.968987    0.087575    0.178775
  H     -2.896873    0.294017   -0.352941
  O     -1.673457   -1.284698   -0.080468
  C     -0.879669    1.047371   -0.288221
  H     -0.792514    0.986816   -1.375965
  H     -1.219403    2.059534   -0.056357
  C      0.489114    0.795582    0.360951
  H      0.364817    0.375939    1.363487
  H      1.031553    1.733089    0.486394
  H     -1.046796   -1.576096    0.586499
  H     -2.157679    0.240012    1.246214
  C      1.365615   -0.139737   -0.455984
  H      0.843718   -1.078207   -0.655796
  H      1.585570    0.328670   -1.421174
  O      2.563276   -0.362583    0.286179
  H      3.132613   -0.930276   -0.239175

 Total Charge           Charge          ....    0
 Multiplicity           Mult            ....    1
 Number of Electrons    NEL             ....   50
 Basis Dimension        Dim             ....  110

ORBITAL ENERGIES
----------------

  NO   OCC          E(Eh)            E(eV)
   0   2.0000     -19.486079      -530.2432
   1   2.0000     -19.483834      -530.1821
   2   2.0000     -10.481020      -285.2031
   3   2.0000     -10.479344      -285.1574
   4   2.0000     -10.435110      -283.9538
   5   2.0000     -10.433980      -283.9230
   6   2.0000      -1.122088       -30.5336
   7   2.0000      -1.119712       -30.4689
   8   2.0000      -0.882714       -24.0199
   9   2.0000      -0.799256       -21.7489
  10   2.0000      -0.706202       -19.2167
  11   2.0000      -0.653334       -17.7781
  12   2.0000      -0.577821       -15.7233
  13   2.0000      -0.570604       -15.5269
  14   2.0000      -0.539804       -14.6888
  15   2.0000      -0.498886       -13.5754
  16   2.0000      -0.486636       -13.2420
  17   2.0000      -0.465876       -12.6771
  18   2.0000      -0.427158       -11.6236
  19   2.0000      -0.414335       -11.2746
  20   2.0000      -0.402195       -10.9443
  21   2.0000      -0.378028       -10.2867
  22   2.0000      -0.371223       -10.1015
  23   2.0000      -0.330884        -9.0038
  24   2.0000      -0.317201        -8.6315
  25   0.0000       0.112044         3.0489
  26   0.0000       0.127683         3.4744
  27   0.0000       0.167366         4.5543
  28   0.0000       0.180622         4.9150
  29   0.0000       0.185330         5.0431

MULLIKEN ATOMIC CHARGES
-----------------------
   0 C :   -0.165571
   1 H :    0.217442
   2 O :   -0.626892
   3 C :   -0.454701
   4 H :    0.221137
   5 H :    0.218461
   6 C :   -0.465377
   7 H :    0.211620
   8 H :    0.238188
   9 H :    0.418149
  10 H :    0.182316
  11 C :   -0.144474
  12 H :    0.185838
  13 H :    0.180009
  14 O :   -0.631843
  15 H :    0.415699
Sum of atomic charges:    0.0000000

LOEWDIN ATOMIC CHARGES
----------------------
   0 C :   -0.094392
   1 H :    0.120066
   2 O :   -0.415006
   3 C :   -0.264347
   4 H :    0.127489
   5 H :    0.129907
   6 C :   -0.256242
   7 H :    0.122577
   8 H :    0.134228
   9 H :    0.308195
  10 H :    0.099037
  11 C :   -0.096695
  12 H :    0.099089
  13 H :    0.097562
  14 O :   -0.419741
  15 H :    0.308275

  Mayer bond orders larger than 0.100000
B(  0-C ,  1-H ) :   0.9198 B(  0-C ,  2-O ) :   1.0205 B(  0-C ,  3-C ) :   0.9635
B(  0-C , 10-H ) :   0.9157 B(  2-O ,  9-H ) :   0.7870 B(  3-C ,  4-H ) :   0.9163
B(  3-C ,  5-H ) :   0.9189 B(  3-C ,  6-C ) :   0.9380 B(  6-C ,  7-H ) :   0.9189
B(  6-C ,  8-H ) :   0.9190 B(  6-C , 11-C ) :   0.9857 B( 11-C , 12-H ) :   0.8961
B( 11-C , 13-H ) :   0.9050 B( 11-C , 14-O ) :   1.0147 B( 14-O , 15-H ) :   0.7937

Dispersion correction           -0.006680973
FINAL SINGLE POINT ENERGY      -308.204189697418

DIPOLE MOMENT
-------------
                                X             Y             Z
Electronic contribution:      1.36961      -2.37946       0.33155
Nuclear contribution   :     -1.18884       2.50855      -0.43301
                        -----------------------------------------
Total Dipole Moment    :      0.18077       0.12910      -0.10146
                        -----------------------------------------
Magnitude (a.u.)       :      0.24421
Magnitude (Debye)      :      0.62072

Rotational constants in cm-1:     0.215917     0.060788     0.051931
Rotational constants in MHz :  6473.041472  1822.370162  1556.849438

                             ****ORCA TERMINATED NORMALLY****
TOTAL RUN TIME: 0 days 0 hours 1 minutes 38 seconds 119 msec
