                         Program Version 5.0.3 -  RELEASE  -
|  1> ! PBEh-3c def2/J TightSCF DefGrid3
|  2>
|  3> %maxcore 60000
|  4>
|  5> %pal
|  6> nprocs 4
|  7> end
|  8>
|  9> *xyzfile -1 1 OHmH2O2.xyz
| 10>
| 11>                          ****END OF INPUT****

CARTESIAN COORDINATES (ANGSTROEM)
---------------------------------
  H     -1.457959    0.004084    0.024459
  O     -2.429120    0.073305   -0.326315
  H      0.000000    0.000000    1.481368
  H     -2.456499    0.956744   -0.699417
  O      0.000000    0.000000    0.521177
  H      1.457959   -0.004084    0.024459
  O      2.429120   -0.073305   -0.326315
  H      2.456499   -0.956744   -0.699417

 Total Charge           Charge          ....   -1
 Multiplicity           Mult            ....    1
 Number of Electrons    NEL             ....   30
 Basis Dimension        Dim             ....   55

ORBITAL ENERGIES
----------------

  NO   OCC          E(Eh)            E(eV)
   0   2.0000     -19.230658      -523.2928
   1   2.0000     -19.230631      -523.2921
   2   2.0000     -19.168486      -521.6010
   3   2.0000      -0.853099       -23.2140
   4   2.0000      -0.850457       -23.1421
   5   2.0000      -0.753145       -20.4941
   6   2.0000      -0.338472        -9.2103
   7   2.0000      -0.328066        -8.9271
   8   2.0000      -0.230854        -6.2818
   9   2.0000      -0.218228        -5.9383
  10   2.0000      -0.176148        -4.7932
  11   2.0000      -0.123628        -3.3641
  12   2.0000      -0.122441        -3.3318
  13   2.0000      -0.060355        -1.6423
  14   2.0000      -0.057147        -1.5551
  15   0.0000       0.339854         9.2479
  16   0.0000       0.353894         9.6299
  17   0.0000       0.395718        10.7680
  18   0.0000       0.552655        15.0385
  19   0.0000       0.608626        16.5616

MULLIKEN ATOMIC CHARGES
-----------------------
   0 H :    0.426034
   1 O :   -0.938098
   2 H :    0.311819
   3 H :    0.344820
   4 O :   -0.977330
   5 H :    0.426034
   6 O :   -0.938098
   7 H :    0.344820
Sum of atomic charges:   -1.0000000

LOEWDIN ATOMIC CHARGES
----------------------
   0 H :    0.295431
   1 O :   -0.728569
   2 H :    0.222772
   3 H :    0.256156
   4 O :   -0.868808
   5 H :    0.295431
   6 O :   -0.728569
   7 H :    0.256156

  Mayer bond orders larger than 0.100000
B(  0-H ,  1-O ) :   0.5819 B(  0-H ,  4-O ) :   0.2781 B(  1-O ,  3-H ) :   0.8577
B(  2-H ,  4-O ) :   0.8628 B(  4-O ,  5-H ) :   0.2781 B(  5-H ,  6-O ) :   0.5819
B(  6-O ,  7-H ) :   0.8577

Dispersion correction           -0.001420757
FINAL SINGLE POINT ENERGY      -228.197237434203

DIPOLE MOMENT
-------------
                                X             Y             Z
Electronic contribution:      0.00000       0.00000      -0.26813
Nuclear contribution   :      0.00000       0.00000       0.29732
                        -----------------------------------------
Total Dipole Moment    :      0.00000       0.00000       0.02919
                        -----------------------------------------
Magnitude (a.u.)       :      0.02919
Magnitude (Debye)      :      0.07420

Rotational constants in cm-1:     1.363800     0.081329     0.077802
Rotational constants in MHz : 40885.691718  2438.193599  2332.445531

                             ****ORCA TERMINATED NORMALLY****
TOTAL RUN TIME: 0 days 0 hours 1 minutes 0 seconds 574 msec
