                         Program Version 5.0.3 -  RELEASE  -
|  1> ! PBEh-3c def2/J TightSCF DefGrid3
|  2>
|  3> %maxcore 60000
|  4>
|  5> %pal
|  6> nprocs 4
|  7> end
|  8>
|  9> *xyzfile 0 1 PHE_xab.xyz
| 10>
| 11>                          ****END OF INPUT****

CARTESIAN COORDINATES (ANGSTROEM)
---------------------------------
  N      0.533593    0.764000   -0.228216
  C      0.814388   -0.636601    0.049049
  C      2.272139   -0.969390   -0.300381
  O      2.574203   -1.636760   -1.284278
  C     -0.144263   -1.522040   -0.739432
  C     -1.573753   -1.129626   -0.501307
  C     -2.316165   -0.490221   -1.497523
  C     -2.175943   -1.348159    0.741995
  C     -3.625777   -0.073211   -1.261213
  C     -3.482927   -0.935719    0.984156
  C     -4.210741   -0.292864   -0.016985
  H     -0.042698    0.982558   -1.024164
  H      0.670243   -0.777889    1.122484
  H      0.036239   -2.555866   -0.444911
  H      0.110262   -1.454233   -1.797288
  H     -1.869510   -0.335750   -2.473114
  H     -1.617145   -1.848682    1.523776
  H     -4.186453    0.415509   -2.046540
  H     -3.934112   -1.116324    1.950409
  H     -5.226418    0.027085    0.170358
  N      3.158462   -0.455280    0.579949
  H      2.790291    0.198014    1.262487
  C      4.583214   -0.558121    0.352195
  H      5.103746   -0.580995    1.305607
  H      4.777870   -1.478392   -0.189827
  H      4.963267    0.275290   -0.239617
  C      0.785193    1.738666    0.677998
  O      1.406841    1.523295    1.719620
  C      0.254777    3.106677    0.335613
  H     -0.471622    3.390474    1.093947
  H     -0.215268    3.150742   -0.643554
  H      1.074123    3.819749    0.377761

 Total Charge           Charge          ....    0
 Multiplicity           Mult            ....    1
 Number of Electrons    NEL             ....  118
 Basis Dimension        Dim             ....  272

ORBITAL ENERGIES
----------------

  NO   OCC          E(Eh)            E(eV)
   0   2.0000     -19.470277      -529.8132
   1   2.0000     -19.452109      -529.3188
   2   2.0000     -14.675856      -399.3503
   3   2.0000     -14.646305      -398.5462
   4   2.0000     -10.561421      -287.3909
   5   2.0000     -10.537110      -286.7293
   6   2.0000     -10.493972      -285.5555
   7   2.0000     -10.466610      -284.8109
   8   2.0000     -10.458100      -284.5794
   9   2.0000     -10.457237      -284.5559
  10   2.0000     -10.456772      -284.5432
  11   2.0000     -10.456767      -284.5431
  12   2.0000     -10.455140      -284.4988
  13   2.0000     -10.454792      -284.4894
  14   2.0000     -10.451072      -284.3881
  15   2.0000     -10.450174      -284.3637
  16   2.0000      -1.156091       -31.4588
  17   2.0000      -1.133882       -30.8545
  18   2.0000      -1.039970       -28.2990
  19   2.0000      -1.009861       -27.4797
  20   2.0000      -0.966506       -26.3000
  21   2.0000      -0.896338       -24.3906
  22   2.0000      -0.851655       -23.1747
  23   2.0000      -0.844785       -22.9878
  24   2.0000      -0.817214       -22.2375
  25   2.0000      -0.787823       -21.4378
  26   2.0000      -0.728081       -19.8121
  27   2.0000      -0.694504       -18.8984
  28   2.0000      -0.673182       -18.3182
  29   2.0000      -0.665386       -18.1061
  30   2.0000      -0.639935       -17.4135
  31   2.0000      -0.603184       -16.4135
  32   2.0000      -0.582865       -15.8606
  33   2.0000      -0.570944       -15.5362
  34   2.0000      -0.559949       -15.2370
  35   2.0000      -0.530278       -14.4296
  36   2.0000      -0.527980       -14.3671
  37   2.0000      -0.516279       -14.0487
  38   2.0000      -0.511506       -13.9188
  39   2.0000      -0.500364       -13.6156
  40   2.0000      -0.489772       -13.3274
  41   2.0000      -0.484108       -13.1732
  42   2.0000      -0.478632       -13.0242
  43   2.0000      -0.475221       -12.9314
  44   2.0000      -0.462392       -12.5823
  45   2.0000      -0.451826       -12.2948
  46   2.0000      -0.440609       -11.9896
  47   2.0000      -0.433493       -11.7959
  48   2.0000      -0.419772       -11.4226
  49   2.0000      -0.416969       -11.3463
  50   2.0000      -0.415062       -11.2944
  51   2.0000      -0.399249       -10.8641
  52   2.0000      -0.398319       -10.8388
  53   2.0000      -0.336587        -9.1590
  54   2.0000      -0.323764        -8.8101
  55   2.0000      -0.302738        -8.2379
  56   2.0000      -0.295722        -8.0470
  57   2.0000      -0.294393        -8.0108
  58   2.0000      -0.286994        -7.8095
  59   0.0000       0.005057         0.1376
  60   0.0000       0.009825         0.2673
  61   0.0000       0.044873         1.2211
  62   0.0000       0.066079         1.7981
  63   0.0000       0.119411         3.2493

MULLIKEN ATOMIC CHARGES
-----------------------
   0 N :   -0.616783
   1 C :   -0.211047
   2 C :    0.580884
   3 O :   -0.439859
   4 C :   -0.549648
   5 C :    0.162886
   6 C :   -0.316670
   7 C :   -0.268569
   8 C :   -0.204961
   9 C :   -0.202859
  10 C :   -0.236623
  11 H :    0.373096
  12 H :    0.268594
  13 H :    0.265923
  14 H :    0.264328
  15 H :    0.218386
  16 H :    0.216621
  17 H :    0.221806
  18 H :    0.223664
  19 H :    0.222721
  20 N :   -0.654983
  21 H :    0.405611
  22 C :   -0.492876
  23 H :    0.220067
  24 H :    0.252760
  25 H :    0.218175
  26 C :    0.545874
  27 O :   -0.466055
  28 C :   -0.743170
  29 H :    0.263996
  30 H :    0.218718
  31 H :    0.259991
Sum of atomic charges:    0.0000000

LOEWDIN ATOMIC CHARGES
----------------------
   0 N :   -0.209094
   1 C :   -0.088396
   2 C :    0.103272
   3 O :   -0.281934
   4 C :   -0.222488
   5 C :   -0.049649
   6 C :   -0.153420
   7 C :   -0.130340
   8 C :   -0.131039
   9 C :   -0.126319
  10 C :   -0.139339
  11 H :    0.262438
  12 H :    0.144839
  13 H :    0.154522
  14 H :    0.148960
  15 H :    0.133292
  16 H :    0.136542
  17 H :    0.137346
  18 H :    0.138331
  19 H :    0.137231
  20 N :   -0.248814
  21 H :    0.267402
  22 C :   -0.254862
  23 H :    0.125182
  24 H :    0.145604
  25 H :    0.119449
  26 C :    0.117119
  27 O :   -0.302881
  28 C :   -0.382557
  29 H :    0.161099
  30 H :    0.130730
  31 H :    0.157774

  Mayer bond orders larger than 0.100000
B(  0-N ,  1-C ) :   0.9121 B(  0-N , 11-H ) :   0.8086 B(  0-N , 26-C ) :   1.1796
B(  1-C ,  2-C ) :   0.8772 B(  1-C ,  4-C ) :   0.9569 B(  1-C , 12-H ) :   0.8786
B(  2-C ,  3-O ) :   1.9490 B(  2-C , 20-N ) :   1.1886 B(  3-O , 20-N ) :   0.1044
B(  4-C ,  5-C ) :   0.9303 B(  4-C , 13-H ) :   0.9099 B(  4-C , 14-H ) :   0.9035
B(  5-C ,  6-C ) :   1.4087 B(  5-C ,  7-C ) :   1.3745 B(  6-C ,  8-C ) :   1.4192
B(  6-C , 15-H ) :   0.9187 B(  7-C ,  9-C ) :   1.4404 B(  7-C , 16-H ) :   0.9230
B(  8-C , 10-C ) :   1.4334 B(  8-C , 17-H ) :   0.9190 B(  9-C , 10-C ) :   1.4131
B(  9-C , 18-H ) :   0.9186 B( 10-C , 19-H ) :   0.9184 B( 20-N , 21-H ) :   0.7342
B( 20-N , 22-C ) :   0.9622 B( 22-C , 23-H ) :   0.9253 B( 22-C , 24-H ) :   0.9080
B( 22-C , 25-H ) :   0.9189 B( 26-C , 27-O ) :   1.8764 B( 26-C , 28-C ) :   0.9348
B( 28-C , 29-H ) :   0.9057 B( 28-C , 30-H ) :   0.9208 B( 28-C , 31-H ) :   0.9082

Dispersion correction           -0.020937986
FINAL SINGLE POINT ENERGY      -725.332958941088

DIPOLE MOMENT
-------------
                                X             Y             Z
Electronic contribution:     -2.04961      -3.28051      -0.12103
Nuclear contribution   :      1.13825       4.21688       0.11547
                        -----------------------------------------
Total Dipole Moment    :     -0.91136       0.93637      -0.00556
                        -----------------------------------------
Magnitude (a.u.)       :      1.30668
Magnitude (Debye)      :      3.32131

Rotational constants in cm-1:     0.029407     0.010655     0.009021
Rotational constants in MHz :   881.601521   319.431334   270.446611

                             ****ORCA TERMINATED NORMALLY****
TOTAL RUN TIME: 0 days 0 hours 3 minutes 57 seconds 470 msec
