                         Program Version 5.0.3 -  RELEASE  -
|  1> ! PBEh-3c def2/J TightSCF DefGrid3
|  2>
|  3> %maxcore 60000
|  4>
|  5> %pal
|  6> nprocs 4
|  7> end
|  8>
|  9> *xyzfile 0 1 malein.xyz
| 10>
| 11>                          ****END OF INPUT****

CARTESIAN COORDINATES (ANGSTROEM)
---------------------------------
  C      1.120826    0.000000    0.624330
  C      0.663440    0.000000   -0.786685
  C     -0.663440    0.000000   -0.786685
  C     -1.120826    0.000000    0.624330
  O      0.000000    0.000000    1.427414
  O      2.223123    0.000000    1.063656
  O     -2.223123    0.000000    1.063656
  H      1.356271    0.000000   -1.615008
  H     -1.356271    0.000000   -1.615008

 Total Charge           Charge          ....    0
 Multiplicity           Mult            ....    1
 Number of Electrons    NEL             ....   50
 Basis Dimension        Dim             ....  109

ORBITAL ENERGIES
----------------

  NO   OCC          E(Eh)            E(eV)
   0   2.0000     -19.583294      -532.8885
   1   2.0000     -19.530697      -531.4573
   2   2.0000     -19.530683      -531.4569
   3   2.0000     -10.619692      -288.9765
   4   2.0000     -10.619654      -288.9755
   5   2.0000     -10.518080      -286.2115
   6   2.0000     -10.517092      -286.1846
   7   2.0000      -1.283205       -34.9178
   8   2.0000      -1.212120       -32.9835
   9   2.0000      -1.171285       -31.8723
  10   2.0000      -0.963086       -26.2069
  11   2.0000      -0.799095       -21.7445
  12   2.0000      -0.728844       -19.8329
  13   2.0000      -0.688207       -18.7271
  14   2.0000      -0.599766       -16.3205
  15   2.0000      -0.586611       -15.9625
  16   2.0000      -0.560881       -15.2624
  17   2.0000      -0.545859       -14.8536
  18   2.0000      -0.521961       -14.2033
  19   2.0000      -0.493623       -13.4322
  20   2.0000      -0.491902       -13.3853
  21   2.0000      -0.409772       -11.1505
  22   2.0000      -0.393899       -10.7185
  23   2.0000      -0.383485       -10.4352
  24   2.0000      -0.363787        -9.8991
  25   0.0000      -0.095452        -2.5974
  26   0.0000       0.062356         1.6968
  27   0.0000       0.087927         2.3926
  28   0.0000       0.141373         3.8470
  29   0.0000       0.179999         4.8980

MULLIKEN ATOMIC CHARGES
-----------------------
   0 C :    0.552059
   1 C :   -0.305703
   2 C :   -0.305703
   3 C :    0.552058
   4 O :   -0.445119
   5 O :   -0.302053
   6 O :   -0.302053
   7 H :    0.278257
   8 H :    0.278258
Sum of atomic charges:    0.0000000

LOEWDIN ATOMIC CHARGES
----------------------
   0 C :    0.157382
   1 C :   -0.130425
   2 C :   -0.130425
   3 C :    0.157382
   4 O :   -0.131359
   5 O :   -0.127966
   6 O :   -0.127966
   7 H :    0.166688
   8 H :    0.166688

  Mayer bond orders larger than 0.100000
B(  0-C ,  1-C ) :   0.9950 B(  0-C ,  4-O ) :   1.0061 B(  0-C ,  5-O ) :   2.1325
B(  1-C ,  2-C ) :   1.7425 B(  1-C ,  7-H ) :   0.9046 B(  2-C ,  3-C ) :   0.9950
B(  2-C ,  8-H ) :   0.9046 B(  3-C ,  4-O ) :   1.0061 B(  3-C ,  6-O ) :   2.1325

Dispersion correction           -0.003984441
FINAL SINGLE POINT ENERGY      -378.492230862736

DIPOLE MOMENT
-------------
                                X             Y             Z
Electronic contribution:     -0.00000      -0.00000       2.29505
Nuclear contribution   :      0.00000       0.00000      -3.95158
                        -----------------------------------------
Total Dipole Moment    :     -0.00000      -0.00000      -1.65653
                        -----------------------------------------
Magnitude (a.u.)       :      1.65653
Magnitude (Debye)      :      4.21057

Rotational constants in cm-1:     0.230670     0.083206     0.061149
Rotational constants in MHz :  6915.319634  2494.439852  1833.187013

                             ****ORCA TERMINATED NORMALLY****
TOTAL RUN TIME: 0 days 0 hours 0 minutes 47 seconds 799 msec
