                         Program Version 5.0.3 -  RELEASE  -
|  1> ! PBEh-3c def2/J TightSCF DefGrid3
|  2>
|  3> %maxcore 60000
|  4>
|  5> %pal
|  6> nprocs 4
|  7> end
|  8>
|  9> *xyzfile 0 1 MeI.xyz
| 10>
| 11>                          ****END OF INPUT****

CARTESIAN COORDINATES (ANGSTROEM)
---------------------------------
  I      0.000000    0.000000    0.325262
  C      0.000000    0.000000   -1.803245
  H      0.000000    1.030196   -2.139797
  H     -0.892176   -0.515098   -2.139797
  H      0.892176   -0.515098   -2.139797

 Total Charge           Charge          ....    0
 Multiplicity           Mult            ....    1
 Number of Electrons    NEL             ....   34
 Basis Dimension        Dim             ....   47

ORBITAL ENERGIES
----------------

  NO   OCC          E(Eh)            E(eV)
   0   2.0000     -10.487459      -285.3783
   1   2.0000      -7.087583      -192.8629
   2   2.0000      -5.070878      -137.9856
   3   2.0000      -5.054509      -137.5402
   4   2.0000      -5.054509      -137.5402
   5   2.0000      -2.024775       -55.0969
   6   2.0000      -2.019605       -54.9563
   7   2.0000      -2.019605       -54.9562
   8   2.0000      -2.005351       -54.5684
   9   2.0000      -2.005347       -54.5683
  10   2.0000      -0.841891       -22.9090
  11   2.0000      -0.714278       -19.4365
  12   2.0000      -0.501478       -13.6459
  13   2.0000      -0.501478       -13.6459
  14   2.0000      -0.406349       -11.0573
  15   2.0000      -0.298449        -8.1212
  16   2.0000      -0.298449        -8.1212
  17   0.0000      -0.000377        -0.0103
  18   0.0000       0.155002         4.2178
  19   0.0000       0.181643         4.9427
  20   0.0000       0.181644         4.9428
  21   0.0000       0.328090         8.9278

MULLIKEN ATOMIC CHARGES
-----------------------
   0 I :    0.000922
   1 C :   -0.812844
   2 H :    0.270641
   3 H :    0.270641
   4 H :    0.270641
Sum of atomic charges:   -0.0000000

LOEWDIN ATOMIC CHARGES
----------------------
   0 I :    0.041406
   1 C :   -0.484538
   2 H :    0.147710
   3 H :    0.147710
   4 H :    0.147710

  Mayer bond orders larger than 0.100000
B(  0-I ,  1-C ) :   1.0200 B(  1-C ,  2-H ) :   0.8949 B(  1-C ,  3-H ) :   0.8949
B(  1-C ,  4-H ) :   0.8949

Dispersion correction           -0.001319660
FINAL SINGLE POINT ENERGY      -337.561672720895

DIPOLE MOMENT
-------------
                                X             Y             Z
Electronic contribution:      0.00000       0.00001      22.48484
Nuclear contribution   :      0.00000      -0.00000     -23.16131
                        -----------------------------------------
Total Dipole Moment    :      0.00000       0.00001      -0.67647
                        -----------------------------------------
Magnitude (a.u.)       :      0.67647
Magnitude (Debye)      :      1.71946

Rotational constants in cm-1:     5.252613     0.252683     0.252683
Rotational constants in MHz : 157469.384511  7575.239265  7575.239244

                             ****ORCA TERMINATED NORMALLY****
TOTAL RUN TIME: 0 days 0 hours 1 minutes 27 seconds 460 msec
