                         Program Version 5.0.3 -  RELEASE  -
|  1> ! PBEh-3c def2/J TightSCF DefGrid3
|  2>
|  3> %maxcore 60000
|  4>
|  5> %pal
|  6> nprocs 4
|  7> end
|  8>
|  9> *xyzfile 0 2 EA_10n.xyz
| 10>
| 11>                          ****END OF INPUT****

CARTESIAN COORDINATES (ANGSTROEM)
---------------------------------
  C      0.000000    0.000000    0.000000
  H     -0.539109    0.933764    0.000000
  H     -0.539109   -0.933764    0.000000
  H      1.078218    0.000000    0.000000

 Total Charge           Charge          ....    0
 Multiplicity           Mult            ....    2
 Number of Electrons    NEL             ....    9
 Basis Dimension        Dim             ....   21

ORBITAL ENERGIES
----------------
                 SPIN UP ORBITALS
  NO   OCC          E(Eh)            E(eV)
   0   1.0000     -10.445517      -284.2370
   1   1.0000      -0.770109       -20.9557
   2   1.0000      -0.477123       -12.9832
   3   1.0000      -0.477123       -12.9832
   4   1.0000      -0.283603        -7.7172
   5   0.0000       0.166012         4.5174
   6   0.0000       0.229446         6.2435
   7   0.0000       0.229446         6.2436
   8   0.0000       0.497878        13.5479
   9   0.0000       0.497890        13.5483

                 SPIN DOWN ORBITALS
  NO   OCC          E(Eh)            E(eV)
   0   1.0000     -10.429420      -283.7989
   1   1.0000      -0.716967       -19.5097
   2   1.0000      -0.465185       -12.6583
   3   1.0000      -0.465185       -12.6583
   4   0.0000      -0.014153        -0.3851
   5   0.0000       0.186474         5.0742
   6   0.0000       0.235946         6.4204
   7   0.0000       0.235946         6.4204
   8   0.0000       0.510121        13.8811

MULLIKEN ATOMIC CHARGES AND SPIN POPULATIONS
--------------------------------------------
   0 C :   -0.661705    1.180426
   1 H :    0.220567   -0.060142
   2 H :    0.220567   -0.060142
   3 H :    0.220570   -0.060142
Sum of atomic charges         :   -0.0000000

LOEWDIN ATOMIC CHARGES AND SPIN POPULATIONS
-------------------------------------------
   0 C :   -0.392426    1.091620
   1 H :    0.130808   -0.030540
   2 H :    0.130808   -0.030540
   3 H :    0.130809   -0.030540

  Mayer bond orders larger than 0.100000
B(  0-C ,  1-H ) :   0.9265 B(  0-C ,  2-H ) :   0.9265 B(  0-C ,  3-H ) :   0.9265

Dispersion correction           -0.000481930
FINAL SINGLE POINT ENERGY       -39.748126811200

DIPOLE MOMENT
-------------
                                X             Y             Z
Electronic contribution:      0.00000       0.00000      -0.00000
Nuclear contribution   :     -0.00000       0.00000       0.00000
                        -----------------------------------------
Total Dipole Moment    :      0.00000       0.00000      -0.00000
                        -----------------------------------------
Magnitude (a.u.)       :      0.00000
Magnitude (Debye)      :      0.00001

Rotational constants in cm-1:     9.590300     9.590299     4.795150
Rotational constants in MHz : 287509.974822 287509.945339 143754.980040

                             ****ORCA TERMINATED NORMALLY****
TOTAL RUN TIME: 0 days 0 hours 1 minutes 8 seconds 423 msec
