                         Program Version 5.0.3 -  RELEASE  -
|  1> ! PBEh-3c def2/J TightSCF DefGrid3
|  2>
|  3> %maxcore 60000
|  4>
|  5> %pal
|  6> nprocs 4
|  7> end
|  8>
|  9> *xyzfile 0 1 09.xyz
| 10>
| 11>                          ****END OF INPUT****

CARTESIAN COORDINATES (ANGSTROEM)
---------------------------------
  H      2.102742    0.908723   -0.274447
  H      0.089450    0.916293   -0.212195
  H     -2.087413   -0.658013    0.050620
  H      1.172906    2.172939    1.383223
  Li    -0.023755   -1.144548    2.373299
  H      1.864223   -0.478910   -2.650735
  C      1.033674   -0.443710   -1.934227
  B      1.088555    0.900107   -1.091710
  H     -3.387248   -0.905279    1.664907
  H      1.083498   -1.353063   -1.322555
  Si     1.075558    0.714888    1.069733
  H      0.108363   -0.493678   -2.521166
  Cl    -1.416466    0.744894    2.171464
  F     -1.460010   -1.978884    1.690051
  H      1.042152    1.979498   -1.604386
  B     -2.286230   -0.881258    1.208125

 Total Charge           Charge          ....    0
 Multiplicity           Mult            ....    1
 Number of Electrons    NEL             ....   68
 Basis Dimension        Dim             ....  123

ORBITAL ENERGIES
----------------

  NO   OCC          E(Eh)            E(eV)
   0   2.0000    -102.292626     -2783.5239
   1   2.0000     -66.773417     -1816.9971
   2   2.0000     -25.094970      -682.8689
   3   2.0000     -10.412159      -283.3292
   4   2.0000      -9.757770      -265.5224
   5   2.0000      -7.441675      -202.4983
   6   2.0000      -7.440043      -202.4539
   7   2.0000      -7.438728      -202.4181
   8   2.0000      -7.000161      -190.4841
   9   2.0000      -6.967721      -189.6013
  10   2.0000      -5.548888      -150.9929
  11   2.0000      -3.841705      -104.5381
  12   2.0000      -3.838922      -104.4624
  13   2.0000      -3.834354      -104.3381
  14   2.0000      -2.136280       -58.1311
  15   2.0000      -1.309574       -35.6353
  16   2.0000      -0.895405       -24.3652
  17   2.0000      -0.784559       -21.3489
  18   2.0000      -0.692319       -18.8390
  19   2.0000      -0.622033       -16.9264
  20   2.0000      -0.534861       -14.5543
  21   2.0000      -0.528146       -14.3716
  22   2.0000      -0.514650       -14.0043
  23   2.0000      -0.492035       -13.3890
  24   2.0000      -0.481043       -13.0898
  25   2.0000      -0.464958       -12.6522
  26   2.0000      -0.426202       -11.5975
  27   2.0000      -0.400003       -10.8846
  28   2.0000      -0.394914       -10.7462
  29   2.0000      -0.385803       -10.4982
  30   2.0000      -0.383761       -10.4427
  31   2.0000      -0.371430       -10.1071
  32   2.0000      -0.343593        -9.3497
  33   2.0000      -0.294011        -8.0005
  34   0.0000      -0.032900        -0.8952
  35   0.0000      -0.013191        -0.3589
  36   0.0000       0.014689         0.3997
  37   0.0000       0.060141         1.6365
  38   0.0000       0.084715         2.3052

MULLIKEN ATOMIC CHARGES
-----------------------
   0 H :    0.026618
   1 H :    0.064525
   2 H :    0.011239
   3 H :    0.035554
   4 Li:    0.681442
   5 H :    0.224341
   6 C :   -0.793409
   7 B :   -0.104561
   8 H :    0.015197
   9 H :    0.216744
  10 Si:   -0.111532
  11 H :    0.231323
  12 Cl:   -0.362351
  13 F :   -0.425268
  14 H :    0.107758
  15 B :    0.182380
Sum of atomic charges:   -0.0000000

LOEWDIN ATOMIC CHARGES
----------------------
   0 H :    0.084922
   1 H :    0.115145
   2 H :   -0.005341
   3 H :   -0.000982
   4 Li:    0.152049
   5 H :    0.148593
   6 C :   -0.479456
   7 B :   -0.253124
   8 H :    0.000038
   9 H :    0.136189
  10 Si:    0.201324
  11 H :    0.151618
  12 Cl:   -0.011067
  13 F :   -0.218504
  14 H :    0.033071
  15 B :   -0.054474

  Mayer bond orders larger than 0.100000
B(  0-H ,  7-B ) :   0.5456 B(  0-H , 10-Si) :   0.3688 B(  1-H ,  7-B ) :   0.4694
B(  1-H , 10-Si) :   0.4538 B(  2-H , 15-B ) :   0.9610 B(  3-H , 10-Si) :   0.9700
B(  4-Li, 10-Si) :   0.1665 B(  4-Li, 12-Cl) :   0.2038 B(  4-Li, 13-F ) :   0.2341
B(  5-H ,  6-C ) :   0.9198 B(  6-C ,  7-B ) :   1.0056 B(  6-C ,  9-H ) :   0.9213
B(  6-C , 11-H ) :   0.9181 B(  7-B , 10-Si) :   0.4681 B(  7-B , 14-H ) :   0.9721
B(  8-H , 15-B ) :   0.9698 B( 10-Si, 12-Cl) :   0.2903 B( 12-Cl, 15-B ) :   0.5496
B( 13-F , 15-B ) :   0.7236

Dispersion correction           -0.007736461
FINAL SINGLE POINT ENERGY      -949.090786749367

DIPOLE MOMENT
-------------
                                X             Y             Z
Electronic contribution:     -6.03118      -4.46531      16.24444
Nuclear contribution   :      7.29274       3.80726     -15.48083
                        -----------------------------------------
Total Dipole Moment    :      1.26156      -0.65805       0.76362
                        -----------------------------------------
Magnitude (a.u.)       :      1.61483
Magnitude (Debye)      :      4.10456

Rotational constants in cm-1:     0.073328     0.034631     0.028573
Rotational constants in MHz :  2198.304589  1038.204013   856.597000

                             ****ORCA TERMINATED NORMALLY****
TOTAL RUN TIME: 0 days 0 hours 1 minutes 27 seconds 139 msec
