                         Program Version 5.0.3 -  RELEASE  -
|  1> ! PBEh-3c def2/J TightSCF DefGrid3
|  2>
|  3> %maxcore 60000
|  4>
|  5> %pal
|  6> nprocs 4
|  7> end
|  8>
|  9> *xyzfile 0 1 HIS_xaq.xyz
| 10>
| 11>                          ****END OF INPUT****

CARTESIAN COORDINATES (ANGSTROEM)
---------------------------------
  N     -0.184127    1.112993    0.083318
  H     -1.053912    0.766535   -0.298388
  C      0.480938    0.264453    1.055639
  H      0.908873    0.920118    1.817273
  C     -0.556351   -0.665570    1.692672
  C      1.644341   -0.519396    0.424678
  H     -1.184565   -0.072767    2.357186
  H     -0.030992   -1.404899    2.296034
  C     -1.438964   -1.319530    0.688882
  O      1.650149   -1.752207    0.341949
  N     -1.001200   -2.275500   -0.189188
  C     -2.765417   -1.114984    0.349049
  H     -0.029951   -2.566631   -0.223172
  C     -2.041693   -2.603700   -0.998211
  N     -3.136380   -1.919061   -0.698379
  H     -3.465789   -0.450389    0.828183
  H     -1.956880   -3.338299   -1.780286
  C      0.270624    2.338818   -0.261472
  C     -0.625636    3.135943   -1.171997
  O      1.344998    2.783874    0.151134
  H     -1.452417    2.553522   -1.570440
  H     -0.029023    3.532914   -1.988619
  H     -1.022455    3.979605   -0.610719
  N      2.643593    0.270326    0.002032
  C      3.817642   -0.253806   -0.662416
  H      2.500985    1.272916    0.093711
  H      3.823026    0.012839   -1.718211
  H      4.719274    0.135265   -0.195373
  H      3.800839   -1.334783   -0.568921

 Total Charge           Charge          ....    0
 Multiplicity           Mult            ....    1
 Number of Electrons    NEL             ....  112
 Basis Dimension        Dim             ....  253

ORBITAL ENERGIES
----------------

  NO   OCC          E(Eh)            E(eV)
   0   2.0000     -19.478004      -530.0234
   1   2.0000     -19.475282      -529.9494
   2   2.0000     -14.683587      -399.5607
   3   2.0000     -14.681978      -399.5169
   4   2.0000     -14.664972      -399.0542
   5   2.0000     -14.614716      -397.6866
   6   2.0000     -10.569123      -287.6005
   7   2.0000     -10.558729      -287.3176
   8   2.0000     -10.507460      -285.9225
   9   2.0000     -10.492383      -285.5123
  10   2.0000     -10.478048      -285.1222
  11   2.0000     -10.470051      -284.9046
  12   2.0000     -10.466876      -284.8182
  13   2.0000     -10.454589      -284.4838
  14   2.0000     -10.453151      -284.4447
  15   2.0000      -1.165112       -31.7043
  16   2.0000      -1.153225       -31.3808
  17   2.0000      -1.117944       -30.4208
  18   2.0000      -1.048416       -28.5289
  19   2.0000      -1.027947       -27.9719
  20   2.0000      -0.962700       -26.1964
  21   2.0000      -0.902675       -24.5630
  22   2.0000      -0.850583       -23.1455
  23   2.0000      -0.822784       -22.3891
  24   2.0000      -0.796844       -21.6832
  25   2.0000      -0.734269       -19.9805
  26   2.0000      -0.686927       -18.6922
  27   2.0000      -0.682677       -18.5766
  28   2.0000      -0.661425       -17.9983
  29   2.0000      -0.654220       -17.8022
  30   2.0000      -0.614452       -16.7201
  31   2.0000      -0.608525       -16.5588
  32   2.0000      -0.571142       -15.5416
  33   2.0000      -0.558280       -15.1916
  34   2.0000      -0.541067       -14.7232
  35   2.0000      -0.520215       -14.1558
  36   2.0000      -0.516513       -14.0550
  37   2.0000      -0.509707       -13.8698
  38   2.0000      -0.499843       -13.6014
  39   2.0000      -0.494735       -13.4624
  40   2.0000      -0.486078       -13.2269
  41   2.0000      -0.475860       -12.9488
  42   2.0000      -0.462738       -12.5917
  43   2.0000      -0.461597       -12.5607
  44   2.0000      -0.455955       -12.4072
  45   2.0000      -0.445848       -12.1321
  46   2.0000      -0.440183       -11.9780
  47   2.0000      -0.431805       -11.7500
  48   2.0000      -0.425707       -11.5841
  49   2.0000      -0.352499        -9.5920
  50   2.0000      -0.331695        -9.0259
  51   2.0000      -0.327166        -8.9026
  52   2.0000      -0.321766        -8.7557
  53   2.0000      -0.310249        -8.4423
  54   2.0000      -0.307447        -8.3660
  55   2.0000      -0.264374        -7.1940
  56   0.0000       0.030453         0.8287
  57   0.0000       0.049865         1.3569
  58   0.0000       0.055601         1.5130
  59   0.0000       0.089872         2.4456
  60   0.0000       0.129644         3.5278

MULLIKEN ATOMIC CHARGES
-----------------------
   0 N :   -0.625297
   1 H :    0.395752
   2 C :   -0.227385
   3 H :    0.282839
   4 C :   -0.523853
   5 C :    0.591772
   6 H :    0.254338
   7 H :    0.273174
   8 C :    0.238221
   9 O :   -0.485430
  10 N :   -0.610342
  11 C :   -0.220609
  12 H :    0.411443
  13 C :    0.105047
  14 N :   -0.376532
  15 H :    0.219583
  16 H :    0.235094
  17 C :    0.540156
  18 C :   -0.745112
  19 O :   -0.471521
  20 H :    0.230151
  21 H :    0.262010
  22 H :    0.262272
  23 N :   -0.645787
  24 C :   -0.496578
  25 H :    0.416231
  26 H :    0.224525
  27 H :    0.227496
  28 H :    0.258345
Sum of atomic charges:    0.0000000

LOEWDIN ATOMIC CHARGES
----------------------
   0 N :   -0.215127
   1 H :    0.270626
   2 C :   -0.091178
   3 H :    0.153412
   4 C :   -0.226283
   5 C :    0.113327
   6 H :    0.149206
   7 H :    0.156951
   8 C :   -0.065535
   9 O :   -0.313413
  10 N :   -0.135845
  11 C :   -0.160657
  12 H :    0.279061
  13 C :   -0.050896
  14 N :   -0.191084
  15 H :    0.127879
  16 H :    0.130611
  17 C :    0.115224
  18 C :   -0.382541
  19 O :   -0.307016
  20 H :    0.136289
  21 H :    0.158446
  22 H :    0.160930
  23 N :   -0.231006
  24 C :   -0.255332
  25 H :    0.272240
  26 H :    0.124443
  27 H :    0.127560
  28 H :    0.149711

  Mayer bond orders larger than 0.100000
B(  0-N ,  1-H ) :   0.7742 B(  0-N ,  2-C ) :   0.9265 B(  0-N , 17-C ) :   1.1865
B(  2-C ,  3-H ) :   0.8792 B(  2-C ,  4-C ) :   0.9623 B(  2-C ,  5-C ) :   0.8720
B(  4-C ,  6-H ) :   0.9134 B(  4-C ,  7-H ) :   0.8964 B(  4-C ,  8-C ) :   0.9506
B(  5-C ,  9-O ) :   1.8452 B(  5-C , 23-N ) :   1.2378 B(  8-C , 10-N ) :   1.1365
B(  8-C , 11-C ) :   1.5084 B(  9-O , 23-N ) :   0.1066 B( 10-N , 12-H ) :   0.7329
B( 10-N , 13-C ) :   1.2131 B( 11-C , 14-N ) :   1.3751 B( 11-C , 15-H ) :   0.9272
B( 13-C , 14-N ) :   1.6060 B( 13-C , 16-H ) :   0.9118 B( 17-C , 18-C ) :   0.9358
B( 17-C , 19-O ) :   1.8589 B( 18-C , 20-H ) :   0.9167 B( 18-C , 21-H ) :   0.9085
B( 18-C , 22-H ) :   0.9048 B( 19-O , 25-H ) :   0.1000 B( 23-N , 24-C ) :   0.9526
B( 23-N , 25-H ) :   0.7153 B( 24-C , 26-H ) :   0.9187 B( 24-C , 27-H ) :   0.9207
B( 24-C , 28-H ) :   0.9036

Dispersion correction           -0.018567593
FINAL SINGLE POINT ENERGY      -719.338897663564

DIPOLE MOMENT
-------------
                                X             Y             Z
Electronic contribution:     -3.52496      -4.82247       1.87095
Nuclear contribution   :      4.25463       5.49508      -1.99494
                        -----------------------------------------
Total Dipole Moment    :      0.72967       0.67261      -0.12400
                        -----------------------------------------
Magnitude (a.u.)       :      1.00010
Magnitude (Debye)      :      2.54206

Rotational constants in cm-1:     0.026785     0.015355     0.011426
Rotational constants in MHz :   803.007797   460.331116   342.537159

                             ****ORCA TERMINATED NORMALLY****
TOTAL RUN TIME: 0 days 0 hours 4 minutes 5 seconds 819 msec
