                         Program Version 5.0.3 -  RELEASE  -
|  1> ! PBEh-3c def2/J TightSCF DefGrid3
|  2>
|  3> %maxcore 60000
|  4>
|  5> %pal
|  6> nprocs 4
|  7> end
|  8>
|  9> *xyzfile 0 1 tmethane_0.xyz
| 10>
| 11>                          ****END OF INPUT****

CARTESIAN COORDINATES (ANGSTROEM)
---------------------------------
  C      0.000000   -0.784212    0.487030
  C      0.000000    0.784212    0.487030
  C     -1.240725    1.416746   -0.134054
  H     -0.000000    1.091455    1.533292
  C      1.240725    1.416746   -0.134054
  C      1.240725   -1.416746   -0.134054
  C     -1.240725   -1.416746   -0.134054
  H     -0.000000   -1.091455    1.533292
  H      1.199932   -2.496826   -0.008287
  H      1.310710   -1.205937   -1.199930
  H      2.158206   -1.072074    0.332786
  H     -1.199932   -2.496826   -0.008287
  H     -2.158206   -1.072074    0.332786
  H     -1.310710   -1.205937   -1.199930
  H      1.199932    2.496826   -0.008287
  H      2.158206    1.072074    0.332786
  H      1.310710    1.205937   -1.199930
  H     -1.199932    2.496826   -0.008287
  H     -1.310710    1.205937   -1.199930
  H     -2.158206    1.072074    0.332786

 Total Charge           Charge          ....    0
 Multiplicity           Mult            ....    1
 Number of Electrons    NEL             ....   50
 Basis Dimension        Dim             ....  118

ORBITAL ENERGIES
----------------

  NO   OCC          E(Eh)            E(eV)
   0   2.0000     -10.435517      -283.9649
   1   2.0000     -10.435375      -283.9610
   2   2.0000     -10.415934      -283.4320
   3   2.0000     -10.415862      -283.4300
   4   2.0000     -10.415844      -283.4295
   5   2.0000     -10.415791      -283.4281
   6   2.0000      -0.908574       -24.7236
   7   2.0000      -0.835557       -22.7367
   8   2.0000      -0.774409       -21.0728
   9   2.0000      -0.742834       -20.2136
  10   2.0000      -0.688328       -18.7304
  11   2.0000      -0.594169       -16.1681
  12   2.0000      -0.540484       -14.7073
  13   2.0000      -0.514270       -13.9940
  14   2.0000      -0.476189       -12.9577
  15   2.0000      -0.475185       -12.9304
  16   2.0000      -0.445228       -12.1153
  17   2.0000      -0.438631       -11.9357
  18   2.0000      -0.426868       -11.6157
  19   2.0000      -0.406373       -11.0580
  20   2.0000      -0.406073       -11.0498
  21   2.0000      -0.404071       -10.9953
  22   2.0000      -0.357815        -9.7366
  23   2.0000      -0.352098        -9.5811
  24   2.0000      -0.342066        -9.3081
  25   0.0000       0.119923         3.2633
  26   0.0000       0.163000         4.4354
  27   0.0000       0.170867         4.6495
  28   0.0000       0.176358         4.7989
  29   0.0000       0.200881         5.4663

MULLIKEN ATOMIC CHARGES
-----------------------
   0 C :   -0.220152
   1 C :   -0.220152
   2 C :   -0.639513
   3 H :    0.211814
   4 C :   -0.639513
   5 C :   -0.639513
   6 C :   -0.639513
   7 H :    0.211814
   8 H :    0.218474
   9 H :    0.208107
  10 H :    0.217101
  11 H :    0.218474
  12 H :    0.217101
  13 H :    0.208107
  14 H :    0.218474
  15 H :    0.217101
  16 H :    0.208107
  17 H :    0.218474
  18 H :    0.208107
  19 H :    0.217101
Sum of atomic charges:    0.0000000

LOEWDIN ATOMIC CHARGES
----------------------
   0 C :   -0.156258
   1 C :   -0.156258
   2 C :   -0.354012
   3 H :    0.120906
   4 C :   -0.354012
   5 C :   -0.354012
   6 C :   -0.354012
   7 H :    0.120906
   8 H :    0.125604
   9 H :    0.122695
  10 H :    0.123389
  11 H :    0.125604
  12 H :    0.123389
  13 H :    0.122695
  14 H :    0.125604
  15 H :    0.123389
  16 H :    0.122695
  17 H :    0.125604
  18 H :    0.122695
  19 H :    0.123389

  Mayer bond orders larger than 0.100000
B(  0-C ,  1-C ) :   0.9363 B(  0-C ,  5-C ) :   0.9949 B(  0-C ,  6-C ) :   0.9949
B(  0-C ,  7-H ) :   0.9220 B(  1-C ,  2-C ) :   0.9949 B(  1-C ,  3-H ) :   0.9220
B(  1-C ,  4-C ) :   0.9949 B(  2-C , 17-H ) :   0.9275 B(  2-C , 18-H ) :   0.9273
B(  2-C , 19-H ) :   0.9281 B(  4-C , 14-H ) :   0.9275 B(  4-C , 15-H ) :   0.9281
B(  4-C , 16-H ) :   0.9273 B(  5-C ,  8-H ) :   0.9275 B(  5-C ,  9-H ) :   0.9273
B(  5-C , 10-H ) :   0.9281 B(  6-C , 11-H ) :   0.9275 B(  6-C , 12-H ) :   0.9281
B(  6-C , 13-H ) :   0.9273

Dispersion correction           -0.009756759
FINAL SINGLE POINT ENERGY      -236.552080341645

DIPOLE MOMENT
-------------
                                X             Y             Z
Electronic contribution:     -0.00000       0.00000       1.21181
Nuclear contribution   :      0.00000      -0.00000      -1.14290
                        -----------------------------------------
Total Dipole Moment    :     -0.00000       0.00000       0.06891
                        -----------------------------------------
Magnitude (a.u.)       :      0.06891
Magnitude (Debye)      :      0.17515

Rotational constants in cm-1:     0.137327     0.101232     0.066183
Rotational constants in MHz :  4116.974284  3034.860917  1984.115007

                             ****ORCA TERMINATED NORMALLY****
TOTAL RUN TIME: 0 days 0 hours 1 minutes 27 seconds 956 msec
