                         Program Version 5.0.3 -  RELEASE  -
|  1> ! PBEh-3c def2/J TightSCF DefGrid3
|  2>
|  3> %maxcore 60000
|  4>
|  5> %pal
|  6> nprocs 4
|  7> end
|  8>
|  9> *xyzfile 0 1 42.xyz
| 10>
| 11>                          ****END OF INPUT****

CARTESIAN COORDINATES (ANGSTROEM)
---------------------------------
  N      0.199781   -1.008276   -1.846382
  H      0.454449   -1.960339   -1.620460
  C     -1.174998   -0.737271   -1.910744
  O     -1.989595   -1.619852   -1.703327
  C     -1.472663    0.647569   -2.232668
  H     -2.502304    0.952064   -2.306333
  C     -0.464061    1.519376   -2.435337
  H     -0.634384    2.558056   -2.676392
  N      0.849680    1.142405   -2.343397
  H      1.593744    1.805293   -2.484268
  C      1.258313   -0.144125   -2.033984
  O      2.426356   -0.465303   -1.938349
  C      1.060774   -1.027097    1.728515
  H      1.514627   -1.119153    0.740533
  H      1.605277   -1.691077    2.397713
  C      1.115088    0.438855    2.161451
  H      2.073378    0.911754    1.950727
  H      0.926973    0.520493    3.234674
  C     -0.052263    1.051670    1.390680
  H      0.222041    1.140451    0.337209
  H     -0.336678    2.042811    1.742314
  C     -1.169208    0.014098    1.561708
  H     -1.894747    0.037712    0.750337
  H     -1.713294    0.218795    2.483957
  C     -0.446172   -1.352450    1.665365
  H     -0.688836   -1.996606    0.822006
  H     -0.761278   -1.879852    2.564452

 Total Charge           Charge          ....    0
 Multiplicity           Mult            ....    1
 Number of Electrons    NEL             ....   98
 Basis Dimension        Dim             ....  223

ORBITAL ENERGIES
----------------

  NO   OCC          E(Eh)            E(eV)
   0   2.0000     -19.486077      -530.2431
   1   2.0000     -19.479509      -530.0644
   2   2.0000     -14.719951      -400.5502
   3   2.0000     -14.699619      -399.9970
   4   2.0000     -10.611885      -288.7641
   5   2.0000     -10.576356      -287.7973
   6   2.0000     -10.539996      -286.8079
   7   2.0000     -10.469112      -284.8790
   8   2.0000     -10.425491      -283.6920
   9   2.0000     -10.422969      -283.6234
  10   2.0000     -10.421360      -283.5796
  11   2.0000     -10.420821      -283.5650
  12   2.0000     -10.419677      -283.5338
  13   2.0000      -1.199337       -32.6356
  14   2.0000      -1.160917       -31.5902
  15   2.0000      -1.095759       -29.8171
  16   2.0000      -1.036721       -28.2106
  17   2.0000      -0.922383       -25.0993
  18   2.0000      -0.901451       -24.5297
  19   2.0000      -0.784749       -21.3541
  20   2.0000      -0.783083       -21.3088
  21   2.0000      -0.781300       -21.2603
  22   2.0000      -0.752495       -20.4764
  23   2.0000      -0.679868       -18.5001
  24   2.0000      -0.638678       -17.3793
  25   2.0000      -0.635806       -17.3012
  26   2.0000      -0.623887       -16.9768
  27   2.0000      -0.595366       -16.2007
  28   2.0000      -0.559624       -15.2281
  29   2.0000      -0.546482       -14.8705
  30   2.0000      -0.534456       -14.5433
  31   2.0000      -0.531505       -14.4630
  32   2.0000      -0.524496       -14.2723
  33   2.0000      -0.493092       -13.4177
  34   2.0000      -0.487949       -13.2778
  35   2.0000      -0.476365       -12.9626
  36   2.0000      -0.466077       -12.6826
  37   2.0000      -0.458406       -12.4739
  38   2.0000      -0.430636       -11.7182
  39   2.0000      -0.382889       -10.4189
  40   2.0000      -0.381295       -10.3756
  41   2.0000      -0.376238       -10.2379
  42   2.0000      -0.373256       -10.1568
  43   2.0000      -0.368744       -10.0340
  44   2.0000      -0.363480        -9.8908
  45   2.0000      -0.355688        -9.6788
  46   2.0000      -0.342665        -9.3244
  47   2.0000      -0.330921        -9.0048
  48   2.0000      -0.302048        -8.2191
  49   0.0000      -0.025065        -0.6820
  50   0.0000       0.036229         0.9858
  51   0.0000       0.093110         2.5337
  52   0.0000       0.120884         3.2894
  53   0.0000       0.137951         3.7538

MULLIKEN ATOMIC CHARGES
-----------------------
   0 N :   -0.725246
   1 H :    0.399635
   2 C :    0.569413
   3 O :   -0.395798
   4 C :   -0.436046
   5 H :    0.267124
   6 C :    0.076679
   7 H :    0.274471
   8 N :   -0.679231
   9 H :    0.392856
  10 C :    0.679944
  11 O :   -0.413897
  12 C :   -0.444651
  13 H :    0.220314
  14 H :    0.222258
  15 C :   -0.426144
  16 H :    0.220219
  17 H :    0.206907
  18 C :   -0.437258
  19 H :    0.200196
  20 H :    0.216725
  21 C :   -0.444839
  22 H :    0.232291
  23 H :    0.217780
  24 C :   -0.440896
  25 H :    0.227219
  26 H :    0.219975
Sum of atomic charges:   -0.0000000

LOEWDIN ATOMIC CHARGES
----------------------
   0 N :   -0.200653
   1 H :    0.286192
   2 C :    0.121709
   3 O :   -0.241422
   4 C :   -0.238455
   5 H :    0.164228
   6 C :   -0.014349
   7 H :    0.150917
   8 N :   -0.187093
   9 H :    0.282642
  10 C :    0.140593
  11 O :   -0.260778
  12 C :   -0.247060
  13 H :    0.122324
  14 H :    0.124325
  15 C :   -0.242911
  16 H :    0.123536
  17 H :    0.119984
  18 C :   -0.243876
  19 H :    0.111945
  20 H :    0.121507
  21 C :   -0.246235
  22 H :    0.127915
  23 H :    0.122918
  24 C :   -0.248532
  25 H :    0.126222
  26 H :    0.124409

  Mayer bond orders larger than 0.100000
B(  0-N ,  1-H ) :   0.7980 B(  0-N ,  2-C ) :   0.9739 B(  0-N , 10-C ) :   1.0601
B(  2-C ,  3-O ) :   2.0195 B(  2-C ,  4-C ) :   1.0614 B(  4-C ,  5-H ) :   0.9059
B(  4-C ,  6-C ) :   1.6482 B(  6-C ,  7-H ) :   0.8982 B(  6-C ,  8-N ) :   1.0706
B(  8-N ,  9-H ) :   0.8093 B(  8-N , 10-C ) :   1.0220 B( 10-C , 11-O ) :   2.0387
B( 12-C , 13-H ) :   0.9145 B( 12-C , 14-H ) :   0.9313 B( 12-C , 15-C ) :   0.9807
B( 12-C , 24-C ) :   0.9673 B( 15-C , 16-H ) :   0.9294 B( 15-C , 17-H ) :   0.9220
B( 15-C , 18-C ) :   0.9801 B( 18-C , 19-H ) :   0.9139 B( 18-C , 20-H ) :   0.9311
B( 18-C , 21-C ) :   0.9799 B( 21-C , 22-H ) :   0.9234 B( 21-C , 23-H ) :   0.9289
B( 21-C , 24-C ) :   0.9624 B( 24-C , 25-H ) :   0.9237 B( 24-C , 26-H ) :   0.9318

Dispersion correction           -0.017103391
FINAL SINGLE POINT ENERGY      -610.068920096372

DIPOLE MOMENT
-------------
                                X             Y             Z
Electronic contribution:      0.57493      -1.54647     -15.77300
Nuclear contribution   :     -0.50966       3.22239      15.33732
                        -----------------------------------------
Total Dipole Moment    :      0.06527       1.67592      -0.43568
                        -----------------------------------------
Magnitude (a.u.)       :      1.73285
Magnitude (Debye)      :      4.40456

Rotational constants in cm-1:     0.033791     0.020646     0.017815
Rotational constants in MHz :  1013.026589   618.959257   534.066165

                             ****ORCA TERMINATED NORMALLY****
TOTAL RUN TIME: 0 days 0 hours 2 minutes 40 seconds 168 msec
