                         Program Version 5.0.3 -  RELEASE  -
|  1> ! PBEh-3c def2/J TightSCF DefGrid3
|  2>
|  3> %maxcore 60000
|  4>
|  5> %pal
|  6> nprocs 4
|  7> end
|  8>
|  9> *xyzfile 0 1 F14l.xyz
| 10>
| 11>                          ****END OF INPUT****

CARTESIAN COORDINATES (ANGSTROEM)
---------------------------------
  C     -8.354973   -0.186112    0.000000
  C     -7.052646    0.637524    0.000000
  C     -5.792484   -0.247571    0.000000
  C     -4.482465    0.560181    0.000000
  C     -3.223806   -0.325921    0.000000
  C     -1.913705    0.481940    0.000000
  C     -0.655015   -0.403990    0.000000
  C      0.655015    0.403990    0.000000
  C      1.913705   -0.481940    0.000000
  C      3.223806    0.325921    0.000000
  C      4.482465   -0.560181    0.000000
  C      5.792484    0.247571    0.000000
  C      7.052646   -0.637524    0.000000
  C      8.354973    0.186112    0.000000
  H     -9.243712    0.462135    0.000000
  H     -8.404750   -0.833544   -0.889154
  H     -8.404750   -0.833544    0.889154
  H     -7.029300    1.296353    0.883499
  H     -7.029300    1.296353   -0.883499
  H     -5.813097   -0.907802    0.883704
  H     -5.813097   -0.907802   -0.883704
  H     -4.462131    1.220176    0.883690
  H     -4.462131    1.220176   -0.883690
  H     -3.243842   -0.985941    0.883646
  H     -3.243842   -0.985941   -0.883646
  H     -1.893576    1.141966    0.883651
  H     -1.893576    1.141966   -0.883651
  H     -0.675014   -1.064021    0.883652
  H     -0.675014   -1.064021   -0.883652
  H      0.675014    1.064021    0.883652
  H      0.675014    1.064021   -0.883652
  H      1.893576   -1.141966    0.883651
  H      1.893576   -1.141966   -0.883651
  H      3.243842    0.985941    0.883646
  H      3.243842    0.985941   -0.883646
  H      4.462131   -1.220176    0.883690
  H      4.462131   -1.220176   -0.883690
  H      5.813097    0.907802    0.883704
  H      5.813097    0.907802   -0.883704
  H      7.029300   -1.296353    0.883499
  H      7.029300   -1.296353   -0.883499
  H      8.404750    0.833544    0.889154
  H      9.243712   -0.462135    0.000000
  H      8.404750    0.833544   -0.889154

 Total Charge           Charge          ....    0
 Multiplicity           Mult            ....    1
 Number of Electrons    NEL             ....  114
 Basis Dimension        Dim             ....  270

ORBITAL ENERGIES
----------------

  NO   OCC          E(Eh)            E(eV)
   0   2.0000     -10.431906      -283.8666
   1   2.0000     -10.431905      -283.8666
   2   2.0000     -10.429943      -283.8132
   3   2.0000     -10.429933      -283.8129
   4   2.0000     -10.429880      -283.8115
   5   2.0000     -10.429867      -283.8111
   6   2.0000     -10.429812      -283.8096
   7   2.0000     -10.429741      -283.8077
   8   2.0000     -10.429671      -283.8058
   9   2.0000     -10.429631      -283.8047
  10   2.0000     -10.429592      -283.8036
  11   2.0000     -10.429528      -283.8019
  12   2.0000     -10.424020      -283.6520
  13   2.0000     -10.424020      -283.6520
  14   2.0000      -0.901501       -24.5311
  15   2.0000      -0.892285       -24.2803
  16   2.0000      -0.876944       -23.8629
  17   2.0000      -0.855775       -23.2868
  18   2.0000      -0.829169       -22.5628
  19   2.0000      -0.797727       -21.7073
  20   2.0000      -0.762405       -20.7461
  21   2.0000      -0.724724       -19.7207
  22   2.0000      -0.687553       -18.7093
  23   2.0000      -0.656651       -17.8684
  24   2.0000      -0.644624       -17.5411
  25   2.0000      -0.641769       -17.4634
  26   2.0000      -0.637476       -17.3466
  27   2.0000      -0.635918       -17.3042
  28   2.0000      -0.545068       -14.8320
  29   2.0000      -0.536626       -14.6023
  30   2.0000      -0.522830       -14.2269
  31   2.0000      -0.504394       -13.7253
  32   2.0000      -0.488843       -13.3021
  33   2.0000      -0.482316       -13.1245
  34   2.0000      -0.482296       -13.1239
  35   2.0000      -0.475500       -12.9390
  36   2.0000      -0.464180       -12.6310
  37   2.0000      -0.457991       -12.4626
  38   2.0000      -0.442811       -12.0495
  39   2.0000      -0.441521       -12.0144
  40   2.0000      -0.433255       -11.7895
  41   2.0000      -0.418476       -11.3873
  42   2.0000      -0.410230       -11.1629
  43   2.0000      -0.402715       -10.9584
  44   2.0000      -0.396685       -10.7943
  45   2.0000      -0.390989       -10.6393
  46   2.0000      -0.383611       -10.4386
  47   2.0000      -0.376985       -10.2583
  48   2.0000      -0.373382       -10.1602
  49   2.0000      -0.368622       -10.0307
  50   2.0000      -0.368183       -10.0188
  51   2.0000      -0.365542        -9.9469
  52   2.0000      -0.365361        -9.9420
  53   2.0000      -0.364466        -9.9176
  54   2.0000      -0.364235        -9.9113
  55   2.0000      -0.360351        -9.8056
  56   2.0000      -0.332001        -9.0342
  57   0.0000       0.127330         3.4648
  58   0.0000       0.133701         3.6382
  59   0.0000       0.141304         3.8451
  60   0.0000       0.146630         3.9900
  61   0.0000       0.153345         4.1727

MULLIKEN ATOMIC CHARGES
-----------------------
   0 C :   -0.635207
   1 C :   -0.407279
   2 C :   -0.393824
   3 C :   -0.398436
   4 C :   -0.398381
   5 C :   -0.398782
   6 C :   -0.398867
   7 C :   -0.398869
   8 C :   -0.398781
   9 C :   -0.398382
  10 C :   -0.398435
  11 C :   -0.393826
  12 C :   -0.407278
  13 C :   -0.635207
  14 H :    0.216578
  15 H :    0.207439
  16 H :    0.207439
  17 H :    0.203230
  18 H :    0.203231
  19 H :    0.198769
  20 H :    0.198769
  21 H :    0.199254
  22 H :    0.199254
  23 H :    0.199486
  24 H :    0.199486
  25 H :    0.199455
  26 H :    0.199455
  27 H :    0.199465
  28 H :    0.199465
  29 H :    0.199465
  30 H :    0.199465
  31 H :    0.199455
  32 H :    0.199455
  33 H :    0.199486
  34 H :    0.199486
  35 H :    0.199254
  36 H :    0.199254
  37 H :    0.198770
  38 H :    0.198769
  39 H :    0.203230
  40 H :    0.203231
  41 H :    0.207439
  42 H :    0.216577
  43 H :    0.207439
Sum of atomic charges:   -0.0000000

LOEWDIN ATOMIC CHARGES
----------------------
   0 C :   -0.362165
   1 C :   -0.244827
   2 C :   -0.239219
   3 C :   -0.237778
   4 C :   -0.237205
   5 C :   -0.237314
   6 C :   -0.237293
   7 C :   -0.237293
   8 C :   -0.237314
   9 C :   -0.237205
  10 C :   -0.237778
  11 C :   -0.239219
  12 C :   -0.244827
  13 C :   -0.362165
  14 H :    0.125635
  15 H :    0.123115
  16 H :    0.123115
  17 H :    0.119042
  18 H :    0.119042
  19 H :    0.118258
  20 H :    0.118258
  21 H :    0.118647
  22 H :    0.118647
  23 H :    0.118692
  24 H :    0.118692
  25 H :    0.118663
  26 H :    0.118663
  27 H :    0.118666
  28 H :    0.118666
  29 H :    0.118666
  30 H :    0.118666
  31 H :    0.118663
  32 H :    0.118663
  33 H :    0.118692
  34 H :    0.118692
  35 H :    0.118647
  36 H :    0.118647
  37 H :    0.118258
  38 H :    0.118258
  39 H :    0.119042
  40 H :    0.119042
  41 H :    0.123115
  42 H :    0.125635
  43 H :    0.123115

  Mayer bond orders larger than 0.100000
B(  0-C ,  1-C ) :   0.9934 B(  0-C , 14-H ) :   0.9320 B(  0-C , 15-H ) :   0.9296
B(  0-C , 16-H ) :   0.9296 B(  1-C ,  2-C ) :   0.9861 B(  1-C , 17-H ) :   0.9209
B(  1-C , 18-H ) :   0.9209 B(  2-C ,  3-C ) :   0.9910 B(  2-C , 19-H ) :   0.9189
B(  2-C , 20-H ) :   0.9189 B(  3-C ,  4-C ) :   0.9900 B(  3-C , 21-H ) :   0.9189
B(  3-C , 22-H ) :   0.9189 B(  4-C ,  5-C ) :   0.9903 B(  4-C , 23-H ) :   0.9191
B(  4-C , 24-H ) :   0.9191 B(  5-C ,  6-C ) :   0.9901 B(  5-C , 25-H ) :   0.9191
B(  5-C , 26-H ) :   0.9191 B(  6-C ,  7-C ) :   0.9901 B(  6-C , 27-H ) :   0.9191
B(  6-C , 28-H ) :   0.9191 B(  7-C ,  8-C ) :   0.9901 B(  7-C , 29-H ) :   0.9191
B(  7-C , 30-H ) :   0.9191 B(  8-C ,  9-C ) :   0.9903 B(  8-C , 31-H ) :   0.9191
B(  8-C , 32-H ) :   0.9191 B(  9-C , 10-C ) :   0.9900 B(  9-C , 33-H ) :   0.9191
B(  9-C , 34-H ) :   0.9191 B( 10-C , 11-C ) :   0.9910 B( 10-C , 35-H ) :   0.9189
B( 10-C , 36-H ) :   0.9189 B( 11-C , 12-C ) :   0.9861 B( 11-C , 37-H ) :   0.9189
B( 11-C , 38-H ) :   0.9189 B( 12-C , 13-C ) :   0.9934 B( 12-C , 39-H ) :   0.9209
B( 12-C , 40-H ) :   0.9209 B( 13-C , 41-H ) :   0.9296 B( 13-C , 42-H ) :   0.9320
B( 13-C , 43-H ) :   0.9296

Dispersion correction           -0.022022694
FINAL SINGLE POINT ENERGY      -550.379682895341

DIPOLE MOMENT
-------------
                                X             Y             Z
Electronic contribution:      0.00000       0.00000      -0.00000
Nuclear contribution   :      0.00000      -0.00000       0.00000
                        -----------------------------------------
Total Dipole Moment    :      0.00000       0.00000      -0.00000
                        -----------------------------------------
Magnitude (a.u.)       :      0.00000
Magnitude (Debye)      :      0.00000

Rotational constants in cm-1:     0.198250     0.003085     0.003062
Rotational constants in MHz :  5943.376151    92.496990    91.810098

                             ****ORCA TERMINATED NORMALLY****
TOTAL RUN TIME: 0 days 0 hours 3 minutes 4 seconds 235 msec
