                         Program Version 5.0.3 -  RELEASE  -
|  1> ! PBEh-3c def2/J TightSCF DefGrid3
|  2>
|  3> %maxcore 60000
|  4>
|  5> %pal
|  6> nprocs 4
|  7> end
|  8>
|  9> *xyzfile 1 1 his3.xyz
| 10>
| 11>                          ****END OF INPUT****

CARTESIAN COORDINATES (ANGSTROEM)
---------------------------------
  N      1.360432    1.631536   -0.209958
  C      1.554565    0.358393    0.470195
  C      1.739575   -0.748104   -0.569349
  O      2.315525   -1.867593   -0.153028
  H      1.474067    2.400273    0.440390
  O      1.328982   -0.649561   -1.684530
  H     -0.414401    1.416246   -0.872302
  H      2.413896    0.375076    1.157511
  C      0.290888    0.042332    1.301002
  C     -0.915106   -0.113591    0.436436
  H      0.135037    0.852027    2.021720
  H      0.426828   -0.865639    1.891908
  C     -1.934105   -1.009098    0.439295
  N     -1.146736    0.726445   -0.623059
  H     -2.143267   -1.840348    1.091880
  H     -3.586184   -1.170257   -0.888036
  C     -2.239021    0.363612   -1.259912
  N     -2.741666   -0.683929   -0.621883
  H     -2.649077    0.826237   -2.143069
  H      2.034401    1.765170   -0.954991
  H      2.695366   -1.809227    0.729780

 Total Charge           Charge          ....    1
 Multiplicity           Mult            ....    1
 Number of Electrons    NEL             ....   82
 Basis Dimension        Dim             ....  185

ORBITAL ENERGIES
----------------

  NO   OCC          E(Eh)            E(eV)
   0   2.0000     -19.673529      -535.3439
   1   2.0000     -19.613729      -533.7167
   2   2.0000     -14.895962      -405.3397
   3   2.0000     -14.876499      -404.8101
   4   2.0000     -14.786447      -402.3597
   5   2.0000     -10.714414      -291.5540
   6   2.0000     -10.714079      -291.5449
   7   2.0000     -10.666192      -290.2418
   8   2.0000     -10.658141      -290.0228
   9   2.0000     -10.649179      -289.7789
  10   2.0000     -10.624240      -289.1003
  11   2.0000      -1.357979       -36.9525
  12   2.0000      -1.351311       -36.7710
  13   2.0000      -1.267653       -34.4946
  14   2.0000      -1.203824       -32.7577
  15   2.0000      -1.156478       -31.4694
  16   2.0000      -1.066280       -29.0150
  17   2.0000      -1.000565       -27.2267
  18   2.0000      -0.928738       -25.2723
  19   2.0000      -0.908198       -24.7133
  20   2.0000      -0.863151       -23.4875
  21   2.0000      -0.834266       -22.7015
  22   2.0000      -0.813712       -22.1422
  23   2.0000      -0.761210       -20.7136
  24   2.0000      -0.750986       -20.4354
  25   2.0000      -0.716501       -19.4970
  26   2.0000      -0.713257       -19.4087
  27   2.0000      -0.696089       -18.9416
  28   2.0000      -0.686448       -18.6792
  29   2.0000      -0.677197       -18.4275
  30   2.0000      -0.660030       -17.9603
  31   2.0000      -0.645943       -17.5770
  32   2.0000      -0.627308       -17.0699
  33   2.0000      -0.609903       -16.5963
  34   2.0000      -0.594924       -16.1887
  35   2.0000      -0.568392       -15.4667
  36   2.0000      -0.552171       -15.0253
  37   2.0000      -0.505627       -13.7588
  38   2.0000      -0.476609       -12.9692
  39   2.0000      -0.467339       -12.7169
  40   2.0000      -0.456904       -12.4330
  41   0.0000      -0.143727        -3.9110
  42   0.0000      -0.106583        -2.9003
  43   0.0000      -0.091392        -2.4869
  44   0.0000      -0.041670        -1.1339
  45   0.0000      -0.034030        -0.9260

MULLIKEN ATOMIC CHARGES
-----------------------
   0 N :   -0.797179
   1 C :   -0.285349
   2 C :    0.562024
   3 O :   -0.536415
   4 H :    0.364958
   5 O :   -0.351509
   6 H :    0.454071
   7 H :    0.269896
   8 C :   -0.504341
   9 C :    0.305074
  10 H :    0.296296
  11 H :    0.273595
  12 C :   -0.090895
  13 N :   -0.571583
  14 H :    0.313122
  15 H :    0.428867
  16 C :    0.257232
  17 N :   -0.556394
  18 H :    0.333176
  19 H :    0.382880
  20 H :    0.452472
Sum of atomic charges:    1.0000000

LOEWDIN ATOMIC CHARGES
----------------------
   0 N :   -0.444761
   1 C :   -0.126325
   2 C :    0.112952
   3 O :   -0.250377
   4 H :    0.250148
   5 O :   -0.184777
   6 H :    0.307903
   7 H :    0.133903
   8 C :   -0.225368
   9 C :    0.005151
  10 H :    0.164739
  11 H :    0.161206
  12 C :   -0.076162
  13 N :   -0.069084
  14 H :    0.174988
  15 H :    0.302715
  16 C :    0.053603
  17 N :   -0.069319
  18 H :    0.180865
  19 H :    0.259100
  20 H :    0.338901

  Mayer bond orders larger than 0.100000
B(  0-N ,  1-C ) :   0.9766 B(  0-N ,  4-H ) :   0.8335 B(  0-N ,  6-H ) :   0.1358
B(  0-N , 19-H ) :   0.8234 B(  1-C ,  2-C ) :   0.9017 B(  1-C ,  7-H ) :   0.8807
B(  1-C ,  8-C ) :   0.9478 B(  2-C ,  3-O ) :   1.1632 B(  2-C ,  5-O ) :   2.0661
B(  3-O , 20-H ) :   0.7529 B(  6-H , 13-N ) :   0.6619 B(  8-C ,  9-C ) :   0.9237
B(  8-C , 10-H ) :   0.8877 B(  8-C , 11-H ) :   0.8996 B(  9-C , 12-C ) :   1.6163
B(  9-C , 13-N ) :   1.1367 B( 12-C , 14-H ) :   0.8819 B( 12-C , 17-N ) :   1.1219
B( 13-N , 16-C ) :   1.3498 B( 15-H , 17-N ) :   0.7857 B( 16-C , 17-N ) :   1.2945
B( 16-C , 18-H ) :   0.8675

Dispersion correction           -0.012645717
FINAL SINGLE POINT ENERGY      -547.980818941949

DIPOLE MOMENT
-------------
                                X             Y             Z
Electronic contribution:     -1.83313      -2.63048      -3.33777
Nuclear contribution   :      0.08676       3.50035       4.54824
                        -----------------------------------------
Total Dipole Moment    :     -1.74637       0.86987       1.21047
                        -----------------------------------------
Magnitude (a.u.)       :      2.29603
Magnitude (Debye)      :      5.83604

Rotational constants in cm-1:     0.063221     0.027732     0.026200
Rotational constants in MHz :  1895.304045   831.398550   785.453275

                             ****ORCA TERMINATED NORMALLY****
TOTAL RUN TIME: 0 days 0 hours 2 minutes 15 seconds 702 msec
