                         Program Version 5.0.3 -  RELEASE  -
|  1> ! PBEh-3c def2/J TightSCF DefGrid3
|  2>
|  3> %maxcore 60000
|  4>
|  5> %pal
|  6> nprocs 4
|  7> end
|  8>
|  9> *xyzfile 0 2 P37.xyz
| 10>
| 11>                          ****END OF INPUT****

CARTESIAN COORDINATES (ANGSTROEM)
---------------------------------
  C     -0.530291   -0.240243    0.000000
  S      1.205793   -0.297660    0.000000
  H      1.436590    1.032185    0.000000
  H     -1.066788    0.692925    0.000000
  H     -1.045305   -1.187207    0.000000

 Total Charge           Charge          ....    0
 Multiplicity           Mult            ....    2
 Number of Electrons    NEL             ....   25
 Basis Dimension        Dim             ....   39

ORBITAL ENERGIES
----------------
                 SPIN UP ORBITALS
  NO   OCC          E(Eh)            E(eV)
   0   1.0000     -89.601465     -2438.1798
   1   1.0000     -10.469073      -284.8779
   2   1.0000      -8.241987      -224.2759
   3   1.0000      -6.132324      -166.8690
   4   1.0000      -6.128926      -166.7766
   5   1.0000      -6.126957      -166.7230
   6   1.0000      -0.881948       -23.9990
   7   1.0000      -0.709635       -19.3101
   8   1.0000      -0.530311       -14.4305
   9   1.0000      -0.469049       -12.7635
  10   1.0000      -0.399483       -10.8705
  11   1.0000      -0.379089       -10.3155
  12   1.0000      -0.225707        -6.1418
  13   0.0000       0.058741         1.5984
  14   0.0000       0.118737         3.2310
  15   0.0000       0.194605         5.2955
  16   0.0000       0.226894         6.1741
  17   0.0000       0.419428        11.4132

                 SPIN DOWN ORBITALS
  NO   OCC          E(Eh)            E(eV)
   0   1.0000     -89.600332     -2438.1490
   1   1.0000     -10.454107      -284.4707
   2   1.0000      -8.240836      -224.2445
   3   1.0000      -6.131955      -166.8590
   4   1.0000      -6.128671      -166.7696
   5   1.0000      -6.122114      -166.5912
   6   1.0000      -0.863080       -23.4856
   7   1.0000      -0.676040       -18.3960
   8   1.0000      -0.522370       -14.2144
   9   1.0000      -0.460399       -12.5281
  10   1.0000      -0.391609       -10.6562
  11   1.0000      -0.324998        -8.8436
  12   0.0000      -0.012333        -0.3356
  13   0.0000       0.063728         1.7341
  14   0.0000       0.134807         3.6683
  15   0.0000       0.204049         5.5524
  16   0.0000       0.232535         6.3276

MULLIKEN ATOMIC CHARGES AND SPIN POPULATIONS
--------------------------------------------
   0 C :   -0.602976    0.970679
   1 S :   -0.091110    0.141508
   2 H :    0.185680   -0.005861
   3 H :    0.251936   -0.053123
   4 H :    0.256471   -0.053203
Sum of atomic charges         :   -0.0000000

LOEWDIN ATOMIC CHARGES AND SPIN POPULATIONS
-------------------------------------------
   0 C :   -0.472662    0.877246
   1 S :    0.085338    0.180619
   2 H :    0.107197   -0.003545
   3 H :    0.138047   -0.027263
   4 H :    0.142079   -0.027056

  Mayer bond orders larger than 0.100000
B(  0-C ,  1-S ) :   1.2443 B(  0-C ,  3-H ) :   0.8987 B(  0-C ,  4-H ) :   0.9041
B(  1-S ,  2-H ) :   0.9260

Dispersion correction           -0.001275896
FINAL SINGLE POINT ENERGY      -437.495112670323

DIPOLE MOMENT
-------------
                                X             Y             Z
Electronic contribution:      2.36096      -0.80056       0.00000
Nuclear contribution   :     -2.53817       1.21632       0.00000
                        -----------------------------------------
Total Dipole Moment    :     -0.17721       0.41576       0.00000
                        -----------------------------------------
Magnitude (a.u.)       :      0.45195
Magnitude (Debye)      :      1.14876

Rotational constants in cm-1:     4.799393     0.509194     0.460353
Rotational constants in MHz : 143882.175575 15265.256964 13801.029320

                             ****ORCA TERMINATED NORMALLY****
TOTAL RUN TIME: 0 days 0 hours 2 minutes 34 seconds 817 msec
