                         Program Version 5.0.3 -  RELEASE  -
|  1> ! PBEh-3c def2/J TightSCF DefGrid3
|  2>
|  3> %maxcore 60000
|  4>
|  5> %pal
|  6> nprocs 4
|  7> end
|  8>
|  9> *xyzfile 0 1 E13.xyz
| 10>
| 11>                          ****END OF INPUT****

CARTESIAN COORDINATES (ANGSTROEM)
---------------------------------
  C      0.000000    0.000000   -0.488521
  C      0.000000    0.000000    0.966972
  N      0.000000    0.000000    2.117957
  H     -0.511937   -0.886702   -0.865469
  H     -0.511937    0.886702   -0.865469
  H      1.023875    0.000000   -0.865469

 Total Charge           Charge          ....    0
 Multiplicity           Mult            ....    1
 Number of Electrons    NEL             ....   22
 Basis Dimension        Dim             ....   51

ORBITAL ENERGIES
----------------

  NO   OCC          E(Eh)            E(eV)
   0   2.0000     -14.642110      -398.4321
   1   2.0000     -10.492069      -285.5037
   2   2.0000     -10.491821      -285.4970
   3   2.0000      -1.010825       -27.5060
   4   2.0000      -0.867180       -23.5972
   5   2.0000      -0.582574       -15.8526
   6   2.0000      -0.526115       -14.3163
   7   2.0000      -0.526115       -14.3163
   8   2.0000      -0.425994       -11.5919
   9   2.0000      -0.382938       -10.4203
  10   2.0000      -0.382938       -10.4203
  11   0.0000       0.069992         1.9046
  12   0.0000       0.069992         1.9046
  13   0.0000       0.135580         3.6893
  14   0.0000       0.210750         5.7348
  15   0.0000       0.212695         5.7877

MULLIKEN ATOMIC CHARGES
-----------------------
   0 C :   -0.723881
   1 C :    0.087789
   2 N :   -0.192414
   3 H :    0.276171
   4 H :    0.276171
   5 H :    0.276165
Sum of atomic charges:    0.0000000

LOEWDIN ATOMIC CHARGES
----------------------
   0 C :   -0.380937
   1 C :   -0.030757
   2 N :   -0.092047
   3 H :    0.167914
   4 H :    0.167914
   5 H :    0.167913

  Mayer bond orders larger than 0.100000
B(  0-C ,  1-C ) :   0.9669 B(  0-C ,  3-H ) :   0.8970 B(  0-C ,  4-H ) :   0.8970
B(  0-C ,  5-H ) :   0.8970 B(  1-C ,  2-N ) :   3.1816

Dispersion correction           -0.001534084
FINAL SINGLE POINT ENERGY      -132.453939008093

DIPOLE MOMENT
-------------
                                X             Y             Z
Electronic contribution:     -0.00000       0.00000       3.14405
Nuclear contribution   :      0.00000       0.00000      -4.67705
                        -----------------------------------------
Total Dipole Moment    :     -0.00000       0.00000      -1.53300
                        -----------------------------------------
Magnitude (a.u.)       :      1.53300
Magnitude (Debye)      :      3.89658

Rotational constants in cm-1:     5.317670     0.308862     0.308862
Rotational constants in MHz : 159419.742235  9259.457202  9259.457194

                             ****ORCA TERMINATED NORMALLY****
TOTAL RUN TIME: 0 days 0 hours 0 minutes 35 seconds 440 msec
