                         Program Version 5.0.3 -  RELEASE  -
|  1> ! PBEh-3c def2/J TightSCF DefGrid3
|  2>
|  3> %maxcore 60000
|  4>
|  5> %pal
|  6> nprocs 4
|  7> end
|  8>
|  9> *xyzfile 0 1 B13.xyz
| 10>
| 11>                          ****END OF INPUT****

CARTESIAN COORDINATES (ANGSTROEM)
---------------------------------
  C      1.929586   -0.374395    0.311719
  H      2.206715   -1.241198   -0.288749
  O      2.288913    0.758383   -0.476830
  C      0.443933   -0.414840    0.645207
  H      0.255416   -1.277388    1.292092
  H      0.177846    0.474238    1.221559
  C     -0.440113   -0.494414   -0.596989
  H     -0.251144   -1.433539   -1.124366
  H     -0.184624    0.316072   -1.279807
  H      2.043330    1.541885    0.023488
  H      2.521062   -0.406238    1.232004
  C     -1.920107   -0.412310   -0.271017
  H     -2.509477   -0.545214   -1.182888
  H     -2.194490   -1.208485    0.429907
  O     -2.169056    0.871031    0.304610
  H     -3.103284    0.920316    0.521004

 Total Charge           Charge          ....    0
 Multiplicity           Mult            ....    1
 Number of Electrons    NEL             ....   50
 Basis Dimension        Dim             ....  110

ORBITAL ENERGIES
----------------

  NO   OCC          E(Eh)            E(eV)
   0   2.0000     -19.484239      -530.1931
   1   2.0000     -19.478868      -530.0469
   2   2.0000     -10.480147      -285.1793
   3   2.0000     -10.474872      -285.0358
   4   2.0000     -10.428010      -283.7606
   5   2.0000     -10.427071      -283.7350
   6   2.0000      -1.120224       -30.4828
   7   2.0000      -1.115011       -30.3410
   8   2.0000      -0.877581       -23.8802
   9   2.0000      -0.795613       -21.6497
  10   2.0000      -0.702473       -19.1153
  11   2.0000      -0.651306       -17.7229
  12   2.0000      -0.582210       -15.8427
  13   2.0000      -0.551625       -15.0105
  14   2.0000      -0.525156       -14.2902
  15   2.0000      -0.507076       -13.7982
  16   2.0000      -0.490650       -13.3513
  17   2.0000      -0.448339       -12.1999
  18   2.0000      -0.438864       -11.9421
  19   2.0000      -0.410688       -11.1754
  20   2.0000      -0.387822       -10.5532
  21   2.0000      -0.375438       -10.2162
  22   2.0000      -0.367089        -9.9890
  23   2.0000      -0.326479        -8.8839
  24   2.0000      -0.315667        -8.5897
  25   0.0000       0.128678         3.5015
  26   0.0000       0.133614         3.6358
  27   0.0000       0.171469         4.6659
  28   0.0000       0.184126         5.0103
  29   0.0000       0.203128         5.5274

MULLIKEN ATOMIC CHARGES
-----------------------
   0 C :   -0.153896
   1 H :    0.202552
   2 O :   -0.622912
   3 C :   -0.463672
   4 H :    0.201733
   5 H :    0.228683
   6 C :   -0.430871
   7 H :    0.204671
   8 H :    0.241561
   9 H :    0.410438
  10 H :    0.189221
  11 C :   -0.153108
  12 H :    0.190083
  13 H :    0.172919
  14 O :   -0.634340
  15 H :    0.416938
Sum of atomic charges:   -0.0000000

LOEWDIN ATOMIC CHARGES
----------------------
   0 C :   -0.093794
   1 H :    0.116293
   2 O :   -0.413759
   3 C :   -0.267798
   4 H :    0.123483
   5 H :    0.129596
   6 C :   -0.253479
   7 H :    0.124386
   8 H :    0.138361
   9 H :    0.306367
  10 H :    0.099358
  11 C :   -0.089990
  12 H :    0.100508
  13 H :    0.094605
  14 O :   -0.422277
  15 H :    0.308140

  Mayer bond orders larger than 0.100000
B(  0-C ,  1-H ) :   0.9167 B(  0-C ,  2-O ) :   1.0163 B(  0-C ,  3-C ) :   0.9731
B(  0-C , 10-H ) :   0.9145 B(  2-O ,  9-H ) :   0.7941 B(  3-C ,  4-H ) :   0.9139
B(  3-C ,  5-H ) :   0.9076 B(  3-C ,  6-C ) :   0.9728 B(  6-C ,  7-H ) :   0.9218
B(  6-C ,  8-H ) :   0.9005 B(  6-C , 11-C ) :   0.9877 B( 11-C , 12-H ) :   0.9107
B( 11-C , 13-H ) :   0.9068 B( 11-C , 14-O ) :   1.0060 B( 14-O , 15-H ) :   0.7935

Dispersion correction           -0.006509591
FINAL SINGLE POINT ENERGY      -308.207333014673

DIPOLE MOMENT
-------------
                                X             Y             Z
Electronic contribution:      0.26917       2.61948      -0.36820
Nuclear contribution   :     -1.08026      -2.95278       0.87684
                        -----------------------------------------
Total Dipole Moment    :     -0.81109      -0.33330       0.50864
                        -----------------------------------------
Magnitude (a.u.)       :      1.01374
Magnitude (Debye)      :      2.57673

Rotational constants in cm-1:     0.252561     0.053444     0.051044
Rotational constants in MHz :  7571.579563  1602.220781  1530.266333

                             ****ORCA TERMINATED NORMALLY****
TOTAL RUN TIME: 0 days 0 hours 1 minutes 18 seconds 602 msec
