                         Program Version 5.0.3 -  RELEASE  -
|  1> ! PBEh-3c def2/J TightSCF DefGrid3
|  2>
|  3> %maxcore 60000
|  4>
|  5> %pal
|  6> nprocs 4
|  7> end
|  8>
|  9> *xyzfile -1 1 144B.xyz
| 10>
| 11>                          ****END OF INPUT****

CARTESIAN COORDINATES (ANGSTROEM)
---------------------------------
  O      2.580810   -2.068570    0.950540
  C      3.234500   -1.470350    0.048330
  C      3.895020   -2.352370   -1.022810
  F      4.222200   -3.581340   -0.545990
  O      3.373240   -0.243580   -0.112790
  F      2.983280   -2.550500   -2.027410
  H      4.784110   -1.897220   -1.455620

 Total Charge           Charge          ....   -1
 Multiplicity           Mult            ....    1
 Number of Electrons    NEL             ....   48
 Basis Dimension        Dim             ....   92

ORBITAL ENERGIES
----------------

  NO   OCC          E(Eh)            E(eV)
   0   2.0000     -24.928166      -678.3299
   1   2.0000     -24.928030      -678.3262
   2   2.0000     -19.225603      -523.1552
   3   2.0000     -19.218928      -522.9736
   4   2.0000     -10.412012      -283.3253
   5   2.0000     -10.325204      -280.9631
   6   2.0000      -1.200113       -32.6567
   7   2.0000      -1.139839       -31.0166
   8   2.0000      -0.922159       -25.0932
   9   2.0000      -0.827366       -22.5138
  10   2.0000      -0.616524       -16.7765
  11   2.0000      -0.461896       -12.5688
  12   2.0000      -0.444179       -12.0867
  13   2.0000      -0.437001       -11.8914
  14   2.0000      -0.332666        -9.0523
  15   2.0000      -0.325279        -8.8513
  16   2.0000      -0.300465        -8.1761
  17   2.0000      -0.298343        -8.1183
  18   2.0000      -0.254931        -6.9370
  19   2.0000      -0.242611        -6.6018
  20   2.0000      -0.232095        -6.3156
  21   2.0000      -0.089777        -2.4429
  22   2.0000      -0.086550        -2.3552
  23   2.0000      -0.080674        -2.1952
  24   0.0000       0.266546         7.2531
  25   0.0000       0.355558         9.6752
  26   0.0000       0.390533        10.6270
  27   0.0000       0.427439        11.6312
  28   0.0000       0.502240        13.6666

MULLIKEN ATOMIC CHARGES
-----------------------
   0 O :   -0.577669
   1 C :    0.323355
   2 C :    0.440941
   3 F :   -0.351853
   4 O :   -0.570983
   5 F :   -0.369781
   6 H :    0.105990
Sum of atomic charges:   -1.0000000

LOEWDIN ATOMIC CHARGES
----------------------
   0 O :   -0.414192
   1 C :   -0.028051
   2 C :    0.192609
   3 F :   -0.206435
   4 O :   -0.400588
   5 F :   -0.219519
   6 H :    0.076175

  Mayer bond orders larger than 0.100000
B(  0-O ,  1-C ) :   1.7886 B(  0-O ,  4-O ) :   0.1516 B(  1-C ,  2-C ) :   0.8425
B(  1-C ,  4-O ) :   1.7964 B(  2-C ,  3-F ) :   0.9742 B(  2-C ,  5-F ) :   0.9437
B(  2-C ,  6-H ) :   0.9036

Dispersion correction           -0.002192084
FINAL SINGLE POINT ENERGY      -426.137579503561

DIPOLE MOMENT
-------------
                                X             Y             Z
Electronic contribution:      0.08509      -3.05741      -1.97228
Nuclear contribution   :      0.90588       1.99167       0.57777
                        -----------------------------------------
Total Dipole Moment    :      0.99098      -1.06574      -1.39451
                        -----------------------------------------
Magnitude (a.u.)       :      2.01556
Magnitude (Debye)      :      5.12315

Rotational constants in cm-1:     0.188905     0.103806     0.083676
Rotational constants in MHz :  5663.239922  3112.020058  2508.550780

                             ****ORCA TERMINATED NORMALLY****
TOTAL RUN TIME: 0 days 0 hours 0 minutes 55 seconds 993 msec
