                         Program Version 5.0.3 -  RELEASE  -
|  1> ! PBEh-3c def2/J TightSCF DefGrid3
|  2>
|  3> %maxcore 60000
|  4>
|  5> %pal
|  6> nprocs 4
|  7> end
|  8>
|  9> *xyzfile 0 1 r5.xyz
| 10>
| 11>                          ****END OF INPUT****

CARTESIAN COORDINATES (ANGSTROEM)
---------------------------------
  C      1.330904    1.049052   -0.775504
  C      1.330904    1.049052    0.775504
  C     -0.052826    0.517196   -1.182523
  C     -0.509925   -0.345220    0.000000
  C     -0.052826    0.517196    1.182523
  C     -2.011205   -0.586358    0.000000
  C      0.229469   -1.681739    0.000000
  H      2.118171    0.400472   -1.156841
  H      1.515296    2.040580   -1.184515
  H      2.118171    0.400472    1.156841
  H      1.515296    2.040580    1.184515
  H     -0.039202   -0.036296   -2.122607
  H     -0.753398    1.347813   -1.299016
  H     -0.039202   -0.036296    2.122607
  H     -0.753398    1.347813    1.299016
  H     -2.554677    0.359468    0.000000
  H     -2.316236   -1.152576   -0.881509
  H     -2.316236   -1.152576    0.881509
  H      1.311038   -1.547078    0.000000
  H     -0.035058   -2.265778    0.882772
  H     -0.035058   -2.265778   -0.882772

 Total Charge           Charge          ....    0
 Multiplicity           Mult            ....    1
 Number of Electrons    NEL             ....   56
 Basis Dimension        Dim             ....  133

ORBITAL ENERGIES
----------------

  NO   OCC          E(Eh)            E(eV)
   0   2.0000     -10.440786      -284.1082
   1   2.0000     -10.424507      -283.6652
   2   2.0000     -10.424330      -283.6605
   3   2.0000     -10.422054      -283.5985
   4   2.0000     -10.422004      -283.5971
   5   2.0000     -10.417142      -283.4649
   6   2.0000     -10.416819      -283.4561
   7   2.0000      -0.940986       -25.6055
   8   2.0000      -0.839905       -22.8550
   9   2.0000      -0.787032       -21.4162
  10   2.0000      -0.762399       -20.7459
  11   2.0000      -0.723446       -19.6860
  12   2.0000      -0.632019       -17.1981
  13   2.0000      -0.592488       -16.1224
  14   2.0000      -0.533059       -14.5053
  15   2.0000      -0.526260       -14.3203
  16   2.0000      -0.495248       -13.4764
  17   2.0000      -0.483602       -13.1595
  18   2.0000      -0.451638       -12.2897
  19   2.0000      -0.444350       -12.0914
  20   2.0000      -0.423710       -11.5297
  21   2.0000      -0.410698       -11.1757
  22   2.0000      -0.381634       -10.3848
  23   2.0000      -0.379909       -10.3378
  24   2.0000      -0.363110        -9.8807
  25   2.0000      -0.359480        -9.7819
  26   2.0000      -0.356959        -9.7133
  27   2.0000      -0.345839        -9.4107
  28   0.0000       0.115449         3.1415
  29   0.0000       0.148114         4.0304
  30   0.0000       0.163339         4.4447
  31   0.0000       0.181482         4.9384
  32   0.0000       0.195145         5.3102

MULLIKEN ATOMIC CHARGES
-----------------------
   0 C :   -0.441592
   1 C :   -0.441592
   2 C :   -0.397578
   3 C :   -0.096880
   4 C :   -0.397578
   5 C :   -0.614929
   6 C :   -0.621190
   7 H :    0.216722
   8 H :    0.222370
   9 H :    0.216722
  10 H :    0.222370
  11 H :    0.216218
  12 H :    0.210419
  13 H :    0.216218
  14 H :    0.210419
  15 H :    0.209008
  16 H :    0.212079
  17 H :    0.212079
  18 H :    0.220192
  19 H :    0.213263
  20 H :    0.213263
Sum of atomic charges:   -0.0000000

LOEWDIN ATOMIC CHARGES
----------------------
   0 C :   -0.245232
   1 C :   -0.245232
   2 C :   -0.227064
   3 C :   -0.108735
   4 C :   -0.227064
   5 C :   -0.341831
   6 C :   -0.341918
   7 H :    0.122604
   8 H :    0.125650
   9 H :    0.122604
  10 H :    0.125650
  11 H :    0.123308
  12 H :    0.121375
  13 H :    0.123308
  14 H :    0.121375
  15 H :    0.123462
  16 H :    0.125427
  17 H :    0.125427
  18 H :    0.126325
  19 H :    0.125280
  20 H :    0.125280

  Mayer bond orders larger than 0.100000
B(  0-C ,  1-C ) :   0.9607 B(  0-C ,  2-C ) :   0.9752 B(  0-C ,  7-H ) :   0.9300
B(  0-C ,  8-H ) :   0.9327 B(  1-C ,  4-C ) :   0.9752 B(  1-C ,  9-H ) :   0.9300
B(  1-C , 10-H ) :   0.9327 B(  2-C ,  3-C ) :   0.9615 B(  2-C , 11-H ) :   0.9298
B(  2-C , 12-H ) :   0.9263 B(  3-C ,  4-C ) :   0.9615 B(  3-C ,  5-C ) :   0.9972
B(  3-C ,  6-C ) :   0.9763 B(  4-C , 13-H ) :   0.9298 B(  4-C , 14-H ) :   0.9263
B(  5-C , 15-H ) :   0.9302 B(  5-C , 16-H ) :   0.9299 B(  5-C , 17-H ) :   0.9299
B(  6-C , 18-H ) :   0.9262 B(  6-C , 19-H ) :   0.9298 B(  6-C , 20-H ) :   0.9298

Dispersion correction           -0.011324187
FINAL SINGLE POINT ENERGY      -274.588606038427

DIPOLE MOMENT
-------------
                                X             Y             Z
Electronic contribution:      0.64044       1.26226      -0.00000
Nuclear contribution   :     -0.63744      -1.25123      -0.00000
                        -----------------------------------------
Total Dipole Moment    :      0.00300       0.01103      -0.00000
                        -----------------------------------------
Magnitude (a.u.)       :      0.01144
Magnitude (Debye)      :      0.02907

Rotational constants in cm-1:     0.130833     0.073667     0.070723
Rotational constants in MHz :  3922.283116  2208.482651  2120.215669

                             ****ORCA TERMINATED NORMALLY****
TOTAL RUN TIME: 0 days 0 hours 1 minutes 40 seconds 927 msec
