                         Program Version 5.0.3 -  RELEASE  -
|  1> ! PBEh-3c def2/J TightSCF DefGrid3
|  2>
|  3> %maxcore 60000
|  4>
|  5> %pal
|  6> nprocs 4
|  7> end
|  8>
|  9> *xyzfile 1 1 Methinecyanine_TS.xyz
| 10>
| 11>                          ****END OF INPUT****

CARTESIAN COORDINATES (ANGSTROEM)
---------------------------------
  C     -4.610946    0.183365   -0.272954
  C     -3.436513    0.917231   -0.285723
  C     -3.424942    2.295849   -0.113226
  C     -4.608023    2.987907    0.062066
  C     -5.803558    2.270760    0.066629
  C     -5.800580    0.888312   -0.094125
  C     -2.004819    2.747675   -0.161732
  C     -1.211574    1.469768   -0.408694
  N     -2.093797    0.457385   -0.469625
  C     -1.832804   -0.937147   -0.738341
  C      0.177800    1.635634   -0.507984
  C      1.446979    1.047691   -0.612026
  N      1.959728   -0.187298   -0.751284
  C      3.390848   -0.163835   -0.766584
  C      3.825667    1.151220   -0.651717
  C      2.618674    2.019703   -0.544467
  C      5.176833    1.442213   -0.644499
  C      6.084058    0.388304   -0.742182
  C      5.635272   -0.923967   -0.850260
  C      4.274222   -1.225069   -0.866987
  C      1.247944   -1.436131   -0.900312
  H     -4.609411    4.060998    0.197135
  H     -6.740239    2.792466    0.201783
  H     -6.734583    0.344770   -0.082654
  H     -4.635934   -0.888803   -0.396742
  H     -1.678135    3.210737    0.772532
  H     -1.809154    3.469205   -0.957483
  H     -1.285326   -1.394739    0.082057
  H     -2.776749   -1.454670   -0.853055
  H     -1.275843   -1.045401   -1.664575
  H      0.354336    2.700634   -0.417061
  H      2.542023    2.750003   -1.353113
  H      2.581530    2.579642    0.392522
  H      0.597523   -1.397335   -1.769422
  H      0.668763   -1.660553   -0.007963
  H      1.963184   -2.234352   -1.051889
  H      3.953807   -2.252078   -0.952978
  H      6.351467   -1.729547   -0.924697
  H      7.145460    0.590995   -0.733299
  H      5.525885    2.462429   -0.560058

 Total Charge           Charge          ....    1
 Multiplicity           Mult            ....    1
 Number of Electrons    NEL             ....  146
 Basis Dimension        Dim             ....  353

ORBITAL ENERGIES
----------------

  NO   OCC          E(Eh)            E(eV)
   0   2.0000     -14.854073      -404.1999
   1   2.0000     -14.854051      -404.1993
   2   2.0000     -10.673321      -290.4358
   3   2.0000     -10.673233      -290.4334
   4   2.0000     -10.616250      -288.8828
   5   2.0000     -10.616221      -288.8821
   6   2.0000     -10.615166      -288.8534
   7   2.0000     -10.614987      -288.8485
   8   2.0000     -10.590890      -288.1928
   9   2.0000     -10.589671      -288.1596
  10   2.0000     -10.589534      -288.1559
  11   2.0000     -10.578228      -287.8482
  12   2.0000     -10.578199      -287.8474
  13   2.0000     -10.571747      -287.6719
  14   2.0000     -10.571582      -287.6674
  15   2.0000     -10.565414      -287.4995
  16   2.0000     -10.565396      -287.4990
  17   2.0000     -10.561833      -287.4021
  18   2.0000     -10.561592      -287.3955
  19   2.0000     -10.556998      -287.2705
  20   2.0000     -10.556809      -287.2654
  21   2.0000      -1.248395       -33.9706
  22   2.0000      -1.244871       -33.8747
  23   2.0000      -1.080155       -29.3925
  24   2.0000      -1.078652       -29.3516
  25   2.0000      -1.058586       -28.8056
  26   2.0000      -1.034702       -28.1557
  27   2.0000      -0.997749       -27.1501
  28   2.0000      -0.965290       -26.2669
  29   2.0000      -0.963343       -26.2139
  30   2.0000      -0.951333       -25.8871
  31   2.0000      -0.934588       -25.4314
  32   2.0000      -0.919360       -25.0171
  33   2.0000      -0.894830       -24.3496
  34   2.0000      -0.836452       -22.7610
  35   2.0000      -0.823310       -22.4034
  36   2.0000      -0.803064       -21.8525
  37   2.0000      -0.799874       -21.7657
  38   2.0000      -0.784760       -21.3544
  39   2.0000      -0.756990       -20.5987
  40   2.0000      -0.724667       -19.7192
  41   2.0000      -0.719393       -19.5757
  42   2.0000      -0.708712       -19.2850
  43   2.0000      -0.692795       -18.8519
  44   2.0000      -0.677656       -18.4400
  45   2.0000      -0.675174       -18.3724
  46   2.0000      -0.659241       -17.9389
  47   2.0000      -0.643669       -17.5151
  48   2.0000      -0.640554       -17.4304
  49   2.0000      -0.636806       -17.3284
  50   2.0000      -0.632198       -17.2030
  51   2.0000      -0.626986       -17.0611
  52   2.0000      -0.626106       -17.0372
  53   2.0000      -0.611055       -16.6277
  54   2.0000      -0.606058       -16.4917
  55   2.0000      -0.591656       -16.0998
  56   2.0000      -0.586914       -15.9707
  57   2.0000      -0.573570       -15.6076
  58   2.0000      -0.569463       -15.4959
  59   2.0000      -0.564443       -15.3593
  60   2.0000      -0.555228       -15.1085
  61   2.0000      -0.547278       -14.8922
  62   2.0000      -0.535037       -14.5591
  63   2.0000      -0.531287       -14.4571
  64   2.0000      -0.528776       -14.3887
  65   2.0000      -0.516144       -14.0450
  66   2.0000      -0.514714       -14.0061
  67   2.0000      -0.509713       -13.8700
  68   2.0000      -0.450493       -12.2585
  69   2.0000      -0.408729       -11.1221
  70   2.0000      -0.408601       -11.1186
  71   2.0000      -0.401056       -10.9133
  72   2.0000      -0.364133        -9.9086
  73   0.0000      -0.184297        -5.0150
  74   0.0000      -0.105852        -2.8804
  75   0.0000      -0.101314        -2.7569
  76   0.0000      -0.090915        -2.4739
  77   0.0000      -0.076879        -2.0920

MULLIKEN ATOMIC CHARGES
-----------------------
   0 C :   -0.284393
   1 C :    0.408233
   2 C :    0.021957
   3 C :   -0.293746
   4 C :   -0.216946
   5 C :   -0.220472
   6 C :   -0.549879
   7 C :    0.404087
   8 N :   -0.588889
   9 C :   -0.531625
  10 C :   -0.328668
  11 C :    0.404048
  12 N :   -0.590196
  13 C :    0.407837
  14 C :    0.021719
  15 C :   -0.550047
  16 C :   -0.294094
  17 C :   -0.216664
  18 C :   -0.220291
  19 C :   -0.284033
  20 C :   -0.531807
  21 H :    0.244416
  22 H :    0.257208
  23 H :    0.258209
  24 H :    0.242202
  25 H :    0.302763
  26 H :    0.301155
  27 H :    0.251205
  28 H :    0.284045
  29 H :    0.250000
  30 H :    0.250687
  31 H :    0.302271
  32 H :    0.301610
  33 H :    0.250838
  34 H :    0.250789
  35 H :    0.284503
  36 H :    0.242146
  37 H :    0.258205
  38 H :    0.257230
  39 H :    0.244385
Sum of atomic charges:    1.0000000

LOEWDIN ATOMIC CHARGES
----------------------
   0 C :   -0.148644
   1 C :    0.034824
   2 C :   -0.055966
   3 C :   -0.107399
   4 C :   -0.115228
   5 C :   -0.105147
   6 C :   -0.209991
   7 C :    0.116676
   8 N :   -0.022141
   9 C :   -0.233071
  10 C :   -0.275577
  11 C :    0.116587
  12 N :   -0.022536
  13 C :    0.035059
  14 C :   -0.055984
  15 C :   -0.210065
  16 C :   -0.107275
  17 C :   -0.115384
  18 C :   -0.105176
  19 C :   -0.148551
  20 C :   -0.232841
  21 H :    0.152641
  22 H :    0.154274
  23 H :    0.154566
  24 H :    0.147684
  25 H :    0.178418
  26 H :    0.177445
  27 H :    0.140104
  28 H :    0.154799
  29 H :    0.139960
  30 H :    0.168176
  31 H :    0.178188
  32 H :    0.177602
  33 H :    0.140021
  34 H :    0.140234
  35 H :    0.154737
  36 H :    0.147573
  37 H :    0.154485
  38 H :    0.154258
  39 H :    0.152665

  Mayer bond orders larger than 0.100000
B(  0-C ,  1-C ) :   1.3435 B(  0-C ,  5-C ) :   1.4262 B(  0-C , 24-H ) :   0.9043
B(  1-C ,  2-C ) :   1.3118 B(  1-C ,  8-N ) :   0.8682 B(  2-C ,  3-C ) :   1.4286
B(  2-C ,  6-C ) :   1.0040 B(  3-C ,  4-C ) :   1.4082 B(  3-C , 21-H ) :   0.9207
B(  4-C ,  5-C ) :   1.4311 B(  4-C , 22-H ) :   0.9055 B(  5-C , 23-H ) :   0.9055
B(  6-C ,  7-C ) :   0.9615 B(  6-C , 25-H ) :   0.8708 B(  6-C , 26-H ) :   0.8732
B(  7-C ,  8-N ) :   1.3346 B(  7-C , 10-C ) :   1.2608 B(  8-N ,  9-C ) :   0.9565
B(  9-C , 27-H ) :   0.8918 B(  9-C , 28-H ) :   0.8897 B(  9-C , 29-H ) :   0.8920
B( 10-C , 11-C ) :   1.2617 B( 10-C , 30-H ) :   0.9059 B( 11-C , 12-N ) :   1.3342
B( 11-C , 15-C ) :   0.9617 B( 12-N , 13-C ) :   0.8677 B( 12-N , 20-C ) :   0.9559
B( 13-C , 14-C ) :   1.3121 B( 13-C , 19-C ) :   1.3438 B( 14-C , 15-C ) :   1.0040
B( 14-C , 16-C ) :   1.4287 B( 15-C , 31-H ) :   0.8715 B( 15-C , 32-H ) :   0.8723
B( 16-C , 17-C ) :   1.4079 B( 16-C , 39-H ) :   0.9208 B( 17-C , 18-C ) :   1.4317
B( 17-C , 38-H ) :   0.9055 B( 18-C , 19-C ) :   1.4259 B( 18-C , 37-H ) :   0.9055
B( 19-C , 36-H ) :   0.9040 B( 20-C , 33-H ) :   0.8916 B( 20-C , 34-H ) :   0.8923
B( 20-C , 35-H ) :   0.8896

Dispersion correction           -0.029329519
FINAL SINGLE POINT ENERGY      -842.884037304101

DIPOLE MOMENT
-------------
                                X             Y             Z
Electronic contribution:      0.58077       3.38934       0.57833
Nuclear contribution   :     -0.64853      -3.76356      -0.66938
                        -----------------------------------------
Total Dipole Moment    :     -0.06775      -0.37422      -0.09105
                        -----------------------------------------
Magnitude (a.u.)       :      0.39105
Magnitude (Debye)      :      0.99398

Rotational constants in cm-1:     0.039298     0.004159     0.003774
Rotational constants in MHz :  1178.128733   124.692045   113.155169

                             ****ORCA TERMINATED NORMALLY****
TOTAL RUN TIME: 0 days 0 hours 5 minutes 4 seconds 8 msec
