                         Program Version 5.0.3 -  RELEASE  -
|  1> ! PBEh-3c def2/J TightSCF DefGrid3
|  2>
|  3> %maxcore 60000
|  4>
|  5> %pal
|  6> nprocs 4
|  7> end
|  8>
|  9> *xyzfile 0 1 c2.xyz
| 10>
| 11>                          ****END OF INPUT****

CARTESIAN COORDINATES (ANGSTROEM)
---------------------------------
  C      0.000000    1.249286   -1.277063
  C      0.000000   -1.249286   -1.277063
  C      1.266989    0.000000    0.502066
  C     -1.266989    0.000000    0.502066
  C      0.000000    0.000000   -2.160247
  C      1.247281    1.244006   -0.391990
  C     -1.247281    1.244006   -0.391990
  C     -1.247281   -1.244006   -0.391990
  C      1.247281   -1.244006   -0.391990
  C      0.000000    0.000000    1.362288
  H      0.881227    0.000000   -2.807743
  H     -0.881227    0.000000   -2.807743
  H      1.268044    2.141751    0.234584
  H     -1.268044    2.141751    0.234584
  H     -1.268044   -2.141751    0.234584
  H      1.268044   -2.141751    0.234584
  H      2.149303    1.259835   -1.012367
  H     -2.149303    1.259835   -1.012367
  H     -2.149303   -1.259835   -1.012367
  H      2.149303   -1.259835   -1.012367
  H      0.000000   -0.882077    2.013395
  H      0.000000    0.882077    2.013395
  H      0.000000    2.143557   -1.904862
  H      0.000000   -2.143557   -1.904862
  C      2.504985    0.000000    1.384362
  C     -2.504985    0.000000    1.384362
  H      2.524472    0.883769    2.024875
  H     -2.524472    0.883769    2.024875
  H     -2.524472   -0.883769    2.024875
  H      2.524472   -0.883769    2.024875
  H      3.413134    0.000000    0.778621
  H     -3.413134    0.000000    0.778621

 Total Charge           Charge          ....    0
 Multiplicity           Mult            ....    1
 Number of Electrons    NEL             ....   92
 Basis Dimension        Dim             ....  220

ORBITAL ENERGIES
----------------

  NO   OCC          E(Eh)            E(eV)
   0   2.0000     -10.439086      -284.0620
   1   2.0000     -10.439043      -284.0608
   2   2.0000     -10.431125      -283.8453
   3   2.0000     -10.431073      -283.8439
   4   2.0000     -10.422264      -283.6042
   5   2.0000     -10.421789      -283.5913
   6   2.0000     -10.421716      -283.5893
   7   2.0000     -10.421715      -283.5893
   8   2.0000     -10.421675      -283.5882
   9   2.0000     -10.421150      -283.5739
  10   2.0000     -10.416102      -283.4365
  11   2.0000     -10.416093      -283.4363
  12   2.0000      -0.972001       -26.4495
  13   2.0000      -0.883753       -24.0482
  14   2.0000      -0.869420       -23.6581
  15   2.0000      -0.853979       -23.2379
  16   2.0000      -0.758998       -20.6534
  17   2.0000      -0.754006       -20.5175
  18   2.0000      -0.743224       -20.2242
  19   2.0000      -0.743188       -20.2232
  20   2.0000      -0.654985       -17.8231
  21   2.0000      -0.638039       -17.3619
  22   2.0000      -0.615290       -16.7429
  23   2.0000      -0.576064       -15.6755
  24   2.0000      -0.506970       -13.7954
  25   2.0000      -0.506544       -13.7838
  26   2.0000      -0.505997       -13.7689
  27   2.0000      -0.495409       -13.4808
  28   2.0000      -0.493846       -13.4382
  29   2.0000      -0.488430       -13.2908
  30   2.0000      -0.476454       -12.9650
  31   2.0000      -0.442722       -12.0471
  32   2.0000      -0.442489       -12.0407
  33   2.0000      -0.424090       -11.5401
  34   2.0000      -0.423230       -11.5167
  35   2.0000      -0.418626       -11.3914
  36   2.0000      -0.418256       -11.3813
  37   2.0000      -0.412200       -11.2165
  38   2.0000      -0.370589       -10.0842
  39   2.0000      -0.368983       -10.0405
  40   2.0000      -0.364580        -9.9207
  41   2.0000      -0.359352        -9.7785
  42   2.0000      -0.356892        -9.7115
  43   2.0000      -0.320889        -8.7318
  44   2.0000      -0.318868        -8.6768
  45   2.0000      -0.316520        -8.6130
  46   0.0000       0.110670         3.0115
  47   0.0000       0.152033         4.1370
  48   0.0000       0.161840         4.4039
  49   0.0000       0.171766         4.6740
  50   0.0000       0.172646         4.6979

MULLIKEN ATOMIC CHARGES
-----------------------
   0 C :   -0.240025
   1 C :   -0.240025
   2 C :   -0.101183
   3 C :   -0.101182
   4 C :   -0.406879
   5 C :   -0.381688
   6 C :   -0.381687
   7 C :   -0.381687
   8 C :   -0.381687
   9 C :   -0.354662
  10 H :    0.212726
  11 H :    0.212726
  12 H :    0.208570
  13 H :    0.208570
  14 H :    0.208570
  15 H :    0.208570
  16 H :    0.208949
  17 H :    0.208948
  18 H :    0.208948
  19 H :    0.208949
  20 H :    0.204810
  21 H :    0.204810
  22 H :    0.214627
  23 H :    0.214627
  24 C :   -0.613998
  25 C :   -0.613998
  26 H :    0.210648
  27 H :    0.210648
  28 H :    0.210648
  29 H :    0.210648
  30 H :    0.210854
  31 H :    0.210854
Sum of atomic charges:   -0.0000000

LOEWDIN ATOMIC CHARGES
----------------------
   0 C :   -0.144458
   1 C :   -0.144458
   2 C :   -0.098454
   3 C :   -0.098454
   4 C :   -0.222060
   5 C :   -0.212882
   6 C :   -0.212882
   7 C :   -0.212882
   8 C :   -0.212882
   9 C :   -0.203259
  10 H :    0.120901
  11 H :    0.120901
  12 H :    0.120659
  13 H :    0.120659
  14 H :    0.120659
  15 H :    0.120659
  16 H :    0.120699
  17 H :    0.120699
  18 H :    0.120699
  19 H :    0.120699
  20 H :    0.120424
  21 H :    0.120424
  22 H :    0.121747
  23 H :    0.121747
  24 C :   -0.337988
  25 C :   -0.337988
  26 H :    0.124536
  27 H :    0.124536
  28 H :    0.124536
  29 H :    0.124536
  30 H :    0.124463
  31 H :    0.124463

  Mayer bond orders larger than 0.100000
B(  0-C ,  4-C ) :   0.9752 B(  0-C ,  5-C ) :   0.9782 B(  0-C ,  6-C ) :   0.9782
B(  0-C , 22-H ) :   0.9203 B(  1-C ,  4-C ) :   0.9752 B(  1-C ,  7-C ) :   0.9782
B(  1-C ,  8-C ) :   0.9782 B(  1-C , 23-H ) :   0.9203 B(  2-C ,  5-C ) :   0.9633
B(  2-C ,  8-C ) :   0.9633 B(  2-C ,  9-C ) :   0.9645 B(  2-C , 24-C ) :   1.0017
B(  3-C ,  6-C ) :   0.9633 B(  3-C ,  7-C ) :   0.9633 B(  3-C ,  9-C ) :   0.9645
B(  3-C , 25-C ) :   1.0017 B(  4-C , 10-H ) :   0.9239 B(  4-C , 11-H ) :   0.9239
B(  5-C , 12-H ) :   0.9231 B(  5-C , 16-H ) :   0.9227 B(  6-C , 13-H ) :   0.9231
B(  6-C , 17-H ) :   0.9227 B(  7-C , 14-H ) :   0.9231 B(  7-C , 18-H ) :   0.9227
B(  8-C , 15-H ) :   0.9231 B(  8-C , 19-H ) :   0.9227 B(  9-C , 20-H ) :   0.9221
B(  9-C , 21-H ) :   0.9221 B( 24-C , 26-H ) :   0.9291 B( 24-C , 29-H ) :   0.9291
B( 24-C , 30-H ) :   0.9289 B( 25-C , 27-H ) :   0.9291 B( 25-C , 28-H ) :   0.9291
B( 25-C , 31-H ) :   0.9289

Dispersion correction           -0.022971004
FINAL SINGLE POINT ENERGY      -468.356325197093

DIPOLE MOMENT
-------------
                                X             Y             Z
Electronic contribution:     -0.00000      -0.00000      -2.56577
Nuclear contribution   :      0.00000       0.00000       2.51786
                        -----------------------------------------
Total Dipole Moment    :     -0.00000      -0.00000      -0.04791
                        -----------------------------------------
Magnitude (a.u.)       :      0.04791
Magnitude (Debye)      :      0.12177

Rotational constants in cm-1:     0.044335     0.034360     0.029606
Rotational constants in MHz :  1329.141656  1030.095404   887.551103

                             ****ORCA TERMINATED NORMALLY****
TOTAL RUN TIME: 0 days 0 hours 3 minutes 20 seconds 755 msec
