                         Program Version 5.0.3 -  RELEASE  -
|  1> ! PBEh-3c def2/J TightSCF DefGrid3
|  2>
|  3> %maxcore 60000
|  4>
|  5> %pal
|  6> nprocs 4
|  7> end
|  8>
|  9> *xyzfile 0 1 5.xyz
| 10>
| 11>                          ****END OF INPUT****

CARTESIAN COORDINATES (ANGSTROEM)
---------------------------------
  P     -0.207821    1.767449    0.000000
  Cl     1.091282    1.967620    1.582561
  Cl     1.091282    1.967620   -1.582561
  Cl    -1.091282    3.623722    0.000000
  P      0.207821   -1.767449    0.000000
  Cl    -1.091282   -1.967620    1.582561
  Cl    -1.091282   -1.967620   -1.582561
  Cl     1.091282   -3.623722    0.000000

 Total Charge           Charge          ....    0
 Multiplicity           Mult            ....    1
 Number of Electrons    NEL             ....  132
 Basis Dimension        Dim             ....  144

ORBITAL ENERGIES
----------------

  NO   OCC          E(Eh)            E(eV)
   0   2.0000    -102.331903     -2784.5927
   1   2.0000    -102.331902     -2784.5926
   2   2.0000    -102.331730     -2784.5879
   3   2.0000    -102.331728     -2784.5879
   4   2.0000    -102.331723     -2784.5878
   5   2.0000    -102.331712     -2784.5874
   6   2.0000     -77.890302     -2119.5029
   7   2.0000     -77.890234     -2119.5010
   8   2.0000      -9.800306      -266.6799
   9   2.0000      -9.800305      -266.6799
  10   2.0000      -9.800057      -266.6731
  11   2.0000      -9.800053      -266.6730
  12   2.0000      -9.800048      -266.6729
  13   2.0000      -9.800046      -266.6728
  14   2.0000      -7.487248      -203.7384
  15   2.0000      -7.487247      -203.7384
  16   2.0000      -7.486956      -203.7304
  17   2.0000      -7.486954      -203.7304
  18   2.0000      -7.486953      -203.7304
  19   2.0000      -7.486952      -203.7303
  20   2.0000      -7.479833      -203.5366
  21   2.0000      -7.479833      -203.5366
  22   2.0000      -7.479593      -203.5301
  23   2.0000      -7.479591      -203.5300
  24   2.0000      -7.479581      -203.5297
  25   2.0000      -7.479580      -203.5297
  26   2.0000      -7.479509      -203.5278
  27   2.0000      -7.479508      -203.5278
  28   2.0000      -7.479318      -203.5226
  29   2.0000      -7.479318      -203.5226
  30   2.0000      -7.479311      -203.5224
  31   2.0000      -7.479310      -203.5224
  32   2.0000      -6.955581      -189.2710
  33   2.0000      -6.955550      -189.2701
  34   2.0000      -5.045391      -137.2921
  35   2.0000      -5.045377      -137.2917
  36   2.0000      -5.045371      -137.2915
  37   2.0000      -5.045347      -137.2909
  38   2.0000      -5.042392      -137.2105
  39   2.0000      -5.042388      -137.2103
  40   2.0000      -1.007848       -27.4249
  41   2.0000      -1.006597       -27.3909
  42   2.0000      -0.937836       -25.5198
  43   2.0000      -0.937819       -25.5193
  44   2.0000      -0.937526       -25.5114
  45   2.0000      -0.937165       -25.5016
  46   2.0000      -0.689183       -18.7536
  47   2.0000      -0.684640       -18.6300
  48   2.0000      -0.522120       -14.2076
  49   2.0000      -0.520062       -14.1516
  50   2.0000      -0.519356       -14.1324
  51   2.0000      -0.518962       -14.1217
  52   2.0000      -0.488851       -13.3023
  53   2.0000      -0.471822       -12.8389
  54   2.0000      -0.427961       -11.6454
  55   2.0000      -0.426591       -11.6081
  56   2.0000      -0.426581       -11.6078
  57   2.0000      -0.425716       -11.5843
  58   2.0000      -0.394386       -10.7318
  59   2.0000      -0.393854       -10.7173
  60   2.0000      -0.392312       -10.6754
  61   2.0000      -0.391011       -10.6399
  62   2.0000      -0.382854       -10.4180
  63   2.0000      -0.382755       -10.4153
  64   2.0000      -0.344819        -9.3830
  65   2.0000      -0.333281        -9.0690
  66   0.0000      -0.048644        -1.3237
  67   0.0000      -0.029477        -0.8021
  68   0.0000      -0.024835        -0.6758
  69   0.0000      -0.023149        -0.6299
  70   0.0000      -0.020119        -0.5475

MULLIKEN ATOMIC CHARGES
-----------------------
   0 P :    0.595289
   1 Cl:   -0.200956
   2 Cl:   -0.200956
   3 Cl:   -0.193376
   4 P :    0.595289
   5 Cl:   -0.200956
   6 Cl:   -0.200956
   7 Cl:   -0.193376
Sum of atomic charges:   -0.0000000

LOEWDIN ATOMIC CHARGES
----------------------
   0 P :    0.276532
   1 Cl:   -0.093641
   2 Cl:   -0.093641
   3 Cl:   -0.089250
   4 P :    0.276532
   5 Cl:   -0.093641
   6 Cl:   -0.093641
   7 Cl:   -0.089250

  Mayer bond orders larger than 0.100000
B(  0-P ,  1-Cl) :   1.0391 B(  0-P ,  2-Cl) :   1.0391 B(  0-P ,  3-Cl) :   1.0483
B(  4-P ,  5-Cl) :   1.0391 B(  4-P ,  6-Cl) :   1.0391 B(  4-P ,  7-Cl) :   1.0483

Dispersion correction           -0.007240917
FINAL SINGLE POINT ENERGY     -3440.247842896470

DIPOLE MOMENT
-------------
                                X             Y             Z
Electronic contribution:     -0.00000       0.00000      -0.00000
Nuclear contribution   :      0.00000       0.00000       0.00000
                        -----------------------------------------
Total Dipole Moment    :     -0.00000       0.00000      -0.00000
                        -----------------------------------------
Magnitude (a.u.)       :      0.00000
Magnitude (Debye)      :      0.00000

Rotational constants in cm-1:     0.027583     0.008736     0.008309
Rotational constants in MHz :   826.908465   261.903510   249.101593

                             ****ORCA TERMINATED NORMALLY****
TOTAL RUN TIME: 0 days 0 hours 1 minutes 27 seconds 350 msec
