                         Program Version 5.0.3 -  RELEASE  -
|  1> ! PBEh-3c def2/J TightSCF DefGrid3
|  2>
|  3> %maxcore 60000
|  4>
|  5> %pal
|  6> nprocs 4
|  7> end
|  8>
|  9> *xyzfile 0 1 nh3_3_ts.xyz
| 10>
| 11>                          ****END OF INPUT****

CARTESIAN COORDINATES (ANGSTROEM)
---------------------------------
  H      0.000000    1.039215    0.000000
  H      0.975536   -0.391735    0.000000
  H     -0.718624   -0.750749    0.000000
  H      1.615871    1.288560    0.821991
  H      0.276209   -2.048201   -0.821994
  H     -1.974443    0.792779   -0.810562
  N      1.170289    0.899018    0.000000
  N      0.223683   -1.458692    0.000000
  N     -1.407141    0.564959    0.000000
  H      0.276209   -2.048201    0.821994
  H     -1.974443    0.792779    0.810562
  H      1.615871    1.288560   -0.821991

 Total Charge           Charge          ....    0
 Multiplicity           Mult            ....    1
 Number of Electrons    NEL             ....   30
 Basis Dimension        Dim             ....   63

ORBITAL ENERGIES
----------------

  NO   OCC          E(Eh)            E(eV)
   0   2.0000     -14.599267      -397.2663
   1   2.0000     -14.599228      -397.2652
   2   2.0000     -14.520809      -395.1313
   3   2.0000      -0.950751       -25.8712
   4   2.0000      -0.914177       -24.8760
   5   2.0000      -0.828795       -22.5527
   6   2.0000      -0.563087       -15.3224
   7   2.0000      -0.527190       -14.3456
   8   2.0000      -0.517280       -14.0759
   9   2.0000      -0.475964       -12.9516
  10   2.0000      -0.467474       -12.7206
  11   2.0000      -0.439498       -11.9594
  12   2.0000      -0.301973        -8.2171
  13   2.0000      -0.278366        -7.5747
  14   2.0000      -0.213891        -5.8203
  15   0.0000       0.141138         3.8406
  16   0.0000       0.173012         4.7079
  17   0.0000       0.204573         5.5667
  18   0.0000       0.207893         5.6571
  19   0.0000       0.226542         6.1645

MULLIKEN ATOMIC CHARGES
-----------------------
   0 H :    0.417872
   1 H :    0.440445
   2 H :    0.417873
   3 H :    0.334922
   4 H :    0.334941
   5 H :    0.283159
   6 N :   -1.051506
   7 N :   -1.051486
   8 N :   -1.079241
   9 H :    0.334941
  10 H :    0.283159
  11 H :    0.334922
Sum of atomic charges:    0.0000000

LOEWDIN ATOMIC CHARGES
----------------------
   0 H :    0.291789
   1 H :    0.311974
   2 H :    0.291787
   3 H :    0.227481
   4 H :    0.227494
   5 H :    0.190227
   6 N :   -0.665995
   7 N :   -0.665920
   8 N :   -0.854040
   9 H :    0.227494
  10 H :    0.190227
  11 H :    0.227481

  Mayer bond orders larger than 0.100000
B(  0-H ,  6-N ) :   0.4649 B(  0-H ,  8-N ) :   0.3746 B(  1-H ,  6-N ) :   0.4022
B(  1-H ,  7-N ) :   0.4023 B(  2-H ,  7-N ) :   0.4649 B(  2-H ,  8-N ) :   0.3746
B(  3-H ,  6-N ) :   0.8625 B(  4-H ,  7-N ) :   0.8624 B(  5-H ,  8-N ) :   0.8890
B(  6-N , 11-H ) :   0.8625 B(  7-N ,  9-H ) :   0.8624 B(  8-N , 10-H ) :   0.8890

Dispersion correction           -0.003806570
FINAL SINGLE POINT ENERGY      -169.244573835992

DIPOLE MOMENT
-------------
                                X             Y             Z
Electronic contribution:      0.64592      -0.25957      -0.00000
Nuclear contribution   :      0.10157      -0.04076       0.00000
                        -----------------------------------------
Total Dipole Moment    :      0.74749      -0.30033      -0.00000
                        -----------------------------------------
Magnitude (a.u.)       :      0.80556
Magnitude (Debye)      :      2.04758

Rotational constants in cm-1:     0.262733     0.252401     0.137217
Rotational constants in MHz :  7876.541391  7566.776946  4113.652515

                             ****ORCA TERMINATED NORMALLY****
TOTAL RUN TIME: 0 days 0 hours 1 minutes 4 seconds 157 msec
