                         Program Version 5.0.3 -  RELEASE  -
|  1> ! PBEh-3c def2/J TightSCF DefGrid3
|  2>
|  3> %maxcore 60000
|  4>
|  5> %pal
|  6> nprocs 4
|  7> end
|  8>
|  9> *xyzfile 0 1 CYS_xag.xyz
| 10>
| 11>                          ****END OF INPUT****

CARTESIAN COORDINATES (ANGSTROEM)
---------------------------------
  N      0.995285   -0.240902   -0.261553
  C     -0.010730    0.181147    0.686607
  C     -1.385322   -0.429572    0.408824
  O     -2.406645    0.106106    0.828492
  C     -0.123707    1.698532    0.756814
  S     -0.548677    2.439440   -0.851674
  H      0.949600    0.201133   -1.168720
  H      0.317443   -0.195510    1.658441
  H     -0.870291    1.984774    1.490791
  H      0.838363    2.123083    1.038182
  C      2.213679   -0.715946    0.164708
  O      2.428832   -1.032618    1.324047
  N     -1.362768   -1.583889   -0.290192
  C     -2.562327   -2.341120   -0.569802
  H     -2.673157   -2.510399   -1.638826
  H     -2.549645   -3.301099   -0.056633
  H     -3.404008   -1.758004   -0.209404
  H     -0.461308   -1.918521   -0.584820
  C      3.258766   -0.833856   -0.917472
  H      3.999442   -0.050166   -0.768485
  H      2.845323   -0.744043   -1.918952
  H      3.763347   -1.789925   -0.812467
  H     -1.812646    1.999329   -0.849336

 Total Charge           Charge          ....    0
 Multiplicity           Mult            ....    1
 Number of Electrons    NEL             ....   94
 Basis Dimension        Dim             ....  192

ORBITAL ENERGIES
----------------

  NO   OCC          E(Eh)            E(eV)
   0   2.0000     -89.583067     -2437.6792
   1   2.0000     -19.471522      -529.8471
   2   2.0000     -19.464337      -529.6515
   3   2.0000     -14.676731      -399.3742
   4   2.0000     -14.669557      -399.1789
   5   2.0000     -10.563906      -287.4585
   6   2.0000     -10.553237      -287.1682
   7   2.0000     -10.498853      -285.6883
   8   2.0000     -10.479302      -285.1563
   9   2.0000     -10.472114      -284.9607
  10   2.0000     -10.453459      -284.4531
  11   2.0000      -8.224028      -223.7872
  12   2.0000      -6.115029      -166.3984
  13   2.0000      -6.111812      -166.3109
  14   2.0000      -6.106561      -166.1680
  15   2.0000      -1.158959       -31.5369
  16   2.0000      -1.148939       -31.2642
  17   2.0000      -1.048093       -28.5201
  18   2.0000      -1.024544       -27.8793
  19   2.0000      -0.903378       -24.5822
  20   2.0000      -0.848556       -23.0904
  21   2.0000      -0.816920       -22.2295
  22   2.0000      -0.780911       -21.2497
  23   2.0000      -0.705503       -19.1977
  24   2.0000      -0.672840       -18.3089
  25   2.0000      -0.658047       -17.9064
  26   2.0000      -0.618119       -16.8199
  27   2.0000      -0.562512       -15.3067
  28   2.0000      -0.557214       -15.1626
  29   2.0000      -0.531292       -14.4572
  30   2.0000      -0.522829       -14.2269
  31   2.0000      -0.513552       -13.9745
  32   2.0000      -0.507466       -13.8089
  33   2.0000      -0.494122       -13.4457
  34   2.0000      -0.478000       -13.0070
  35   2.0000      -0.473784       -12.8923
  36   2.0000      -0.462367       -12.5817
  37   2.0000      -0.452898       -12.3240
  38   2.0000      -0.436270       -11.8715
  39   2.0000      -0.426367       -11.6020
  40   2.0000      -0.416973       -11.3464
  41   2.0000      -0.382266       -10.4020
  42   2.0000      -0.341989        -9.3060
  43   2.0000      -0.324487        -8.8297
  44   2.0000      -0.310962        -8.4617
  45   2.0000      -0.305492        -8.3129
  46   2.0000      -0.290836        -7.9141
  47   0.0000       0.044400         1.2082
  48   0.0000       0.050729         1.3804
  49   0.0000       0.071263         1.9392
  50   0.0000       0.115531         3.1437
  51   0.0000       0.122393         3.3305

MULLIKEN ATOMIC CHARGES
-----------------------
   0 N :   -0.655714
   1 C :   -0.201886
   2 C :    0.548972
   3 O :   -0.442237
   4 C :   -0.558369
   5 S :   -0.215261
   6 H :    0.370920
   7 H :    0.314264
   8 H :    0.296692
   9 H :    0.272291
  10 C :    0.515618
  11 O :   -0.410875
  12 N :   -0.630150
  13 C :   -0.494979
  14 H :    0.220345
  15 H :    0.226273
  16 H :    0.266542
  17 H :    0.374321
  18 C :   -0.758700
  19 H :    0.261390
  20 H :    0.219812
  21 H :    0.265758
  22 H :    0.214972
Sum of atomic charges:   -0.0000000

LOEWDIN ATOMIC CHARGES
----------------------
   0 N :   -0.250837
   1 C :   -0.119291
   2 C :    0.099075
   3 O :   -0.290332
   4 C :   -0.332525
   5 S :   -0.032471
   6 H :    0.255388
   7 H :    0.175549
   8 H :    0.157837
   9 H :    0.145132
  10 C :    0.107235
  11 O :   -0.264737
  12 N :   -0.235977
  13 C :   -0.256793
  14 H :    0.123261
  15 H :    0.125214
  16 H :    0.154670
  17 H :    0.259743
  18 C :   -0.390881
  19 H :    0.159958
  20 H :    0.131428
  21 H :    0.159404
  22 H :    0.119950

  Mayer bond orders larger than 0.100000
B(  0-N ,  1-C ) :   0.9217 B(  0-N ,  6-H ) :   0.7946 B(  0-N , 10-C ) :   1.1008
B(  1-C ,  2-C ) :   0.9051 B(  1-C ,  4-C ) :   0.9304 B(  1-C ,  7-H ) :   0.8466
B(  2-C ,  3-O ) :   1.9465 B(  2-C , 12-N ) :   1.1745 B(  3-O , 12-N ) :   0.1026
B(  4-C ,  5-S ) :   1.0360 B(  4-C ,  8-H ) :   0.8707 B(  4-C ,  9-H ) :   0.8927
B(  5-S , 22-H ) :   0.9028 B( 10-C , 11-O ) :   2.0104 B( 10-C , 18-C ) :   0.9281
B( 12-N , 13-C ) :   0.9495 B( 12-N , 17-H ) :   0.7992 B( 13-C , 14-H ) :   0.9220
B( 13-C , 15-H ) :   0.9191 B( 13-C , 16-H ) :   0.8980 B( 18-C , 19-H ) :   0.9058
B( 18-C , 20-H ) :   0.9189 B( 18-C , 21-H ) :   0.9093

Dispersion correction           -0.013669034
FINAL SINGLE POINT ENERGY      -892.534906362011

DIPOLE MOMENT
-------------
                                X             Y             Z
Electronic contribution:     -0.82361       5.16983       2.34373
Nuclear contribution   :      1.20107      -5.84527      -3.65317
                        -----------------------------------------
Total Dipole Moment    :      0.37746      -0.67543      -1.30944
                        -----------------------------------------
Magnitude (a.u.)       :      1.52096
Magnitude (Debye)      :      3.86597

Rotational constants in cm-1:     0.033184     0.023905     0.016856
Rotational constants in MHz :   994.833473   716.659614   505.327436

                             ****ORCA TERMINATED NORMALLY****
TOTAL RUN TIME: 0 days 0 hours 2 minutes 18 seconds 164 msec
