                         Program Version 5.0.3 -  RELEASE  -
|  1> ! PBEh-3c def2/J TightSCF DefGrid3
|  2>
|  3> %maxcore 60000
|  4>
|  5> %pal
|  6> nprocs 4
|  7> end
|  8>
|  9> *xyzfile 0 1 Triindenotriphenylene_TS.xyz
| 10>
| 11>                          ****END OF INPUT****

CARTESIAN COORDINATES (ANGSTROEM)
---------------------------------
  C      1.027362    1.583655   -0.231222
  C      1.053747    0.268810   -0.462095
  C     -0.157033   -0.383651   -0.466556
  C     -1.323432    0.236582   -0.271894
  C     -1.273695    1.592773   -0.046795
  C     -0.133853    2.287605   -0.011223
  C      2.108432    2.386648   -0.166368
  C      3.341330    1.739867   -0.383430
  C      3.357090    0.253391   -0.668085
  C      2.172683   -0.533379   -0.717113
  C     -0.005524   -1.696197   -0.734933
  C     -1.207582   -2.427735   -0.804728
  C     -2.522394   -1.719901   -0.556564
  C     -2.604258   -0.329262   -0.271248
  C      0.027475    3.654336    0.246515
  C     -1.240083    4.256621    0.482306
  C     -2.537998    3.478272    0.447245
  C     -2.506230    2.098982    0.161933
  C      1.669977    3.733113    0.128042
  C      1.400223   -1.971661   -0.931776
  C     -3.472518    1.027996    0.062754
  C      4.388787    2.703034   -0.279588
  C      4.068599    4.032928   -0.001105
  C      2.753926    4.582954    0.206829
  C     -3.891965    3.866655    0.674253
  C     -4.902100    2.904705    0.597328
  C     -4.745524    1.504529    0.302991
  C      1.589267   -3.299177   -1.257197
  C      0.430539   -4.149582   -1.340951
  C     -0.900613   -3.779443   -1.139243
  H      4.335892   -0.178998   -0.835540
  H     -3.406286   -2.342457   -0.618569
  H     -1.334766    5.310373    0.714023
  H      5.430541    2.436813   -0.409482
  H      4.892871    4.730701    0.071805
  H      2.672315    5.640407    0.422813
  H     -4.166259    4.886044    0.916538
  H     -5.913777    3.242311    0.782734
  H     -5.631295    0.882989    0.287281
  H      2.558609   -3.734412   -1.463547
  H      0.615615   -5.183331   -1.603229
  H     -1.670096   -4.532905   -1.253910

 Total Charge           Charge          ....    0
 Multiplicity           Mult            ....    1
 Number of Electrons    NEL             ....  192
 Basis Dimension        Dim             ....  474

ORBITAL ENERGIES
----------------

  NO   OCC          E(Eh)            E(eV)
   0   2.0000     -10.495744      -285.6037
   1   2.0000     -10.495404      -285.5945
   2   2.0000     -10.495320      -285.5922
   3   2.0000     -10.495158      -285.5878
   4   2.0000     -10.494914      -285.5811
   5   2.0000     -10.494894      -285.5806
   6   2.0000     -10.490184      -285.4524
   7   2.0000     -10.490028      -285.4482
   8   2.0000     -10.489991      -285.4472
   9   2.0000     -10.482887      -285.2538
  10   2.0000     -10.482795      -285.2514
  11   2.0000     -10.482642      -285.2472
  12   2.0000     -10.473534      -284.9993
  13   2.0000     -10.473491      -284.9982
  14   2.0000     -10.473463      -284.9974
  15   2.0000     -10.469705      -284.8952
  16   2.0000     -10.469556      -284.8911
  17   2.0000     -10.469387      -284.8865
  18   2.0000     -10.462707      -284.7047
  19   2.0000     -10.462636      -284.7028
  20   2.0000     -10.462532      -284.7000
  21   2.0000     -10.452337      -284.4225
  22   2.0000     -10.452314      -284.4219
  23   2.0000     -10.452225      -284.4195
  24   2.0000     -10.438977      -284.0590
  25   2.0000     -10.438869      -284.0561
  26   2.0000     -10.438805      -284.0543
  27   2.0000     -10.429541      -283.8022
  28   2.0000     -10.429462      -283.8001
  29   2.0000     -10.429377      -283.7978
  30   2.0000      -1.046376       -28.4733
  31   2.0000      -1.000933       -27.2368
  32   2.0000      -1.000888       -27.2356
  33   2.0000      -0.950701       -25.8699
  34   2.0000      -0.940503       -25.5924
  35   2.0000      -0.940446       -25.5908
  36   2.0000      -0.895028       -24.3550
  37   2.0000      -0.894946       -24.3527
  38   2.0000      -0.881088       -23.9756
  39   2.0000      -0.859600       -23.3909
  40   2.0000      -0.835358       -22.7313
  41   2.0000      -0.835229       -22.7277
  42   2.0000      -0.823620       -22.4118
  43   2.0000      -0.799372       -21.7520
  44   2.0000      -0.799255       -21.7488
  45   2.0000      -0.752229       -20.4692
  46   2.0000      -0.730769       -19.8852
  47   2.0000      -0.730741       -19.8845
  48   2.0000      -0.702114       -19.1055
  49   2.0000      -0.692019       -18.8308
  50   2.0000      -0.691932       -18.8284
  51   2.0000      -0.655376       -17.8337
  52   2.0000      -0.655244       -17.8301
  53   2.0000      -0.643556       -17.5121
  54   2.0000      -0.606558       -16.5053
  55   2.0000      -0.604136       -16.4394
  56   2.0000      -0.604124       -16.4391
  57   2.0000      -0.585920       -15.9437
  58   2.0000      -0.556513       -15.1435
  59   2.0000      -0.556422       -15.1410
  60   2.0000      -0.536029       -14.5861
  61   2.0000      -0.535900       -14.5826
  62   2.0000      -0.529807       -14.4168
  63   2.0000      -0.520439       -14.1619
  64   2.0000      -0.513368       -13.9694
  65   2.0000      -0.506612       -13.7856
  66   2.0000      -0.506584       -13.7848
  67   2.0000      -0.491965       -13.3870
  68   2.0000      -0.491767       -13.3817
  69   2.0000      -0.482437       -13.1278
  70   2.0000      -0.466477       -12.6935
  71   2.0000      -0.463374       -12.6090
  72   2.0000      -0.463354       -12.6085
  73   2.0000      -0.462995       -12.5987
  74   2.0000      -0.462858       -12.5950
  75   2.0000      -0.440612       -11.9897
  76   2.0000      -0.437968       -11.9177
  77   2.0000      -0.437858       -11.9147
  78   2.0000      -0.414986       -11.2923
  79   2.0000      -0.411005       -11.1840
  80   2.0000      -0.410026       -11.1574
  81   2.0000      -0.398225       -10.8363
  82   2.0000      -0.398154       -10.8343
  83   2.0000      -0.395417       -10.7599
  84   2.0000      -0.395306       -10.7568
  85   2.0000      -0.373331       -10.1589
  86   2.0000      -0.373162       -10.1543
  87   2.0000      -0.344902        -9.3852
  88   2.0000      -0.344809        -9.3827
  89   2.0000      -0.336304        -9.1513
  90   2.0000      -0.311836        -8.4855
  91   2.0000      -0.279691        -7.6108
  92   2.0000      -0.279505        -7.6057
  93   2.0000      -0.272029        -7.4023
  94   2.0000      -0.246826        -6.7165
  95   2.0000      -0.246709        -6.7133
  96   0.0000      -0.063941        -1.7399
  97   0.0000      -0.053241        -1.4488
  98   0.0000      -0.053108        -1.4451
  99   0.0000       0.010807         0.2941
 100   0.0000       0.010852         0.2953

MULLIKEN ATOMIC CHARGES
-----------------------
   0 C :    0.189950
   1 C :   -0.028108
   2 C :    0.186121
   3 C :   -0.029609
   4 C :    0.186822
   5 C :   -0.026117
   6 C :    0.006932
   7 C :    0.163745
   8 C :   -0.553355
   9 C :    0.211391
  10 C :    0.007031
  11 C :    0.163061
  12 C :   -0.552368
  13 C :    0.212594
  14 C :    0.211040
  15 C :   -0.553448
  16 C :    0.163066
  17 C :    0.007051
  18 C :    0.073275
  19 C :    0.072599
  20 C :    0.072502
  21 C :   -0.339037
  22 C :   -0.176506
  23 C :   -0.430697
  24 C :   -0.339267
  25 C :   -0.176956
  26 C :   -0.428632
  27 C :   -0.428853
  28 C :   -0.177113
  29 C :   -0.338979
  30 H :    0.213134
  31 H :    0.213147
  32 H :    0.213169
  33 H :    0.223118
  34 H :    0.224220
  35 H :    0.223462
  36 H :    0.223098
  37 H :    0.224206
  38 H :    0.223604
  39 H :    0.223563
  40 H :    0.224151
  41 H :    0.222992
Sum of atomic charges:   -0.0000000

LOEWDIN ATOMIC CHARGES
----------------------
   0 C :   -0.022720
   1 C :   -0.018575
   2 C :   -0.022689
   3 C :   -0.018461
   4 C :   -0.022565
   5 C :   -0.018658
   6 C :   -0.002906
   7 C :   -0.033144
   8 C :   -0.104649
   9 C :   -0.006152
  10 C :   -0.002969
  11 C :   -0.033093
  12 C :   -0.104543
  13 C :   -0.006166
  14 C :   -0.005998
  15 C :   -0.104617
  16 C :   -0.033115
  17 C :   -0.002998
  18 C :   -0.008897
  19 C :   -0.009086
  20 C :   -0.009132
  21 C :   -0.109201
  22 C :   -0.143375
  23 C :   -0.110849
  24 C :   -0.109156
  25 C :   -0.143331
  26 C :   -0.110766
  27 C :   -0.110767
  28 C :   -0.143399
  29 C :   -0.109252
  30 H :    0.140758
  31 H :    0.140812
  32 H :    0.140741
  33 H :    0.138717
  34 H :    0.139812
  35 H :    0.141121
  36 H :    0.138662
  37 H :    0.139786
  38 H :    0.141248
  39 H :    0.141233
  40 H :    0.139754
  41 H :    0.138589

  Mayer bond orders larger than 0.100000
B(  0-C ,  1-C ) :   1.1900 B(  0-C ,  5-C ) :   1.1640 B(  0-C ,  6-C ) :   1.1666
B(  1-C ,  2-C ) :   1.1654 B(  1-C ,  6-C ) :  -0.1218 B(  1-C ,  9-C ) :   1.0816
B(  2-C ,  3-C ) :   1.1914 B(  2-C , 10-C ) :   1.1666 B(  3-C ,  4-C ) :   1.1651
B(  3-C , 10-C ) :  -0.1218 B(  3-C , 13-C ) :   1.0816 B(  4-C ,  5-C ) :   1.1906
B(  4-C , 17-C ) :   1.1668 B(  5-C , 14-C ) :   1.0803 B(  5-C , 17-C ) :  -0.1226
B(  6-C ,  7-C ) :   1.1898 B(  6-C , 18-C ) :   1.1569 B(  7-C ,  8-C ) :   1.1703
B(  7-C , 21-C ) :   1.2014 B(  8-C ,  9-C ) :   1.4220 B(  8-C , 30-H ) :   0.9379
B(  9-C , 19-C ) :   0.9131 B( 10-C , 11-C ) :   1.1906 B( 10-C , 19-C ) :   1.1582
B( 11-C , 12-C ) :   1.1699 B( 11-C , 29-C ) :   1.2022 B( 12-C , 13-C ) :   1.4220
B( 12-C , 31-H ) :   0.9379 B( 13-C , 20-C ) :   0.9126 B( 14-C , 15-C ) :   1.4235
B( 14-C , 18-C ) :   0.9126 B( 15-C , 16-C ) :   1.1698 B( 15-C , 32-H ) :   0.9378
B( 16-C , 17-C ) :   1.1898 B( 16-C , 24-C ) :   1.2018 B( 17-C , 20-C ) :   1.1584
B( 18-C , 23-C ) :   1.4260 B( 19-C , 27-C ) :   1.4255 B( 20-C , 26-C ) :   1.4253
B( 21-C , 22-C ) :   1.5458 B( 21-C , 33-H ) :   0.9227 B( 22-C , 23-C ) :   1.3024
B( 22-C , 34-H ) :   0.9166 B( 23-C , 35-H ) :   0.9284 B( 24-C , 25-C ) :   1.5447
B( 24-C , 36-H ) :   0.9227 B( 25-C , 26-C ) :   1.3037 B( 25-C , 37-H ) :   0.9166
B( 26-C , 38-H ) :   0.9284 B( 27-C , 28-C ) :   1.3034 B( 27-C , 39-H ) :   0.9284
B( 28-C , 29-C ) :   1.5450 B( 28-C , 40-H ) :   0.9166 B( 29-C , 41-H ) :   0.9227

Dispersion correction           -0.039063226
FINAL SINGLE POINT ENERGY     -1147.740366691789

DIPOLE MOMENT
-------------
                                X             Y             Z
Electronic contribution:      0.00007       0.00423       0.01194
Nuclear contribution   :     -0.00226      -0.00350      -0.01481
                        -----------------------------------------
Total Dipole Moment    :     -0.00219       0.00074      -0.00287
                        -----------------------------------------
Magnitude (a.u.)       :      0.00368
Magnitude (Debye)      :      0.00936

Rotational constants in cm-1:     0.006754     0.006743     0.003374
Rotational constants in MHz :   202.469122   202.148154   101.162922

                             ****ORCA TERMINATED NORMALLY****
TOTAL RUN TIME: 0 days 0 hours 9 minutes 19 seconds 820 msec
