                         Program Version 5.0.3 -  RELEASE  -
|  1> ! PBEh-3c def2/J TightSCF DefGrid3
|  2>
|  3> %maxcore 60000
|  4>
|  5> %pal
|  6> nprocs 4
|  7> end
|  8>
|  9> *xyzfile 1 1 arg0.xyz
| 10>
| 11>                          ****END OF INPUT****

CARTESIAN COORDINATES (ANGSTROEM)
---------------------------------
  N      2.832559    0.094282    1.612711
  C      1.737118   -0.034239    0.695252
  C      1.842892   -1.149170   -0.339086
  O      3.074743   -1.483617   -0.640744
  H      3.704978    0.319010    1.154617
  O      0.877992   -1.672516   -0.860147
  H      2.975381   -0.731819    2.175806
  H      0.841734   -0.260473    1.285512
  C      1.529810    1.320702   -0.007822
  H      2.453493    1.578221   -0.536381
  H      1.432704    2.054754    0.795976
  C      0.371070    1.483729   -0.990912
  H      0.503474    0.871792   -1.888027
  H      0.408308    2.515532   -1.347496
  C     -1.032353    1.266604   -0.432585
  H     -1.118606    1.753122    0.546228
  H     -1.750193    1.742405   -1.108793
  N     -2.646218   -1.972371    0.143955
  H     -3.519998   -2.396202    0.401968
  H     -1.913097   -2.591130   -0.161773
  H     -0.589987   -0.809500   -0.581264
  N     -1.340490   -0.151668   -0.322975
  C     -2.488259   -0.648350    0.085515
  N     -3.493675    0.146095    0.449837
  H     -4.373423   -0.222101    0.768123
  H     -3.408732    1.147430    0.424422
  H      3.088775   -2.170523   -1.321919

 Total Charge           Charge          ....    1
 Multiplicity           Mult            ....    1
 Number of Electrons    NEL             ....   94
 Basis Dimension        Dim             ....  210

ORBITAL ENERGIES
----------------

  NO   OCC          E(Eh)            E(eV)
   0   2.0000     -19.678149      -535.4696
   1   2.0000     -19.628937      -534.1305
   2   2.0000     -14.835816      -403.7031
   3   2.0000     -14.830099      -403.5475
   4   2.0000     -14.821279      -403.3075
   5   2.0000     -14.726457      -400.7273
   6   2.0000     -10.755085      -292.6607
   7   2.0000     -10.715345      -291.5794
   8   2.0000     -10.627242      -289.1819
   9   2.0000     -10.609422      -288.6970
  10   2.0000     -10.576928      -287.8128
  11   2.0000     -10.568419      -287.5813
  12   2.0000      -1.367483       -37.2111
  13   2.0000      -1.293308       -35.1927
  14   2.0000      -1.267586       -34.4928
  15   2.0000      -1.172719       -31.9113
  16   2.0000      -1.164040       -31.6751
  17   2.0000      -1.113737       -30.3063
  18   2.0000      -1.021647       -27.8004
  19   2.0000      -0.951995       -25.9051
  20   2.0000      -0.902545       -24.5595
  21   2.0000      -0.878493       -23.9050
  22   2.0000      -0.839593       -22.8465
  23   2.0000      -0.829315       -22.5668
  24   2.0000      -0.798228       -21.7209
  25   2.0000      -0.782054       -21.2808
  26   2.0000      -0.732922       -19.9438
  27   2.0000      -0.723531       -19.6883
  28   2.0000      -0.705519       -19.1981
  29   2.0000      -0.705300       -19.1922
  30   2.0000      -0.697828       -18.9889
  31   2.0000      -0.673721       -18.3329
  32   2.0000      -0.664903       -18.0929
  33   2.0000      -0.650076       -17.6895
  34   2.0000      -0.636987       -17.3333
  35   2.0000      -0.612716       -16.6729
  36   2.0000      -0.608211       -16.5503
  37   2.0000      -0.582886       -15.8611
  38   2.0000      -0.571834       -15.5604
  39   2.0000      -0.535698       -14.5771
  40   2.0000      -0.528458       -14.3801
  41   2.0000      -0.522829       -14.2269
  42   2.0000      -0.507184       -13.8012
  43   2.0000      -0.500765       -13.6265
  44   2.0000      -0.489783       -13.3277
  45   2.0000      -0.465832       -12.6759
  46   2.0000      -0.404452       -11.0057
  47   0.0000      -0.093456        -2.5431
  48   0.0000      -0.089144        -2.4257
  49   0.0000      -0.045234        -1.2309
  50   0.0000      -0.010399        -0.2830
  51   0.0000       0.000216         0.0059

MULLIKEN ATOMIC CHARGES
-----------------------
   0 N :   -0.722208
   1 C :   -0.219230
   2 C :    0.561842
   3 O :   -0.539760
   4 H :    0.344045
   5 O :   -0.454115
   6 H :    0.344837
   7 H :    0.250020
   8 C :   -0.438606
   9 H :    0.253373
  10 H :    0.272974
  11 C :   -0.500001
  12 H :    0.253961
  13 H :    0.278652
  14 C :   -0.312837
  15 H :    0.249580
  16 H :    0.260380
  17 N :   -0.819183
  18 H :    0.403010
  19 H :    0.417194
  20 H :    0.447125
  21 N :   -0.652354
  22 C :    0.836754
  23 N :   -0.811247
  24 H :    0.406334
  25 H :    0.424040
  26 H :    0.465420
Sum of atomic charges:    1.0000000

LOEWDIN ATOMIC CHARGES
----------------------
   0 N :   -0.432527
   1 C :   -0.123505
   2 C :    0.130806
   3 O :   -0.238725
   4 H :    0.240172
   5 O :   -0.270408
   6 H :    0.238766
   7 H :    0.138398
   8 C :   -0.232245
   9 H :    0.144970
  10 H :    0.152896
  11 C :   -0.249891
  12 H :    0.141256
  13 H :    0.158284
  14 C :   -0.150772
  15 H :    0.132080
  16 H :    0.137513
  17 N :   -0.330998
  18 H :    0.280264
  19 H :    0.288035
  20 H :    0.284308
  21 N :   -0.214074
  22 C :    0.184143
  23 N :   -0.326801
  24 H :    0.282040
  25 H :    0.284936
  26 H :    0.351078

  Mayer bond orders larger than 0.100000
B(  0-N ,  1-C ) :   1.0879 B(  0-N ,  4-H ) :   0.8424 B(  0-N ,  6-H ) :   0.8476
B(  1-C ,  2-C ) :   0.8705 B(  1-C ,  7-H ) :   0.8910 B(  1-C ,  8-C ) :   0.9601
B(  2-C ,  3-O ) :   1.2492 B(  2-C ,  5-O ) :   1.8388 B(  3-O , 26-H ) :   0.7375
B(  5-O , 20-H ) :   0.1623 B(  8-C ,  9-H ) :   0.9024 B(  8-C , 10-H ) :   0.8940
B(  8-C , 11-C ) :   0.9826 B( 11-C , 12-H ) :   0.8969 B( 11-C , 13-H ) :   0.8995
B( 11-C , 14-C ) :   0.9737 B( 14-C , 15-H ) :   0.8924 B( 14-C , 16-H ) :   0.8989
B( 14-C , 21-N ) :   0.9023 B( 17-N , 18-H ) :   0.8115 B( 17-N , 19-H ) :   0.7987
B( 17-N , 22-C ) :   1.2028 B( 20-H , 21-N ) :   0.6392 B( 21-N , 22-C ) :   1.3335
B( 22-C , 23-N ) :   1.2181 B( 23-N , 24-H ) :   0.8085 B( 23-N , 25-H ) :   0.7906

Dispersion correction           -0.015860162
FINAL SINGLE POINT ENERGY      -605.658359744298

DIPOLE MOMENT
-------------
                                X             Y             Z
Electronic contribution:      0.11476      -6.92730      -1.23177
Nuclear contribution   :     -2.79919       6.37205       1.27549
                        -----------------------------------------
Total Dipole Moment    :     -2.68443      -0.55525       0.04372
                        -----------------------------------------
Magnitude (a.u.)       :      2.74160
Magnitude (Debye)      :      6.96860

Rotational constants in cm-1:     0.048281     0.017680     0.015236
Rotational constants in MHz :  1447.433386   530.018708   456.765898

                             ****ORCA TERMINATED NORMALLY****
TOTAL RUN TIME: 0 days 0 hours 2 minutes 50 seconds 660 msec
