                         Program Version 5.0.3 -  RELEASE  -
|  1> ! PBEh-3c def2/J TightSCF DefGrid3
|  2>
|  3> %maxcore 60000
|  4>
|  5> %pal
|  6> nprocs 4
|  7> end
|  8>
|  9> *xyzfile 0 1 acetamide_RC.xyz
| 10>
| 11>                          ****END OF INPUT****

CARTESIAN COORDINATES (ANGSTROEM)
---------------------------------
  C     -0.005288    0.205124    0.002759
  C     -0.005260   -0.011292    1.493761
  O      1.007725    0.416550   -0.622188
  N     -1.216422    0.084704   -0.603461
  H     -2.066797    0.074280   -0.079150
  H     -1.262118    0.285600   -1.584842
  H     -0.968347    0.199787    1.950462
  H      0.258265   -1.047552    1.694647
  H      0.754007    0.615828    1.942527

 Total Charge           Charge          ....    0
 Multiplicity           Mult            ....    1
 Number of Electrons    NEL             ....   32
 Basis Dimension        Dim             ....   70

ORBITAL ENERGIES
----------------

  NO   OCC          E(Eh)            E(eV)
   0   2.0000     -19.449711      -529.2535
   1   2.0000     -14.652018      -398.7017
   2   2.0000     -10.545722      -286.9637
   3   2.0000     -10.439299      -284.0678
   4   2.0000      -1.143110       -31.1056
   5   2.0000      -1.002719       -27.2854
   6   2.0000      -0.827999       -22.5310
   7   2.0000      -0.659949       -17.9581
   8   2.0000      -0.606119       -16.4933
   9   2.0000      -0.535051       -14.5595
  10   2.0000      -0.508171       -13.8280
  11   2.0000      -0.463001       -12.5989
  12   2.0000      -0.456935       -12.4338
  13   2.0000      -0.422576       -11.4989
  14   2.0000      -0.319005        -8.6806
  15   2.0000      -0.304319        -8.2809
  16   0.0000       0.069766         1.8984
  17   0.0000       0.124553         3.3893
  18   0.0000       0.170883         4.6500
  19   0.0000       0.190986         5.1970
  20   0.0000       0.215491         5.8638

MULLIKEN ATOMIC CHARGES
-----------------------
   0 C :    0.488025
   1 C :   -0.750711
   2 O :   -0.403601
   3 N :   -0.790342
   4 H :    0.357923
   5 H :    0.370481
   6 H :    0.208792
   7 H :    0.256604
   8 H :    0.262829
Sum of atomic charges:   -0.0000000

LOEWDIN ATOMIC CHARGES
----------------------
   0 C :    0.091706
   1 C :   -0.395432
   2 O :   -0.262767
   3 N :   -0.379875
   4 H :    0.248987
   5 H :    0.257337
   6 H :    0.127241
   7 H :    0.157247
   8 H :    0.155557

  Mayer bond orders larger than 0.100000
B(  0-C ,  1-C ) :   0.9274 B(  0-C ,  2-O ) :   2.0557 B(  0-C ,  3-N ) :   1.1357
B(  1-C ,  6-H ) :   0.9219 B(  1-C ,  7-H ) :   0.9075 B(  1-C ,  8-H ) :   0.9143
B(  3-N ,  4-H ) :   0.8334 B(  3-N ,  5-H ) :   0.8272

Dispersion correction           -0.002894329
FINAL SINGLE POINT ENERGY      -208.767640837106

DIPOLE MOMENT
-------------
                                X             Y             Z
Electronic contribution:      1.31646       0.57967      -2.88517
Nuclear contribution   :     -2.72644      -0.69548       3.38758
                        -----------------------------------------
Total Dipole Moment    :     -1.40998      -0.11581       0.50241
                        -----------------------------------------
Magnitude (a.u.)       :      1.50129
Magnitude (Debye)      :      3.81598

Rotational constants in cm-1:     0.366054     0.313095     0.174294
Rotational constants in MHz : 10974.014027  9386.343312  5225.204108

                             ****ORCA TERMINATED NORMALLY****
TOTAL RUN TIME: 0 days 0 hours 1 minutes 11 seconds 368 msec
