                         Program Version 5.0.3 -  RELEASE  -
|  1> ! PBEh-3c def2/J TightSCF DefGrid3
|  2>
|  3> %maxcore 60000
|  4>
|  5> %pal
|  6> nprocs 4
|  7> end
|  8>
|  9> *xyzfile 1 1 ph3p.xyz
| 10>
| 11>                          ****END OF INPUT****

CARTESIAN COORDINATES (ANGSTROEM)
---------------------------------
  P      0.000000    0.000000    0.000000
  H      0.807259   -0.807259    0.807259
  H     -0.807259    0.807259    0.807259
  H     -0.807259   -0.807259   -0.807259
  H      0.807259    0.807259   -0.807259

 Total Charge           Charge          ....    1
 Multiplicity           Mult            ....    1
 Number of Electrons    NEL             ....   18
 Basis Dimension        Dim             ....   26

ORBITAL ENERGIES
----------------

  NO   OCC          E(Eh)            E(eV)
   0   2.0000     -78.056210     -2124.0174
   1   2.0000      -7.141680      -194.3350
   2   2.0000      -5.231634      -142.3600
   3   2.0000      -5.231634      -142.3600
   4   2.0000      -5.231634      -142.3600
   5   2.0000      -1.043063       -28.3832
   6   2.0000      -0.752047       -20.4642
   7   2.0000      -0.752047       -20.4642
   8   2.0000      -0.752047       -20.4642
   9   0.0000      -0.189141        -5.1468
  10   0.0000      -0.189141        -5.1468
  11   0.0000      -0.189141        -5.1468
  12   0.0000      -0.132679        -3.6104
  13   0.0000       0.130448         3.5497

MULLIKEN ATOMIC CHARGES
-----------------------
   0 P :    0.083259
   1 H :    0.229185
   2 H :    0.229185
   3 H :    0.229185
   4 H :    0.229185
Sum of atomic charges:    1.0000000

LOEWDIN ATOMIC CHARGES
----------------------
   0 P :    0.459433
   1 H :    0.135142
   2 H :    0.135142
   3 H :    0.135142
   4 H :    0.135142

  Mayer bond orders larger than 0.100000
B(  0-P ,  1-H ) :   0.9178 B(  0-P ,  2-H ) :   0.9178 B(  0-P ,  3-H ) :   0.9178
B(  0-P ,  4-H ) :   0.9178

Dispersion correction           -0.001041795
FINAL SINGLE POINT ENERGY      -343.033108161386

DIPOLE MOMENT
-------------
                                X             Y             Z
Electronic contribution:     -0.00000       0.00000      -0.00000
Nuclear contribution   :      0.00000       0.00000       0.00000
                        -----------------------------------------
Total Dipole Moment    :     -0.00000       0.00000      -0.00000
                        -----------------------------------------
Magnitude (a.u.)       :      0.00000
Magnitude (Debye)      :      0.00000

Rotational constants in cm-1:     3.207901     3.207901     3.207901
Rotational constants in MHz : 96170.466796 96170.466796 96170.466796

                             ****ORCA TERMINATED NORMALLY****
TOTAL RUN TIME: 0 days 0 hours 0 minutes 37 seconds 673 msec
