                         Program Version 5.0.3 -  RELEASE  -
|  1> ! PBEh-3c def2/J TightSCF DefGrid3
|  2>
|  3> %maxcore 60000
|  4>
|  5> %pal
|  6> nprocs 4
|  7> end
|  8>
|  9> *xyzfile 1 1 Methinecyanine.xyz
| 10>
| 11>                          ****END OF INPUT****

CARTESIAN COORDINATES (ANGSTROEM)
---------------------------------
  C     -4.756450    1.176145    0.219985
  C     -5.454817    0.270301    1.019610
  C     -4.777646   -0.673662    1.786521
  C     -3.384568   -0.742012    1.782439
  C     -2.716371    0.162821    0.977750
  C     -3.376860    1.110527    0.201504
  N     -1.311676    0.323488    0.810774
  C     -2.341524    1.920061   -0.517694
  C     -1.036018    1.311540   -0.056179
  C     -0.386749   -0.260492    1.771902
  C      0.210453    1.805322   -0.445198
  C      1.448951    1.184482   -0.549394
  C      2.771547    1.917039   -0.530813
  N      1.686973   -0.123043   -0.760560
  C      3.083948   -0.388115   -0.822762
  C      0.691202   -1.089523   -1.193340
  C      3.776738    0.814343   -0.702454
  C      3.720702   -1.605370   -0.982448
  C      5.114743   -1.589370   -1.027340
  C      5.823605   -0.396108   -0.923172
  C      5.157361    0.820404   -0.763245
  H     -5.287860    1.912456   -0.366978
  H     -6.534572    0.306150    1.047239
  H     -5.338735   -1.363515    2.400270
  H     -2.864379   -1.469979    2.387062
  H     -2.377123    2.983389   -0.263286
  H     -2.421610    1.847781   -1.604574
  H     -0.581786    0.174550    2.753183
  H     -0.535848   -1.336169    1.829363
  H      0.637251   -0.055295    1.490372
  H      0.204255    2.847758   -0.739443
  H      2.810288    2.659665   -1.332276
  H      2.889295    2.463956    0.406629
  H     -0.103558   -0.563853   -1.718482
  H      0.259828   -1.645901   -0.364043
  H      1.166661   -1.788879   -1.875050
  H      3.176475   -2.534966   -1.063315
  H      5.650436   -2.520447   -1.147058
  H      6.903316   -0.412125   -0.966878
  H      5.715121    1.743647   -0.686624

 Total Charge           Charge          ....    1
 Multiplicity           Mult            ....    1
 Number of Electrons    NEL             ....  146
 Basis Dimension        Dim             ....  353

ORBITAL ENERGIES
----------------

  NO   OCC          E(Eh)            E(eV)
   0   2.0000     -14.853351      -404.1802
   1   2.0000     -14.851280      -404.1239
   2   2.0000     -10.673473      -290.4400
   3   2.0000     -10.669330      -290.3272
   4   2.0000     -10.616288      -288.8839
   5   2.0000     -10.616072      -288.8780
   6   2.0000     -10.614805      -288.8435
   7   2.0000     -10.613524      -288.8087
   8   2.0000     -10.593884      -288.2742
   9   2.0000     -10.592734      -288.2429
  10   2.0000     -10.585201      -288.0380
  11   2.0000     -10.582008      -287.9511
  12   2.0000     -10.581284      -287.9314
  13   2.0000     -10.573182      -287.7109
  14   2.0000     -10.571966      -287.6778
  15   2.0000     -10.567847      -287.5657
  16   2.0000     -10.566954      -287.5414
  17   2.0000     -10.563905      -287.4585
  18   2.0000     -10.562961      -287.4328
  19   2.0000     -10.559358      -287.3347
  20   2.0000     -10.558096      -287.3004
  21   2.0000      -1.254254       -34.1300
  22   2.0000      -1.245412       -33.8894
  23   2.0000      -1.083070       -29.4718
  24   2.0000      -1.078720       -29.3535
  25   2.0000      -1.053848       -28.6766
  26   2.0000      -1.033878       -28.1332
  27   2.0000      -1.004266       -27.3275
  28   2.0000      -0.966034       -26.2871
  29   2.0000      -0.963089       -26.2070
  30   2.0000      -0.951107       -25.8809
  31   2.0000      -0.926284       -25.2055
  32   2.0000      -0.920224       -25.0406
  33   2.0000      -0.901460       -24.5300
  34   2.0000      -0.835714       -22.7409
  35   2.0000      -0.820996       -22.3404
  36   2.0000      -0.804017       -21.8784
  37   2.0000      -0.798932       -21.7400
  38   2.0000      -0.784621       -21.3506
  39   2.0000      -0.754243       -20.5240
  40   2.0000      -0.723965       -19.7001
  41   2.0000      -0.719397       -19.5758
  42   2.0000      -0.707043       -19.2396
  43   2.0000      -0.694520       -18.8988
  44   2.0000      -0.683481       -18.5985
  45   2.0000      -0.673965       -18.3395
  46   2.0000      -0.660266       -17.9668
  47   2.0000      -0.643879       -17.5209
  48   2.0000      -0.633696       -17.2438
  49   2.0000      -0.633086       -17.2271
  50   2.0000      -0.630304       -17.1515
  51   2.0000      -0.627235       -17.0679
  52   2.0000      -0.622708       -16.9447
  53   2.0000      -0.614026       -16.7085
  54   2.0000      -0.607456       -16.5297
  55   2.0000      -0.601286       -16.3618
  56   2.0000      -0.595771       -16.2117
  57   2.0000      -0.585706       -15.9379
  58   2.0000      -0.579619       -15.7722
  59   2.0000      -0.573463       -15.6047
  60   2.0000      -0.550484       -14.9794
  61   2.0000      -0.549643       -14.9566
  62   2.0000      -0.535829       -14.5807
  63   2.0000      -0.532289       -14.4843
  64   2.0000      -0.526313       -14.3217
  65   2.0000      -0.518636       -14.1128
  66   2.0000      -0.517367       -14.0783
  67   2.0000      -0.510923       -13.9029
  68   2.0000      -0.444944       -12.1075
  69   2.0000      -0.411508       -11.1977
  70   2.0000      -0.410282       -11.1643
  71   2.0000      -0.402248       -10.9457
  72   2.0000      -0.365188        -9.9373
  73   0.0000      -0.185672        -5.0524
  74   0.0000      -0.107418        -2.9230
  75   0.0000      -0.102857        -2.7989
  76   0.0000      -0.094833        -2.5805
  77   0.0000      -0.082319        -2.2400

MULLIKEN ATOMIC CHARGES
-----------------------
   0 C :   -0.297206
   1 C :   -0.214420
   2 C :   -0.224923
   3 C :   -0.283528
   4 C :    0.412242
   5 C :    0.022056
   6 N :   -0.550359
   7 C :   -0.532860
   8 C :    0.369830
   9 C :   -0.569042
  10 C :   -0.408957
  11 C :    0.358105
  12 C :   -0.528157
  13 N :   -0.558758
  14 C :    0.414151
  15 C :   -0.540331
  16 C :    0.020404
  17 C :   -0.283435
  18 C :   -0.224350
  19 C :   -0.214515
  20 C :   -0.298920
  21 H :    0.246457
  22 H :    0.257995
  23 H :    0.258453
  24 H :    0.247366
  25 H :    0.301853
  26 H :    0.301551
  27 H :    0.293708
  28 H :    0.261111
  29 H :    0.279527
  30 H :    0.266076
  31 H :    0.301539
  32 H :    0.301341
  33 H :    0.267705
  34 H :    0.256491
  35 H :    0.284833
  36 H :    0.245665
  37 H :    0.257809
  38 H :    0.257476
  39 H :    0.246016
Sum of atomic charges:    1.0000000

LOEWDIN ATOMIC CHARGES
----------------------
   0 C :   -0.108066
   1 C :   -0.115243
   2 C :   -0.105608
   3 C :   -0.146607
   4 C :    0.027106
   5 C :   -0.055617
   6 N :   -0.022530
   7 C :   -0.210644
   8 C :    0.114711
   9 C :   -0.244474
  10 C :   -0.280612
  11 C :    0.105939
  12 C :   -0.210604
  13 N :   -0.025992
  14 C :    0.027849
  15 C :   -0.238808
  16 C :   -0.055480
  17 C :   -0.148957
  18 C :   -0.105576
  19 C :   -0.116594
  20 C :   -0.107865
  21 H :    0.153149
  22 H :    0.154523
  23 H :    0.154637
  24 H :    0.150502
  25 H :    0.182057
  26 H :    0.178822
  27 H :    0.158237
  28 H :    0.146185
  29 H :    0.150467
  30 H :    0.174137
  31 H :    0.181760
  32 H :    0.178274
  33 H :    0.152418
  34 H :    0.139930
  35 H :    0.156845
  36 H :    0.150009
  37 H :    0.154432
  38 H :    0.154263
  39 H :    0.153023

  Mayer bond orders larger than 0.100000
B(  0-C ,  1-C ) :   1.4057 B(  0-C ,  5-C ) :   1.4309 B(  0-C , 21-H ) :   0.9199
B(  1-C ,  2-C ) :   1.4349 B(  1-C , 22-H ) :   0.9053 B(  2-C ,  3-C ) :   1.4196
B(  2-C , 23-H ) :   0.9058 B(  3-C ,  4-C ) :   1.3487 B(  3-C , 24-H ) :   0.9083
B(  4-C ,  5-C ) :   1.2987 B(  4-C ,  6-N ) :   0.8725 B(  5-C ,  7-C ) :   0.9968
B(  6-N ,  8-C ) :   1.3480 B(  6-N ,  9-C ) :   0.9247 B(  7-C ,  8-C ) :   0.9471
B(  7-C , 25-H ) :   0.8738 B(  7-C , 26-H ) :   0.8748 B(  8-C , 10-C ) :   1.2999
B(  9-C , 27-H ) :   0.8871 B(  9-C , 28-H ) :   0.9003 B(  9-C , 29-H ) :   0.8914
B( 10-C , 11-C ) :   1.3278 B( 10-C , 30-H ) :   0.9038 B( 11-C , 12-C ) :   0.9474
B( 11-C , 13-N ) :   1.3292 B( 12-C , 16-C ) :   0.9959 B( 12-C , 31-H ) :   0.8736
B( 12-C , 32-H ) :   0.8759 B( 13-N , 14-C ) :   0.8676 B( 13-N , 15-C ) :   0.9372
B( 14-C , 16-C ) :   1.2960 B( 14-C , 17-C ) :   1.3494 B( 15-C , 33-H ) :   0.8954
B( 15-C , 34-H ) :   0.8915 B( 15-C , 35-H ) :   0.8942 B( 16-C , 20-C ) :   1.4310
B( 17-C , 18-C ) :   1.4195 B( 17-C , 36-H ) :   0.9087 B( 18-C , 19-C ) :   1.4352
B( 18-C , 37-H ) :   0.9060 B( 19-C , 20-C ) :   1.4049 B( 19-C , 38-H ) :   0.9055
B( 20-C , 39-H ) :   0.9201

Dispersion correction           -0.030349410
FINAL SINGLE POINT ENERGY      -842.904974814067

DIPOLE MOMENT
-------------
                                X             Y             Z
Electronic contribution:      0.11672       2.06227      -0.72822
Nuclear contribution   :     -0.17499      -1.81743       0.70402
                        -----------------------------------------
Total Dipole Moment    :     -0.05827       0.24484      -0.02420
                        -----------------------------------------
Magnitude (a.u.)       :      0.25284
Magnitude (Debye)      :      0.64266

Rotational constants in cm-1:     0.035635     0.004738     0.004434
Rotational constants in MHz :  1068.313849   142.036929   132.940991

                             ****ORCA TERMINATED NORMALLY****
TOTAL RUN TIME: 0 days 0 hours 5 minutes 40 seconds 616 msec
