                         Program Version 5.0.3 -  RELEASE  -
|  1> ! PBEh-3c def2/J TightSCF DefGrid3
|  2>
|  3> %maxcore 60000
|  4>
|  5> %pal
|  6> nprocs 4
|  7> end
|  8>
|  9> *xyzfile 0 1 BH3.xyz
| 10>
| 11>                          ****END OF INPUT****

CARTESIAN COORDINATES (ANGSTROEM)
---------------------------------
  B      0.000000    0.000000    0.000000
  H      0.000000    1.189149    0.000000
  H      1.029833   -0.594574    0.000000
  H     -1.029833   -0.594574    0.000000

 Total Charge           Charge          ....    0
 Multiplicity           Mult            ....    1
 Number of Electrons    NEL             ....    8
 Basis Dimension        Dim             ....   21

ORBITAL ENERGIES
----------------

  NO   OCC          E(Eh)            E(eV)
   0   2.0000      -6.980301      -189.9437
   1   2.0000      -0.580590       -15.7986
   2   2.0000      -0.403977       -10.9928
   3   2.0000      -0.403976       -10.9928
   4   0.0000      -0.044282        -1.2050
   5   0.0000       0.193580         5.2676
   6   0.0000       0.193621         5.2687
   7   0.0000       0.231989         6.3127
   8   0.0000       0.350785         9.5454

MULLIKEN ATOMIC CHARGES
-----------------------
   0 B :   -0.116404
   1 H :    0.038801
   2 H :    0.038802
   3 H :    0.038802
Sum of atomic charges:   -0.0000000

LOEWDIN ATOMIC CHARGES
----------------------
   0 B :   -0.048356
   1 H :    0.016118
   2 H :    0.016119
   3 H :    0.016119

  Mayer bond orders larger than 0.100000
B(  0-B ,  1-H ) :   0.9896 B(  0-B ,  2-H ) :   0.9896 B(  0-B ,  3-H ) :   0.9896

Dispersion correction           -0.000463276
FINAL SINGLE POINT ENERGY       -26.537077401846

DIPOLE MOMENT
-------------
                                X             Y             Z
Electronic contribution:      0.00000      -0.00001      -0.00000
Nuclear contribution   :      0.00000       0.00000       0.00000
                        -----------------------------------------
Total Dipole Moment    :      0.00000      -0.00001      -0.00000
                        -----------------------------------------
Magnitude (a.u.)       :      0.00001
Magnitude (Debye)      :      0.00001

Rotational constants in cm-1:     7.884476     7.884476     3.942238
Rotational constants in MHz : 236370.652992 236370.651374 118185.326091

                             ****ORCA TERMINATED NORMALLY****
TOTAL RUN TIME: 0 days 0 hours 0 minutes 21 seconds 719 msec
