                         Program Version 5.0.3 -  RELEASE  -
|  1> ! PBEh-3c def2/J TightSCF DefGrid3
|  2>
|  3> %maxcore 60000
|  4>
|  5> %pal
|  6> nprocs 4
|  7> end
|  8>
|  9> *xyzfile 0 1 39.xyz
| 10>
| 11>                          ****END OF INPUT****

CARTESIAN COORDINATES (ANGSTROEM)
---------------------------------
  C      0.763018    0.869142   -1.879931
  H      1.434949    1.680904   -1.635819
  C      1.235125   -0.441941   -1.907034
  H      2.273232   -0.647641   -1.683210
  C      0.369710   -1.487639   -2.223653
  H      0.735661   -2.505183   -2.243865
  C     -0.967460   -1.222074   -2.514043
  H     -1.638986   -2.033663   -2.758695
  C     -1.439592    0.089303   -2.487644
  H     -2.477211    0.295200   -2.712389
  C     -0.574433    1.134921   -2.170109
  H     -0.940226    2.152608   -2.149844
  C     -0.765980   -0.725876    1.358906
  H     -0.872234   -0.550927    0.286599
  H     -1.417618   -1.555140    1.632057
  C      0.703561   -0.982939    1.703036
  H      1.198792   -1.620524    0.972452
  H      0.766840   -1.483153    2.670502
  C      1.343698    0.422457    1.793989
  H      1.993966    0.615128    0.942136
  H      1.956565    0.511627    2.689714
  C      0.164652    1.421634    1.820861
  H      0.047500    1.880604    0.838575
  H      0.310246    2.223139    2.543259
  C     -1.069120    0.564539    2.116509
  H     -2.000108    1.040276    1.810596
  H     -1.134546    0.355218    3.187045

 Total Charge           Charge          ....    0
 Multiplicity           Mult            ....    1
 Number of Electrons    NEL             ....   82
 Basis Dimension        Dim             ....  197

ORBITAL ENERGIES
----------------

  NO   OCC          E(Eh)            E(eV)
   0   2.0000     -10.452115      -284.4165
   1   2.0000     -10.451780      -284.4074
   2   2.0000     -10.451776      -284.4073
   3   2.0000     -10.451249      -284.3929
   4   2.0000     -10.451127      -284.3896
   5   2.0000     -10.450888      -284.3831
   6   2.0000     -10.418033      -283.4891
   7   2.0000     -10.417364      -283.4709
   8   2.0000     -10.416630      -283.4509
   9   2.0000     -10.416234      -283.4401
  10   2.0000     -10.412411      -283.3361
  11   2.0000      -0.955645       -26.0044
  12   2.0000      -0.916188       -24.9308
  13   2.0000      -0.838674       -22.8215
  14   2.0000      -0.838645       -22.8207
  15   2.0000      -0.778295       -21.1785
  16   2.0000      -0.777453       -21.1556
  17   2.0000      -0.682009       -18.5584
  18   2.0000      -0.681993       -18.5580
  19   2.0000      -0.627639       -17.0789
  20   2.0000      -0.619512       -16.8578
  21   2.0000      -0.595148       -16.1948
  22   2.0000      -0.531745       -14.4695
  23   2.0000      -0.528664       -14.3857
  24   2.0000      -0.527497       -14.3539
  25   2.0000      -0.511567       -13.9205
  26   2.0000      -0.484786       -13.1917
  27   2.0000      -0.484766       -13.1912
  28   2.0000      -0.459403       -12.5010
  29   2.0000      -0.458044       -12.4640
  30   2.0000      -0.424442       -11.5497
  31   2.0000      -0.401197       -10.9171
  32   2.0000      -0.401164       -10.9162
  33   2.0000      -0.376541       -10.2462
  34   2.0000      -0.375676       -10.2227
  35   2.0000      -0.371700       -10.1145
  36   2.0000      -0.366564        -9.9747
  37   2.0000      -0.357779        -9.7357
  38   2.0000      -0.351389        -9.5618
  39   2.0000      -0.295601        -8.0437
  40   2.0000      -0.295513        -8.0413
  41   0.0000       0.015043         0.4093
  42   0.0000       0.015066         0.4100
  43   0.0000       0.125199         3.4068
  44   0.0000       0.143147         3.8952
  45   0.0000       0.156515         4.2590

MULLIKEN ATOMIC CHARGES
-----------------------
   0 C :   -0.224014
   1 H :    0.225407
   2 C :   -0.220218
   3 H :    0.223968
   4 C :   -0.222755
   5 H :    0.222350
   6 C :   -0.221561
   7 H :    0.222227
   8 C :   -0.223822
   9 H :    0.222149
  10 C :   -0.223497
  11 H :    0.222941
  12 C :   -0.435885
  13 H :    0.240792
  14 H :    0.210875
  15 C :   -0.429556
  16 H :    0.215741
  17 H :    0.208689
  18 C :   -0.426316
  19 H :    0.209951
  20 H :    0.214588
  21 C :   -0.434890
  22 H :    0.215144
  23 H :    0.215267
  24 C :   -0.425021
  25 H :    0.215340
  26 H :    0.202105
Sum of atomic charges:   -0.0000000

LOEWDIN ATOMIC CHARGES
----------------------
   0 C :   -0.136697
   1 H :    0.136879
   2 C :   -0.135366
   3 H :    0.136738
   4 C :   -0.135716
   5 H :    0.136790
   6 C :   -0.135903
   7 H :    0.136866
   8 C :   -0.136967
   9 H :    0.136785
  10 C :   -0.137688
  11 H :    0.136804
  12 C :   -0.244171
  13 H :    0.133336
  14 H :    0.119873
  15 C :   -0.243517
  16 H :    0.122450
  17 H :    0.118773
  18 C :   -0.245470
  19 H :    0.120434
  20 H :    0.121529
  21 C :   -0.245131
  22 H :    0.122255
  23 H :    0.120881
  24 C :   -0.242708
  25 H :    0.121683
  26 H :    0.117259

  Mayer bond orders larger than 0.100000
B(  0-C ,  1-H ) :   0.9170 B(  0-C ,  2-C ) :   1.4264 B(  0-C , 10-C ) :   1.4232
B(  2-C ,  3-H ) :   0.9178 B(  2-C ,  4-C ) :   1.4249 B(  4-C ,  5-H ) :   0.9193
B(  4-C ,  6-C ) :   1.4257 B(  6-C ,  7-H ) :   0.9195 B(  6-C ,  8-C ) :   1.4248
B(  8-C ,  9-H ) :   0.9195 B(  8-C , 10-C ) :   1.4263 B( 10-C , 11-H ) :   0.9191
B( 12-C , 13-H ) :   0.9051 B( 12-C , 14-H ) :   0.9326 B( 12-C , 15-C ) :   0.9834
B( 12-C , 24-C ) :   0.9787 B( 15-C , 16-H ) :   0.9310 B( 15-C , 17-H ) :   0.9283
B( 15-C , 18-C ) :   0.9685 B( 18-C , 19-H ) :   0.9316 B( 18-C , 20-H ) :   0.9329
B( 18-C , 21-C ) :   0.9704 B( 21-C , 22-H ) :   0.9212 B( 21-C , 23-H ) :   0.9326
B( 21-C , 24-C ) :   0.9836 B( 24-C , 25-H ) :   0.9312 B( 24-C , 26-H ) :   0.9237

Dispersion correction           -0.016310212
FINAL SINGLE POINT ENERGY      -427.856868404049

DIPOLE MOMENT
-------------
                                X             Y             Z
Electronic contribution:     -0.51839      -0.76322      -9.14525
Nuclear contribution   :      0.48602       0.73569       9.00767
                        -----------------------------------------
Total Dipole Moment    :     -0.03237      -0.02753      -0.13758
                        -----------------------------------------
Magnitude (a.u.)       :      0.14399
Magnitude (Debye)      :      0.36600

Rotational constants in cm-1:     0.057332     0.022463     0.022094
Rotational constants in MHz :  1718.784162   673.413767   662.371410

                             ****ORCA TERMINATED NORMALLY****
TOTAL RUN TIME: 0 days 0 hours 2 minutes 22 seconds 48 msec
