                         Program Version 5.0.3 -  RELEASE  -
|  1> ! PBEh-3c def2/J TightSCF DefGrid3
|  2>
|  3> %maxcore 60000
|  4>
|  5> %pal
|  6> nprocs 4
|  7> end
|  8>
|  9> *xyzfile -1 1 EA_22.xyz
| 10>
| 11>                          ****END OF INPUT****

CARTESIAN COORDINATES (ANGSTROEM)
---------------------------------
  C      0.000000    0.000000    0.585201
  N      0.000000    0.000000   -0.585201

 Total Charge           Charge          ....   -1
 Multiplicity           Mult            ....    1
 Number of Electrons    NEL             ....   14
 Basis Dimension        Dim             ....   30

ORBITAL ENERGIES
----------------

  NO   OCC          E(Eh)            E(eV)
   0   2.0000     -14.314984      -389.5305
   1   2.0000     -10.134914      -275.7850
   2   2.0000      -0.675343       -18.3770
   3   2.0000      -0.175710        -4.7813
   4   2.0000      -0.079349        -2.1592
   5   2.0000      -0.079349        -2.1592
   6   2.0000      -0.044298        -1.2054
   7   0.0000       0.381278        10.3751
   8   0.0000       0.381278        10.3751
   9   0.0000       0.577425        15.7125
  10   0.0000       0.835391        22.7321
  11   0.0000       0.835391        22.7321

MULLIKEN ATOMIC CHARGES
-----------------------
   0 C :   -0.538773
   1 N :   -0.461227
Sum of atomic charges:   -1.0000000

LOEWDIN ATOMIC CHARGES
----------------------
   0 C :   -0.604250
   1 N :   -0.395750

  Mayer bond orders larger than 0.100000
B(  0-C ,  1-N ) :   2.9900

Dispersion correction           -0.000272027
FINAL SINGLE POINT ENERGY       -92.617379969081

DIPOLE MOMENT
-------------
                                X             Y             Z
Electronic contribution:     -0.00000       0.00000      -0.25335
Nuclear contribution   :      0.00000       0.00000      -0.00298
                        -----------------------------------------
Total Dipole Moment    :     -0.00000       0.00000      -0.25633
                        -----------------------------------------
Magnitude (a.u.)       :      0.25633
Magnitude (Debye)      :      0.65153

Rotational constants in cm-1:     0.000000     1.903166     1.903166
Rotational constants in MHz :     0.000000 57055.485342 57055.485342

                             ****ORCA TERMINATED NORMALLY****
TOTAL RUN TIME: 0 days 0 hours 0 minutes 17 seconds 100 msec
