                         Program Version 5.0.3 -  RELEASE  -
|  1> ! PBEh-3c def2/J TightSCF DefGrid3
|  2>
|  3> %maxcore 60000
|  4>
|  5> %pal
|  6> nprocs 4
|  7> end
|  8>
|  9> *xyzfile -1 1 8d.xyz
| 10>
| 11>                          ****END OF INPUT****

CARTESIAN COORDINATES (ANGSTROEM)
---------------------------------
  H     -3.366511    1.023476   -4.825324
  O     -2.949078    0.590355   -4.063814
  C     -3.718106    0.914701   -2.890976
  H     -4.777762    0.677274   -3.044342
  H     -3.621744    1.981787   -2.648901
  C     -3.188200    0.105099   -1.723587
  H     -3.681768    0.447687   -0.809240
  O     -3.522570   -1.309541   -1.901359
  C     -2.333443   -2.090744   -1.985477
  H     -2.167091   -2.652205   -1.062877
  N     -2.505284   -3.097166   -3.037998
  C     -2.700896   -2.685159   -4.336798
  H     -2.727570   -1.606717   -4.468781
  C     -2.871317   -3.549650   -5.364419
  H     -3.016355   -3.191822   -6.374953
  C     -2.878016   -4.969008   -5.111685
  O     -3.024139   -5.866474   -5.949743
  N     -2.725589   -5.299531   -3.756777
  H     -2.749301   -6.289066   -3.523823
  C     -2.545479   -4.447778   -2.685751
  O     -2.436772   -4.853727   -1.530783
  C     -1.665620    0.166351   -1.553851
  H     -1.242849    1.077992   -1.976520
  C     -1.172185   -1.110995   -2.245215
  H     -1.060006   -0.924848   -3.314537
  O      0.073536   -1.587253   -1.762518
  H      0.054005   -1.422937   -0.798662
  O     -1.279033    0.039951   -0.173757
  P     -1.151295    1.391284    0.779281
  O     -1.887378    1.130425    2.053996
  O     -1.430491    2.594411   -0.074187
  O      0.434650    1.309887    1.167141
  C      1.404313    1.411218    0.107959
  H      1.237963    2.332099   -0.461380
  H      1.318483    0.555643   -0.572832
  C      2.790086    1.403318    0.709280
  H      3.520233    1.418379   -0.110080
  O      2.991199    2.590542    1.524055
  C      3.714220    2.290976    2.699351
  H      4.549066    2.984073    2.818312
  N      2.808118    2.469335    3.888914
  C      1.491944    2.826195    3.744209
  H      1.174242    2.959699    2.719283
  C      0.652953    2.977362    4.800381
  H     -0.381367    3.254746    4.646863
  C      1.131592    2.758415    6.139054
  O      0.482060    2.860337    7.188550
  N      2.485141    2.389810    6.194179
  H      2.878533    2.220949    7.116628
  C      3.361843    2.228756    5.142840
  O      4.539472    1.903992    5.299996
  C      3.103546    0.233429    1.638160
  H      2.217240   -0.059290    2.208239
  C      4.176041    0.831438    2.566060
  H      4.244412    0.323280    3.530083
  O      5.439356    0.834367    1.898599
  H      5.426609    0.042172    1.323121
  O      3.597954   -0.860386    0.861570
  H      3.478403   -1.676908    1.374844

 Total Charge           Charge          ....   -1
 Multiplicity           Mult            ....    1
 Number of Electrons    NEL             ....  286
 Basis Dimension        Dim             ....  602

ORBITAL ENERGIES
----------------

  NO   OCC          E(Eh)            E(eV)
   0   2.0000     -77.723274     -2114.9578
   1   2.0000     -19.453222      -529.3491
   2   2.0000     -19.446447      -529.1647
   3   2.0000     -19.442988      -529.0706
   4   2.0000     -19.428720      -528.6824
   5   2.0000     -19.423661      -528.5447
   6   2.0000     -19.412642      -528.2448
   7   2.0000     -19.404360      -528.0195
   8   2.0000     -19.400729      -527.9207
   9   2.0000     -19.400260      -527.9079
  10   2.0000     -19.398538      -527.8611
  11   2.0000     -19.394397      -527.7484
  12   2.0000     -19.381620      -527.4007
  13   2.0000     -19.287176      -524.8307
  14   2.0000     -19.272684      -524.4364
  15   2.0000     -14.637599      -398.3093
  16   2.0000     -14.631825      -398.1522
  17   2.0000     -14.624598      -397.9556
  18   2.0000     -14.614363      -397.6770
  19   2.0000     -10.530886      -286.5600
  20   2.0000     -10.524067      -286.3744
  21   2.0000     -10.499154      -285.6965
  22   2.0000     -10.480177      -285.1801
  23   2.0000     -10.476009      -285.0667
  24   2.0000     -10.456306      -284.5306
  25   2.0000     -10.449371      -284.3419
  26   2.0000     -10.433307      -283.9047
  27   2.0000     -10.427939      -283.7587
  28   2.0000     -10.427253      -283.7400
  29   2.0000     -10.426169      -283.7105
  30   2.0000     -10.422714      -283.6165
  31   2.0000     -10.418484      -283.5013
  32   2.0000     -10.417424      -283.4725
  33   2.0000     -10.412032      -283.3258
  34   2.0000     -10.401456      -283.0380
  35   2.0000     -10.387375      -282.6548
  36   2.0000     -10.361506      -281.9509
  37   2.0000      -6.767505      -184.1532
  38   2.0000      -4.862637      -132.3191
  39   2.0000      -4.861381      -132.2849
  40   2.0000      -4.858954      -132.2189
  41   2.0000      -1.116104       -30.3707
  42   2.0000      -1.115450       -30.3529
  43   2.0000      -1.100219       -29.9385
  44   2.0000      -1.087271       -29.5862
  45   2.0000      -1.081492       -29.4289
  46   2.0000      -1.073524       -29.2121
  47   2.0000      -1.067192       -29.0398
  48   2.0000      -1.056734       -28.7552
  49   2.0000      -1.055814       -28.7302
  50   2.0000      -1.049188       -28.5498
  51   2.0000      -1.042076       -28.3563
  52   2.0000      -1.010571       -27.4990
  53   2.0000      -1.003463       -27.3056
  54   2.0000      -0.996136       -27.1062
  55   2.0000      -0.957018       -26.0418
  56   2.0000      -0.946564       -25.7573
  57   2.0000      -0.912836       -24.8395
  58   2.0000      -0.869158       -23.6510
  59   2.0000      -0.823042       -22.3961
  60   2.0000      -0.807814       -21.9817
  61   2.0000      -0.798991       -21.7417
  62   2.0000      -0.788037       -21.4436
  63   2.0000      -0.769569       -20.9410
  64   2.0000      -0.767644       -20.8886
  65   2.0000      -0.699254       -19.0277
  66   2.0000      -0.698134       -18.9972
  67   2.0000      -0.690828       -18.7984
  68   2.0000      -0.684880       -18.6365
  69   2.0000      -0.649012       -17.6605
  70   2.0000      -0.644037       -17.5251
  71   2.0000      -0.614746       -16.7281
  72   2.0000      -0.611934       -16.6516
  73   2.0000      -0.592957       -16.1352
  74   2.0000      -0.585967       -15.9450
  75   2.0000      -0.563037       -15.3210
  76   2.0000      -0.561981       -15.2923
  77   2.0000      -0.553743       -15.0681
  78   2.0000      -0.543885       -14.7999
  79   2.0000      -0.538679       -14.6582
  80   2.0000      -0.529422       -14.4063
  81   2.0000      -0.520868       -14.1735
  82   2.0000      -0.512310       -13.9407
  83   2.0000      -0.508149       -13.8274
  84   2.0000      -0.500917       -13.6307
  85   2.0000      -0.497862       -13.5475
  86   2.0000      -0.484728       -13.1901
  87   2.0000      -0.475307       -12.9338
  88   2.0000      -0.472514       -12.8578
  89   2.0000      -0.467088       -12.7101
  90   2.0000      -0.460373       -12.5274
  91   2.0000      -0.455820       -12.4035
  92   2.0000      -0.449281       -12.2256
  93   2.0000      -0.442934       -12.0528
  94   2.0000      -0.440208       -11.9787
  95   2.0000      -0.438798       -11.9403
  96   2.0000      -0.430701       -11.7200
  97   2.0000      -0.426577       -11.6077
  98   2.0000      -0.422974       -11.5097
  99   2.0000      -0.412338       -11.2203
 100   2.0000      -0.410858       -11.1800
 101   2.0000      -0.409732       -11.1494
 102   2.0000      -0.404953       -11.0193
 103   2.0000      -0.399994       -10.8844
 104   2.0000      -0.396252       -10.7826
 105   2.0000      -0.391131       -10.6432
 106   2.0000      -0.387296       -10.5389
 107   2.0000      -0.382105       -10.3976
 108   2.0000      -0.380582       -10.3562
 109   2.0000      -0.377465       -10.2714
 110   2.0000      -0.367096        -9.9892
 111   2.0000      -0.365081        -9.9344
 112   2.0000      -0.354594        -9.6490
 113   2.0000      -0.346598        -9.4314
 114   2.0000      -0.343377        -9.3438
 115   2.0000      -0.342710        -9.3256
 116   2.0000      -0.338532        -9.2119
 117   2.0000      -0.328857        -8.9487
 118   2.0000      -0.325490        -8.8570
 119   2.0000      -0.311865        -8.4863
 120   2.0000      -0.304251        -8.2791
 121   2.0000      -0.296611        -8.0712
 122   2.0000      -0.286106        -7.7853
 123   2.0000      -0.279510        -7.6058
 124   2.0000      -0.278127        -7.5682
 125   2.0000      -0.277602        -7.5539
 126   2.0000      -0.267664        -7.2835
 127   2.0000      -0.266672        -7.2565
 128   2.0000      -0.264433        -7.1956
 129   2.0000      -0.263800        -7.1784
 130   2.0000      -0.261021        -7.1027
 131   2.0000      -0.255370        -6.9490
 132   2.0000      -0.250893        -6.8271
 133   2.0000      -0.246153        -6.6982
 134   2.0000      -0.243158        -6.6167
 135   2.0000      -0.237059        -6.4507
 136   2.0000      -0.234588        -6.3835
 137   2.0000      -0.211126        -5.7450
 138   2.0000      -0.209146        -5.6911
 139   2.0000      -0.196353        -5.3430
 140   2.0000      -0.194527        -5.2934
 141   2.0000      -0.172058        -4.6819
 142   2.0000      -0.158448        -4.3116
 143   0.0000       0.054312         1.4779
 144   0.0000       0.076877         2.0919
 145   0.0000       0.112760         3.0684
 146   0.0000       0.120459         3.2778
 147   0.0000       0.157206         4.2778

MULLIKEN ATOMIC CHARGES
-----------------------
   0 H :    0.422209
   1 O :   -0.645535
   2 C :   -0.187733
   3 H :    0.202035
   4 H :    0.226101
   5 C :    0.001424
   6 H :    0.278353
   7 O :   -0.492012
   8 C :    0.189928
   9 H :    0.278024
  10 N :   -0.569740
  11 C :    0.093380
  12 H :    0.315382
  13 C :   -0.488164
  14 H :    0.241797
  15 C :    0.563454
  16 O :   -0.431973
  17 N :   -0.737068
  18 H :    0.388455
  19 C :    0.729114
  20 O :   -0.440063
  21 C :   -0.030703
  22 H :    0.265231
  23 C :   -0.021520
  24 H :    0.243035
  25 O :   -0.638620
  26 H :    0.436184
  27 O :   -0.658154
  28 P :    1.371824
  29 O :   -0.699432
  30 O :   -0.759898
  31 O :   -0.607129
  32 C :   -0.188311
  33 H :    0.237179
  34 H :    0.210493
  35 C :    0.041234
  36 H :    0.224355
  37 O :   -0.493962
  38 C :    0.224985
  39 H :    0.266637
  40 N :   -0.587703
  41 C :    0.081912
  42 H :    0.336738
  43 C :   -0.466439
  44 H :    0.281805
  45 C :    0.553431
  46 O :   -0.433938
  47 N :   -0.729851
  48 H :    0.383750
  49 C :    0.711738
  50 O :   -0.459305
  51 C :   -0.075747
  52 H :    0.268907
  53 C :   -0.040549
  54 H :    0.247895
  55 O :   -0.643883
  56 H :    0.421695
  57 O :   -0.638826
  58 H :    0.427578
Sum of atomic charges:   -1.0000000

LOEWDIN ATOMIC CHARGES
----------------------
   0 H :    0.311784
   1 O :   -0.421226
   2 C :   -0.099407
   3 H :    0.111042
   4 H :    0.125186
   5 C :   -0.013770
   6 H :    0.150973
   7 O :   -0.254793
   8 C :    0.063818
   9 H :    0.149189
  10 N :   -0.083682
  11 C :    0.004153
  12 H :    0.163774
  13 C :   -0.257682
  14 H :    0.154344
  15 C :    0.127114
  16 O :   -0.283328
  17 N :   -0.202145
  18 H :    0.282442
  19 C :    0.167829
  20 O :   -0.280047
  21 C :   -0.028988
  22 H :    0.140028
  23 C :   -0.041305
  24 H :    0.131870
  25 O :   -0.390688
  26 H :    0.317144
  27 O :   -0.359673
  28 P :    0.803967
  29 O :   -0.589110
  30 O :   -0.616738
  31 O :   -0.352651
  32 C :   -0.096580
  33 H :    0.132133
  34 H :    0.119904
  35 C :   -0.011749
  36 H :    0.127103
  37 O :   -0.227127
  38 C :    0.093665
  39 H :    0.139095
  40 N :   -0.101454
  41 C :    0.002794
  42 H :    0.179047
  43 C :   -0.243963
  44 H :    0.172551
  45 C :    0.124284
  46 O :   -0.286304
  47 N :   -0.200645
  48 H :    0.279657
  49 C :    0.153829
  50 O :   -0.297244
  51 C :   -0.045452
  52 H :    0.139504
  53 C :   -0.046031
  54 H :    0.125237
  55 O :   -0.400752
  56 H :    0.310717
  57 O :   -0.392553
  58 H :    0.320906

  Mayer bond orders larger than 0.100000
B(  0-H ,  1-O ) :   0.7894 B(  1-O ,  2-C ) :   0.9638 B(  2-C ,  3-H ) :   0.9058
B(  2-C ,  4-H ) :   0.8896 B(  2-C ,  5-C ) :   0.9453 B(  5-C ,  6-H ) :   0.8867
B(  5-C ,  7-O ) :   0.9228 B(  5-C , 21-C ) :   0.9286 B(  7-O ,  8-C ) :   0.9998
B(  8-C ,  9-H ) :   0.8637 B(  8-C , 10-N ) :   0.8828 B(  8-C , 23-C ) :   0.8908
B( 10-N , 11-C ) :   1.0786 B( 10-N , 19-C ) :   1.0213 B( 11-C , 12-H ) :   0.8327
B( 11-C , 13-C ) :   1.5963 B( 13-C , 14-H ) :   0.9213 B( 13-C , 15-C ) :   1.0785
B( 15-C , 16-O ) :   1.9970 B( 15-C , 17-N ) :   0.9925 B( 17-N , 18-H ) :   0.8046
B( 17-N , 19-C ) :   1.0538 B( 19-C , 20-O ) :   1.9758 B( 21-C , 22-H ) :   0.8757
B( 21-C , 23-C ) :   0.9334 B( 21-C , 27-O ) :   0.9026 B( 23-C , 24-H ) :   0.8933
B( 23-C , 25-O ) :   1.0549 B( 25-O , 26-H ) :   0.7396 B( 27-O , 28-P ) :   0.8037
B( 28-P , 29-O ) :   1.8177 B( 28-P , 30-O ) :   1.6623 B( 28-P , 31-O ) :   0.8574
B( 31-O , 32-C ) :   0.9426 B( 32-C , 33-H ) :   0.8852 B( 32-C , 34-H ) :   0.8775
B( 32-C , 35-C ) :   0.9738 B( 35-C , 36-H ) :   0.8913 B( 35-C , 37-O ) :   0.9080
B( 35-C , 51-C ) :   0.9251 B( 37-O , 38-C ) :   1.0247 B( 38-C , 39-H ) :   0.8861
B( 38-C , 40-N ) :   0.8265 B( 38-C , 53-C ) :   0.9304 B( 40-N , 41-C ) :   1.0744
B( 40-N , 49-C ) :   1.0416 B( 41-C , 42-H ) :   0.8376 B( 41-C , 43-C ) :   1.5970
B( 43-C , 44-H ) :   0.9020 B( 43-C , 45-C ) :   1.0834 B( 45-C , 46-O ) :   1.9952
B( 45-C , 47-N ) :   0.9723 B( 47-N , 48-H ) :   0.8068 B( 47-N , 49-C ) :   1.0756
B( 49-C , 50-O ) :   1.9381 B( 51-C , 52-H ) :   0.8620 B( 51-C , 53-C ) :   0.9295
B( 51-C , 57-O ) :   0.9868 B( 53-C , 54-H ) :   0.8910 B( 53-C , 55-O ) :   0.9980
B( 55-O , 56-H ) :   0.7526 B( 57-O , 58-H ) :   0.7837

Dispersion correction           -0.046425384
FINAL SINGLE POINT ENERGY     -2308.305654496977

DIPOLE MOMENT
-------------
                                X             Y             Z
Electronic contribution:     -2.04069      -3.25244      10.29292
Nuclear contribution   :      3.43329       2.76705     -13.09222
                        -----------------------------------------
Total Dipole Moment    :      1.39259      -0.48539      -2.79931
                        -----------------------------------------
Magnitude (a.u.)       :      3.16402
Magnitude (Debye)      :      8.04230

Rotational constants in cm-1:     0.006616     0.001357     0.001268
Rotational constants in MHz :   198.339683    40.689766    38.023864

                             ****ORCA TERMINATED NORMALLY****
TOTAL RUN TIME: 0 days 0 hours 11 minutes 28 seconds 959 msec
