                         Program Version 5.0.3 -  RELEASE  -
|  1> ! PBEh-3c def2/J TightSCF DefGrid3
|  2>
|  3> %maxcore 60000
|  4>
|  5> %pal
|  6> nprocs 4
|  7> end
|  8>
|  9> *xyzfile 0 1 ILE_xak.xyz
| 10>
| 11>                          ****END OF INPUT****

CARTESIAN COORDINATES (ANGSTROEM)
---------------------------------
  N     -1.470092   -0.560215    0.221606
  C     -0.179946   -0.196165   -0.306582
  C      0.779494   -1.307278    0.097246
  O      0.552008   -2.027147    1.066458
  C      0.267083    1.188170    0.215181
  C      1.444125    1.753602   -0.577878
  C      0.543315    1.151857    1.712795
  C      1.666226    3.240834   -0.326004
  H     -1.472622   -1.278930    0.929022
  H     -0.259623   -0.133278   -1.394739
  H     -0.595445    1.831840    0.023166
  H      1.256182    1.603539   -1.645627
  H      2.354607    1.203557   -0.328273
  H     -0.283780    0.689397    2.249210
  H      1.445579    0.577787    1.930188
  H      0.677014    2.156268    2.109771
  H      0.765183    3.806813   -0.561035
  H      2.475760    3.626586   -0.943636
  H      1.923884    3.434789    0.713377
  N      1.892739   -1.410110   -0.665081
  H      1.974591   -0.804786   -1.462634
  C      2.939271   -2.371180   -0.387463
  H      3.021207   -3.104837   -1.187338
  H      3.898353   -1.873162   -0.259844
  H      2.673434   -2.880001    0.533394
  C     -2.613824   -0.059032   -0.308603
  O     -2.608006    0.757072   -1.225531
  C     -3.893184   -0.570228    0.308256
  H     -4.483618   -1.050601   -0.468482
  H     -4.462916    0.279322    0.676935
  H     -3.725567   -1.272446    1.121009

 Total Charge           Charge          ....    0
 Multiplicity           Mult            ....    1
 Number of Electrons    NEL             ....  102
 Basis Dimension        Dim             ....  231

ORBITAL ENERGIES
----------------

  NO   OCC          E(Eh)            E(eV)
   0   2.0000     -19.469554      -529.7935
   1   2.0000     -19.447107      -529.1827
   2   2.0000     -14.675292      -399.3350
   3   2.0000     -14.653733      -398.7484
   4   2.0000     -10.556057      -287.2449
   5   2.0000     -10.541621      -286.8521
   6   2.0000     -10.487081      -285.3680
   7   2.0000     -10.475043      -285.0404
   8   2.0000     -10.446296      -284.2582
   9   2.0000     -10.439468      -284.0724
  10   2.0000     -10.436142      -283.9819
  11   2.0000     -10.426298      -283.7140
  12   2.0000     -10.420629      -283.5597
  13   2.0000      -1.155978       -31.4558
  14   2.0000      -1.132708       -30.8225
  15   2.0000      -1.034420       -28.1480
  16   2.0000      -1.020666       -27.7737
  17   2.0000      -0.910967       -24.7887
  18   2.0000      -0.848789       -23.0967
  19   2.0000      -0.815963       -22.2035
  20   2.0000      -0.808565       -22.0022
  21   2.0000      -0.762424       -20.7466
  22   2.0000      -0.718973       -19.5643
  23   2.0000      -0.670974       -18.2581
  24   2.0000      -0.662877       -18.0378
  25   2.0000      -0.632056       -17.1991
  26   2.0000      -0.599771       -16.3206
  27   2.0000      -0.553963       -15.0741
  28   2.0000      -0.539807       -14.6889
  29   2.0000      -0.535213       -14.5639
  30   2.0000      -0.526369       -14.3232
  31   2.0000      -0.518520       -14.1096
  32   2.0000      -0.512983       -13.9590
  33   2.0000      -0.495735       -13.4896
  34   2.0000      -0.480665       -13.0796
  35   2.0000      -0.469450       -12.7744
  36   2.0000      -0.457006       -12.4358
  37   2.0000      -0.453721       -12.3464
  38   2.0000      -0.448727       -12.2105
  39   2.0000      -0.446319       -12.1450
  40   2.0000      -0.434002       -11.8098
  41   2.0000      -0.426032       -11.5929
  42   2.0000      -0.418728       -11.3942
  43   2.0000      -0.405238       -11.0271
  44   2.0000      -0.386489       -10.5169
  45   2.0000      -0.376034       -10.2324
  46   2.0000      -0.374569       -10.1925
  47   2.0000      -0.323270        -8.7966
  48   2.0000      -0.314954        -8.5703
  49   2.0000      -0.300332        -8.1724
  50   2.0000      -0.293088        -7.9753
  51   0.0000       0.047607         1.2955
  52   0.0000       0.071635         1.9493
  53   0.0000       0.112137         3.0514
  54   0.0000       0.134605         3.6628
  55   0.0000       0.149839         4.0773

MULLIKEN ATOMIC CHARGES
-----------------------
   0 N :   -0.645482
   1 C :   -0.164040
   2 C :    0.546775
   3 O :   -0.446146
   4 C :   -0.221915
   5 C :   -0.432850
   6 C :   -0.653062
   7 C :   -0.642032
   8 H :    0.381837
   9 H :    0.258078
  10 H :    0.259323
  11 H :    0.207219
  12 H :    0.204692
  13 H :    0.231929
  14 H :    0.217007
  15 H :    0.224075
  16 H :    0.221670
  17 H :    0.221673
  18 H :    0.216788
  19 N :   -0.632467
  20 H :    0.367698
  21 C :   -0.498525
  22 H :    0.225275
  23 H :    0.223239
  24 H :    0.269588
  25 C :    0.524400
  26 O :   -0.445267
  27 C :   -0.747240
  28 H :    0.255113
  29 H :    0.255449
  30 H :    0.217197
Sum of atomic charges:    0.0000000

LOEWDIN ATOMIC CHARGES
----------------------
   0 N :   -0.221798
   1 C :   -0.088175
   2 C :    0.115284
   3 O :   -0.289439
   4 C :   -0.151915
   5 C :   -0.248332
   6 C :   -0.355522
   7 C :   -0.358194
   8 H :    0.267242
   9 H :    0.141994
  10 H :    0.143591
  11 H :    0.118294
  12 H :    0.117580
  13 H :    0.133286
  14 H :    0.127715
  15 H :    0.128352
  16 H :    0.129545
  17 H :    0.127800
  18 H :    0.125810
  19 N :   -0.233331
  20 H :    0.257119
  21 C :   -0.257308
  22 H :    0.124767
  23 H :    0.124442
  24 H :    0.156419
  25 C :    0.105336
  26 O :   -0.293573
  27 C :   -0.387296
  28 H :    0.155537
  29 H :    0.155445
  30 H :    0.129325

  Mayer bond orders larger than 0.100000
B(  0-N ,  1-C ) :   0.9427 B(  0-N ,  8-H ) :   0.7795 B(  0-N , 25-C ) :   1.1551
B(  1-C ,  2-C ) :   0.9071 B(  1-C ,  4-C ) :   0.9497 B(  1-C ,  9-H ) :   0.8835
B(  2-C ,  3-O ) :   1.9411 B(  2-C , 19-N ) :   1.1452 B(  4-C ,  5-C ) :   0.9646
B(  4-C ,  6-C ) :   0.9779 B(  4-C , 10-H ) :   0.8842 B(  5-C ,  7-C ) :   0.9993
B(  5-C , 11-H ) :   0.9201 B(  5-C , 12-H ) :   0.9099 B(  6-C , 13-H ) :   0.9216
B(  6-C , 14-H ) :   0.9191 B(  6-C , 15-H ) :   0.9247 B(  7-C , 16-H ) :   0.9258
B(  7-C , 17-H ) :   0.9306 B(  7-C , 18-H ) :   0.9250 B( 19-N , 20-H ) :   0.8160
B( 19-N , 21-C ) :   0.9490 B( 21-C , 22-H ) :   0.9194 B( 21-C , 23-H ) :   0.9204
B( 21-C , 24-H ) :   0.8975 B( 25-C , 26-O ) :   1.9536 B( 25-C , 27-C ) :   0.9280
B( 27-C , 28-H ) :   0.9110 B( 27-C , 29-H ) :   0.9116 B( 27-C , 30-H ) :   0.9210

Dispersion correction           -0.018602998
FINAL SINGLE POINT ENERGY      -612.478995611255

DIPOLE MOMENT
-------------
                                X             Y             Z
Electronic contribution:     -6.42910      -7.30700      -2.15734
Nuclear contribution   :      7.46382       7.00217       2.04730
                        -----------------------------------------
Total Dipole Moment    :      1.03473      -0.30483      -0.11004
                        -----------------------------------------
Magnitude (a.u.)       :      1.08429
Magnitude (Debye)      :      2.75605

Rotational constants in cm-1:     0.028375     0.019415     0.013800
Rotational constants in MHz :   850.675242   582.032369   413.710850

                             ****ORCA TERMINATED NORMALLY****
TOTAL RUN TIME: 0 days 0 hours 3 minutes 51 seconds 426 msec
