                         Program Version 5.0.3 -  RELEASE  -
|  1> ! PBEh-3c def2/J TightSCF DefGrid3
|  2>
|  3> %maxcore 60000
|  4>
|  5> %pal
|  6> nprocs 4
|  7> end
|  8>
|  9> *xyzfile 0 1 i20e.xyz
| 10>
| 11>                          ****END OF INPUT****

CARTESIAN COORDINATES (ANGSTROEM)
---------------------------------
  C     -0.322180    2.398555    0.002792
  C     -0.127766    0.987565    0.586007
  C     -1.275507    0.054520    0.209808
  C     -1.250790   -0.702635   -0.968821
  C     -2.328454   -1.526473   -1.303775
  C     -3.443250   -1.605951   -0.462180
  C     -3.474278   -0.854605    0.716766
  C     -2.395714   -0.029618    1.048327
  H     -0.382298   -0.652457   -1.620033
  H     -2.295734   -2.110029   -2.221993
  H     -4.280054   -2.251578   -0.721789
  H     -4.336075   -0.911154    1.379174
  H     -2.422729    0.561278    1.962243
  C      1.253252    0.416129    0.292588
  C      1.885383   -0.339586    1.292549
  C      3.135054   -0.922309    1.072158
  C      3.777529   -0.755115   -0.159633
  C      3.158772   -0.003645   -1.162207
  C      1.904176    0.575790   -0.940847
  H      1.385505   -0.473756    2.251039
  H      3.607706   -1.504233    1.861163
  H      4.752460   -1.205710   -0.334700
  H      3.650444    0.133036   -2.123578
  H      1.434493    1.149932   -1.733978
  H     -0.181584    1.150168    1.670962
  H      0.551064    3.043842    0.171910
  F     -0.564231    2.374723   -1.357192
  F     -1.415194    3.003317    0.593240

 Total Charge           Charge          ....    0
 Multiplicity           Mult            ....    1
 Number of Electrons    NEL             ....  114
 Basis Dimension        Dim             ....  264

ORBITAL ENERGIES
----------------

  NO   OCC          E(Eh)            E(eV)
   0   2.0000     -25.102361      -683.0700
   1   2.0000     -25.099055      -682.9800
   2   2.0000     -10.610308      -288.7211
   3   2.0000     -10.478790      -285.1424
   4   2.0000     -10.473424      -284.9964
   5   2.0000     -10.465276      -284.7746
   6   2.0000     -10.459240      -284.6104
   7   2.0000     -10.459037      -284.6049
   8   2.0000     -10.458671      -284.5949
   9   2.0000     -10.457938      -284.5750
  10   2.0000     -10.457780      -284.5707
  11   2.0000     -10.451783      -284.4075
  12   2.0000     -10.451151      -284.3903
  13   2.0000     -10.450734      -284.3789
  14   2.0000     -10.450281      -284.3666
  15   2.0000     -10.449232      -284.3381
  16   2.0000      -1.363816       -37.1113
  17   2.0000      -1.306804       -35.5599
  18   2.0000      -0.973153       -26.4808
  19   2.0000      -0.953405       -25.9435
  20   2.0000      -0.903832       -24.5945
  21   2.0000      -0.843307       -22.9476
  22   2.0000      -0.838958       -22.8292
  23   2.0000      -0.833889       -22.6913
  24   2.0000      -0.810739       -22.0613
  25   2.0000      -0.735545       -20.0152
  26   2.0000      -0.694147       -18.8887
  27   2.0000      -0.685399       -18.6507
  28   2.0000      -0.678009       -18.4496
  29   2.0000      -0.654499       -17.8098
  30   2.0000      -0.619074       -16.8459
  31   2.0000      -0.608270       -16.5519
  32   2.0000      -0.590021       -16.0553
  33   2.0000      -0.582559       -15.8522
  34   2.0000      -0.564739       -15.3673
  35   2.0000      -0.538125       -14.6431
  36   2.0000      -0.523249       -14.2383
  37   2.0000      -0.514502       -14.0003
  38   2.0000      -0.508456       -13.8358
  39   2.0000      -0.491582       -13.3766
  40   2.0000      -0.489648       -13.3240
  41   2.0000      -0.484357       -13.1800
  42   2.0000      -0.479517       -13.0483
  43   2.0000      -0.472344       -12.8531
  44   2.0000      -0.463276       -12.6064
  45   2.0000      -0.452005       -12.2997
  46   2.0000      -0.427370       -11.6293
  47   2.0000      -0.424022       -11.5382
  48   2.0000      -0.417790       -11.3686
  49   2.0000      -0.406359       -11.0576
  50   2.0000      -0.397133       -10.8065
  51   2.0000      -0.390940       -10.6380
  52   2.0000      -0.386728       -10.5234
  53   2.0000      -0.301066        -8.1924
  54   2.0000      -0.300168        -8.1680
  55   2.0000      -0.291669        -7.9367
  56   2.0000      -0.283437        -7.7127
  57   0.0000       0.001143         0.0311
  58   0.0000       0.006195         0.1686
  59   0.0000       0.016212         0.4411
  60   0.0000       0.021047         0.5727
  61   0.0000       0.121476         3.3055

MULLIKEN ATOMIC CHARGES
-----------------------
   0 C :    0.578784
   1 C :   -0.531834
   2 C :    0.177827
   3 C :   -0.254394
   4 C :   -0.207560
   5 C :   -0.230665
   6 C :   -0.209974
   7 C :   -0.267974
   8 H :    0.232764
   9 H :    0.220473
  10 H :    0.220664
  11 H :    0.219968
  12 H :    0.216270
  13 C :    0.134274
  14 C :   -0.260217
  15 C :   -0.206982
  16 C :   -0.230370
  17 C :   -0.206011
  18 C :   -0.305589
  19 H :    0.219838
  20 H :    0.223639
  21 H :    0.223799
  22 H :    0.224354
  23 H :    0.246450
  24 H :    0.261571
  25 H :    0.178157
  26 F :   -0.331900
  27 F :   -0.335363
Sum of atomic charges:   -0.0000000

LOEWDIN ATOMIC CHARGES
----------------------
   0 C :    0.275734
   1 C :   -0.151606
   2 C :   -0.036792
   3 C :   -0.119992
   4 C :   -0.131011
   5 C :   -0.134160
   6 C :   -0.133077
   7 C :   -0.128645
   8 H :    0.144407
   9 H :    0.137295
  10 H :    0.136717
  11 H :    0.137249
  12 H :    0.136618
  13 C :   -0.041639
  14 C :   -0.125477
  15 C :   -0.129246
  16 C :   -0.134312
  17 C :   -0.129822
  18 C :   -0.145927
  19 H :    0.137736
  20 H :    0.138873
  21 H :    0.138212
  22 H :    0.138740
  23 H :    0.145637
  24 H :    0.154558
  25 H :    0.112434
  26 F :   -0.196448
  27 F :   -0.196055

  Mayer bond orders larger than 0.100000
B(  0-C ,  1-C ) :   0.9203 B(  0-C , 25-H ) :   0.9043 B(  0-C , 26-F ) :   0.9578
B(  0-C , 27-F ) :   0.9704 B(  1-C ,  2-C ) :   0.9335 B(  1-C , 13-C ) :   0.9533
B(  1-C , 24-H ) :   0.9003 B(  2-C ,  3-C ) :   1.4025 B(  2-C ,  7-C ) :   1.3958
B(  3-C ,  4-C ) :   1.4270 B(  3-C ,  8-H ) :   0.9087 B(  4-C ,  5-C ) :   1.4172
B(  4-C ,  9-H ) :   0.9197 B(  5-C ,  6-C ) :   1.4239 B(  5-C , 10-H ) :   0.9191
B(  6-C ,  7-C ) :   1.4237 B(  6-C , 11-H ) :   0.9193 B(  7-C , 12-H ) :   0.9206
B( 13-C , 14-C ) :   1.3922 B( 13-C , 18-C ) :   1.4016 B( 14-C , 15-C ) :   1.4347
B( 14-C , 19-H ) :   0.9194 B( 15-C , 16-C ) :   1.4143 B( 15-C , 20-H ) :   0.9182
B( 16-C , 17-C ) :   1.4282 B( 16-C , 21-H ) :   0.9183 B( 17-C , 18-C ) :   1.4137
B( 17-C , 22-H ) :   0.9191 B( 18-C , 23-H ) :   0.8976

Dispersion correction           -0.019417423
FINAL SINGLE POINT ENERGY      -738.824521260887

DIPOLE MOMENT
-------------
                                X             Y             Z
Electronic contribution:     -3.89555      10.48050      -1.36504
Nuclear contribution   :      4.52478     -10.93905       1.70111
                        -----------------------------------------
Total Dipole Moment    :      0.62923      -0.45855       0.33606
                        -----------------------------------------
Magnitude (a.u.)       :      0.84802
Magnitude (Debye)      :      2.15549

Rotational constants in cm-1:     0.025702     0.012844     0.010674
Rotational constants in MHz :   770.516235   385.044068   319.985276

                             ****ORCA TERMINATED NORMALLY****
TOTAL RUN TIME: 0 days 0 hours 3 minutes 34 seconds 743 msec
