                         Program Version 5.0.3 -  RELEASE  -
|  1> ! PBEh-3c def2/J TightSCF DefGrid3
|  2>
|  3> %maxcore 60000
|  4>
|  5> %pal
|  6> nprocs 4
|  7> end
|  8>
|  9> *xyzfile 0 2 06.xyz
| 10>
| 11>                          ****END OF INPUT****

CARTESIAN COORDINATES (ANGSTROEM)
---------------------------------
  B      0.057749    0.868804    0.147313
  N     -1.217558    0.464433   -0.319928
  H      1.471555    2.621657    0.215844
  O     -2.837605   -3.860406    0.032265
  B      1.131625   -0.523950    0.495560
  H      0.049373   -1.458667   -1.959515
  Al    -0.807970   -1.296388   -0.543610
  H     -0.239401    3.101537    0.163068
  B     -2.092468   -2.921386   -0.167762
  Mg     1.421932   -0.071848   -1.889382
  H     -2.010419    1.092380   -0.408976
  H      0.474639    2.427020    1.638957
  H      1.462207   -0.333001    1.634140
  H      0.529577   -1.650426    0.575001
  C      0.460225    2.346180    0.541643
  H      2.146539   -0.805941   -0.154618

 Total Charge           Charge          ....    0
 Multiplicity           Mult            ....    2
 Number of Electrons    NEL             ....   69
 Basis Dimension        Dim             ....  142

ORBITAL ENERGIES
----------------
                 SPIN UP ORBITALS
  NO   OCC          E(Eh)            E(eV)
   0   1.0000     -56.640112     -1541.2558
   1   1.0000     -47.411797     -1290.1406
   2   1.0000     -19.484895      -530.2109
   3   1.0000     -14.636780      -398.2870
   4   1.0000     -10.419648      -283.5330
   5   1.0000      -6.978045      -189.8823
   6   1.0000      -6.974799      -189.7939
   7   1.0000      -6.938703      -188.8117
   8   1.0000      -4.375214      -119.0556
   9   1.0000      -2.863082       -77.9084
  10   1.0000      -2.866125       -77.9912
  11   1.0000      -2.863779       -77.9274
  12   1.0000      -3.359449       -91.4153
  13   1.0000      -2.041104       -55.5413
  14   1.0000      -2.040564       -55.5266
  15   1.0000      -2.040037       -55.5122
  16   1.0000      -1.071066       -29.1452
  17   1.0000      -0.947670       -25.7874
  18   1.0000      -0.780946       -21.2506
  19   1.0000      -0.673017       -18.3137
  20   1.0000      -0.577034       -15.7019
  21   1.0000      -0.527473       -14.3533
  22   1.0000      -0.482521       -13.1301
  23   1.0000      -0.474984       -12.9250
  24   1.0000      -0.472825       -12.8662
  25   1.0000      -0.452830       -12.3221
  26   1.0000      -0.442203       -12.0330
  27   1.0000      -0.412467       -11.2238
  28   1.0000      -0.397093       -10.8055
  29   1.0000      -0.395323       -10.7573
  30   1.0000      -0.390780       -10.6337
  31   1.0000      -0.374746       -10.1974
  32   1.0000      -0.352038        -9.5794
  33   1.0000      -0.329539        -8.9672
  34   1.0000      -0.222026        -6.0416
  35   0.0000      -0.039929        -1.0865
  36   0.0000      -0.023362        -0.6357
  37   0.0000      -0.017418        -0.4740
  38   0.0000       0.005578         0.1518
  39   0.0000       0.022671         0.6169

                 SPIN DOWN ORBITALS
  NO   OCC          E(Eh)            E(eV)
   0   1.0000     -56.639906     -1541.2502
   1   1.0000     -47.408212     -1290.0430
   2   1.0000     -19.484843      -530.2095
   3   1.0000     -14.636774      -398.2869
   4   1.0000     -10.419580      -283.5312
   5   1.0000      -6.978063      -189.8827
   6   1.0000      -6.974755      -189.7927
   7   1.0000      -6.938119      -188.7958
   8   1.0000      -4.374914      -119.0475
   9   1.0000      -2.862900       -77.9035
  10   1.0000      -2.865870       -77.9843
  11   1.0000      -2.863213       -77.9120
  12   1.0000      -3.352464       -91.2252
  13   1.0000      -2.037245       -55.4363
  14   1.0000      -2.036269       -55.4097
  15   1.0000      -2.034522       -55.3622
  16   1.0000      -1.070944       -29.1419
  17   1.0000      -0.947582       -25.7850
  18   1.0000      -0.780640       -21.2423
  19   1.0000      -0.671265       -18.2661
  20   1.0000      -0.576300       -15.6819
  21   1.0000      -0.526080       -14.3154
  22   1.0000      -0.482291       -13.1238
  23   1.0000      -0.473032       -12.8719
  24   1.0000      -0.470607       -12.8059
  25   1.0000      -0.450878       -12.2690
  26   1.0000      -0.440072       -11.9750
  27   1.0000      -0.412053       -11.2125
  28   1.0000      -0.396646       -10.7933
  29   1.0000      -0.395254       -10.7554
  30   1.0000      -0.389473       -10.5981
  31   1.0000      -0.373549       -10.1648
  32   1.0000      -0.351238        -9.5577
  33   1.0000      -0.328455        -8.9377
  34   0.0000      -0.083857        -2.2819
  35   0.0000      -0.022042        -0.5998
  36   0.0000      -0.018173        -0.4945
  37   0.0000      -0.004270        -0.1162
  38   0.0000       0.024893         0.6774

MULLIKEN ATOMIC CHARGES AND SPIN POPULATIONS
--------------------------------------------
   0 B :    0.447334    0.008312
   1 N :   -0.739516   -0.000093
   2 H :    0.236344   -0.000525
   3 O :   -0.251645    0.001617
   4 B :   -0.624454    0.011715
   5 H :   -0.188170   -0.002391
   6 Al:    0.963424    0.030581
   7 H :    0.216337   -0.000188
   8 B :   -0.056513   -0.002025
   9 Mg:    0.082832    0.944325
  10 H :    0.341009   -0.000054
  11 H :    0.241718    0.002671
  12 H :    0.138165    0.000728
  13 H :    0.035682    0.006579
  14 C :   -0.884874   -0.000093
  15 H :    0.042328   -0.001160
Sum of atomic charges         :    0.0000000

LOEWDIN ATOMIC CHARGES AND SPIN POPULATIONS
-------------------------------------------
   0 B :    0.023167    0.016063
   1 N :   -0.317585    0.001722
   2 H :    0.155494    0.000208
   3 O :   -0.129109    0.001714
   4 B :   -0.409062    0.023291
   5 H :    0.012900    0.002165
   6 Al:    0.371240    0.037716
   7 H :    0.143089   -0.000009
   8 B :   -0.050166    0.001739
   9 Mg:   -0.072945    0.901948
  10 H :    0.262218    0.000190
  11 H :    0.164893    0.001967
  12 H :    0.085694    0.001381
  13 H :    0.102822    0.004011
  14 C :   -0.458985    0.002248
  15 H :    0.116336    0.003647

  Mayer bond orders larger than 0.100000
B(  0-B ,  1-N ) :   1.2733 B(  0-B ,  4-B ) :   0.7528 B(  0-B ,  9-Mg) :   0.1739
B(  0-B , 14-C ) :   0.9532 B(  1-N ,  6-Al) :   0.8656 B(  1-N ,  9-Mg) :   0.1124
B(  1-N , 10-H ) :   0.8194 B(  2-H , 14-C ) :   0.9157 B(  3-O ,  8-B ) :   2.5115
B(  4-B ,  6-Al) :   0.1732 B(  4-B ,  9-Mg) :   0.3898 B(  4-B , 12-H ) :   0.9448
B(  4-B , 13-H ) :   0.6264 B(  4-B , 15-H ) :   0.7601 B(  5-H ,  6-Al) :   0.5301
B(  5-H ,  9-Mg) :   0.4003 B(  6-Al,  8-B ) :   0.8259 B(  6-Al,  9-Mg) :   0.1025
B(  6-Al, 13-H ) :   0.3170 B(  7-H , 14-C ) :   0.9236 B(  9-Mg, 15-H ) :   0.2037
B( 11-H , 14-C ) :   0.9065

Dispersion correction           -0.008318312
FINAL SINGLE POINT ENERGY      -688.908108167567

DIPOLE MOMENT
-------------
                                X             Y             Z
Electronic contribution:     -5.35476      -8.92413      -4.49608
Nuclear contribution   :      6.15631      10.41618       3.79801
                        -----------------------------------------
Total Dipole Moment    :      0.80155       1.49205      -0.69807
                        -----------------------------------------
Magnitude (a.u.)       :      1.83193
Magnitude (Debye)      :      4.65641

Rotational constants in cm-1:     0.084582     0.025935     0.022577
Rotational constants in MHz :  2535.709527   777.516790   676.846790

                             ****ORCA TERMINATED NORMALLY****
TOTAL RUN TIME: 0 days 0 hours 2 minutes 37 seconds 182 msec
