                         Program Version 5.0.3 -  RELEASE  -
|  1> ! PBEh-3c def2/J TightSCF DefGrid3
|  2>
|  3> %maxcore 60000
|  4>
|  5> %pal
|  6> nprocs 4
|  7> end
|  8>
|  9> *xyzfile 0 1 13r_8.xyz
| 10>
| 11>                          ****END OF INPUT****

CARTESIAN COORDINATES (ANGSTROEM)
---------------------------------
  C      0.981150    0.324632    0.000000
  H      1.054798    1.400225    0.000000
  H      1.835715   -0.330591    0.000000
  N     -0.218204   -0.218682    0.000000
  H     -0.201088   -1.242257    0.000000
  N     -1.370407    0.397915    0.000000
  H     -2.081965   -0.331243    0.000000

 Total Charge           Charge          ....    0
 Multiplicity           Mult            ....    1
 Number of Electrons    NEL             ....   24
 Basis Dimension        Dim             ....   53

ORBITAL ENERGIES
----------------

  NO   OCC          E(Eh)            E(eV)
   0   2.0000     -14.760482      -401.6531
   1   2.0000     -14.610811      -397.5804
   2   2.0000     -10.458207      -284.5823
   3   2.0000      -1.135458       -30.8974
   4   2.0000      -0.890243       -24.2248
   5   2.0000      -0.715493       -19.4695
   6   2.0000      -0.626985       -17.0611
   7   2.0000      -0.537311       -14.6210
   8   2.0000      -0.478681       -13.0256
   9   2.0000      -0.471387       -12.8271
  10   2.0000      -0.326895        -8.8953
  11   2.0000      -0.224831        -6.1180
  12   0.0000       0.019029         0.5178
  13   0.0000       0.094017         2.5583
  14   0.0000       0.192868         5.2482
  15   0.0000       0.197775         5.3817
  16   0.0000       0.237872         6.4728

MULLIKEN ATOMIC CHARGES
-----------------------
   0 C :   -0.386234
   1 H :    0.243610
   2 H :    0.217307
   3 N :   -0.227583
   4 H :    0.361786
   5 N :   -0.498372
   6 H :    0.289486
Sum of atomic charges:    0.0000000

LOEWDIN ATOMIC CHARGES
----------------------
   0 C :   -0.321696
   1 H :    0.143997
   2 H :    0.129038
   3 N :    0.042642
   4 H :    0.243566
   5 N :   -0.436635
   6 H :    0.199087

  Mayer bond orders larger than 0.100000
B(  0-C ,  1-H ) :   0.9178 B(  0-C ,  2-H ) :   0.9245 B(  0-C ,  3-N ) :   1.4595
B(  0-C ,  5-N ) :   0.3884 B(  3-N ,  4-H ) :   0.8038 B(  3-N ,  5-N ) :   1.3755
B(  5-N ,  6-H ) :   0.8649

Dispersion correction           -0.001873819
FINAL SINGLE POINT ENERGY      -149.581423873481

DIPOLE MOMENT
-------------
                                X             Y             Z
Electronic contribution:     -0.95350      -0.24603       0.00000
Nuclear contribution   :      1.40303      -0.97591       0.00000
                        -----------------------------------------
Total Dipole Moment    :      0.44953      -1.22193       0.00000
                        -----------------------------------------
Magnitude (a.u.)       :      1.30200
Magnitude (Debye)      :      3.30942

Rotational constants in cm-1:     2.369148     0.372473     0.321869
Rotational constants in MHz : 71025.264007 11166.458583  9649.398308

                             ****ORCA TERMINATED NORMALLY****
TOTAL RUN TIME: 0 days 0 hours 1 minutes 6 seconds 233 msec
