                         Program Version 5.0.3 -  RELEASE  -
|  1> ! PBEh-3c def2/J TightSCF DefGrid3
|  2>
|  3> %maxcore 60000
|  4>
|  5> %pal
|  6> nprocs 4
|  7> end
|  8>
|  9> *xyzfile 0 1 30.xyz
| 10>
| 11>                          ****END OF INPUT****

CARTESIAN COORDINATES (ANGSTROEM)
---------------------------------
  C      0.835520    1.115164   -1.168846
  H      1.484327    1.980606   -1.170713
  C      1.383278   -0.166150   -1.166480
  H      2.457152   -0.295207   -1.167473
  C      0.547558   -1.281319   -1.168560
  H      0.972939   -2.275807   -1.170466
  C     -0.835520   -1.115164   -1.168846
  H     -1.484327   -1.980606   -1.170713
  C     -1.383278    0.166150   -1.166480
  H     -2.457152    0.295207   -1.167473
  C     -0.547558    1.281319   -1.168560
  H     -0.972939    2.275807   -1.170466
  C      0.655781   -0.116790    2.340505
  H      1.047241   -1.123909    2.336038
  H      1.370854    0.693273    2.336004
  C     -0.655781    0.116790    2.340505
  H     -1.370854   -0.693273    2.336004
  H     -1.047241    1.123909    2.336038

 Total Charge           Charge          ....    0
 Multiplicity           Mult            ....    1
 Number of Electrons    NEL             ....   58
 Basis Dimension        Dim             ....  140

ORBITAL ENERGIES
----------------

  NO   OCC          E(Eh)            E(eV)
   0   2.0000     -10.446090      -284.2526
   1   2.0000     -10.445985      -284.2497
   2   2.0000     -10.445691      -284.2417
   3   2.0000     -10.445288      -284.2307
   4   2.0000     -10.445071      -284.2248
   5   2.0000     -10.444936      -284.2212
   6   2.0000     -10.429015      -283.7879
   7   2.0000     -10.428063      -283.7620
   8   2.0000      -0.949210       -25.8293
   9   2.0000      -0.837195       -22.7812
  10   2.0000      -0.832778       -22.6610
  11   2.0000      -0.832769       -22.6608
  12   2.0000      -0.676577       -18.4106
  13   2.0000      -0.676503       -18.4086
  14   2.0000      -0.640893       -17.4396
  15   2.0000      -0.589654       -16.0453
  16   2.0000      -0.523754       -14.2521
  17   2.0000      -0.520918       -14.1749
  18   2.0000      -0.505916       -13.7667
  19   2.0000      -0.479330       -13.0432
  20   2.0000      -0.479298       -13.0424
  21   2.0000      -0.465771       -12.6743
  22   2.0000      -0.419015       -11.4020
  23   2.0000      -0.398910       -10.8549
  24   2.0000      -0.395973       -10.7750
  25   2.0000      -0.395878       -10.7724
  26   2.0000      -0.301113        -8.1937
  27   2.0000      -0.289628        -7.8812
  28   2.0000      -0.289411        -7.8753
  29   0.0000       0.021617         0.5882
  30   0.0000       0.021996         0.5986
  31   0.0000       0.052238         1.4215
  32   0.0000       0.142161         3.8684
  33   0.0000       0.178060         4.8453

MULLIKEN ATOMIC CHARGES
-----------------------
   0 C :   -0.216473
   1 H :    0.216646
   2 C :   -0.215465
   3 H :    0.217166
   4 C :   -0.216584
   5 H :    0.216656
   6 C :   -0.216473
   7 H :    0.216647
   8 C :   -0.215465
   9 H :    0.217166
  10 C :   -0.216584
  11 H :    0.216656
  12 C :   -0.417876
  13 H :    0.207980
  14 H :    0.207950
  15 C :   -0.417876
  16 H :    0.207950
  17 H :    0.207980
Sum of atomic charges:    0.0000000

LOEWDIN ATOMIC CHARGES
----------------------
   0 C :   -0.134024
   1 H :    0.134162
   2 C :   -0.132779
   3 H :    0.134319
   4 C :   -0.133943
   5 H :    0.134163
   6 C :   -0.134024
   7 H :    0.134162
   8 C :   -0.132779
   9 H :    0.134319
  10 C :   -0.133943
  11 H :    0.134163
  12 C :   -0.257069
  13 H :    0.127587
  14 H :    0.127583
  15 C :   -0.257068
  16 H :    0.127583
  17 H :    0.127587

  Mayer bond orders larger than 0.100000
B(  0-C ,  1-H ) :   0.9207 B(  0-C ,  2-C ) :   1.4263 B(  0-C , 10-C ) :   1.4285
B(  2-C ,  3-H ) :   0.9204 B(  2-C ,  4-C ) :   1.4259 B(  4-C ,  5-H ) :   0.9207
B(  4-C ,  6-C ) :   1.4285 B(  6-C ,  7-H ) :   0.9207 B(  6-C ,  8-C ) :   1.4263
B(  8-C ,  9-H ) :   0.9204 B(  8-C , 10-C ) :   1.4259 B( 10-C , 11-H ) :   0.9207
B( 12-C , 13-H ) :   0.9313 B( 12-C , 14-H ) :   0.9313 B( 12-C , 15-C ) :   1.9838
B( 15-C , 16-H ) :   0.9313 B( 15-C , 17-H ) :   0.9313

Dispersion correction           -0.009492659
FINAL SINGLE POINT ENERGY      -310.133098229347

DIPOLE MOMENT
-------------
                                X             Y             Z
Electronic contribution:     -0.00000      -0.00000      -4.48528
Nuclear contribution   :      0.00000      -0.00000       4.44525
                        -----------------------------------------
Total Dipole Moment    :     -0.00000      -0.00000      -0.04003
                        -----------------------------------------
Magnitude (a.u.)       :      0.04003
Magnitude (Debye)      :      0.10175

Rotational constants in cm-1:     0.085514     0.048730     0.046931
Rotational constants in MHz :  2563.645756  1460.896073  1406.966912

                             ****ORCA TERMINATED NORMALLY****
TOTAL RUN TIME: 0 days 0 hours 1 minutes 32 seconds 852 msec
