                         Program Version 5.0.3 -  RELEASE  -
|  1> ! PBEh-3c def2/J TightSCF DefGrid3
|  2>
|  3> %maxcore 60000
|  4>
|  5> %pal
|  6> nprocs 4
|  7> end
|  8>
|  9> *xyzfile 0 1 187.xyz
| 10>
| 11>                          ****END OF INPUT****

CARTESIAN COORDINATES (ANGSTROEM)
---------------------------------
  C      1.567910   -0.077310   -0.383270
  N      0.098770    0.087420    0.017780
  C      0.009820   -0.068880    1.523620
  C      1.215300   -0.956210    1.849720
  C      2.315250   -0.376300    0.930380
  C     -0.603990    1.272840   -0.543470
  H     -0.362970   -0.752290   -0.347740
  H     -1.646540    1.245640   -0.212160
  H     -0.122170    2.196250   -0.203010
  H     -0.576780    1.208150   -1.635620
  H      1.578590   -0.933330   -1.068050
  H      1.914710    0.821500   -0.901980
  H      3.151130   -1.065700    0.769440
  H      2.719340    0.550010    1.361760
  H      0.978140   -1.988720    1.561890
  H      1.477860   -0.928710    2.912910
  H     -0.959010   -0.527670    1.746570
  H      0.084030    0.922450    1.989270
  Cl    -1.005380   -2.428450   -0.823890

 Total Charge           Charge          ....    0
 Multiplicity           Mult            ....    1
 Number of Electrons    NEL             ....   66
 Basis Dimension        Dim             ....  132

ORBITAL ENERGIES
----------------

  NO   OCC          E(Eh)            E(eV)
   0   2.0000    -102.126018     -2778.9902
   1   2.0000     -14.741127      -401.1264
   2   2.0000     -10.512738      -286.0661
   3   2.0000     -10.512162      -286.0505
   4   2.0000     -10.511646      -286.0364
   5   2.0000     -10.475617      -285.0560
   6   2.0000     -10.468492      -284.8621
   7   2.0000      -9.590813      -260.9793
   8   2.0000      -7.274984      -197.9624
   9   2.0000      -7.272854      -197.9044
  10   2.0000      -7.272778      -197.9024
  11   2.0000      -1.113188       -30.2914
  12   2.0000      -0.921726       -25.0814
  13   2.0000      -0.857124       -23.3235
  14   2.0000      -0.814148       -22.1541
  15   2.0000      -0.739538       -20.1238
  16   2.0000      -0.707125       -19.2418
  17   2.0000      -0.697264       -18.9735
  18   2.0000      -0.631682       -17.1890
  19   2.0000      -0.599855       -16.3229
  20   2.0000      -0.561691       -15.2844
  21   2.0000      -0.530468       -14.4348
  22   2.0000      -0.526716       -14.3327
  23   2.0000      -0.506639       -13.7864
  24   2.0000      -0.466545       -12.6953
  25   2.0000      -0.462913       -12.5965
  26   2.0000      -0.439354       -11.9554
  27   2.0000      -0.434852       -11.8329
  28   2.0000      -0.430520       -11.7150
  29   2.0000      -0.412833       -11.2338
  30   2.0000      -0.242096        -6.5878
  31   2.0000      -0.228590        -6.2203
  32   2.0000      -0.228236        -6.2106
  33   0.0000       0.085529         2.3274
  34   0.0000       0.111006         3.0206
  35   0.0000       0.117653         3.2015
  36   0.0000       0.129114         3.5134
  37   0.0000       0.143565         3.9066

MULLIKEN ATOMIC CHARGES
-----------------------
   0 C :   -0.284435
   1 N :   -0.522487
   2 C :   -0.295013
   3 C :   -0.462111
   4 C :   -0.464339
   5 C :   -0.515050
   6 H :    0.391253
   7 H :    0.270554
   8 H :    0.235173
   9 H :    0.273549
  10 H :    0.293375
  11 H :    0.242239
  12 H :    0.260956
  13 H :    0.223679
  14 H :    0.286852
  15 H :    0.244264
  16 H :    0.291728
  17 H :    0.231440
  18 Cl:   -0.701628
Sum of atomic charges:   -0.0000000

LOEWDIN ATOMIC CHARGES
----------------------
   0 C :   -0.134661
   1 N :   -0.105168
   2 C :   -0.134772
   3 C :   -0.248052
   4 C :   -0.244523
   5 C :   -0.246357
   6 H :    0.241724
   7 H :    0.151762
   8 H :    0.132803
   9 H :    0.152575
  10 H :    0.160595
  11 H :    0.134325
  12 H :    0.146342
  13 H :    0.128198
  14 H :    0.159408
  15 H :    0.140147
  16 H :    0.157808
  17 H :    0.127636
  18 Cl:   -0.719790

  Mayer bond orders larger than 0.100000
B(  0-C ,  1-N ) :   0.8662 B(  0-C ,  4-C ) :   0.9645 B(  0-C , 10-H ) :   0.8791
B(  0-C , 11-H ) :   0.9150 B(  1-N ,  2-C ) :   0.8828 B(  1-N ,  5-C ) :   0.9212
B(  1-N ,  6-H ) :   0.5050 B(  2-C ,  3-C ) :   0.9635 B(  2-C , 16-H ) :   0.8912
B(  2-C , 17-H ) :   0.9091 B(  3-C ,  4-C ) :   0.9627 B(  3-C , 14-H ) :   0.8776
B(  3-C , 15-H ) :   0.9177 B(  4-C , 12-H ) :   0.9167 B(  4-C , 13-H ) :   0.9190
B(  5-C ,  7-H ) :   0.9059 B(  5-C ,  8-H ) :   0.9152 B(  5-C ,  9-H ) :   0.9056
B(  6-H , 18-Cl) :   0.4378

Dispersion correction           -0.010514789
FINAL SINGLE POINT ENERGY      -711.658046004801

DIPOLE MOMENT
-------------
                                X             Y             Z
Electronic contribution:     -5.15126      -7.88932      -4.00871
Nuclear contribution   :      6.78111      11.02565       5.27229
                        -----------------------------------------
Total Dipole Moment    :      1.62985       3.13632       1.26358
                        -----------------------------------------
Magnitude (a.u.)       :      3.75361
Magnitude (Debye)      :      9.54091

Rotational constants in cm-1:     0.081450     0.046126     0.038461
Rotational constants in MHz :  2441.815213  1382.816007  1153.034368

                             ****ORCA TERMINATED NORMALLY****
TOTAL RUN TIME: 0 days 0 hours 1 minutes 27 seconds 595 msec
