                         Program Version 5.0.3 -  RELEASE  -
|  1> ! PBEh-3c def2/J TightSCF DefGrid3
|  2>
|  3> %maxcore 60000
|  4>
|  5> %pal
|  6> nprocs 4
|  7> end
|  8>
|  9> *xyzfile 0 1 methyl-d-valerolactone.xyz
| 10>
| 11>                          ****END OF INPUT****

CARTESIAN COORDINATES (ANGSTROEM)
---------------------------------
  C     -0.861192   -0.558512   -0.615154
  C      0.677230   -0.575944   -0.599645
  C      1.322359    0.797776   -0.387560
  C     -0.862326    1.759457    0.259662
  C     -1.391270    0.356373    0.486801
  H      1.052763   -0.905182   -1.580269
  H     -1.221297   -0.189857   -1.589729
  H     -1.244693   -1.584515   -0.504882
  H     -1.096972    2.433179    1.094458
  H     -1.292110    2.191248   -0.660015
  H     -1.083582   -0.006788    1.479924
  H     -2.491460    0.390328    0.484074
  O      0.584168    1.825493    0.129095
  O      2.497717    0.994833   -0.610077
  C      1.245945   -1.545917    0.456674
  H      0.912679   -2.570788    0.239738
  H      2.342573   -1.524930    0.446180
  H      0.909468   -1.286253    1.470724

 Total Charge           Charge          ....    0
 Multiplicity           Mult            ....    1
 Number of Electrons    NEL             ....   62
 Basis Dimension        Dim             ....  140

ORBITAL ENERGIES
----------------

  NO   OCC          E(Eh)            E(eV)
   0   2.0000     -19.533880      -531.5439
   1   2.0000     -19.470597      -529.8219
   2   2.0000     -10.573966      -287.7322
   3   2.0000     -10.510158      -285.9959
   4   2.0000     -10.469878      -284.8999
   5   2.0000     -10.460436      -284.6429
   6   2.0000     -10.459228      -284.6101
   7   2.0000     -10.443570      -284.1840
   8   2.0000      -1.198708       -32.6185
   9   2.0000      -1.113859       -30.3096
  10   2.0000      -0.924801       -25.1651
  11   2.0000      -0.867198       -23.5977
  12   2.0000      -0.787264       -21.4225
  13   2.0000      -0.723060       -19.6755
  14   2.0000      -0.705146       -19.1880
  15   2.0000      -0.606196       -16.4954
  16   2.0000      -0.573322       -15.6009
  17   2.0000      -0.552717       -15.0402
  18   2.0000      -0.539616       -14.6837
  19   2.0000      -0.515635       -14.0312
  20   2.0000      -0.497070       -13.5260
  21   2.0000      -0.479477       -13.0472
  22   2.0000      -0.470334       -12.7984
  23   2.0000      -0.452966       -12.3258
  24   2.0000      -0.435289       -11.8448
  25   2.0000      -0.417220       -11.3531
  26   2.0000      -0.397720       -10.8225
  27   2.0000      -0.393400       -10.7050
  28   2.0000      -0.379368       -10.3231
  29   2.0000      -0.339987        -9.2515
  30   2.0000      -0.316312        -8.6073
  31   0.0000       0.040698         1.1074
  32   0.0000       0.115059         3.1309
  33   0.0000       0.141162         3.8412
  34   0.0000       0.150857         4.1050
  35   0.0000       0.164172         4.4674

MULLIKEN ATOMIC CHARGES
-----------------------
   0 C :   -0.431439
   1 C :   -0.384927
   2 C :    0.566073
   3 C :   -0.147935
   4 C :   -0.479329
   5 H :    0.270322
   6 H :    0.226608
   7 H :    0.234588
   8 H :    0.234075
   9 H :    0.208744
  10 H :    0.230583
  11 H :    0.237791
  12 O :   -0.441581
  13 O :   -0.382006
  14 C :   -0.638203
  15 H :    0.222239
  16 H :    0.258076
  17 H :    0.216321
Sum of atomic charges:    0.0000000

LOEWDIN ATOMIC CHARGES
----------------------
   0 C :   -0.235333
   1 C :   -0.193081
   2 C :    0.160693
   3 C :   -0.066876
   4 C :   -0.259788
   5 H :    0.153251
   6 H :    0.128396
   7 H :    0.132155
   8 H :    0.130177
   9 H :    0.117197
  10 H :    0.130446
  11 H :    0.139545
  12 O :   -0.183330
  13 O :   -0.213236
  14 C :   -0.343008
  15 H :    0.129128
  16 H :    0.146976
  17 H :    0.126688

  Mayer bond orders larger than 0.100000
B(  0-C ,  1-C ) :   0.9417 B(  0-C ,  4-C ) :   0.9660 B(  0-C ,  6-H ) :   0.9187
B(  0-C ,  7-H ) :   0.9207 B(  1-C ,  2-C ) :   0.9159 B(  1-C ,  5-H ) :   0.8978
B(  1-C , 14-C ) :   0.9736 B(  2-C , 12-O ) :   1.1006 B(  2-C , 13-O ) :   2.0455
B(  3-C ,  4-C ) :   0.9723 B(  3-C ,  8-H ) :   0.9159 B(  3-C ,  9-H ) :   0.9041
B(  3-C , 12-O ) :   0.9104 B(  4-C , 10-H ) :   0.9069 B(  4-C , 11-H ) :   0.9119
B( 14-C , 15-H ) :   0.9234 B( 14-C , 16-H ) :   0.9114 B( 14-C , 17-H ) :   0.9239

Dispersion correction           -0.009338341
FINAL SINGLE POINT ENERGY      -384.294893702711

DIPOLE MOMENT
-------------
                                X             Y             Z
Electronic contribution:      5.17629       5.75244      -1.60758
Nuclear contribution   :     -6.89635      -6.52066       1.77536
                        -----------------------------------------
Total Dipole Moment    :     -1.72006      -0.76823       0.16778
                        -----------------------------------------
Magnitude (a.u.)       :      1.89128
Magnitude (Debye)      :      4.80724

Rotational constants in cm-1:     0.090126     0.073694     0.047213
Rotational constants in MHz :  2701.903209  2209.298186  1415.417645

                             ****ORCA TERMINATED NORMALLY****
TOTAL RUN TIME: 0 days 0 hours 1 minutes 59 seconds 815 msec
