                         Program Version 5.0.3 -  RELEASE  -
|  1> ! PBEh-3c def2/J TightSCF DefGrid3
|  2>
|  3> %maxcore 60000
|  4>
|  5> %pal
|  6> nprocs 4
|  7> end
|  8>
|  9> *xyzfile 0 1 VAL_xad.xyz
| 10>
| 11>                          ****END OF INPUT****

CARTESIAN COORDINATES (ANGSTROEM)
---------------------------------
  N      0.704628   -0.902490    0.430465
  C     -0.482788   -0.310122   -0.170119
  C     -0.549316    1.156802    0.269224
  O     -1.215172    1.529054    1.230376
  C     -1.740310   -1.081792    0.204948
  C     -2.944920   -0.469471   -0.501651
  C     -1.606498   -2.555792   -0.161036
  H      0.633557   -1.269634    1.364947
  H     -0.330993   -0.357921   -1.250337
  H     -1.883022   -0.974756    1.283278
  H     -3.084860    0.570514   -0.217552
  H     -3.851670   -1.016624   -0.247057
  H     -2.815620   -0.525952   -1.584224
  H     -0.775740   -3.038402    0.350169
  H     -2.518621   -3.092815    0.096217
  H     -1.445470   -2.665360   -1.234975
  N      0.224295    1.974777   -0.481785
  H      0.892482    1.520831   -1.091712
  C      0.423621    3.355877   -0.095890
  H      1.169159    3.456750    0.693725
  H      0.741757    3.928231   -0.962306
  H     -0.517111    3.751242    0.274698
  C      1.931702   -0.766512   -0.132706
  O      2.105855   -0.172501   -1.196529
  C      3.071551   -1.410655    0.614398
  H      3.532618   -2.150998   -0.035095
  H      2.762621   -1.889301    1.540259
  H      3.818202   -0.650554    0.831022

 Total Charge           Charge          ....    0
 Multiplicity           Mult            ....    1
 Number of Electrons    NEL             ....   94
 Basis Dimension        Dim             ....  212

ORBITAL ENERGIES
----------------

  NO   OCC          E(Eh)            E(eV)
   0   2.0000     -19.469996      -529.8055
   1   2.0000     -19.453179      -529.3479
   2   2.0000     -14.677374      -399.3917
   3   2.0000     -14.649757      -398.6402
   4   2.0000     -10.562358      -287.4164
   5   2.0000     -10.537603      -286.7428
   6   2.0000     -10.486900      -285.3631
   7   2.0000     -10.458898      -284.6011
   8   2.0000     -10.452129      -284.4169
   9   2.0000     -10.449532      -284.3462
  10   2.0000     -10.428482      -283.7734
  11   2.0000     -10.421086      -283.5722
  12   2.0000      -1.156195       -31.4617
  13   2.0000      -1.135086       -30.8872
  14   2.0000      -1.038965       -28.2717
  15   2.0000      -1.011972       -27.5372
  16   2.0000      -0.907896       -24.7051
  17   2.0000      -0.847400       -23.0589
  18   2.0000      -0.807839       -21.9824
  19   2.0000      -0.768158       -20.9026
  20   2.0000      -0.759464       -20.6661
  21   2.0000      -0.676823       -18.4173
  22   2.0000      -0.650264       -17.6946
  23   2.0000      -0.641179       -17.4474
  24   2.0000      -0.598245       -16.2791
  25   2.0000      -0.572666       -15.5830
  26   2.0000      -0.556545       -15.1444
  27   2.0000      -0.523686       -14.2502
  28   2.0000      -0.519541       -14.1374
  29   2.0000      -0.506356       -13.7787
  30   2.0000      -0.497435       -13.5359
  31   2.0000      -0.486360       -13.2345
  32   2.0000      -0.477453       -12.9922
  33   2.0000      -0.472187       -12.8489
  34   2.0000      -0.463447       -12.6110
  35   2.0000      -0.445309       -12.1175
  36   2.0000      -0.440384       -11.9835
  37   2.0000      -0.435160       -11.8413
  38   2.0000      -0.426570       -11.6076
  39   2.0000      -0.414977       -11.2921
  40   2.0000      -0.394652       -10.7390
  41   2.0000      -0.389463       -10.5978
  42   2.0000      -0.381471       -10.3804
  43   2.0000      -0.335868        -9.1394
  44   2.0000      -0.322491        -8.7754
  45   2.0000      -0.298333        -8.1181
  46   2.0000      -0.288457        -7.8493
  47   0.0000       0.041359         1.1254
  48   0.0000       0.065790         1.7902
  49   0.0000       0.111883         3.0445
  50   0.0000       0.136206         3.7063
  51   0.0000       0.162974         4.4348

MULLIKEN ATOMIC CHARGES
-----------------------
   0 N :   -0.624236
   1 C :   -0.179667
   2 C :    0.558233
   3 O :   -0.438211
   4 C :   -0.265189
   5 C :   -0.642891
   6 C :   -0.623355
   7 H :    0.364161
   8 H :    0.259367
   9 H :    0.234620
  10 H :    0.257389
  11 H :    0.221289
  12 H :    0.201863
  13 H :    0.210369
  14 H :    0.224435
  15 H :    0.211994
  16 N :   -0.642120
  17 H :    0.398589
  18 C :   -0.492564
  19 H :    0.218558
  20 H :    0.220625
  21 H :    0.250940
  22 C :    0.540070
  23 O :   -0.459591
  24 C :   -0.745242
  25 H :    0.264173
  26 H :    0.216100
  27 H :    0.260290
Sum of atomic charges:    0.0000000

LOEWDIN ATOMIC CHARGES
----------------------
   0 N :   -0.209233
   1 C :   -0.089501
   2 C :    0.102285
   3 O :   -0.284275
   4 C :   -0.161608
   5 C :   -0.351308
   6 C :   -0.352180
   7 H :    0.260739
   8 H :    0.145701
   9 H :    0.133867
  10 H :    0.143701
  11 H :    0.129683
  12 H :    0.122551
  13 H :    0.121688
  14 H :    0.130218
  15 H :    0.127644
  16 N :   -0.246643
  17 H :    0.266454
  18 C :   -0.254863
  19 H :    0.119560
  20 H :    0.125899
  21 H :    0.144057
  22 C :    0.113103
  23 O :   -0.301149
  24 C :   -0.384461
  25 H :    0.160771
  26 H :    0.129247
  27 H :    0.158054

  Mayer bond orders larger than 0.100000
B(  0-N ,  1-C ) :   0.9108 B(  0-N ,  7-H ) :   0.8187 B(  0-N , 22-C ) :   1.1671
B(  1-C ,  2-C ) :   0.8823 B(  1-C ,  4-C ) :   0.9751 B(  1-C ,  8-H ) :   0.8782
B(  2-C ,  3-O ) :   1.9578 B(  2-C , 16-N ) :   1.1714 B(  4-C ,  5-C ) :   0.9942
B(  4-C ,  6-C ) :   0.9877 B(  4-C ,  9-H ) :   0.8907 B(  5-C , 10-H ) :   0.9077
B(  5-C , 11-H ) :   0.9296 B(  5-C , 12-H ) :   0.9251 B(  6-C , 13-H ) :   0.9297
B(  6-C , 14-H ) :   0.9282 B(  6-C , 15-H ) :   0.9253 B( 16-N , 17-H ) :   0.7553
B( 16-N , 18-C ) :   0.9625 B( 18-C , 19-H ) :   0.9183 B( 18-C , 20-H ) :   0.9256
B( 18-C , 21-H ) :   0.9097 B( 22-C , 23-O ) :   1.8989 B( 22-C , 24-C ) :   0.9321
B( 24-C , 25-H ) :   0.9065 B( 24-C , 26-H ) :   0.9215 B( 24-C , 27-H ) :   0.9080

Dispersion correction           -0.016317410
FINAL SINGLE POINT ENERGY      -573.252753775298

DIPOLE MOMENT
-------------
                                X             Y             Z
Electronic contribution:      4.07410       3.99554       0.43599
Nuclear contribution   :     -3.49509      -4.74269      -0.17342
                        -----------------------------------------
Total Dipole Moment    :      0.57901      -0.74715       0.26257
                        -----------------------------------------
Magnitude (a.u.)       :      0.98103
Magnitude (Debye)      :      2.49359

Rotational constants in cm-1:     0.031039     0.027992     0.017024
Rotational constants in MHz :   930.527628   839.186068   510.371060

                             ****ORCA TERMINATED NORMALLY****
TOTAL RUN TIME: 0 days 0 hours 3 minutes 8 seconds 369 msec
