                         Program Version 5.0.3 -  RELEASE  -
|  1> ! PBEh-3c def2/J TightSCF DefGrid3
|  2>
|  3> %maxcore 60000
|  4>
|  5> %pal
|  6> nprocs 4
|  7> end
|  8>
|  9> *xyzfile 0 1 1CL.xyz
| 10>
| 11>                          ****END OF INPUT****

CARTESIAN COORDINATES (ANGSTROEM)
---------------------------------
  Cl     0.000000    0.000000   -2.436113
  H      0.000000    0.000000   -1.102864
  C      0.000000    0.000000    0.737620
  H      0.876501    0.000000    1.400678
  H     -0.876501    0.000000    1.400678

 Total Charge           Charge          ....    0
 Multiplicity           Mult            ....    1
 Number of Electrons    NEL             ....   26
 Basis Dimension        Dim             ....   39

ORBITAL ENERGIES
----------------

  NO   OCC          E(Eh)            E(eV)
   0   2.0000    -102.236055     -2781.9845
   1   2.0000     -10.556694      -287.2622
   2   2.0000      -9.705267      -264.0938
   3   2.0000      -7.391802      -201.1411
   4   2.0000      -7.385279      -200.9637
   5   2.0000      -7.385178      -200.9609
   6   2.0000      -0.865692       -23.5567
   7   2.0000      -0.791424       -21.5357
   8   2.0000      -0.516894       -14.0654
   9   2.0000      -0.484385       -13.1808
  10   2.0000      -0.334076        -9.0907
  11   2.0000      -0.324509        -8.8303
  12   2.0000      -0.324277        -8.8240
  13   0.0000      -0.134929        -3.6716
  14   0.0000       0.130152         3.5416
  15   0.0000       0.172243         4.6870
  16   0.0000       0.194684         5.2976
  17   0.0000       0.458138        12.4666

MULLIKEN ATOMIC CHARGES
-----------------------
   0 Cl:   -0.419163
   1 H :    0.344162
   2 C :   -0.397313
   3 H :    0.236157
   4 H :    0.236157
Sum of atomic charges:    0.0000000

LOEWDIN ATOMIC CHARGES
----------------------
   0 Cl:   -0.316165
   1 H :    0.198953
   2 C :   -0.141676
   3 H :    0.129444
   4 H :    0.129444

  Mayer bond orders larger than 0.100000
B(  0-Cl,  1-H ) :   0.7459 B(  1-H ,  2-C ) :   0.1152 B(  2-C ,  3-H ) :   0.9022
B(  2-C ,  4-H ) :   0.9022

Dispersion correction           -0.001024700
FINAL SINGLE POINT ENERGY      -499.344592647853

DIPOLE MOMENT
-------------
                                X             Y             Z
Electronic contribution:      0.00000      -0.00000      -4.99811
Nuclear contribution   :      0.00000       0.00000       7.07360
                        -----------------------------------------
Total Dipole Moment    :      0.00000      -0.00000       2.07549
                        -----------------------------------------
Magnitude (a.u.)       :      2.07549
Magnitude (Debye)      :      5.27547

Rotational constants in cm-1:    10.884336     0.155617     0.153424
Rotational constants in MHz : 326304.182658  4665.292693  4599.531475

                             ****ORCA TERMINATED NORMALLY****
TOTAL RUN TIME: 0 days 0 hours 0 minutes 18 seconds 318 msec
