                         Program Version 5.0.3 -  RELEASE  -
|  1> ! PBEh-3c def2/J TightSCF DefGrid3
|  2>
|  3> %maxcore 60000
|  4>
|  5> %pal
|  6> nprocs 4
|  7> end
|  8>
|  9> *xyzfile 0 1 35.xyz
| 10>
| 11>                          ****END OF INPUT****

CARTESIAN COORDINATES (ANGSTROEM)
---------------------------------
  B      0.158587   -1.347808   -1.110615
  Si    -1.715707    2.435872   -1.496696
  H      2.189845    0.752686    0.253494
  P      1.676551   -1.479526    1.563635
  H     -0.064100   -2.492730   -1.359003
  O     -0.305774   -0.395637   -2.164235
  Li    -0.995571    0.992904    0.727302
  Al     2.647486   -1.747701   -0.675652
  C      0.613697   -0.835087    0.209036
  B     -0.862944    0.711780   -1.879041
  H     -2.645522    1.701492   -0.530153
  Cl    -1.535163    0.004426    2.645785
  H      0.955732    0.919756    1.583877
  Al    -0.902407   -2.161296    1.859416
  C      1.396394    0.258323    0.830818
  H     -0.611102    2.682546   -0.457966

 Total Charge           Charge          ....    0
 Multiplicity           Mult            ....    1
 Number of Electrons    NEL             ....  110
 Basis Dimension        Dim             ....  184

ORBITAL ENERGIES
----------------

  NO   OCC          E(Eh)            E(eV)
   0   2.0000    -102.278086     -2783.1282
   1   2.0000     -77.755503     -2115.8348
   2   2.0000     -66.734899     -1815.9489
   3   2.0000     -56.633724     -1541.0820
   4   2.0000     -56.622705     -1540.7821
   5   2.0000     -19.587614      -533.0061
   6   2.0000     -10.508716      -285.9567
   7   2.0000     -10.488233      -285.3993
   8   2.0000      -9.743367      -265.1305
   9   2.0000      -7.427036      -202.0999
  10   2.0000      -7.425744      -202.0648
  11   2.0000      -7.424643      -202.0348
  12   2.0000      -7.079915      -192.6543
  13   2.0000      -7.025484      -191.1731
  14   2.0000      -6.829199      -185.8319
  15   2.0000      -5.514798      -150.0653
  16   2.0000      -4.920005      -133.8802
  17   2.0000      -4.918889      -133.8498
  18   2.0000      -4.917374      -133.8085
  19   2.0000      -4.369105      -118.8894
  20   2.0000      -4.355478      -118.5186
  21   2.0000      -3.805753      -103.5598
  22   2.0000      -3.804080      -103.5143
  23   2.0000      -3.803591      -103.5010
  24   2.0000      -2.856832       -77.7384
  25   2.0000      -2.855118       -77.6917
  26   2.0000      -2.853577       -77.6498
  27   2.0000      -2.842117       -77.3379
  28   2.0000      -2.841514       -77.3215
  29   2.0000      -2.840696       -77.2993
  30   2.0000      -2.135250       -58.1031
  31   2.0000      -1.205050       -32.7911
  32   2.0000      -0.944475       -25.7005
  33   2.0000      -0.875764       -23.8307
  34   2.0000      -0.729874       -19.8609
  35   2.0000      -0.691422       -18.8145
  36   2.0000      -0.650592       -17.7035
  37   2.0000      -0.624648       -16.9975
  38   2.0000      -0.567329       -15.4378
  39   2.0000      -0.548949       -14.9377
  40   2.0000      -0.537494       -14.6260
  41   2.0000      -0.521284       -14.1849
  42   2.0000      -0.454377       -12.3642
  43   2.0000      -0.436945       -11.8899
  44   2.0000      -0.411514       -11.1979
  45   2.0000      -0.406826       -11.0703
  46   2.0000      -0.396755       -10.7963
  47   2.0000      -0.384818       -10.4714
  48   2.0000      -0.371144       -10.0994
  49   2.0000      -0.367142        -9.9904
  50   2.0000      -0.359528        -9.7832
  51   2.0000      -0.290215        -7.8971
  52   2.0000      -0.281937        -7.6719
  53   2.0000      -0.271704        -7.3935
  54   2.0000      -0.236878        -6.4458
  55   0.0000      -0.058844        -1.6012
  56   0.0000      -0.052319        -1.4237
  57   0.0000      -0.043690        -1.1889
  58   0.0000      -0.028256        -0.7689
  59   0.0000      -0.009977        -0.2715

MULLIKEN ATOMIC CHARGES
-----------------------
   0 B :    0.117855
   1 Si:   -0.057256
   2 H :    0.270927
   3 P :   -0.011447
   4 H :    0.102492
   5 O :   -0.334786
   6 Li:    0.439917
   7 Al:    0.346392
   8 C :   -0.600911
   9 B :    0.198989
  10 H :   -0.008109
  11 Cl:   -0.453614
  12 H :    0.296560
  13 Al:    0.391172
  14 C :   -0.670208
  15 H :   -0.027975
Sum of atomic charges:    0.0000000

LOEWDIN ATOMIC CHARGES
----------------------
   0 B :   -0.094474
   1 Si:   -0.105535
   2 H :    0.154239
   3 P :    0.216783
   4 H :    0.050459
   5 O :   -0.076681
   6 Li:   -0.029777
   7 Al:    0.191320
   8 C :   -0.367118
   9 B :    0.129139
  10 H :    0.043554
  11 Cl:   -0.097745
  12 H :    0.178008
  13 Al:    0.095361
  14 C :   -0.322495
  15 H :    0.034962

  Mayer bond orders larger than 0.100000
B(  0-B ,  3-P ) :   0.1032 B(  0-B ,  4-H ) :   0.9482 B(  0-B ,  5-O ) :   0.7251
B(  0-B ,  7-Al) :   0.2395 B(  0-B ,  8-C ) :   1.2934 B(  1-Si,  6-Li) :   0.2336
B(  1-Si,  9-B ) :   1.1307 B(  1-Si, 10-H ) :   0.8509 B(  1-Si, 15-H ) :   0.8200
B(  2-H , 14-C ) :   0.8555 B(  3-P ,  7-Al) :   0.6078 B(  3-P ,  8-C ) :   0.8690
B(  3-P , 13-Al) :   0.3044 B(  3-P , 14-C ) :   0.8639 B(  5-O ,  9-B ) :   1.6378
B(  6-Li, 11-Cl) :   0.3823 B(  6-Li, 15-H ) :   0.1043 B(  7-Al,  8-C ) :   0.2675
B(  8-C , 13-Al) :   0.1637 B(  8-C , 14-C ) :   0.9064 B( 11-Cl, 13-Al) :   0.5293
B( 12-H , 14-C ) :   0.8488

Dispersion correction           -0.012936964
FINAL SINGLE POINT ENERGY     -1785.291900514673

DIPOLE MOMENT
-------------
                                X             Y             Z
Electronic contribution:      0.48374      -6.59823       3.64754
Nuclear contribution   :      0.33232       6.90959      -4.16314
                        -----------------------------------------
Total Dipole Moment    :      0.81606       0.31136      -0.51560
                        -----------------------------------------
Magnitude (a.u.)       :      1.01427
Magnitude (Debye)      :      2.57807

Rotational constants in cm-1:     0.022142     0.017304     0.011606
Rotational constants in MHz :   663.791797   518.749668   347.927269

                             ****ORCA TERMINATED NORMALLY****
TOTAL RUN TIME: 0 days 0 hours 3 minutes 46 seconds 619 msec
