                         Program Version 5.0.3 -  RELEASE  -
|  1> ! PBEh-3c def2/J TightSCF DefGrid3
|  2>
|  3> %maxcore 60000
|  4>
|  5> %pal
|  6> nprocs 4
|  7> end
|  8>
|  9> *xyzfile 0 1 46.xyz
| 10>
| 11>                          ****END OF INPUT****

CARTESIAN COORDINATES (ANGSTROEM)
---------------------------------
  N     -0.450977    2.488225    0.022630
  C      0.630090    1.723792   -0.362100
  C      0.227815    0.425209   -0.591574
  C     -1.182840    0.390938   -0.325008
  C     -2.149057   -0.631099   -0.381806
  C     -3.457994   -0.319319   -0.058482
  C     -3.833851    0.988680    0.321232
  C     -2.900019    2.010578    0.385650
  C     -1.574909    1.696470    0.060122
  H     -0.407884    3.455515    0.286312
  H      1.608838    2.168752   -0.437200
  H     -1.899868   -1.641003   -0.680056
  H     -4.874542    1.183639    0.542553
  H     -3.193161    3.013523    0.667734
  O     -4.429422   -1.300418   -0.149950
  C     -4.793379   -1.825900    1.124123
  H     -5.192177   -1.045168    1.775589
  H     -3.932740   -2.290153    1.611589
  H     -5.560313   -2.575057    0.945915
  C      1.058003   -0.733659   -1.063619
  C      2.561276   -0.481759   -1.001573
  N      2.978673   -0.280695    0.376442
  C      4.266361   -0.220122    0.835978
  C      5.342735   -0.635769   -0.146476
  H      0.793878   -0.979366   -2.095845
  H      0.826390   -1.616953   -0.462171
  H      2.811864    0.381721   -1.628225
  H      3.082015   -1.344735   -1.414935
  H      2.291727    0.085762    1.018035
  O      4.523100    0.127738    1.979493
  H      6.306069   -0.517928    0.338345
  H      5.311606   -0.024895   -1.048920
  H      5.212694   -1.676554   -0.443793

 Total Charge           Charge          ....    0
 Multiplicity           Mult            ....    1
 Number of Electrons    NEL             ....  124
 Basis Dimension        Dim             ....  287

ORBITAL ENERGIES
----------------

  NO   OCC          E(Eh)            E(eV)
   0   2.0000     -19.506168      -530.7898
   1   2.0000     -19.446522      -529.1668
   2   2.0000     -14.691192      -399.7676
   3   2.0000     -14.651393      -398.6847
   4   2.0000     -10.541698      -286.8542
   5   2.0000     -10.496087      -285.6131
   6   2.0000     -10.487667      -285.3839
   7   2.0000     -10.487113      -285.3688
   8   2.0000     -10.484948      -285.3099
   9   2.0000     -10.481432      -285.2143
  10   2.0000     -10.457975      -284.5760
  11   2.0000     -10.456959      -284.5483
  12   2.0000     -10.451827      -284.4087
  13   2.0000     -10.450788      -284.3804
  14   2.0000     -10.447698      -284.2963
  15   2.0000     -10.446174      -284.2549
  16   2.0000     -10.437947      -284.0310
  17   2.0000      -1.154628       -31.4190
  18   2.0000      -1.132237       -30.8097
  19   2.0000      -1.094124       -29.7726
  20   2.0000      -1.019379       -27.7387
  21   2.0000      -0.941755       -25.6265
  22   2.0000      -0.905940       -24.6519
  23   2.0000      -0.851493       -23.1703
  24   2.0000      -0.833048       -22.6684
  25   2.0000      -0.821477       -22.3535
  26   2.0000      -0.807884       -21.9836
  27   2.0000      -0.768036       -20.8993
  28   2.0000      -0.734860       -19.9966
  29   2.0000      -0.704708       -19.1761
  30   2.0000      -0.667765       -18.1708
  31   2.0000      -0.650903       -17.7120
  32   2.0000      -0.634717       -17.2715
  33   2.0000      -0.618363       -16.8265
  34   2.0000      -0.574659       -15.6373
  35   2.0000      -0.563749       -15.3404
  36   2.0000      -0.557131       -15.1603
  37   2.0000      -0.538476       -14.6527
  38   2.0000      -0.526775       -14.3343
  39   2.0000      -0.521953       -14.2031
  40   2.0000      -0.517993       -14.0953
  41   2.0000      -0.501899       -13.6574
  42   2.0000      -0.499120       -13.5818
  43   2.0000      -0.491714       -13.3802
  44   2.0000      -0.488653       -13.2969
  45   2.0000      -0.473892       -12.8953
  46   2.0000      -0.468208       -12.7406
  47   2.0000      -0.458405       -12.4738
  48   2.0000      -0.453528       -12.3411
  49   2.0000      -0.443213       -12.0604
  50   2.0000      -0.438790       -11.9401
  51   2.0000      -0.429855       -11.6970
  52   2.0000      -0.408323       -11.1110
  53   2.0000      -0.406221       -11.0538
  54   2.0000      -0.397989       -10.8298
  55   2.0000      -0.378551       -10.3009
  56   2.0000      -0.328346        -8.9347
  57   2.0000      -0.325464        -8.8563
  58   2.0000      -0.300781        -8.1847
  59   2.0000      -0.293279        -7.9805
  60   2.0000      -0.259206        -7.0534
  61   2.0000      -0.247671        -6.7395
  62   0.0000       0.000092         0.0025
  63   0.0000       0.045633         1.2417
  64   0.0000       0.067858         1.8465
  65   0.0000       0.084298         2.2939
  66   0.0000       0.119547         3.2530

MULLIKEN ATOMIC CHARGES
-----------------------
   0 N :   -0.703764
   1 C :   -0.056684
   2 C :   -0.027796
   3 C :    0.074934
   4 C :   -0.426045
   5 C :    0.361301
   6 C :   -0.310936
   7 C :   -0.261740
   8 C :    0.365750
   9 H :    0.361930
  10 H :    0.252334
  11 H :    0.218203
  12 H :    0.229456
  13 H :    0.216887
  14 O :   -0.485845
  15 C :   -0.377349
  16 H :    0.198598
  17 H :    0.203424
  18 H :    0.220620
  19 C :   -0.506923
  20 C :   -0.274187
  21 N :   -0.616844
  22 C :    0.494275
  23 C :   -0.775978
  24 H :    0.244084
  25 H :    0.237334
  26 H :    0.210704
  27 H :    0.235254
  28 H :    0.376686
  29 O :   -0.418919
  30 H :    0.271439
  31 H :    0.231209
  32 H :    0.238589
Sum of atomic charges:   -0.0000000

LOEWDIN ATOMIC CHARGES
----------------------
   0 N :   -0.155702
   1 C :   -0.091226
   2 C :   -0.113166
   3 C :   -0.055100
   4 C :   -0.149522
   5 C :    0.043498
   6 C :   -0.156585
   7 C :   -0.152253
   8 C :    0.015005
   9 H :    0.263764
  10 H :    0.139313
  11 H :    0.144860
  12 H :    0.142978
  13 H :    0.138015
  14 O :   -0.220507
  15 C :   -0.172366
  16 H :    0.108068
  17 H :    0.110897
  18 H :    0.124331
  19 C :   -0.229525
  20 C :   -0.141096
  21 N :   -0.254461
  22 C :    0.104963
  23 C :   -0.397369
  24 H :    0.143196
  25 H :    0.139691
  26 H :    0.111181
  27 H :    0.128668
  28 H :    0.262904
  29 O :   -0.274542
  30 H :    0.155522
  31 H :    0.141371
  32 H :    0.145196

  Mayer bond orders larger than 0.100000
B(  0-N ,  1-C ) :   1.1325 B(  0-N ,  8-C ) :   1.0129 B(  0-N ,  9-H ) :   0.8317
B(  1-C ,  2-C ) :   1.5446 B(  1-C , 10-H ) :   0.9053 B(  2-C ,  3-C ) :   1.2534
B(  2-C , 19-C ) :   0.9701 B(  3-C ,  4-C ) :   1.2425 B(  3-C ,  8-C ) :   1.2431
B(  4-C ,  5-C ) :   1.4820 B(  4-C , 11-H ) :   0.9287 B(  5-C ,  6-C ) :   1.3193
B(  5-C , 14-O ) :   0.9537 B(  6-C ,  7-C ) :   1.4848 B(  6-C , 12-H ) :   0.9121
B(  7-C ,  8-C ) :   1.2889 B(  7-C , 13-H ) :   0.9198 B( 14-O , 15-C ) :   0.9508
B( 15-C , 16-H ) :   0.9119 B( 15-C , 17-H ) :   0.9122 B( 15-C , 18-H ) :   0.9283
B( 19-C , 20-C ) :   1.0016 B( 19-C , 24-H ) :   0.9047 B( 19-C , 25-H ) :   0.9036
B( 20-C , 21-N ) :   0.9469 B( 20-C , 26-H ) :   0.8972 B( 20-C , 27-H ) :   0.9047
B( 21-N , 22-C ) :   1.1595 B( 21-N , 28-H ) :   0.8010 B( 22-C , 23-C ) :   0.9292
B( 22-C , 29-O ) :   2.0335 B( 23-C , 30-H ) :   0.9166 B( 23-C , 31-H ) :   0.9104
B( 23-C , 32-H ) :   0.9102

Dispersion correction           -0.021135966
FINAL SINGLE POINT ENERGY      -763.319805695551

DIPOLE MOMENT
-------------
                                X             Y             Z
Electronic contribution:     -5.33484       6.15182       1.46643
Nuclear contribution   :      4.92208      -5.63936      -2.18769
                        -----------------------------------------
Total Dipole Moment    :     -0.41276       0.51246      -0.72126
                        -----------------------------------------
Magnitude (a.u.)       :      0.97632
Magnitude (Debye)      :      2.48160

Rotational constants in cm-1:     0.033692     0.006478     0.005990
Rotational constants in MHz :  1010.062316   194.203897   179.565633

                             ****ORCA TERMINATED NORMALLY****
TOTAL RUN TIME: 0 days 0 hours 4 minutes 2 seconds 504 msec
