                         Program Version 5.0.3 -  RELEASE  -
|  1> ! PBEh-3c def2/J TightSCF DefGrid3
|  2>
|  3> %maxcore 60000
|  4>
|  5> %pal
|  6> nprocs 4
|  7> end
|  8>
|  9> *xyzfile 0 1 37.xyz
| 10>
| 11>                          ****END OF INPUT****

CARTESIAN COORDINATES (ANGSTROEM)
---------------------------------
  B      0.731468   -2.076499    1.172159
  Si    -2.616109    1.015184   -0.471842
  B      1.530830   -1.291737   -0.081481
  O     -0.273269   -1.963518    2.061570
  H     -3.679605    1.655219   -1.283805
  S      2.149314   -2.948772    0.555179
  Al    -0.892368   -0.724773    0.934873
  C     -2.709904   -0.451075    0.447041
  H     -0.197426    0.896731    0.637320
  B     -0.687889    1.410475   -0.450354
  H     -3.532804   -1.150688    0.566255
  S      0.488867    1.955938   -1.567722
  F      3.253004    1.543831   -1.438755
  O      2.086318   -0.387155   -0.847261
  B      2.210509    1.079319   -0.690785
  H      2.139065    1.437522    0.457608

 Total Charge           Charge          ....    0
 Multiplicity           Mult            ....    1
 Number of Electrons    NEL             ....  114
 Basis Dimension        Dim             ....  200

ORBITAL ENERGIES
----------------

  NO   OCC          E(Eh)            E(eV)
   0   2.0000     -89.617671     -2438.6208
   1   2.0000     -89.589877     -2437.8645
   2   2.0000     -66.780180     -1817.1811
   3   2.0000     -56.689281     -1542.5938
   4   2.0000     -25.051003      -681.6725
   5   2.0000     -19.543793      -531.8137
   6   2.0000     -19.524377      -531.2853
   7   2.0000     -10.470785      -284.9245
   8   2.0000      -8.258452      -224.7239
   9   2.0000      -8.229971      -223.9489
  10   2.0000      -7.060761      -192.1331
  11   2.0000      -7.059389      -192.0957
  12   2.0000      -7.036449      -191.4715
  13   2.0000      -7.032839      -191.3733
  14   2.0000      -6.146806      -167.2631
  15   2.0000      -6.144860      -167.2101
  16   2.0000      -6.144512      -167.2007
  17   2.0000      -6.118078      -166.4814
  18   2.0000      -6.117784      -166.4734
  19   2.0000      -6.115403      -166.4086
  20   2.0000      -5.560230      -151.3015
  21   2.0000      -4.421329      -120.3105
  22   2.0000      -3.854813      -104.8948
  23   2.0000      -3.848973      -104.7359
  24   2.0000      -3.848245      -104.7161
  25   2.0000      -2.913476       -79.2797
  26   2.0000      -2.910457       -79.1976
  27   2.0000      -2.907037       -79.1045
  28   2.0000      -1.280450       -34.8428
  29   2.0000      -1.144547       -31.1447
  30   2.0000      -1.140298       -31.0291
  31   2.0000      -0.878620       -23.9085
  32   2.0000      -0.824809       -22.4442
  33   2.0000      -0.779487       -21.2109
  34   2.0000      -0.661631       -18.0039
  35   2.0000      -0.637419       -17.3450
  36   2.0000      -0.605173       -16.4676
  37   2.0000      -0.574484       -15.6325
  38   2.0000      -0.559625       -15.2282
  39   2.0000      -0.547446       -14.8968
  40   2.0000      -0.525838       -14.3088
  41   2.0000      -0.515227       -14.0200
  42   2.0000      -0.506679       -13.7874
  43   2.0000      -0.488599       -13.2954
  44   2.0000      -0.481479       -13.1017
  45   2.0000      -0.455432       -12.3929
  46   2.0000      -0.453865       -12.3503
  47   2.0000      -0.439707       -11.9650
  48   2.0000      -0.416335       -11.3290
  49   2.0000      -0.398844       -10.8531
  50   2.0000      -0.384269       -10.4565
  51   2.0000      -0.382366       -10.4047
  52   2.0000      -0.361508        -9.8371
  53   2.0000      -0.351818        -9.5735
  54   2.0000      -0.330474        -8.9926
  55   2.0000      -0.307000        -8.3539
  56   2.0000      -0.298428        -8.1206
  57   0.0000      -0.099646        -2.7115
  58   0.0000      -0.078099        -2.1252
  59   0.0000      -0.050736        -1.3806
  60   0.0000      -0.035633        -0.9696
  61   0.0000       0.023097         0.6285

MULLIKEN ATOMIC CHARGES
-----------------------
   0 B :    0.292653
   1 Si:    0.439082
   2 B :    0.164333
   3 O :   -0.481543
   4 H :    0.028206
   5 S :   -0.182295
   6 Al:    0.903296
   7 C :   -0.763740
   8 H :   -0.055819
   9 B :   -0.152138
  10 H :    0.268297
  11 S :   -0.183574
  12 F :   -0.300617
  13 O :   -0.375402
  14 B :    0.442893
  15 H :   -0.043631
Sum of atomic charges:    0.0000000

LOEWDIN ATOMIC CHARGES
----------------------
   0 B :   -0.125639
   1 Si:    0.425886
   2 B :   -0.040557
   3 O :   -0.213725
   4 H :    0.009062
   5 S :    0.229835
   6 Al:    0.534253
   7 C :   -0.526146
   8 H :    0.064777
   9 B :   -0.377707
  10 H :    0.175058
  11 S :    0.203308
  12 F :   -0.192156
  13 O :   -0.161270
  14 B :    0.034069
  15 H :   -0.039048

  Mayer bond orders larger than 0.100000
B(  0-B ,  2-B ) :   0.7576 B(  0-B ,  3-O ) :   1.2638 B(  0-B ,  5-S ) :   1.2077
B(  0-B ,  6-Al) :   0.2478 B(  1-Si,  4-H ) :   0.9334 B(  1-Si,  6-Al) :   0.1338
B(  1-Si,  7-C ) :   1.6618 B(  1-Si,  9-B ) :   0.9637 B(  2-B ,  5-S ) :   0.9733
B(  2-B ,  6-Al) :   0.1969 B(  2-B , 13-O ) :   1.4808 B(  3-O ,  6-Al) :   0.8270
B(  6-Al,  7-C ) :   1.0494 B(  6-Al,  8-H ) :   0.3102 B(  6-Al,  9-B ) :   0.1382
B(  7-C , 10-H ) :   0.8806 B(  8-H ,  9-B ) :   0.6103 B(  9-B , 11-S ) :   1.7442
B( 11-S , 14-B ) :   0.5562 B( 12-F , 14-B ) :   1.0993 B( 13-O , 14-B ) :   0.7424
B( 14-B , 15-H ) :   0.9231

Dispersion correction           -0.011078948
FINAL SINGLE POINT ENERGY     -1716.338844067820

DIPOLE MOMENT
-------------
                                X             Y             Z
Electronic contribution:      7.25294      -2.52946      -0.22486
Nuclear contribution   :     -9.49507       2.26508       0.83378
                        -----------------------------------------
Total Dipole Moment    :     -2.24213      -0.26438       0.60892
                        -----------------------------------------
Magnitude (a.u.)       :      2.33833
Magnitude (Debye)      :      5.94357

Rotational constants in cm-1:     0.020308     0.017807     0.009930
Rotational constants in MHz :   608.830531   533.833425   297.708825

                             ****ORCA TERMINATED NORMALLY****
TOTAL RUN TIME: 0 days 0 hours 3 minutes 41 seconds 186 msec
