                         Program Version 5.0.3 -  RELEASE  -
|  1> ! PBEh-3c def2/J TightSCF DefGrid3
|  2>
|  3> %maxcore 60000
|  4>
|  5> %pal
|  6> nprocs 4
|  7> end
|  8>
|  9> *xyzfile 0 1 N3P3H12_1.xyz
| 10>
| 11>                          ****END OF INPUT****

CARTESIAN COORDINATES (ANGSTROEM)
---------------------------------
  N     -0.793284   -1.374008   -0.320364
  P     -1.768980    0.000000    0.037274
  N     -0.793284    1.374008   -0.320364
  P      0.884490    1.531982    0.037274
  N      1.586567    0.000000   -0.320364
  P      0.884490   -1.531982    0.037274
  H     -1.086686   -1.882195   -1.141155
  H     -1.474920    0.000000    1.424246
  H     -1.086686    1.882195   -1.141155
  H      0.737460    1.277318    1.424246
  H      2.173372    0.000000   -1.141155
  H      0.737460   -1.277318    1.424246

 Total Charge           Charge          ....    0
 Multiplicity           Mult            ....    1
 Number of Electrons    NEL             ....   72
 Basis Dimension        Dim             ....  111

ORBITAL ENERGIES
----------------

  NO   OCC          E(Eh)            E(eV)
   0   2.0000     -77.775970     -2116.3917
   1   2.0000     -77.775966     -2116.3916
   2   2.0000     -77.775965     -2116.3916
   3   2.0000     -14.636143      -398.2697
   4   2.0000     -14.636123      -398.2692
   5   2.0000     -14.636118      -398.2690
   6   2.0000      -6.843337      -186.2167
   7   2.0000      -6.843332      -186.2165
   8   2.0000      -6.843331      -186.2165
   9   2.0000      -4.934728      -134.2808
  10   2.0000      -4.934728      -134.2808
  11   2.0000      -4.934713      -134.2804
  12   2.0000      -4.933707      -134.2530
  13   2.0000      -4.933700      -134.2528
  14   2.0000      -4.933699      -134.2528
  15   2.0000      -4.932265      -134.2137
  16   2.0000      -4.932237      -134.2130
  17   2.0000      -4.932237      -134.2130
  18   2.0000      -1.012824       -27.5604
  19   2.0000      -0.954247       -25.9664
  20   2.0000      -0.954246       -25.9663
  21   2.0000      -0.703272       -19.1370
  22   2.0000      -0.703270       -19.1369
  23   2.0000      -0.666287       -18.1306
  24   2.0000      -0.533995       -14.5307
  25   2.0000      -0.533994       -14.5307
  26   2.0000      -0.511952       -13.9309
  27   2.0000      -0.501928       -13.6581
  28   2.0000      -0.447459       -12.1760
  29   2.0000      -0.447457       -12.1759
  30   2.0000      -0.393938       -10.7196
  31   2.0000      -0.335494        -9.1293
  32   2.0000      -0.318708        -8.6725
  33   2.0000      -0.318708        -8.6725
  34   2.0000      -0.278545        -7.5796
  35   2.0000      -0.278544        -7.5796
  36   0.0000       0.036771         1.0006
  37   0.0000       0.036772         1.0006
  38   0.0000       0.069801         1.8994
  39   0.0000       0.123535         3.3616
  40   0.0000       0.123539         3.3617

MULLIKEN ATOMIC CHARGES
-----------------------
   0 N :   -0.907985
   1 P :    0.501126
   2 N :   -0.907985
   3 P :    0.501234
   4 N :   -0.908002
   5 P :    0.501234
   6 H :    0.365648
   7 H :    0.041165
   8 H :    0.365648
   9 H :    0.041141
  10 H :    0.365635
  11 H :    0.041141
Sum of atomic charges:   -0.0000000

LOEWDIN ATOMIC CHARGES
----------------------
   0 N :   -0.604519
   1 P :    0.358102
   2 N :   -0.604519
   3 P :    0.358107
   4 N :   -0.604515
   5 P :    0.358107
   6 H :    0.245312
   7 H :    0.001102
   8 H :    0.245312
   9 H :    0.001101
  10 H :    0.245308
  11 H :    0.001101

  Mayer bond orders larger than 0.100000
B(  0-N ,  1-P ) :   0.9608 B(  0-N ,  5-P ) :   0.9607 B(  0-N ,  6-H ) :   0.8218
B(  1-P ,  2-N ) :   0.9608 B(  1-P ,  7-H ) :   0.9409 B(  2-N ,  3-P ) :   0.9607
B(  2-N ,  8-H ) :   0.8218 B(  3-P ,  4-N ) :   0.9607 B(  3-P ,  9-H ) :   0.9409
B(  4-N ,  5-P ) :   0.9607 B(  4-N , 10-H ) :   0.8218 B(  5-P , 11-H ) :   0.9409

Dispersion correction           -0.008356990
FINAL SINGLE POINT ENERGY     -1190.398860309297

DIPOLE MOMENT
-------------
                                X             Y             Z
Electronic contribution:     -0.00003      -0.00000      -1.50991
Nuclear contribution   :     -0.00000       0.00000       0.88383
                        -----------------------------------------
Total Dipole Moment    :     -0.00003      -0.00000      -0.62608
                        -----------------------------------------
Magnitude (a.u.)       :      0.62608
Magnitude (Debye)      :      1.59138

Rotational constants in cm-1:     0.075721     0.075721     0.040386
Rotational constants in MHz :  2270.043772  2270.043753  1210.729090

                             ****ORCA TERMINATED NORMALLY****
TOTAL RUN TIME: 0 days 0 hours 1 minutes 18 seconds 904 msec
