                         Program Version 5.0.3 -  RELEASE  -
|  1> ! PBEh-3c def2/J TightSCF DefGrid3
|  2>
|  3> %maxcore 60000
|  4>
|  5> %pal
|  6> nprocs 4
|  7> end
|  8>
|  9> *xyzfile 0 1 41.xyz
| 10>
| 11>                          ****END OF INPUT****

CARTESIAN COORDINATES (ANGSTROEM)
---------------------------------
  N     -0.186042   -1.123814   -2.014436
  H     -0.201289   -2.132340   -1.944114
  C     -1.423480   -0.503812   -2.242539
  O     -2.438374   -1.170022   -2.351306
  C     -1.334920    0.943955   -2.321054
  H     -2.233710    1.508500   -2.499350
  C     -0.140141    1.550661   -2.168071
  H     -0.023428    2.623215   -2.215848
  N      1.008314    0.841593   -1.937991
  H      1.890422    1.307697   -1.804413
  C      1.049883   -0.538401   -1.836550
  O      2.072059   -1.156626   -1.611938
  C      1.164275    2.197800    1.507880
  H      0.733426    2.508849    0.555098
  H      0.530041    2.603233    2.296128
  H      2.147155    2.658248    1.601002
  C      1.237291    0.678930    1.597399
  H      1.667675    0.389367    2.558690
  H      1.911881    0.287769    0.832281
  C     -0.127494    0.020763    1.442582
  H     -0.798738    0.389639    2.224201
  H     -0.574965    0.331028    0.492682
  C     -0.071205   -1.499923    1.502217
  H      0.352401   -1.802354    2.462854
  H      0.620317   -1.861802    0.737715
  C     -1.440488   -2.141797    1.318444
  H     -1.878867   -1.868339    0.358258
  H     -1.383549   -3.228565    1.362501
  H     -2.128451   -1.813451    2.097677

 Total Charge           Charge          ....    0
 Multiplicity           Mult            ....    1
 Number of Electrons    NEL             ....  100
 Basis Dimension        Dim             ....  227

ORBITAL ENERGIES
----------------

  NO   OCC          E(Eh)            E(eV)
   0   2.0000     -19.486643      -530.2585
   1   2.0000     -19.479627      -530.0676
   2   2.0000     -14.719899      -400.5488
   3   2.0000     -14.699924      -400.0053
   4   2.0000     -10.612160      -288.7716
   5   2.0000     -10.576476      -287.8005
   6   2.0000     -10.540225      -286.8141
   7   2.0000     -10.469283      -284.8837
   8   2.0000     -10.430224      -283.8208
   9   2.0000     -10.428626      -283.7773
  10   2.0000     -10.426779      -283.7271
  11   2.0000     -10.424405      -283.6625
  12   2.0000     -10.414355      -283.3890
  13   2.0000      -1.199620       -32.6433
  14   2.0000      -1.161084       -31.5947
  15   2.0000      -1.095928       -29.8217
  16   2.0000      -1.036989       -28.2179
  17   2.0000      -0.901612       -24.5341
  18   2.0000      -0.894915       -24.3519
  19   2.0000      -0.838663       -22.8212
  20   2.0000      -0.782148       -21.2833
  21   2.0000      -0.756931       -20.5971
  22   2.0000      -0.752493       -20.4764
  23   2.0000      -0.679889       -18.5007
  24   2.0000      -0.672502       -18.2997
  25   2.0000      -0.645549       -17.5663
  26   2.0000      -0.638696       -17.3798
  27   2.0000      -0.595665       -16.2089
  28   2.0000      -0.563838       -15.3428
  29   2.0000      -0.546540       -14.8721
  30   2.0000      -0.529343       -14.4042
  31   2.0000      -0.524803       -14.2806
  32   2.0000      -0.497664       -13.5421
  33   2.0000      -0.493407       -13.4263
  34   2.0000      -0.492345       -13.3974
  35   2.0000      -0.488105       -13.2820
  36   2.0000      -0.470173       -12.7941
  37   2.0000      -0.459943       -12.5157
  38   2.0000      -0.449459       -12.2304
  39   2.0000      -0.433203       -11.7881
  40   2.0000      -0.430030       -11.7017
  41   2.0000      -0.404024       -10.9940
  42   2.0000      -0.384478       -10.4622
  43   2.0000      -0.374281       -10.1847
  44   2.0000      -0.365897        -9.9566
  45   2.0000      -0.364083        -9.9072
  46   2.0000      -0.362744        -9.8708
  47   2.0000      -0.343203        -9.3390
  48   2.0000      -0.331204        -9.0125
  49   2.0000      -0.302228        -8.2240
  50   0.0000      -0.025765        -0.7011
  51   0.0000       0.035392         0.9631
  52   0.0000       0.085803         2.3348
  53   0.0000       0.125451         3.4137
  54   0.0000       0.135465         3.6862

MULLIKEN ATOMIC CHARGES
-----------------------
   0 N :   -0.723707
   1 H :    0.400246
   2 C :    0.563721
   3 O :   -0.394149
   4 C :   -0.439277
   5 H :    0.267279
   6 C :    0.072117
   7 H :    0.277218
   8 N :   -0.675733
   9 H :    0.394781
  10 C :    0.691070
  11 O :   -0.418973
  12 C :   -0.644044
  13 H :    0.188634
  14 H :    0.217923
  15 H :    0.218531
  16 C :   -0.423473
  17 H :    0.213119
  18 H :    0.215359
  19 C :   -0.402432
  20 H :    0.207424
  21 H :    0.194803
  22 C :   -0.424122
  23 H :    0.207803
  24 H :    0.215773
  25 C :   -0.655099
  26 H :    0.228216
  27 H :    0.217604
  28 H :    0.209388
Sum of atomic charges:    0.0000000

LOEWDIN ATOMIC CHARGES
----------------------
   0 N :   -0.199563
   1 H :    0.287041
   2 C :    0.120053
   3 O :   -0.240829
   4 C :   -0.239179
   5 H :    0.164489
   6 C :   -0.015825
   7 H :    0.151126
   8 N :   -0.183463
   9 H :    0.283103
  10 C :    0.141908
  11 O :   -0.262343
  12 C :   -0.362510
  13 H :    0.111550
  14 H :    0.126830
  15 H :    0.124884
  16 C :   -0.249529
  17 H :    0.122514
  18 H :    0.122194
  19 C :   -0.241374
  20 H :    0.119760
  21 H :    0.113699
  22 C :   -0.249107
  23 H :    0.119999
  24 H :    0.122342
  25 C :   -0.365812
  26 H :    0.128747
  27 H :    0.125662
  28 H :    0.123636

  Mayer bond orders larger than 0.100000
B(  0-N ,  1-H ) :   0.7982 B(  0-N ,  2-C ) :   0.9742 B(  0-N , 10-C ) :   1.0616
B(  2-C ,  3-O ) :   2.0248 B(  2-C ,  4-C ) :   1.0614 B(  4-C ,  5-H ) :   0.9064
B(  4-C ,  6-C ) :   1.6467 B(  6-C ,  7-H ) :   0.8964 B(  6-C ,  8-N ) :   1.0726
B(  8-N ,  9-H ) :   0.8072 B(  8-N , 10-C ) :   1.0229 B( 10-C , 11-O ) :   2.0217
B( 12-C , 13-H ) :   0.9310 B( 12-C , 14-H ) :   0.9280 B( 12-C , 15-H ) :   0.9320
B( 12-C , 16-C ) :   0.9940 B( 16-C , 17-H ) :   0.9187 B( 16-C , 18-H ) :   0.9103
B( 16-C , 19-C ) :   0.9882 B( 19-C , 20-H ) :   0.9179 B( 19-C , 21-H ) :   0.9121
B( 19-C , 22-C ) :   0.9899 B( 22-C , 23-H ) :   0.9198 B( 22-C , 24-H ) :   0.9101
B( 22-C , 25-C ) :   0.9957 B( 25-C , 26-H ) :   0.9137 B( 25-C , 27-H ) :   0.9325
B( 25-C , 28-H ) :   0.9296

Dispersion correction           -0.017919365
FINAL SINGLE POINT ENERGY      -611.278236632720

DIPOLE MOMENT
-------------
                                X             Y             Z
Electronic contribution:     -0.59440      -2.65992     -18.62834
Nuclear contribution   :      1.14232       4.25978      18.60087
                        -----------------------------------------
Total Dipole Moment    :      0.54791       1.59986      -0.02747
                        -----------------------------------------
Magnitude (a.u.)       :      1.69130
Magnitude (Debye)      :      4.29895

Rotational constants in cm-1:     0.027652     0.020856     0.016864
Rotational constants in MHz :   828.978602   625.239259   505.579717

                             ****ORCA TERMINATED NORMALLY****
TOTAL RUN TIME: 0 days 0 hours 2 minutes 45 seconds 306 msec
