                         Program Version 5.0.3 -  RELEASE  -
|  1> ! PBEh-3c def2/J TightSCF DefGrid3
|  2>
|  3> %maxcore 60000
|  4>
|  5> %pal
|  6> nprocs 4
|  7> end
|  8>
|  9> *xyzfile 0 1 03B.xyz
| 10>
| 11>                          ****END OF INPUT****

CARTESIAN COORDINATES (ANGSTROEM)
---------------------------------
  N     -0.528143   -0.750160    0.000000
  H     -0.225408   -1.281947   -0.806032
  H     -0.225408   -1.281947    0.806032
  C      0.131221    0.558808    0.000000
  H     -0.187335    1.117859    0.876413
  H      1.222576    0.519759    0.000000
  H     -0.187335    1.117859   -0.876413

 Total Charge           Charge          ....    0
 Multiplicity           Mult            ....    1
 Number of Electrons    NEL             ....   18
 Basis Dimension        Dim             ....   40

ORBITAL ENERGIES
----------------

  NO   OCC          E(Eh)            E(eV)
   0   2.0000     -14.603748      -397.3882
   1   2.0000     -10.445573      -284.2385
   2   2.0000      -0.964348       -26.2412
   3   2.0000      -0.734960       -19.9993
   4   2.0000      -0.545172       -14.8349
   5   2.0000      -0.493054       -13.4167
   6   2.0000      -0.452869       -12.3232
   7   2.0000      -0.417008       -11.3474
   8   2.0000      -0.283128        -7.7043
   9   0.0000       0.138014         3.7556
  10   0.0000       0.201545         5.4843
  11   0.0000       0.213172         5.8007
  12   0.0000       0.228700         6.2232
  13   0.0000       0.233868         6.3639

MULLIKEN ATOMIC CHARGES
-----------------------
   0 N :   -0.737482
   1 H :    0.312730
   2 H :    0.312730
   3 C :   -0.502118
   4 H :    0.216484
   5 H :    0.181171
   6 H :    0.216484
Sum of atomic charges:    0.0000000

LOEWDIN ATOMIC CHARGES
----------------------
   0 N :   -0.487618
   1 H :    0.217537
   2 H :    0.217537
   3 C :   -0.279281
   4 H :    0.120312
   5 H :    0.091201
   6 H :    0.120312

  Mayer bond orders larger than 0.100000
B(  0-N ,  1-H ) :   0.8680 B(  0-N ,  2-H ) :   0.8680 B(  0-N ,  3-C ) :   1.0331
B(  3-C ,  4-H ) :   0.9267 B(  3-C ,  5-H ) :   0.9182 B(  3-C ,  6-H ) :   0.9267

Dispersion correction           -0.001525643
FINAL SINGLE POINT ENERGY       -95.642663858047

DIPOLE MOMENT
-------------
                                X             Y             Z
Electronic contribution:     -0.60328      -0.84787      -0.00000
Nuclear contribution   :      1.18941       0.72036       0.00000
                        -----------------------------------------
Total Dipole Moment    :      0.58613      -0.12751      -0.00000
                        -----------------------------------------
Magnitude (a.u.)       :      0.59984
Magnitude (Debye)      :      1.52467

Rotational constants in cm-1:     3.468674     0.760483     0.732191
Rotational constants in MHz : 103988.245206 22798.712420 21950.524161

                             ****ORCA TERMINATED NORMALLY****
TOTAL RUN TIME: 0 days 0 hours 0 minutes 50 seconds 664 msec
