                         Program Version 5.0.3 -  RELEASE  -
|  1> ! PBEh-3c def2/J TightSCF DefGrid3
|  2>
|  3> %maxcore 60000
|  4>
|  5> %pal
|  6> nprocs 4
|  7> end
|  8>
|  9> *xyzfile 0 1 Corannulene_TS.xyz
| 10>
| 11>                          ****END OF INPUT****

CARTESIAN COORDINATES (ANGSTROEM)
---------------------------------
  C      1.362759    3.066224   -0.000003
  C      2.495379    2.245604   -0.000006
  C     -1.362759    3.066228    0.000005
  C      0.000001    2.547569   -0.000007
  C     -0.000005    1.186313   -0.000016
  C      2.424036    0.788195   -0.000002
  C     -2.495367    2.245607    0.000005
  C      3.337054   -0.349606    0.000007
  C      0.699330   -3.283432   -0.000002
  C     -0.699331   -3.283427   -0.000001
  C      1.496296   -2.061818   -0.000002
  C      0.697675   -0.959714   -0.000013
  C     -0.697664   -0.959713   -0.000009
  C     -1.496294   -2.061815   -0.000004
  C     -2.904370   -1.679573    0.000000
  C     -3.337064   -0.349610    0.000004
  C     -2.424038    0.788193   -0.000002
  C     -1.129365    0.367343   -0.000015
  C      2.904371   -1.679569    0.000010
  C      1.129361    0.367350   -0.000013
  H     -3.669300   -2.446136    0.000004
  H     -4.406644   -0.180375    0.000011
  H     -3.459867    2.737818    0.000016
  H     -1.531400    4.135999    0.000013
  H      1.531407    4.135997   -0.000008
  H      3.459868    2.737838   -0.000005
  H      4.406637   -0.180378    0.000022
  H      3.669296   -2.446136    0.000017
  H      1.192552   -4.247490   -0.000001
  H     -1.192554   -4.247486   -0.000005

 Total Charge           Charge          ....    0
 Multiplicity           Mult            ....    1
 Number of Electrons    NEL             ....  130
 Basis Dimension        Dim             ....  320

ORBITAL ENERGIES
----------------

  NO   OCC          E(Eh)            E(eV)
   0   2.0000     -10.471811      -284.9525
   1   2.0000     -10.471801      -284.9522
   2   2.0000     -10.471668      -284.9486
   3   2.0000     -10.471612      -284.9470
   4   2.0000     -10.471573      -284.9460
   5   2.0000     -10.471180      -284.9353
   6   2.0000     -10.471180      -284.9353
   7   2.0000     -10.471118      -284.9336
   8   2.0000     -10.471085      -284.9327
   9   2.0000     -10.471014      -284.9308
  10   2.0000     -10.470690      -284.9220
  11   2.0000     -10.470613      -284.9199
  12   2.0000     -10.470559      -284.9184
  13   2.0000     -10.470512      -284.9171
  14   2.0000     -10.470511      -284.9171
  15   2.0000     -10.438054      -284.0339
  16   2.0000     -10.437751      -284.0256
  17   2.0000     -10.437727      -284.0250
  18   2.0000     -10.437036      -284.0062
  19   2.0000     -10.437024      -284.0059
  20   2.0000      -1.032824       -28.1046
  21   2.0000      -0.964517       -26.2458
  22   2.0000      -0.964432       -26.2435
  23   2.0000      -0.906221       -24.6595
  24   2.0000      -0.900845       -24.5132
  25   2.0000      -0.900808       -24.5122
  26   2.0000      -0.830587       -22.6014
  27   2.0000      -0.830576       -22.6011
  28   2.0000      -0.808576       -22.0025
  29   2.0000      -0.808418       -21.9982
  30   2.0000      -0.724356       -19.7107
  31   2.0000      -0.724334       -19.7101
  32   2.0000      -0.722285       -19.6544
  33   2.0000      -0.672726       -18.3058
  34   2.0000      -0.672639       -18.3034
  35   2.0000      -0.664207       -18.0740
  36   2.0000      -0.589833       -16.0502
  37   2.0000      -0.589685       -16.0462
  38   2.0000      -0.574106       -15.6222
  39   2.0000      -0.573572       -15.6077
  40   2.0000      -0.573493       -15.6055
  41   2.0000      -0.514789       -14.0081
  42   2.0000      -0.514718       -14.0062
  43   2.0000      -0.498018       -13.5518
  44   2.0000      -0.497835       -13.5468
  45   2.0000      -0.497763       -13.5448
  46   2.0000      -0.478529       -13.0214
  47   2.0000      -0.478447       -13.0192
  48   2.0000      -0.472530       -12.8582
  49   2.0000      -0.466591       -12.6966
  50   2.0000      -0.466519       -12.6946
  51   2.0000      -0.447686       -12.1821
  52   2.0000      -0.429916       -11.6986
  53   2.0000      -0.429823       -11.6961
  54   2.0000      -0.394248       -10.7280
  55   2.0000      -0.393895       -10.7184
  56   2.0000      -0.381468       -10.3803
  57   2.0000      -0.381223       -10.3736
  58   2.0000      -0.357264        -9.7217
  59   2.0000      -0.357210        -9.7202
  60   2.0000      -0.353785        -9.6270
  61   2.0000      -0.273953        -7.4546
  62   2.0000      -0.273927        -7.4539
  63   2.0000      -0.261455        -7.1145
  64   2.0000      -0.261361        -7.1120
  65   0.0000      -0.053594        -1.4584
  66   0.0000      -0.053489        -1.4555
  67   0.0000       0.014840         0.4038
  68   0.0000       0.019445         0.5291
  69   0.0000       0.061605         1.6763

MULLIKEN ATOMIC CHARGES
-----------------------
   0 C :   -0.342323
   1 C :   -0.342361
   2 C :   -0.342323
   3 C :    0.164706
   4 C :    0.081469
   5 C :    0.163555
   6 C :   -0.342353
   7 C :   -0.342406
   8 C :   -0.342076
   9 C :   -0.342081
  10 C :    0.163234
  11 C :    0.081488
  12 C :    0.081471
  13 C :    0.163249
  14 C :   -0.341923
  15 C :   -0.342405
  16 C :    0.163543
  17 C :    0.083314
  18 C :   -0.341926
  19 C :    0.083308
  20 H :    0.219250
  21 H :    0.219216
  22 H :    0.219395
  23 H :    0.219199
  24 H :    0.219196
  25 H :    0.219393
  26 H :    0.219213
  27 H :    0.219254
  28 H :    0.219363
  29 H :    0.219362
Sum of atomic charges:   -0.0000000

LOEWDIN ATOMIC CHARGES
----------------------
   0 C :   -0.116628
   1 C :   -0.116821
   2 C :   -0.116627
   3 C :   -0.031363
   4 C :   -0.013705
   5 C :   -0.031076
   6 C :   -0.116820
   7 C :   -0.116882
   8 C :   -0.116708
   9 C :   -0.116707
  10 C :   -0.031280
  11 C :   -0.013763
  12 C :   -0.013762
  13 C :   -0.031280
  14 C :   -0.116628
  15 C :   -0.116883
  16 C :   -0.031076
  17 C :   -0.013859
  18 C :   -0.116628
  19 C :   -0.013857
  20 H :    0.139195
  21 H :    0.139188
  22 H :    0.139275
  23 H :    0.139217
  24 H :    0.139216
  25 H :    0.139276
  26 H :    0.139188
  27 H :    0.139194
  28 H :    0.139302
  29 H :    0.139302

  Mayer bond orders larger than 0.100000
B(  0-C ,  1-C ) :   1.6459 B(  0-C ,  3-C ) :   1.1336 B(  0-C , 24-H ) :   0.9261
B(  1-C ,  5-C ) :   1.1336 B(  1-C , 25-H ) :   0.9260 B(  2-C ,  3-C ) :   1.1336
B(  2-C ,  6-C ) :   1.6459 B(  2-C , 23-H ) :   0.9261 B(  3-C ,  4-C ) :   1.2812
B(  4-C , 17-C ) :   1.1696 B(  4-C , 19-C ) :   1.1696 B(  5-C ,  7-C ) :   1.1337
B(  5-C , 19-C ) :   1.2805 B(  6-C , 16-C ) :   1.1336 B(  6-C , 22-H ) :   0.9260
B(  7-C , 18-C ) :   1.6464 B(  7-C , 26-H ) :   0.9260 B(  8-C ,  9-C ) :   1.6453
B(  8-C , 10-C ) :   1.1340 B(  8-C , 28-H ) :   0.9261 B(  9-C , 13-C ) :   1.1340
B(  9-C , 29-H ) :   0.9261 B( 10-C , 11-C ) :   1.2812 B( 10-C , 18-C ) :   1.1337
B( 11-C , 12-C ) :   1.1711 B( 11-C , 19-C ) :   1.1681 B( 12-C , 13-C ) :   1.2812
B( 12-C , 17-C ) :   1.1681 B( 13-C , 14-C ) :   1.1337 B( 14-C , 15-C ) :   1.6464
B( 14-C , 20-H ) :   0.9260 B( 15-C , 16-C ) :   1.1337 B( 15-C , 21-H ) :   0.9260
B( 16-C , 17-C ) :   1.2805 B( 18-C , 27-H ) :   0.9260

Dispersion correction           -0.025356182
FINAL SINGLE POINT ENERGY      -766.439343500064

DIPOLE MOMENT
-------------
                                X             Y             Z
Electronic contribution:      0.00000      -0.00002      -0.00007
Nuclear contribution   :     -0.00001      -0.00047       0.00009
                        -----------------------------------------
Total Dipole Moment    :     -0.00001      -0.00049       0.00001
                        -----------------------------------------
Magnitude (a.u.)       :      0.00049
Magnitude (Debye)      :      0.00125

Rotational constants in cm-1:     0.016668     0.016657     0.008331
Rotational constants in MHz :   499.698008   499.372214   249.767529

                             ****ORCA TERMINATED NORMALLY****
TOTAL RUN TIME: 0 days 0 hours 4 minutes 43 seconds 131 msec
