                         Program Version 5.0.3 -  RELEASE  -
|  1> ! PBEh-3c def2/J TightSCF DefGrid3
|  2>
|  3> %maxcore 60000
|  4>
|  5> %pal
|  6> nprocs 4
|  7> end
|  8>
|  9> *xyzfile 1 1 c2cl41.xyz
| 10>
| 11>                          ****END OF INPUT****

CARTESIAN COORDINATES (ANGSTROEM)
---------------------------------
  C      0.666711    0.000000    0.370209
  C     -0.666711    0.000000    0.370209
  Cl     1.654139    0.000000    1.715168
  Cl     1.473424    0.000000   -1.202903
  Cl    -1.654139    0.000000    1.715168
  Cl    -1.473424    0.000000   -1.202903
  H      0.000000    0.000000   -1.764948

 Total Charge           Charge          ....    1
 Multiplicity           Mult            ....    1
 Number of Electrons    NEL             ....   80
 Basis Dimension        Dim             ....  104

ORBITAL ENERGIES
----------------

  NO   OCC          E(Eh)            E(eV)
   0   2.0000    -102.604602     -2792.0132
   1   2.0000    -102.604578     -2792.0125
   2   2.0000    -102.534517     -2790.1061
   3   2.0000    -102.534450     -2790.1042
   4   2.0000     -10.800306      -293.8913
   5   2.0000     -10.799409      -293.8669
   6   2.0000     -10.071672      -274.0641
   7   2.0000     -10.071654      -274.0637
   8   2.0000     -10.001944      -272.1667
   9   2.0000     -10.001907      -272.1657
  10   2.0000      -7.757800      -211.1005
  11   2.0000      -7.757780      -211.0999
  12   2.0000      -7.753591      -210.9859
  13   2.0000      -7.753589      -210.9859
  14   2.0000      -7.748855      -210.8571
  15   2.0000      -7.748843      -210.8567
  16   2.0000      -7.690426      -209.2671
  17   2.0000      -7.690409      -209.2667
  18   2.0000      -7.680415      -208.9947
  19   2.0000      -7.680409      -208.9945
  20   2.0000      -7.680377      -208.9937
  21   2.0000      -7.680357      -208.9931
  22   2.0000      -1.305382       -35.5212
  23   2.0000      -1.232314       -33.5330
  24   2.0000      -1.198220       -32.6052
  25   2.0000      -1.158085       -31.5131
  26   2.0000      -1.039827       -28.2951
  27   2.0000      -0.849493       -23.1159
  28   2.0000      -0.843606       -22.9557
  29   2.0000      -0.795925       -21.6582
  30   2.0000      -0.735661       -20.0183
  31   2.0000      -0.733635       -19.9632
  32   2.0000      -0.710504       -19.3338
  33   2.0000      -0.663044       -18.0423
  34   2.0000      -0.644685       -17.5428
  35   2.0000      -0.626583       -17.0502
  36   2.0000      -0.598910       -16.2972
  37   2.0000      -0.595599       -16.2071
  38   2.0000      -0.573640       -15.6095
  39   2.0000      -0.503000       -13.6873
  40   0.0000      -0.243793        -6.6339
  41   0.0000      -0.216624        -5.8946
  42   0.0000      -0.181833        -4.9479
  43   0.0000      -0.169079        -4.6009
  44   0.0000      -0.136160        -3.7051

MULLIKEN ATOMIC CHARGES
-----------------------
   0 C :    0.013366
   1 C :    0.013366
   2 Cl:    0.165431
   3 Cl:    0.135917
   4 Cl:    0.165431
   5 Cl:    0.135916
   6 H :    0.370574
Sum of atomic charges:    1.0000000

LOEWDIN ATOMIC CHARGES
----------------------
   0 C :   -0.268208
   1 C :   -0.268208
   2 Cl:    0.295724
   3 Cl:    0.346065
   4 Cl:    0.295724
   5 Cl:    0.346065
   6 H :    0.252838

  Mayer bond orders larger than 0.100000
B(  0-C ,  1-C ) :   1.4948 B(  0-C ,  2-Cl) :   1.2816 B(  0-C ,  3-Cl) :   0.9474
B(  1-C ,  4-Cl) :   1.2816 B(  1-C ,  5-Cl) :   0.9474 B(  3-Cl,  6-H ) :   0.4133
B(  5-Cl,  6-H ) :   0.4133

Dispersion correction           -0.005028903
FINAL SINGLE POINT ENERGY     -1915.020102188860

DIPOLE MOMENT
-------------
                                X             Y             Z
Electronic contribution:     -0.00000       0.00000       0.62015
Nuclear contribution   :      0.00000       0.00000      -1.87746
                        -----------------------------------------
Total Dipole Moment    :     -0.00000       0.00000      -1.25731
                        -----------------------------------------
Magnitude (a.u.)       :      1.25731
Magnitude (Debye)      :      3.19583

Rotational constants in cm-1:     0.055034     0.047006     0.025352
Rotational constants in MHz :  1649.872910  1409.215866   760.039100

                             ****ORCA TERMINATED NORMALLY****
TOTAL RUN TIME: 0 days 0 hours 1 minutes 22 seconds 462 msec
