                         Program Version 5.0.3 -  RELEASE  -
|  1> ! PBEh-3c def2/J TightSCF DefGrid3
|  2>
|  3> %maxcore 60000
|  4>
|  5> %pal
|  6> nprocs 4
|  7> end
|  8>
|  9> *xyzfile 0 1 118.xyz
| 10>
| 11>                          ****END OF INPUT****

CARTESIAN COORDINATES (ANGSTROEM)
---------------------------------
  C     -0.226053    0.020498   -1.367157
  S      0.801732    0.679934    0.000000
  O      2.077976   -0.122456    0.000000
  C     -0.226053    0.020498    1.367157
  H      0.286759    0.280810   -2.289957
  H     -1.212524    0.481375   -1.342974
  H     -0.288036   -1.061422   -1.265106
  H     -1.212524    0.481375    1.342974
  H     -0.288036   -1.061422    1.265106
  H      0.286759    0.280810    2.289957

 Total Charge           Charge          ....    0
 Multiplicity           Mult            ....    1
 Number of Electrons    NEL             ....   42
 Basis Dimension        Dim             ....   75

ORBITAL ENERGIES
----------------

  NO   OCC          E(Eh)            E(eV)
   0   2.0000     -89.693953     -2440.6965
   1   2.0000     -19.436729      -528.9003
   2   2.0000     -10.467316      -284.8302
   3   2.0000     -10.467272      -284.8290
   4   2.0000      -8.319213      -226.3773
   5   2.0000      -6.209588      -168.9715
   6   2.0000      -6.209140      -168.9593
   7   2.0000      -6.203036      -168.7932
   8   2.0000      -1.101409       -29.9709
   9   2.0000      -0.878994       -23.9186
  10   2.0000      -0.807683       -21.9782
  11   2.0000      -0.675891       -18.3919
  12   2.0000      -0.530820       -14.4443
  13   2.0000      -0.518465       -14.1082
  14   2.0000      -0.517065       -14.0701
  15   2.0000      -0.485694       -13.2164
  16   2.0000      -0.453400       -12.3376
  17   2.0000      -0.448271       -12.1981
  18   2.0000      -0.405497       -11.0341
  19   2.0000      -0.310456        -8.4479
  20   2.0000      -0.270827        -7.3696
  21   0.0000       0.075267         2.0481
  22   0.0000       0.086837         2.3629
  23   0.0000       0.117994         3.2108
  24   0.0000       0.136312         3.7092
  25   0.0000       0.163059         4.4371

MULLIKEN ATOMIC CHARGES
-----------------------
   0 C :   -0.783789
   1 S :    0.715713
   2 O :   -0.697631
   3 C :   -0.783789
   4 H :    0.275283
   5 H :    0.235024
   6 H :    0.264442
   7 H :    0.235024
   8 H :    0.264442
   9 H :    0.275283
Sum of atomic charges:    0.0000000

LOEWDIN ATOMIC CHARGES
----------------------
   0 C :   -0.496247
   1 S :    0.789056
   2 O :   -0.661236
   3 C :   -0.496247
   4 H :    0.150485
   5 H :    0.136524
   6 H :    0.145328
   7 H :    0.136524
   8 H :    0.145328
   9 H :    0.150485

  Mayer bond orders larger than 0.100000
B(  0-C ,  1-S ) :   0.8987 B(  0-C ,  4-H ) :   0.9007 B(  0-C ,  5-H ) :   0.8941
B(  0-C ,  6-H ) :   0.8918 B(  1-S ,  2-O ) :   1.5288 B(  1-S ,  3-C ) :   0.8987
B(  3-C ,  7-H ) :   0.8941 B(  3-C ,  8-H ) :   0.8918 B(  3-C ,  9-H ) :   0.9007

Dispersion correction           -0.003922012
FINAL SINGLE POINT ENERGY      -552.406305318650

DIPOLE MOMENT
-------------
                                X             Y             Z
Electronic contribution:      4.34870       2.20545       0.00000
Nuclear contribution   :     -5.94038      -2.00081       0.00000
                        -----------------------------------------
Total Dipole Moment    :     -1.59167       0.20464       0.00000
                        -----------------------------------------
Magnitude (a.u.)       :      1.60477
Magnitude (Debye)      :      4.07901

Rotational constants in cm-1:     0.228369     0.223809     0.136871
Rotational constants in MHz :  6846.318035  6709.625620  4103.283541

                             ****ORCA TERMINATED NORMALLY****
TOTAL RUN TIME: 0 days 0 hours 0 minutes 32 seconds 489 msec
