                         Program Version 5.0.3 -  RELEASE  -
|  1> ! PBEh-3c def2/J TightSCF DefGrid3
|  2>
|  3> %maxcore 60000
|  4>
|  5> %pal
|  6> nprocs 4
|  7> end
|  8>
|  9> *xyzfile 0 1 nh2oh_st2.xyz
| 10>
| 11>                          ****END OF INPUT****

CARTESIAN COORDINATES (ANGSTROEM)
---------------------------------
  N     -0.389624   -0.497570    0.000000
  O     -0.377672    0.915410    0.000000
  H      0.114146   -0.813342    0.820715
  H      0.114146   -0.813342   -0.820715
  H      0.539004    1.208844    0.000000

 Total Charge           Charge          ....    0
 Multiplicity           Mult            ....    1
 Number of Electrons    NEL             ....   18
 Basis Dimension        Dim             ....   36

ORBITAL ENERGIES
----------------

  NO   OCC          E(Eh)            E(eV)
   0   2.0000     -19.510516      -530.9081
   1   2.0000     -14.662851      -398.9965
   2   2.0000      -1.164562       -31.6893
   3   2.0000      -0.885274       -24.0895
   4   2.0000      -0.596958       -16.2440
   5   2.0000      -0.569354       -15.4929
   6   2.0000      -0.453021       -12.3273
   7   2.0000      -0.348292        -9.4775
   8   2.0000      -0.307296        -8.3620
   9   0.0000       0.117861         3.2072
  10   0.0000       0.147626         4.0171
  11   0.0000       0.206460         5.6181
  12   0.0000       0.239736         6.5235
  13   0.0000       0.724821        19.7234

MULLIKEN ATOMIC CHARGES
-----------------------
   0 N :   -0.491064
   1 O :   -0.545100
   2 H :    0.316659
   3 H :    0.316659
   4 H :    0.402846
Sum of atomic charges:   -0.0000000

LOEWDIN ATOMIC CHARGES
----------------------
   0 N :   -0.333398
   1 O :   -0.367128
   2 H :    0.206682
   3 H :    0.206682
   4 H :    0.287162

  Mayer bond orders larger than 0.100000
B(  0-N ,  1-O ) :   0.9950 B(  0-N ,  2-H ) :   0.8568 B(  0-N ,  3-H ) :   0.8568
B(  1-O ,  4-H ) :   0.8010

Dispersion correction           -0.000795526
FINAL SINGLE POINT ENERGY      -131.419349939393

DIPOLE MOMENT
-------------
                                X             Y             Z
Electronic contribution:     -0.32101       0.74060       0.00000
Nuclear contribution   :      1.63273      -1.00387       0.00000
                        -----------------------------------------
Total Dipole Moment    :      1.31172      -0.26327       0.00000
                        -----------------------------------------
Magnitude (a.u.)       :      1.33788
Magnitude (Debye)      :      3.40063

Rotational constants in cm-1:     6.478583     0.872017     0.866915
Rotational constants in MHz : 194223.033399 26142.422738 25989.448966

                             ****ORCA TERMINATED NORMALLY****
TOTAL RUN TIME: 0 days 0 hours 1 minutes 1 seconds 517 msec
