                         Program Version 5.0.3 -  RELEASE  -
|  1> ! PBEh-3c def2/J TightSCF DefGrid3
|  2>
|  3> %maxcore 60000
|  4>
|  5> %pal
|  6> nprocs 4
|  7> end
|  8>
|  9> *xyzfile 0 1 36.xyz
| 10>
| 11>                          ****END OF INPUT****

CARTESIAN COORDINATES (ANGSTROEM)
---------------------------------
  C      0.000000    0.000000   -2.628154
  C      1.246067    0.719417   -2.119659
  H      1.266871    1.753590   -2.470155
  H      1.271399    0.734043   -1.029112
  H      2.152089    0.220348   -2.470155
  C     -1.246067    0.719417   -2.119659
  H     -2.152089    0.220348   -2.470155
  H     -1.271399    0.734043   -1.029112
  H     -1.266871    1.753590   -2.470155
  C      0.000000   -1.438835   -2.119659
  H     -0.885218   -1.973937   -2.470155
  H      0.000000   -1.468085   -1.029112
  H      0.885218   -1.973937   -2.470155
  C      0.000000    0.000000   -4.154543
  H      0.882010   -0.509229   -4.542706
  H     -0.882010   -0.509229   -4.542706
  H      0.000000    1.018457   -4.542706
  C      0.000000    0.000000    2.628154
  C     -1.246067   -0.719417    2.119659
  H     -1.271399   -0.734043    1.029112
  H     -1.266871   -1.753590    2.470155
  H     -2.152089   -0.220348    2.470155
  C      1.246067   -0.719417    2.119659
  H      2.152089   -0.220348    2.470155
  H      1.266871   -1.753590    2.470155
  H      1.271399   -0.734043    1.029112
  C      0.000000    0.000000    4.154543
  H      0.882010    0.509229    4.542706
  H      0.000000   -1.018457    4.542706
  H     -0.882010    0.509229    4.542706
  C      0.000000    1.438835    2.119659
  H     -0.885218    1.973937    2.470155
  H      0.885218    1.973937    2.470155
  H      0.000000    1.468085    1.029112

 Total Charge           Charge          ....    0
 Multiplicity           Mult            ....    1
 Number of Electrons    NEL             ....   84
 Basis Dimension        Dim             ....  198

ORBITAL ENERGIES
----------------

  NO   OCC          E(Eh)            E(eV)
   0   2.0000     -10.446732      -284.2700
   1   2.0000     -10.446731      -284.2700
   2   2.0000     -10.418490      -283.5015
   3   2.0000     -10.418490      -283.5015
   4   2.0000     -10.418473      -283.5011
   5   2.0000     -10.418473      -283.5011
   6   2.0000     -10.418414      -283.4995
   7   2.0000     -10.418392      -283.4989
   8   2.0000     -10.417558      -283.4762
   9   2.0000     -10.417557      -283.4761
  10   2.0000      -0.915547       -24.9133
  11   2.0000      -0.914770       -24.8922
  12   2.0000      -0.763965       -20.7885
  13   2.0000      -0.763625       -20.7793
  14   2.0000      -0.763623       -20.7792
  15   2.0000      -0.762319       -20.7438
  16   2.0000      -0.762191       -20.7403
  17   2.0000      -0.762191       -20.7403
  18   2.0000      -0.599236       -16.3060
  19   2.0000      -0.595960       -16.2169
  20   2.0000      -0.511362       -13.9149
  21   2.0000      -0.506262       -13.7761
  22   2.0000      -0.506261       -13.7761
  23   2.0000      -0.506246       -13.7757
  24   2.0000      -0.506245       -13.7756
  25   2.0000      -0.500491       -13.6190
  26   2.0000      -0.456531       -12.4228
  27   2.0000      -0.456529       -12.4228
  28   2.0000      -0.450395       -12.2559
  29   2.0000      -0.450395       -12.2559
  30   2.0000      -0.414478       -11.2785
  31   2.0000      -0.414476       -11.2785
  32   2.0000      -0.412237       -11.2175
  33   2.0000      -0.411853       -11.2071
  34   2.0000      -0.408984       -11.1290
  35   2.0000      -0.408984       -11.1290
  36   2.0000      -0.373614       -10.1666
  37   2.0000      -0.365976        -9.9587
  38   2.0000      -0.365976        -9.9587
  39   2.0000      -0.365358        -9.9419
  40   2.0000      -0.365358        -9.9419
  41   2.0000      -0.357567        -9.7299
  42   0.0000       0.084054         2.2872
  43   0.0000       0.132521         3.6061
  44   0.0000       0.160462         4.3664
  45   0.0000       0.160473         4.3667
  46   0.0000       0.168257         4.5785

MULLIKEN ATOMIC CHARGES
-----------------------
   0 C :   -0.112551
   1 C :   -0.614742
   2 H :    0.211883
   3 H :    0.219054
   4 H :    0.211868
   5 C :   -0.614742
   6 H :    0.211868
   7 H :    0.219054
   8 H :    0.211883
   9 C :   -0.614748
  10 H :    0.211867
  11 H :    0.219067
  12 H :    0.211867
  13 C :   -0.606676
  14 H :    0.211687
  15 H :    0.211687
  16 H :    0.211671
  17 C :   -0.112551
  18 C :   -0.614742
  19 H :    0.219054
  20 H :    0.211883
  21 H :    0.211868
  22 C :   -0.614742
  23 H :    0.211868
  24 H :    0.211883
  25 H :    0.219054
  26 C :   -0.606676
  27 H :    0.211687
  28 H :    0.211671
  29 H :    0.211688
  30 C :   -0.614748
  31 H :    0.211867
  32 H :    0.211867
  33 H :    0.219067
Sum of atomic charges:    0.0000000

LOEWDIN ATOMIC CHARGES
----------------------
   0 C :   -0.116619
   1 C :   -0.343485
   2 H :    0.124768
   3 H :    0.122826
   4 H :    0.124763
   5 C :   -0.343485
   6 H :    0.124763
   7 H :    0.122826
   8 H :    0.124768
   9 C :   -0.343483
  10 H :    0.124763
  11 H :    0.122827
  12 H :    0.124763
  13 C :   -0.343382
  14 H :    0.124464
  15 H :    0.124464
  16 H :    0.124460
  17 C :   -0.116619
  18 C :   -0.343485
  19 H :    0.122826
  20 H :    0.124768
  21 H :    0.124763
  22 C :   -0.343485
  23 H :    0.124763
  24 H :    0.124768
  25 H :    0.122826
  26 C :   -0.343382
  27 H :    0.124464
  28 H :    0.124460
  29 H :    0.124464
  30 C :   -0.343483
  31 H :    0.124763
  32 H :    0.124763
  33 H :    0.122828

  Mayer bond orders larger than 0.100000
B(  0-C ,  1-C ) :   0.9822 B(  0-C ,  5-C ) :   0.9822 B(  0-C ,  9-C ) :   0.9822
B(  0-C , 13-C ) :   0.9835 B(  1-C ,  2-H ) :   0.9299 B(  1-C ,  3-H ) :   0.9184
B(  1-C ,  4-H ) :   0.9299 B(  5-C ,  6-H ) :   0.9299 B(  5-C ,  7-H ) :   0.9184
B(  5-C ,  8-H ) :   0.9299 B(  9-C , 10-H ) :   0.9299 B(  9-C , 11-H ) :   0.9184
B(  9-C , 12-H ) :   0.9299 B( 13-C , 14-H ) :   0.9302 B( 13-C , 15-H ) :   0.9302
B( 13-C , 16-H ) :   0.9302 B( 17-C , 18-C ) :   0.9822 B( 17-C , 22-C ) :   0.9822
B( 17-C , 26-C ) :   0.9835 B( 17-C , 30-C ) :   0.9822 B( 18-C , 19-H ) :   0.9184
B( 18-C , 20-H ) :   0.9299 B( 18-C , 21-H ) :   0.9299 B( 22-C , 23-H ) :   0.9299
B( 22-C , 24-H ) :   0.9299 B( 22-C , 25-H ) :   0.9184 B( 26-C , 27-H ) :   0.9302
B( 26-C , 28-H ) :   0.9302 B( 26-C , 29-H ) :   0.9302 B( 30-C , 31-H ) :   0.9299
B( 30-C , 32-H ) :   0.9299 B( 30-C , 33-H ) :   0.9184

Dispersion correction           -0.017916911
FINAL SINGLE POINT ENERGY      -394.685283695496

DIPOLE MOMENT
-------------
                                X             Y             Z
Electronic contribution:      0.00000       0.00000       0.00000
Nuclear contribution   :     -0.00000       0.00000       0.00000
                        -----------------------------------------
Total Dipole Moment    :      0.00000       0.00000       0.00000
                        -----------------------------------------
Magnitude (a.u.)       :      0.00000
Magnitude (Debye)      :      0.00000

Rotational constants in cm-1:     0.074885     0.013796     0.013796
Rotational constants in MHz :  2245.008997   413.596636   413.596636

                             ****ORCA TERMINATED NORMALLY****
TOTAL RUN TIME: 0 days 0 hours 2 minutes 20 seconds 990 msec
