                         Program Version 5.0.3 -  RELEASE  -
|  1> ! PBEh-3c def2/J TightSCF DefGrid3
|  2>
|  3> %maxcore 60000
|  4>
|  5> %pal
|  6> nprocs 4
|  7> end
|  8>
|  9> *xyzfile 0 1 73.xyz
| 10>
| 11>                          ****END OF INPUT****

CARTESIAN COORDINATES (ANGSTROEM)
---------------------------------
  O      0.000000    0.000000    0.578556
  F     -1.109339    0.000000   -0.289278
  F      1.109339    0.000000   -0.289278

 Total Charge           Charge          ....    0
 Multiplicity           Mult            ....    1
 Number of Electrons    NEL             ....   26
 Basis Dimension        Dim             ....   45

ORBITAL ENERGIES
----------------

  NO   OCC          E(Eh)            E(eV)
   0   2.0000     -25.181351      -685.2194
   1   2.0000     -25.181330      -685.2188
   2   2.0000     -19.728452      -536.8385
   3   2.0000      -1.463495       -39.8237
   4   2.0000      -1.350530       -36.7498
   5   2.0000      -1.047611       -28.5069
   6   2.0000      -0.677678       -18.4406
   7   2.0000      -0.640461       -17.4278
   8   2.0000      -0.627907       -17.0862
   9   2.0000      -0.536860       -14.6087
  10   2.0000      -0.512775       -13.9533
  11   2.0000      -0.511922       -13.9301
  12   2.0000      -0.409850       -11.1526
  13   0.0000      -0.044727        -1.2171
  14   0.0000      -0.007461        -0.2030
  15   0.0000       0.758544        20.6410
  16   0.0000       0.807221        21.9656
  17   0.0000       0.910330        24.7713

MULLIKEN ATOMIC CHARGES
-----------------------
   0 O :    0.307444
   1 F :   -0.153722
   2 F :   -0.153722
Sum of atomic charges:    0.0000000

LOEWDIN ATOMIC CHARGES
----------------------
   0 O :    0.277121
   1 F :   -0.138560
   2 F :   -0.138560

  Mayer bond orders larger than 0.100000
B(  0-O ,  1-F ) :   1.0006 B(  0-O ,  2-F ) :   1.0006

Dispersion correction           -0.000296052
FINAL SINGLE POINT ENERGY      -274.116396009230

DIPOLE MOMENT
-------------
                                X             Y             Z
Electronic contribution:     -0.00000       0.00000      -0.36597
Nuclear contribution   :      0.00000       0.00000       0.48554
                        -----------------------------------------
Total Dipole Moment    :     -0.00000       0.00000       0.11957
                        -----------------------------------------
Magnitude (a.u.)       :      0.11957
Magnitude (Debye)      :      0.30392

Rotational constants in cm-1:     1.988135     0.360521     0.305181
Rotational constants in MHz : 59602.779049 10808.141098  9149.081484

                             ****ORCA TERMINATED NORMALLY****
TOTAL RUN TIME: 0 days 0 hours 0 minutes 24 seconds 595 msec
