                         Program Version 5.0.3 -  RELEASE  -
|  1> ! PBEh-3c def2/J TightSCF DefGrid3
|  2>
|  3> %maxcore 60000
|  4>
|  5> %pal
|  6> nprocs 4
|  7> end
|  8>
|  9> *xyzfile 0 1 BrBr_OPH3.xyz
| 10>
| 11>                          ****END OF INPUT****

CARTESIAN COORDINATES (ANGSTROEM)
---------------------------------
  Br     2.281613   -0.225049   -0.000038
  Br     0.054271    0.332665    0.000072
  O     -2.585759    0.806393   -0.000177
  P     -3.340098   -0.479120    0.000002
  H     -3.112183   -1.336431    1.096206
  H     -3.111992   -1.336851   -1.095836
  H     -4.744209   -0.357636   -0.000145

 Total Charge           Charge          ....    0
 Multiplicity           Mult            ....    1
 Number of Electrons    NEL             ....   96
 Basis Dimension        Dim             ....  103

ORBITAL ENERGIES
----------------

  NO   OCC          E(Eh)            E(eV)
   0   2.0000    -484.551400    -13185.3139
   1   2.0000    -484.540458    -13185.0162
   2   2.0000     -77.843036     -2118.2167
   3   2.0000     -63.213098     -1720.1159
   4   2.0000     -63.203313     -1719.8496
   5   2.0000     -56.918465     -1548.8302
   6   2.0000     -56.914471     -1548.7215
   7   2.0000     -56.914363     -1548.7186
   8   2.0000     -56.908201     -1548.5509
   9   2.0000     -56.904943     -1548.4622
  10   2.0000     -56.904897     -1548.4610
  11   2.0000     -19.476782      -529.9902
  12   2.0000      -9.041264      -246.0253
  13   2.0000      -9.032034      -245.7741
  14   2.0000      -6.912788      -188.1065
  15   2.0000      -6.819777      -185.5756
  16   2.0000      -6.808945      -185.2808
  17   2.0000      -6.800548      -185.0523
  18   2.0000      -6.800373      -185.0476
  19   2.0000      -6.792389      -184.8303
  20   2.0000      -6.792380      -184.8301
  21   2.0000      -5.004390      -136.1764
  22   2.0000      -5.004357      -136.1755
  23   2.0000      -5.003590      -136.1546
  24   2.0000      -2.832692       -77.0815
  25   2.0000      -2.827060       -76.9282
  26   2.0000      -2.826937       -76.9249
  27   2.0000      -2.821925       -76.7885
  28   2.0000      -2.817175       -76.6592
  29   2.0000      -2.817154       -76.6587
  30   2.0000      -2.810458       -76.4764
  31   2.0000      -2.810450       -76.4762
  32   2.0000      -2.802996       -76.2734
  33   2.0000      -2.802985       -76.2731
  34   2.0000      -1.097759       -29.8715
  35   2.0000      -0.915774       -24.9195
  36   2.0000      -0.785096       -21.3635
  37   2.0000      -0.744966       -20.2716
  38   2.0000      -0.529219       -14.4008
  39   2.0000      -0.524883       -14.2828
  40   2.0000      -0.478539       -13.0217
  41   2.0000      -0.443115       -12.0578
  42   2.0000      -0.394511       -10.7352
  43   2.0000      -0.394416       -10.7326
  44   2.0000      -0.361344        -9.8327
  45   2.0000      -0.356980        -9.7139
  46   2.0000      -0.308456        -8.3935
  47   2.0000      -0.307352        -8.3635
  48   0.0000      -0.075777        -2.0620
  49   0.0000       0.059301         1.6137
  50   0.0000       0.089292         2.4298
  51   0.0000       0.092118         2.5067
  52   0.0000       0.102523         2.7898

MULLIKEN ATOMIC CHARGES
-----------------------
   0 Br:   -0.079983
   1 Br:    0.010286
   2 O :   -0.638214
   3 P :    0.505889
   4 H :    0.068380
   5 H :    0.068382
   6 H :    0.065260
Sum of atomic charges:   -0.0000000

LOEWDIN ATOMIC CHARGES
----------------------
   0 Br:   -0.075246
   1 Br:    0.009216
   2 O :   -0.550462
   3 P :    0.583671
   4 H :    0.010646
   5 H :    0.010647
   6 H :    0.011529

  Mayer bond orders larger than 0.100000
B(  0-Br,  1-Br) :   1.0004 B(  2-O ,  3-P ) :   1.7072 B(  3-P ,  4-H ) :   0.8724
B(  3-P ,  5-H ) :   0.8724 B(  3-P ,  6-H ) :   0.8759

Dispersion correction           -0.002737014
FINAL SINGLE POINT ENERGY     -5563.816336003096

DIPOLE MOMENT
-------------
                                X             Y             Z
Electronic contribution:     25.01338       1.86888       0.00026
Nuclear contribution   :    -26.59436      -3.11694      -0.00010
                        -----------------------------------------
Total Dipole Moment    :     -1.58098      -1.24806       0.00016
                        -----------------------------------------
Magnitude (a.u.)       :      2.01424
Magnitude (Debye)      :      5.11979

Rotational constants in cm-1:     0.464720     0.018544     0.017925
Rotational constants in MHz : 13931.946851   555.945379   537.365302

                             ****ORCA TERMINATED NORMALLY****
TOTAL RUN TIME: 0 days 0 hours 1 minutes 18 seconds 659 msec
