                         Program Version 5.0.3 -  RELEASE  -
|  1> ! PBEh-3c def2/J TightSCF DefGrid3
|  2>
|  3> %maxcore 60000
|  4>
|  5> %pal
|  6> nprocs 4
|  7> end
|  8>
|  9> *xyzfile 0 1 nh3_2.xyz
| 10>
| 11>                          ****END OF INPUT****

CARTESIAN COORDINATES (ANGSTROEM)
---------------------------------
  H     -0.155611    0.718127    0.000000
  H     -0.421026    2.115582    0.813988
  H     -0.255988   -2.122455    0.815316
  H      1.046178   -1.572039    0.000000
  N      0.033104    1.718343    0.000000
  N      0.033104   -1.594392    0.000000
  H     -0.255988   -2.122455   -0.815316
  H     -0.421026    2.115582   -0.813988

 Total Charge           Charge          ....    0
 Multiplicity           Mult            ....    1
 Number of Electrons    NEL             ....   20
 Basis Dimension        Dim             ....   42

ORBITAL ENERGIES
----------------

  NO   OCC          E(Eh)            E(eV)
   0   2.0000     -14.612382      -397.6231
   1   2.0000     -14.565117      -396.3370
   2   2.0000      -0.948343       -25.8057
   3   2.0000      -0.902781       -24.5659
   4   2.0000      -0.525205       -14.2916
   5   2.0000      -0.525185       -14.2910
   6   2.0000      -0.483465       -13.1557
   7   2.0000      -0.480067       -13.0633
   8   2.0000      -0.322288        -8.7699
   9   2.0000      -0.276654        -7.5281
  10   0.0000       0.127937         3.4813
  11   0.0000       0.178136         4.8473
  12   0.0000       0.214216         5.8291
  13   0.0000       0.217569         5.9204
  14   0.0000       0.246876         6.7178

MULLIKEN ATOMIC CHARGES
-----------------------
   0 H :    0.353507
   1 H :    0.300369
   2 H :    0.324678
   3 H :    0.331911
   4 N :   -0.983848
   5 N :   -0.951662
   6 H :    0.324678
   7 H :    0.300369
Sum of atomic charges:   -0.0000000

LOEWDIN ATOMIC CHARGES
----------------------
   0 H :    0.224517
   1 H :    0.209049
   2 H :    0.221508
   3 H :    0.226149
   4 N :   -0.673568
   5 N :   -0.638213
   6 H :    0.221508
   7 H :    0.209049

  Mayer bond orders larger than 0.100000
B(  0-H ,  4-N ) :   0.8210 B(  1-H ,  4-N ) :   0.8883 B(  2-H ,  5-N ) :   0.8734
B(  3-H ,  5-N ) :   0.8691 B(  4-N ,  7-H ) :   0.8883 B(  5-N ,  6-H ) :   0.8734

Dispersion correction           -0.001410983
FINAL SINGLE POINT ENERGY      -112.863320748262

DIPOLE MOMENT
-------------
                                X             Y             Z
Electronic contribution:      0.09500      -0.08973      -0.00000
Nuclear contribution   :     -0.51065      -0.95600       0.00000
                        -----------------------------------------
Total Dipole Moment    :     -0.41564      -1.04573      -0.00000
                        -----------------------------------------
Magnitude (a.u.)       :      1.12531
Magnitude (Debye)      :      2.86030

Rotational constants in cm-1:     3.960424     0.169082     0.167245
Rotational constants in MHz : 118730.534351  5068.955887  5013.878431

                             ****ORCA TERMINATED NORMALLY****
TOTAL RUN TIME: 0 days 0 hours 0 minutes 54 seconds 19 msec
