                         Program Version 5.0.3 -  RELEASE  -
|  1> ! PBEh-3c def2/J TightSCF DefGrid3
|  2>
|  3> %maxcore 60000
|  4>
|  5> %pal
|  6> nprocs 4
|  7> end
|  8>
|  9> *xyzfile 0 3 S2.xyz
| 10>
| 11>                          ****END OF INPUT****

CARTESIAN COORDINATES (ANGSTROEM)
---------------------------------
  S      0.000000    0.000000   -0.954007
  S      0.000000    0.000000    0.954007

 Total Charge           Charge          ....    0
 Multiplicity           Mult            ....    3
 Number of Electrons    NEL             ....   32
 Basis Dimension        Dim             ....   36

ORBITAL ENERGIES
----------------
                 SPIN UP ORBITALS
  NO   OCC          E(Eh)            E(eV)
   0   1.0000     -89.642087     -2439.2852
   1   1.0000     -89.641969     -2439.2820
   2   1.0000      -8.281101      -225.3402
   3   1.0000      -8.280969      -225.3366
   4   1.0000      -6.170598      -167.9105
   5   1.0000      -6.170598      -167.9105
   6   1.0000      -6.170562      -167.9095
   7   1.0000      -6.170562      -167.9095
   8   1.0000      -6.168883      -167.8638
   9   1.0000      -6.168196      -167.8452
  10   1.0000      -0.933888       -25.4124
  11   1.0000      -0.709641       -19.3103
  12   1.0000      -0.452621       -12.3164
  13   1.0000      -0.437090       -11.8938
  14   1.0000      -0.437090       -11.8938
  15   1.0000      -0.295918        -8.0523
  16   1.0000      -0.295918        -8.0523
  17   0.0000       0.033211         0.9037
  18   0.0000       0.298729         8.1288
  19   0.0000       0.437766        11.9122
  20   0.0000       0.484013        13.1707
  21   0.0000       0.498413        13.5625

                 SPIN DOWN ORBITALS
  NO   OCC          E(Eh)            E(eV)
   0   1.0000     -89.634849     -2439.0883
   1   1.0000     -89.634733     -2439.0851
   2   1.0000      -8.273878      -225.1437
   3   1.0000      -8.273697      -225.1387
   4   1.0000      -6.165007      -167.7584
   5   1.0000      -6.164295      -167.7390
   6   1.0000      -6.155068      -167.4879
   7   1.0000      -6.155068      -167.4879
   8   1.0000      -6.155017      -167.4865
   9   1.0000      -6.155017      -167.4865
  10   1.0000      -0.895688       -24.3729
  11   1.0000      -0.635091       -17.2817
  12   1.0000      -0.424249       -11.5444
  13   1.0000      -0.366270        -9.9667
  14   1.0000      -0.366270        -9.9667
  15   0.0000      -0.112446        -3.0598
  16   0.0000      -0.112446        -3.0598
  17   0.0000       0.058002         1.5783
  18   0.0000       0.309612         8.4250
  19   0.0000       0.462053        12.5731

MULLIKEN ATOMIC CHARGES AND SPIN POPULATIONS
--------------------------------------------
   0 S :    0.000000    1.000000
   1 S :   -0.000000    1.000000
Sum of atomic charges         :   -0.0000000

LOEWDIN ATOMIC CHARGES AND SPIN POPULATIONS
-------------------------------------------
   0 S :    0.000000    1.000000
   1 S :   -0.000000    1.000000

  Mayer bond orders larger than 0.100000
B(  0-S ,  1-S ) :   1.9946

Dispersion correction           -0.000533192
FINAL SINGLE POINT ENERGY      -795.463251376884

DIPOLE MOMENT
-------------
                                X             Y             Z
Electronic contribution:      0.00000      -0.00000      -0.00000
Nuclear contribution   :      0.00000       0.00000       0.00000
                        -----------------------------------------
Total Dipole Moment    :      0.00000      -0.00000      -0.00000
                        -----------------------------------------
Magnitude (a.u.)       :      0.00000
Magnitude (Debye)      :      0.00000

Rotational constants in cm-1:     0.000000     0.288868     0.288868
Rotational constants in MHz :     0.000000  8660.054066  8660.054066

                             ****ORCA TERMINATED NORMALLY****
TOTAL RUN TIME: 0 days 0 hours 1 minutes 2 seconds 345 msec
