                         Program Version 5.0.3 -  RELEASE  -
|  1> ! PBEh-3c def2/J TightSCF DefGrid3
|  2>
|  3> %maxcore 60000
|  4>
|  5> %pal
|  6> nprocs 4
|  7> end
|  8>
|  9> *xyzfile 0 2 RKT09.xyz
| 10>
| 11>                          ****END OF INPUT****

CARTESIAN COORDINATES (ANGSTROEM)
---------------------------------
  C      1.125086   -0.541098   -0.012668
  C      0.136176    0.602691   -0.065639
  O     -2.186283   -0.409392   -0.091201
  H      0.968518   -1.155813    0.872589
  H      1.033337   -1.180922   -0.889264
  H      2.149002   -0.161612    0.019004
  H      0.137822    1.230713    0.822889
  H      0.200275    1.208763   -0.966704
  H     -0.963481    0.113083   -0.116611
  H     -2.600454    0.293588    0.427605

 Total Charge           Charge          ....    0
 Multiplicity           Mult            ....    2
 Number of Electrons    NEL             ....   27
 Basis Dimension        Dim             ....   59

ORBITAL ENERGIES
----------------
                 SPIN UP ORBITALS
  NO   OCC          E(Eh)            E(eV)
   0   1.0000     -19.511039      -530.9224
   1   1.0000     -10.449638      -284.3491
   2   1.0000     -10.431451      -283.8542
   3   1.0000      -1.095706       -29.8157
   4   1.0000      -0.857403       -23.3311
   5   1.0000      -0.705702       -19.2031
   6   1.0000      -0.555002       -15.1024
   7   1.0000      -0.510921       -13.9029
   8   1.0000      -0.492795       -13.4096
   9   1.0000      -0.460850       -12.5404
  10   1.0000      -0.434811       -11.8318
  11   1.0000      -0.409122       -11.1328
  12   1.0000      -0.368141       -10.0176
  13   1.0000      -0.323104        -8.7921
  14   0.0000       0.141239         3.8433
  15   0.0000       0.162859         4.4316
  16   0.0000       0.195420         5.3177
  17   0.0000       0.207726         5.6525
  18   0.0000       0.214224         5.8293

                 SPIN DOWN ORBITALS
  NO   OCC          E(Eh)            E(eV)
   0   1.0000     -19.489784      -530.3440
   1   1.0000     -10.441446      -284.1262
   2   1.0000     -10.431682      -283.8605
   3   1.0000      -1.033618       -28.1262
   4   1.0000      -0.844601       -22.9828
   5   1.0000      -0.690860       -18.7993
   6   1.0000      -0.516806       -14.0630
   7   1.0000      -0.506071       -13.7709
   8   1.0000      -0.469344       -12.7715
   9   1.0000      -0.434471       -11.8225
  10   1.0000      -0.406565       -11.0632
  11   1.0000      -0.394861       -10.7447
  12   1.0000      -0.345400        -9.3988
  13   0.0000      -0.081467        -2.2168
  14   0.0000       0.147756         4.0206
  15   0.0000       0.167155         4.5485
  16   0.0000       0.201663         5.4875
  17   0.0000       0.209941         5.7128

MULLIKEN ATOMIC CHARGES AND SPIN POPULATIONS
--------------------------------------------
   0 C :   -0.631847   -0.021234
   1 C :   -0.646996    0.433626
   2 O :   -0.579148    0.712920
   3 H :    0.227878    0.003558
   4 H :    0.230406    0.003292
   5 H :    0.221235    0.023077
   6 H :    0.223171   -0.014833
   7 H :    0.234732   -0.012102
   8 H :    0.312006   -0.105697
   9 H :    0.408563   -0.022606
Sum of atomic charges         :    0.0000000

LOEWDIN ATOMIC CHARGES AND SPIN POPULATIONS
-------------------------------------------
   0 C :   -0.366848   -0.004564
   1 C :   -0.336610    0.359877
   2 O :   -0.456371    0.692920
   3 H :    0.133372    0.003177
   4 H :    0.134508    0.003022
   5 H :    0.131569    0.019850
   6 H :    0.127710   -0.007934
   7 H :    0.133460   -0.006507
   8 H :    0.206914   -0.042410
   9 H :    0.292296   -0.017431

  Mayer bond orders larger than 0.100000
B(  0-C ,  1-C ) :   0.9969 B(  0-C ,  3-H ) :   0.9251 B(  0-C ,  4-H ) :   0.9242
B(  0-C ,  5-H ) :   0.9180 B(  1-C ,  2-O ) :   0.1884 B(  1-C ,  6-H ) :   0.9156
B(  1-C ,  7-H ) :   0.9128 B(  1-C ,  8-H ) :   0.5764 B(  2-O ,  8-H ) :   0.3153
B(  2-O ,  9-H ) :   0.8098

Dispersion correction           -0.002726352
FINAL SINGLE POINT ENERGY      -155.215204781458

DIPOLE MOMENT
-------------
                                X             Y             Z
Electronic contribution:     -3.20802      -0.47191      -0.12923
Nuclear contribution   :      3.47755       1.08356       0.46930
                        -----------------------------------------
Total Dipole Moment    :      0.26953       0.61165       0.34007
                        -----------------------------------------
Magnitude (a.u.)       :      0.74994
Magnitude (Debye)      :      1.90620

Rotational constants in cm-1:     0.878778     0.164700     0.147078
Rotational constants in MHz : 26345.105617  4937.571059  4409.277776

                             ****ORCA TERMINATED NORMALLY****
TOTAL RUN TIME: 0 days 0 hours 1 minutes 45 seconds 705 msec
