                         Program Version 5.0.3 -  RELEASE  -
|  1> ! PBEh-3c def2/J TightSCF DefGrid3
|  2>
|  3> %maxcore 60000
|  4>
|  5> %pal
|  6> nprocs 4
|  7> end
|  8>
|  9> *xyzfile -1 1 14.xyz
| 10>
| 11>                          ****END OF INPUT****

CARTESIAN COORDINATES (ANGSTROEM)
---------------------------------
  N     -1.733291    3.591493    0.140639
  N     -1.211038    2.505713    0.118068
  N     -2.254876    4.673096    0.159832
  S      0.238220   -0.327599    0.223863
  H      1.455008    0.223438    0.256873
  H     -0.390937    0.893868    0.177922

 Total Charge           Charge          ....   -1
 Multiplicity           Mult            ....    1
 Number of Electrons    NEL             ....   40
 Basis Dimension        Dim             ....   67

ORBITAL ENERGIES
----------------

  NO   OCC          E(Eh)            E(eV)
   0   2.0000     -89.414232     -2433.0849
   1   2.0000     -14.559621      -396.1874
   2   2.0000     -14.409338      -392.0980
   3   2.0000     -14.408626      -392.0786
   4   2.0000      -8.058052      -219.2707
   5   2.0000      -5.948840      -161.8762
   6   2.0000      -5.945557      -161.7868
   7   2.0000      -5.941036      -161.6638
   8   2.0000      -0.954980       -25.9863
   9   2.0000      -0.771246       -20.9867
  10   2.0000      -0.656289       -17.8585
  11   2.0000      -0.355814        -9.6822
  12   2.0000      -0.296538        -8.0692
  13   2.0000      -0.296129        -8.0581
  14   2.0000      -0.293688        -7.9917
  15   2.0000      -0.254888        -6.9359
  16   2.0000      -0.209175        -5.6920
  17   2.0000      -0.147298        -4.0082
  18   2.0000      -0.038500        -1.0476
  19   2.0000      -0.038090        -1.0365
  20   0.0000       0.225279         6.1301
  21   0.0000       0.304253         8.2791
  22   0.0000       0.307060         8.3555
  23   0.0000       0.310944         8.4612
  24   0.0000       0.557690        15.1755

MULLIKEN ATOMIC CHARGES
-----------------------
   0 N :    0.176782
   1 N :   -0.559094
   2 N :   -0.512895
   3 S :   -0.523443
   4 H :    0.148068
   5 H :    0.270581
Sum of atomic charges:   -1.0000000

LOEWDIN ATOMIC CHARGES
----------------------
   0 N :    0.107802
   1 N :   -0.534819
   2 N :   -0.484680
   3 S :   -0.345646
   4 H :    0.080676
   5 H :    0.176667

  Mayer bond orders larger than 0.100000
B(  0-N ,  1-N ) :   1.9797 B(  0-N ,  2-N ) :   2.2829 B(  1-N ,  2-N ) :   0.6124
B(  1-N ,  5-H ) :   0.1316 B(  3-S ,  4-H ) :   0.9444 B(  3-S ,  5-H ) :   0.8082

Dispersion correction           -0.001736670
FINAL SINGLE POINT ENERGY      -562.796365776779

DIPOLE MOMENT
-------------
                                X             Y             Z
Electronic contribution:     -1.21331       0.58706      -0.02689
Nuclear contribution   :      2.53320      -2.34847       0.07361
                        -----------------------------------------
Total Dipole Moment    :      1.31989      -1.76141       0.04672
                        -----------------------------------------
Magnitude (a.u.)       :      2.20156
Magnitude (Debye)      :      5.59593

Rotational constants in cm-1:     9.274934     0.042350     0.042168
Rotational constants in MHz : 278055.515690  1269.631360  1264.157896

                             ****ORCA TERMINATED NORMALLY****
TOTAL RUN TIME: 0 days 0 hours 0 minutes 56 seconds 790 msec
