                         Program Version 5.0.3 -  RELEASE  -
|  1> ! PBEh-3c def2/J TightSCF DefGrid3
|  2>
|  3> %maxcore 60000
|  4>
|  5> %pal
|  6> nprocs 4
|  7> end
|  8>
|  9> *xyzfile 0 1 reac3.xyz
| 10>
| 11>                          ****END OF INPUT****

CARTESIAN COORDINATES (ANGSTROEM)
---------------------------------
  C      0.000000    0.441567    0.000000
  H     -0.160761    1.511265    0.000000
  O     -1.190786   -0.218672    0.000000
  C      1.211912   -0.100389    0.000000
  H      1.366272   -1.172267    0.000000
  H      2.084631    0.533570    0.000000
  H     -1.035326   -1.170266    0.000000

 Total Charge           Charge          ....    0
 Multiplicity           Mult            ....    1
 Number of Electrons    NEL             ....   24
 Basis Dimension        Dim             ....   53

ORBITAL ENERGIES
----------------

  NO   OCC          E(Eh)            E(eV)
   0   2.0000     -19.524000      -531.2750
   1   2.0000     -10.502951      -285.7998
   2   2.0000     -10.424842      -283.6744
   3   2.0000      -1.167588       -31.7717
   4   2.0000      -0.840124       -22.8609
   5   2.0000      -0.694193       -18.8900
   6   2.0000      -0.560325       -15.2472
   7   2.0000      -0.546976       -14.8840
   8   2.0000      -0.453248       -12.3335
   9   2.0000      -0.440311       -11.9815
  10   2.0000      -0.427843       -11.6422
  11   2.0000      -0.279464        -7.6046
  12   0.0000       0.065644         1.7863
  13   0.0000       0.126280         3.4363
  14   0.0000       0.181122         4.9286
  15   0.0000       0.193135         5.2555
  16   0.0000       0.238834         6.4990

MULLIKEN ATOMIC CHARGES
-----------------------
   0 C :    0.092105
   1 H :    0.233427
   2 O :   -0.588076
   3 C :   -0.597559
   4 H :    0.209956
   5 H :    0.224083
   6 H :    0.426064
Sum of atomic charges:    0.0000000

LOEWDIN ATOMIC CHARGES
----------------------
   0 C :   -0.016876
   1 H :    0.130355
   2 O :   -0.324609
   3 C :   -0.382916
   4 H :    0.127833
   5 H :    0.143436
   6 H :    0.322776

  Mayer bond orders larger than 0.100000
B(  0-C ,  1-H ) :   0.9134 B(  0-C ,  2-O ) :   1.1069 B(  0-C ,  3-C ) :   1.8414
B(  2-O ,  6-H ) :   0.7800 B(  3-C ,  4-H ) :   0.9313 B(  3-C ,  5-H ) :   0.9231

Dispersion correction           -0.001801611
FINAL SINGLE POINT ENERGY      -153.474459663829

DIPOLE MOMENT
-------------
                                X             Y             Z
Electronic contribution:     -2.08261      -0.03404      -0.00000
Nuclear contribution   :      2.28786      -0.30812       0.00000
                        -----------------------------------------
Total Dipole Moment    :      0.20524      -0.34216      -0.00000
                        -----------------------------------------
Magnitude (a.u.)       :      0.39900
Magnitude (Debye)      :      1.01417

Rotational constants in cm-1:     2.026273     0.352340     0.300148
Rotational constants in MHz : 60746.122585 10562.884227  8998.221807

                             ****ORCA TERMINATED NORMALLY****
TOTAL RUN TIME: 0 days 0 hours 1 minutes 7 seconds 738 msec
