                         Program Version 5.0.3 -  RELEASE  -
|  1> ! PBEh-3c def2/J TightSCF DefGrid3
|  2>
|  3> %maxcore 60000
|  4>
|  5> %pal
|  6> nprocs 4
|  7> end
|  8>
|  9> *xyzfile 0 1 LYS_xas.xyz
| 10>
| 11>                          ****END OF INPUT****

CARTESIAN COORDINATES (ANGSTROEM)
---------------------------------
  N     -1.403506   -1.206893   -0.331377
  C     -0.502621   -0.287459    0.351696
  C     -0.722939    1.127971   -0.199881
  O      0.022388    1.632066   -1.034816
  C      0.936197   -0.728843    0.170896
  C      1.893255    0.069898    1.048079
  H     -1.069250   -1.677225   -1.155585
  H     -0.783614   -0.307629    1.405784
  H      1.008911   -1.790088    0.420444
  H      1.592949   -0.048178    2.091874
  H      1.799541    1.129216    0.803564
  N     -1.818448    1.736276    0.306887
  H     -2.457005    1.147952    0.828699
  C     -2.265181    3.008537   -0.218849
  H     -2.835640    2.892716   -1.141114
  H     -1.394397    3.620100   -0.434488
  H     -2.883971    3.506113    0.522130
  C     -2.695302   -1.364810    0.046133
  O     -3.189454   -0.734691    0.981603
  C     -3.491213   -2.376528   -0.738002
  H     -4.371696   -1.885431   -1.144734
  H     -3.831399   -3.150278   -0.053759
  H     -2.926988   -2.835485   -1.545792
  H      1.198864   -0.603590   -0.880169
  C      3.347792   -0.361073    0.891258
  H      3.455459   -1.428402    1.094781
  H      3.955252    0.161231    1.635156
  C      3.919570   -0.064698   -0.485944
  H      3.742803    0.992032   -0.720915
  H      3.391794   -0.647351   -1.240605
  N      5.328155   -0.461015   -0.530497
  H      5.709655   -0.273959   -1.449487
  H      5.856936    0.118997    0.110218

 Total Charge           Charge          ....    0
 Multiplicity           Mult            ....    1
 Number of Electrons    NEL             ....  110
 Basis Dimension        Dim             ....  248

ORBITAL ENERGIES
----------------

  NO   OCC          E(Eh)            E(eV)
   0   2.0000     -19.470362      -529.8155
   1   2.0000     -19.453065      -529.3448
   2   2.0000     -14.677803      -399.4033
   3   2.0000     -14.648335      -398.6015
   4   2.0000     -14.601444      -397.3255
   5   2.0000     -10.562705      -287.4258
   6   2.0000     -10.536857      -286.7225
   7   2.0000     -10.488594      -285.4091
   8   2.0000     -10.458434      -284.5885
   9   2.0000     -10.452375      -284.4236
  10   2.0000     -10.447943      -284.3030
  11   2.0000     -10.438776      -284.0535
  12   2.0000     -10.429929      -283.8128
  13   2.0000     -10.424915      -283.6764
  14   2.0000      -1.156524       -31.4706
  15   2.0000      -1.134562       -30.8730
  16   2.0000      -1.038775       -28.2665
  17   2.0000      -1.011154       -27.5149
  18   2.0000      -0.970324       -26.4039
  19   2.0000      -0.900319       -24.4989
  20   2.0000      -0.856646       -23.3105
  21   2.0000      -0.819295       -22.2941
  22   2.0000      -0.791865       -21.5478
  23   2.0000      -0.741979       -20.1903
  24   2.0000      -0.696380       -18.9495
  25   2.0000      -0.674307       -18.3488
  26   2.0000      -0.642553       -17.4847
  27   2.0000      -0.636030       -17.3073
  28   2.0000      -0.601664       -16.3721
  29   2.0000      -0.568884       -15.4801
  30   2.0000      -0.557251       -15.1636
  31   2.0000      -0.545784       -14.8516
  32   2.0000      -0.525473       -14.2989
  33   2.0000      -0.520400       -14.1608
  34   2.0000      -0.511220       -13.9110
  35   2.0000      -0.503490       -13.7006
  36   2.0000      -0.493140       -13.4190
  37   2.0000      -0.488399       -13.2900
  38   2.0000      -0.474578       -12.9139
  39   2.0000      -0.471826       -12.8390
  40   2.0000      -0.462688       -12.5904
  41   2.0000      -0.442265       -12.0346
  42   2.0000      -0.433956       -11.8085
  43   2.0000      -0.429303       -11.6819
  44   2.0000      -0.420200       -11.4342
  45   2.0000      -0.416233       -11.3263
  46   2.0000      -0.408508       -11.1161
  47   2.0000      -0.384901       -10.4737
  48   2.0000      -0.374760       -10.1977
  49   2.0000      -0.366558        -9.9745
  50   2.0000      -0.336441        -9.1550
  51   2.0000      -0.322454        -8.7744
  52   2.0000      -0.297326        -8.0906
  53   2.0000      -0.288862        -7.8603
  54   2.0000      -0.281577        -7.6621
  55   0.0000       0.041936         1.1411
  56   0.0000       0.065345         1.7781
  57   0.0000       0.114300         3.1103
  58   0.0000       0.139692         3.8012
  59   0.0000       0.142723         3.8837

MULLIKEN ATOMIC CHARGES
-----------------------
   0 N :   -0.624461
   1 C :   -0.197747
   2 C :    0.562460
   3 O :   -0.440975
   4 C :   -0.440759
   5 C :   -0.436528
   6 H :    0.365110
   7 H :    0.262252
   8 H :    0.221148
   9 H :    0.211669
  10 H :    0.240720
  11 N :   -0.645453
  12 H :    0.402104
  13 C :   -0.491627
  14 H :    0.218486
  15 H :    0.249857
  16 H :    0.220460
  17 C :    0.540649
  18 O :   -0.462802
  19 C :   -0.744177
  20 H :    0.260836
  21 H :    0.263887
  22 H :    0.216434
  23 H :    0.237030
  24 C :   -0.422467
  25 H :    0.219547
  26 H :    0.206198
  27 C :   -0.270065
  28 H :    0.189908
  29 H :    0.205378
  30 N :   -0.741446
  31 H :    0.316454
  32 H :    0.307921
Sum of atomic charges:    0.0000000

LOEWDIN ATOMIC CHARGES
----------------------
   0 N :   -0.211564
   1 C :   -0.092610
   2 C :    0.101511
   3 O :   -0.285088
   4 C :   -0.238216
   5 C :   -0.239765
   6 H :    0.260869
   7 H :    0.145501
   8 H :    0.126921
   9 H :    0.122445
  10 H :    0.135854
  11 N :   -0.247406
  12 H :    0.267002
  13 C :   -0.254525
  14 H :    0.119537
  15 H :    0.143483
  16 H :    0.125817
  17 C :    0.113525
  18 O :   -0.302677
  19 C :   -0.384053
  20 H :    0.158313
  21 H :    0.160664
  22 H :    0.129380
  23 H :    0.136367
  24 C :   -0.244941
  25 H :    0.126779
  26 H :    0.120007
  27 C :   -0.164989
  28 H :    0.096904
  29 H :    0.114325
  30 N :   -0.476503
  31 H :    0.219955
  32 H :    0.217181

  Mayer bond orders larger than 0.100000
B(  0-N ,  1-C ) :   0.9126 B(  0-N ,  6-H ) :   0.8198 B(  0-N , 17-C ) :   1.1732
B(  1-C ,  2-C ) :   0.8702 B(  1-C ,  4-C ) :   0.9941 B(  1-C ,  7-H ) :   0.8815
B(  2-C ,  3-O ) :   1.9505 B(  2-C , 11-N ) :   1.1784 B(  4-C ,  5-C ) :   0.9807
B(  4-C ,  8-H ) :   0.9139 B(  4-C , 23-H ) :   0.8931 B(  5-C ,  9-H ) :   0.9214
B(  5-C , 10-H ) :   0.8995 B(  5-C , 24-C ) :   0.9861 B( 11-N , 12-H ) :   0.7457
B( 11-N , 13-C ) :   0.9624 B( 13-C , 14-H ) :   0.9184 B( 13-C , 15-H ) :   0.9100
B( 13-C , 16-H ) :   0.9258 B( 17-C , 18-O ) :   1.8877 B( 17-C , 19-C ) :   0.9324
B( 19-C , 20-H ) :   0.9078 B( 19-C , 21-H ) :   0.9064 B( 19-C , 22-H ) :   0.9214
B( 24-C , 25-H ) :   0.9142 B( 24-C , 26-H ) :   0.9251 B( 24-C , 27-C ) :   0.9795
B( 27-C , 28-H ) :   0.9059 B( 27-C , 29-H ) :   0.9144 B( 27-C , 30-N ) :   1.0295
B( 30-N , 31-H ) :   0.8649 B( 30-N , 32-H ) :   0.8660

Dispersion correction           -0.018971792
FINAL SINGLE POINT ENERGY      -667.700828311114

DIPOLE MOMENT
-------------
                                X             Y             Z
Electronic contribution:     -9.48161       0.77743       0.47556
Nuclear contribution   :      9.16923      -1.22017      -0.88569
                        -----------------------------------------
Total Dipole Moment    :     -0.31238      -0.44274      -0.41014
                        -----------------------------------------
Magnitude (a.u.)       :      0.67957
Magnitude (Debye)      :      1.72732

Rotational constants in cm-1:     0.033290     0.010487     0.008786
Rotational constants in MHz :   998.021130   314.403990   263.400533

                             ****ORCA TERMINATED NORMALLY****
TOTAL RUN TIME: 0 days 0 hours 3 minutes 33 seconds 766 msec
