                         Program Version 5.0.3 -  RELEASE  -
|  1> ! PBEh-3c def2/J TightSCF DefGrid3
|  2>
|  3> %maxcore 60000
|  4>
|  5> %pal
|  6> nprocs 4
|  7> end
|  8>
|  9> *xyzfile 0 1 p2me4.xyz
| 10>
| 11>                          ****END OF INPUT****

CARTESIAN COORDINATES (ANGSTROEM)
---------------------------------
  P     -1.040576    0.349846   -0.903244
  P      1.040576   -0.349846   -0.903244
  C     -1.358763    0.926444    0.819741
  C     -1.885273   -1.287464   -0.851017
  C      1.885273    1.287464   -0.851017
  C      1.358763   -0.926444    0.819741
  H     -0.745579    1.803372    1.035311
  H     -1.165494    0.159343    1.572271
  H     -2.405233    1.231735    0.893269
  H     -1.666970   -1.831691   -1.770868
  H     -1.583535   -1.898065    0.003500
  H     -2.964130   -1.126394   -0.798962
  H      1.666970    1.831691   -1.770868
  H      2.964130    1.126394   -0.798962
  H      1.583535    1.898065    0.003500
  H      0.745579   -1.803372    1.035311
  H      2.405233   -1.231735    0.893269
  H      1.165494   -0.159343    1.572271

 Total Charge           Charge          ....    0
 Multiplicity           Mult            ....    1
 Number of Electrons    NEL             ....   66
 Basis Dimension        Dim             ....  120

ORBITAL ENERGIES
----------------

  NO   OCC          E(Eh)            E(eV)
   0   2.0000     -77.726276     -2115.0395
   1   2.0000     -77.726237     -2115.0384
   2   2.0000     -10.437733      -284.0251
   3   2.0000     -10.437727      -284.0250
   4   2.0000     -10.435800      -283.9725
   5   2.0000     -10.435780      -283.9720
   6   2.0000      -6.799876      -185.0340
   7   2.0000      -6.799810      -185.0322
   8   2.0000      -4.890732      -133.0836
   9   2.0000      -4.890653      -133.0814
  10   2.0000      -4.890363      -133.0735
  11   2.0000      -4.890155      -133.0679
  12   2.0000      -4.888471      -133.0220
  13   2.0000      -4.888419      -133.0206
  14   2.0000      -0.850555       -23.1448
  15   2.0000      -0.817298       -22.2398
  16   2.0000      -0.774552       -21.0766
  17   2.0000      -0.774255       -21.0685
  18   2.0000      -0.650505       -17.7011
  19   2.0000      -0.562056       -15.2943
  20   2.0000      -0.502469       -13.6729
  21   2.0000      -0.492151       -13.3921
  22   2.0000      -0.486450       -13.2370
  23   2.0000      -0.469250       -12.7689
  24   2.0000      -0.466395       -12.6912
  25   2.0000      -0.456784       -12.4297
  26   2.0000      -0.452911       -12.3243
  27   2.0000      -0.447902       -12.1880
  28   2.0000      -0.389809       -10.6072
  29   2.0000      -0.388510       -10.5719
  30   2.0000      -0.353178        -9.6105
  31   2.0000      -0.272291        -7.4094
  32   2.0000      -0.256896        -6.9905
  33   0.0000       0.058730         1.5981
  34   0.0000       0.072660         1.9772
  35   0.0000       0.102703         2.7947
  36   0.0000       0.117913         3.2086
  37   0.0000       0.131183         3.5697

MULLIKEN ATOMIC CHARGES
-----------------------
   0 P :    0.246678
   1 P :    0.246679
   2 C :   -0.857467
   3 C :   -0.847395
   4 C :   -0.847395
   5 C :   -0.857467
   6 H :    0.240783
   7 H :    0.235497
   8 H :    0.250519
   9 H :    0.256135
  10 H :    0.229903
  11 H :    0.245345
  12 H :    0.256135
  13 H :    0.245346
  14 H :    0.229903
  15 H :    0.240783
  16 H :    0.250519
  17 H :    0.235497
Sum of atomic charges:    0.0000000

LOEWDIN ATOMIC CHARGES
----------------------
   0 P :    0.239104
   1 P :    0.239104
   2 C :   -0.531309
   3 C :   -0.528387
   4 C :   -0.528387
   5 C :   -0.531309
   6 H :    0.137629
   7 H :    0.128772
   8 H :    0.142516
   9 H :    0.146276
  10 H :    0.125537
  11 H :    0.139861
  12 H :    0.146276
  13 H :    0.139861
  14 H :    0.125537
  15 H :    0.137629
  16 H :    0.142516
  17 H :    0.128772

  Mayer bond orders larger than 0.100000
B(  0-P ,  1-P ) :   0.9926 B(  0-P ,  2-C ) :   0.9593 B(  0-P ,  3-C ) :   0.9737
B(  1-P ,  4-C ) :   0.9737 B(  1-P ,  5-C ) :   0.9593 B(  2-C ,  6-H ) :   0.9115
B(  2-C ,  7-H ) :   0.8992 B(  2-C ,  8-H ) :   0.9053 B(  3-C ,  9-H ) :   0.9076
B(  3-C , 10-H ) :   0.9021 B(  3-C , 11-H ) :   0.9100 B(  4-C , 12-H ) :   0.9076
B(  4-C , 13-H ) :   0.9100 B(  4-C , 14-H ) :   0.9021 B(  5-C , 15-H ) :   0.9115
B(  5-C , 16-H ) :   0.9053 B(  5-C , 17-H ) :   0.8992

Dispersion correction           -0.010155339
FINAL SINGLE POINT ENERGY      -841.229251850991

DIPOLE MOMENT
-------------
                                X             Y             Z
Electronic contribution:     -0.00000      -0.00000      -6.82300
Nuclear contribution   :      0.00000      -0.00000       7.62042
                        -----------------------------------------
Total Dipole Moment    :     -0.00000      -0.00000       0.79742
                        -----------------------------------------
Magnitude (a.u.)       :      0.79742
Magnitude (Debye)      :      2.02688

Rotational constants in cm-1:     0.100051     0.052990     0.050326
Rotational constants in MHz :  2999.440381  1588.603370  1508.736839

                             ****ORCA TERMINATED NORMALLY****
TOTAL RUN TIME: 0 days 0 hours 1 minutes 46 seconds 155 msec
