                         Program Version 5.0.3 -  RELEASE  -
|  1> ! PBEh-3c def2/J TightSCF DefGrid3
|  2>
|  3> %maxcore 60000
|  4>
|  5> %pal
|  6> nprocs 4
|  7> end
|  8>
|  9> *xyzfile 0 1 E4.xyz
| 10>
| 11>                          ****END OF INPUT****

CARTESIAN COORDINATES (ANGSTROEM)
---------------------------------
  F     -1.708857   -0.276416    0.000000
  C     -0.510142    0.347364    0.000000
  C      0.627318   -0.319095    0.000000
  H     -0.621491    1.424446    0.000000
  H      0.651609   -1.400615    0.000000
  H      1.561563    0.224315    0.000000

 Total Charge           Charge          ....    0
 Multiplicity           Mult            ....    1
 Number of Electrons    NEL             ....   24
 Basis Dimension        Dim             ....   51

ORBITAL ENERGIES
----------------

  NO   OCC          E(Eh)            E(eV)
   0   2.0000     -25.102276      -683.0676
   1   2.0000     -10.532770      -286.6112
   2   2.0000     -10.444121      -284.1990
   3   2.0000      -1.340363       -36.4731
   4   2.0000      -0.864581       -23.5264
   5   2.0000      -0.682914       -18.5830
   6   2.0000      -0.596293       -16.2260
   7   2.0000      -0.550068       -14.9681
   8   2.0000      -0.528081       -14.3698
   9   2.0000      -0.469155       -12.7664
  10   2.0000      -0.437338       -11.9006
  11   2.0000      -0.314744        -8.5646
  12   0.0000       0.044260         1.2044
  13   0.0000       0.154833         4.2132
  14   0.0000       0.179945         4.8965
  15   0.0000       0.198901         5.4124
  16   0.0000       0.295734         8.0473

MULLIKEN ATOMIC CHARGES
-----------------------
   0 F :   -0.309527
   1 C :    0.208714
   2 C :   -0.574552
   3 H :    0.198584
   4 H :    0.243588
   5 H :    0.233192
Sum of atomic charges:    0.0000000

LOEWDIN ATOMIC CHARGES
----------------------
   0 F :   -0.179404
   1 C :    0.081803
   2 C :   -0.322910
   3 H :    0.122792
   4 H :    0.149448
   5 H :    0.148271

  Mayer bond orders larger than 0.100000
B(  0-F ,  1-C ) :   1.0041 B(  1-C ,  2-C ) :   1.8929 B(  1-C ,  3-H ) :   0.9133
B(  2-C ,  4-H ) :   0.9166 B(  2-C ,  5-H ) :   0.9164

Dispersion correction           -0.001356791
FINAL SINGLE POINT ENERGY      -177.455437855079

DIPOLE MOMENT
-------------
                                X             Y             Z
Electronic contribution:     -3.81076      -0.37395      -0.00000
Nuclear contribution   :      4.28429       0.68006       0.00000
                        -----------------------------------------
Total Dipole Moment    :      0.47353       0.30611      -0.00000
                        -----------------------------------------
Magnitude (a.u.)       :      0.56386
Magnitude (Debye)      :      1.43321

Rotational constants in cm-1:     2.182149     0.352927     0.303793
Rotational constants in MHz : 65419.180896 10580.472414  9107.486793

                             ****ORCA TERMINATED NORMALLY****
TOTAL RUN TIME: 0 days 0 hours 1 minutes 5 seconds 547 msec
