                         Program Version 5.0.3 -  RELEASE  -
|  1> ! PBEh-3c def2/J TightSCF DefGrid3
|  2>
|  3> %maxcore 60000
|  4>
|  5> %pal
|  6> nprocs 4
|  7> end
|  8>
|  9> *xyzfile 0 1 h2o.xyz
| 10>
| 11>                          ****END OF INPUT****

CARTESIAN COORDINATES (ANGSTROEM)
---------------------------------
  O      0.000000    0.000000    0.392195
  H     -0.756100    0.000000   -0.196098
  H      0.756100    0.000000   -0.196098

 Total Charge           Charge          ....    0
 Multiplicity           Mult            ....    1
 Number of Electrons    NEL             ....   10
 Basis Dimension        Dim             ....   19

ORBITAL ENERGIES
----------------

  NO   OCC          E(Eh)            E(eV)
   0   2.0000     -19.473968      -529.9136
   1   2.0000      -1.103819       -30.0364
   2   2.0000      -0.582464       -15.8496
   3   2.0000      -0.435175       -11.8417
   4   2.0000      -0.356777        -9.7084
   5   0.0000       0.132191         3.5971
   6   0.0000       0.210249         5.7212
   7   0.0000       0.873651        23.7733
   8   0.0000       0.983642        26.7663
   9   0.0000       0.991543        26.9812

MULLIKEN ATOMIC CHARGES
-----------------------
   0 O :   -0.816981
   1 H :    0.408490
   2 H :    0.408490
Sum of atomic charges:   -0.0000000

LOEWDIN ATOMIC CHARGES
----------------------
   0 O :   -0.596811
   1 H :    0.298405
   2 H :    0.298405

  Mayer bond orders larger than 0.100000
B(  0-O ,  1-H ) :   0.8157 B(  0-O ,  2-H ) :   0.8157

Dispersion correction           -0.000209579
FINAL SINGLE POINT ENERGY       -76.258038088448

DIPOLE MOMENT
-------------
                                X             Y             Z
Electronic contribution:      0.00000       0.00000       0.12896
Nuclear contribution   :      0.00000       0.00000      -0.97934
                        -----------------------------------------
Total Dipole Moment    :      0.00000       0.00000      -0.85038
                        -----------------------------------------
Magnitude (a.u.)       :      0.85038
Magnitude (Debye)      :      2.16151

Rotational constants in cm-1:    27.205734    14.626756     9.512502
Rotational constants in MHz : 815607.372047 438499.108679 285177.623409

                             ****ORCA TERMINATED NORMALLY****
TOTAL RUN TIME: 0 days 0 hours 1 minutes 7 seconds 558 msec
