                         Program Version 5.0.3 -  RELEASE  -
|  1> ! PBEh-3c def2/J TightSCF DefGrid3
|  2>
|  3> %maxcore 60000
|  4>
|  5> %pal
|  6> nprocs 4
|  7> end
|  8>
|  9> *xyzfile 0 1 27B.xyz
| 10>
| 11>                          ****END OF INPUT****

CARTESIAN COORDINATES (ANGSTROEM)
---------------------------------
  C      0.126082    1.509524   -0.769515
  C     -1.111108    0.843145   -0.693732
  C     -1.149486   -0.559886   -0.591416
  C      0.049333   -1.296482   -0.564843
  C      1.286525   -0.630152   -0.641011
  C      1.324883    0.772890   -0.743202
  H      2.213698   -1.202604   -0.651772
  H      2.281760    1.286482   -0.833114
  H      0.155108    2.593266   -0.879642
  H     -2.039677    1.411081   -0.745398
  H     -2.107753   -1.077981   -0.563848
  H      0.018915   -2.384698   -0.516535

 Total Charge           Charge          ....    0
 Multiplicity           Mult            ....    1
 Number of Electrons    NEL             ....   42
 Basis Dimension        Dim             ....  102

ORBITAL ENERGIES
----------------

  NO   OCC          E(Eh)            E(eV)
   0   2.0000     -10.453585      -284.4565
   1   2.0000     -10.453397      -284.4514
   2   2.0000     -10.453396      -284.4514
   3   2.0000     -10.452840      -284.4362
   4   2.0000     -10.452840      -284.4362
   5   2.0000     -10.452637      -284.4307
   6   2.0000      -0.945300       -25.7229
   7   2.0000      -0.831713       -22.6321
   8   2.0000      -0.831709       -22.6319
   9   2.0000      -0.676602       -18.4113
  10   2.0000      -0.676596       -18.4111
  11   2.0000      -0.587197       -15.9784
  12   2.0000      -0.526773       -14.3342
  13   2.0000      -0.504790       -13.7360
  14   2.0000      -0.479825       -13.0567
  15   2.0000      -0.479815       -13.0564
  16   2.0000      -0.416472       -11.3328
  17   2.0000      -0.398291       -10.8381
  18   2.0000      -0.398284       -10.8379
  19   2.0000      -0.290823        -7.9137
  20   2.0000      -0.290822        -7.9137
  21   0.0000       0.015949         0.4340
  22   0.0000       0.015951         0.4340
  23   0.0000       0.138078         3.7573
  24   0.0000       0.188902         5.1403
  25   0.0000       0.199144         5.4190

MULLIKEN ATOMIC CHARGES
-----------------------
   0 C :   -0.220860
   1 C :   -0.220854
   2 C :   -0.220851
   3 C :   -0.220874
   4 C :   -0.220841
   5 C :   -0.220863
   6 H :    0.220855
   7 H :    0.220858
   8 H :    0.220859
   9 H :    0.220854
  10 H :    0.220860
  11 H :    0.220857
Sum of atomic charges:   -0.0000000

LOEWDIN ATOMIC CHARGES
----------------------
   0 C :   -0.136419
   1 C :   -0.136409
   2 C :   -0.136415
   3 C :   -0.136415
   4 C :   -0.136409
   5 C :   -0.136412
   6 H :    0.136416
   7 H :    0.136414
   8 H :    0.136412
   9 H :    0.136413
  10 H :    0.136417
  11 H :    0.136409

  Mayer bond orders larger than 0.100000
B(  0-C ,  1-C ) :   1.4228 B(  0-C ,  5-C ) :   1.4229 B(  0-C ,  8-H ) :   0.9196
B(  1-C ,  2-C ) :   1.4229 B(  1-C ,  9-H ) :   0.9196 B(  2-C ,  3-C ) :   1.4229
B(  2-C , 10-H ) :   0.9196 B(  3-C ,  4-C ) :   1.4228 B(  3-C , 11-H ) :   0.9196
B(  4-C ,  5-C ) :   1.4229 B(  4-C ,  6-H ) :   0.9196 B(  5-C ,  7-H ) :   0.9196

Dispersion correction           -0.005848844
FINAL SINGLE POINT ENERGY      -231.723389281924

DIPOLE MOMENT
-------------
                                X             Y             Z
Electronic contribution:      0.00247       0.00797       0.11021
Nuclear contribution   :     -0.00362      -0.01168      -0.16150
                        -----------------------------------------
Total Dipole Moment    :     -0.00115      -0.00371      -0.05129
                        -----------------------------------------
Magnitude (a.u.)       :      0.05144
Magnitude (Debye)      :      0.13074

Rotational constants in cm-1:     0.186866     0.186858     0.093437
Rotational constants in MHz :  5602.100149  5601.853259  2801.156886

                             ****ORCA TERMINATED NORMALLY****
TOTAL RUN TIME: 0 days 0 hours 0 minutes 48 seconds 402 msec
