                         Program Version 5.0.3 -  RELEASE  -
|  1> ! PBEh-3c def2/J TightSCF DefGrid3
|  2>
|  3> %maxcore 60000
|  4>
|  5> %pal
|  6> nprocs 4
|  7> end
|  8>
|  9> *xyzfile 1 2 10e.xyz
| 10>
| 11>                          ****END OF INPUT****

CARTESIAN COORDINATES (ANGSTROEM)
---------------------------------
  N      0.000000    0.000000   -1.433074
  C      1.193027    0.000000   -0.911987
  C      1.208299    0.000000    0.483124
  C      0.000000    0.000000    1.164612
  C     -1.208299    0.000000    0.483124
  C     -1.193027    0.000000   -0.911987
  H      2.071221    0.000000   -1.549949
  H      2.166605    0.000000    0.988564
  H      0.000000    0.000000    2.248958
  H     -2.166605    0.000000    0.988564
  H     -2.071221    0.000000   -1.549949

 Total Charge           Charge          ....    1
 Multiplicity           Mult            ....    2
 Number of Electrons    NEL             ....   41
 Basis Dimension        Dim             ....  100

ORBITAL ENERGIES
----------------
                 SPIN UP ORBITALS
  NO   OCC          E(Eh)            E(eV)
   0   1.0000     -14.986990      -407.8167
   1   1.0000     -10.736645      -292.1590
   2   1.0000     -10.736605      -292.1579
   3   1.0000     -10.688807      -290.8572
   4   1.0000     -10.688756      -290.8558
   5   1.0000     -10.685080      -290.7558
   6   1.0000      -1.363065       -37.0909
   7   1.0000      -1.133050       -30.8319
   8   1.0000      -1.122888       -30.5553
   9   1.0000      -0.970086       -26.3974
  10   1.0000      -0.940244       -25.5853
  11   1.0000      -0.857627       -23.3372
  12   1.0000      -0.803380       -21.8611
  13   1.0000      -0.759790       -20.6749
  14   1.0000      -0.740334       -20.1455
  15   1.0000      -0.738444       -20.0941
  16   1.0000      -0.711077       -19.3494
  17   1.0000      -0.661291       -17.9946
  18   1.0000      -0.605201       -16.4684
  19   1.0000      -0.571811       -15.5598
  20   1.0000      -0.537726       -14.6323
  21   0.0000      -0.238726        -6.4961
  22   0.0000      -0.218422        -5.9436
  23   0.0000      -0.044447        -1.2095
  24   0.0000      -0.042060        -1.1445
  25   0.0000      -0.004222        -0.1149

                 SPIN DOWN ORBITALS
  NO   OCC          E(Eh)            E(eV)
   0   1.0000     -14.963767      -407.1848
   1   1.0000     -10.737207      -292.1742
   2   1.0000     -10.737162      -292.1730
   3   1.0000     -10.686700      -290.7999
   4   1.0000     -10.686344      -290.7902
   5   1.0000     -10.685840      -290.7765
   6   1.0000      -1.323937       -36.0262
   7   1.0000      -1.120258       -30.4838
   8   1.0000      -1.114889       -30.3377
   9   1.0000      -0.958982       -26.0952
  10   1.0000      -0.925240       -25.1771
  11   1.0000      -0.826339       -22.4858
  12   1.0000      -0.793923       -21.6037
  13   1.0000      -0.750788       -20.4300
  14   1.0000      -0.727401       -19.7936
  15   1.0000      -0.721279       -19.6270
  16   1.0000      -0.669310       -18.2128
  17   1.0000      -0.656868       -17.8743
  18   1.0000      -0.563776       -15.3411
  19   1.0000      -0.538372       -14.6499
  20   0.0000      -0.359936        -9.7944
  21   0.0000      -0.230228        -6.2648
  22   0.0000      -0.218824        -5.9545
  23   0.0000      -0.039680        -1.0797
  24   0.0000      -0.036893        -1.0039

MULLIKEN ATOMIC CHARGES AND SPIN POPULATIONS
--------------------------------------------
   0 N :   -0.148972    0.903086
   1 C :    0.057715   -0.075727
   2 C :   -0.322477    0.109285
   3 C :   -0.060375   -0.067918
   4 C :   -0.322476    0.109285
   5 C :    0.057715   -0.075727
   6 H :    0.372368    0.035192
   7 H :    0.333982    0.010429
   8 H :    0.326168    0.006474
   9 H :    0.333982    0.010429
  10 H :    0.372368    0.035192
Sum of atomic charges         :    1.0000000

LOEWDIN ATOMIC CHARGES AND SPIN POPULATIONS
-------------------------------------------
   0 N :    0.215486    0.829081
   1 C :    0.001535   -0.013838
   2 C :   -0.085018    0.085831
   3 C :   -0.039590   -0.048888
   4 C :   -0.085018    0.085831
   5 C :    0.001535   -0.013838
   6 H :    0.206867    0.027198
   7 H :    0.193612    0.007898
   8 H :    0.190110    0.005629
   9 H :    0.193612    0.007898
  10 H :    0.206867    0.027198

  Mayer bond orders larger than 0.100000
B(  0-N ,  1-C ) :   1.3245 B(  0-N ,  5-C ) :   1.3245 B(  1-C ,  2-C ) :   1.3426
B(  1-C ,  6-H ) :   0.8307 B(  2-C ,  3-C ) :   1.3804 B(  2-C ,  7-H ) :   0.8673
B(  3-C ,  4-C ) :   1.3804 B(  3-C ,  8-H ) :   0.8760 B(  4-C ,  5-C ) :   1.3426
B(  4-C ,  9-H ) :   0.8673 B(  5-C , 10-H ) :   0.8307

Dispersion correction           -0.005320626
FINAL SINGLE POINT ENERGY      -247.392708135307

DIPOLE MOMENT
-------------
                                X             Y             Z
Electronic contribution:     -0.00000      -0.00000      -2.08788
Nuclear contribution   :      0.00000       0.00000       1.95420
                        -----------------------------------------
Total Dipole Moment    :     -0.00000      -0.00000      -0.13368
                        -----------------------------------------
Magnitude (a.u.)       :      0.13368
Magnitude (Debye)      :      0.33980

Rotational constants in cm-1:     0.211741     0.192935     0.100951
Rotational constants in MHz :  6347.847436  5784.051386  3026.424494

                             ****ORCA TERMINATED NORMALLY****
TOTAL RUN TIME: 0 days 0 hours 3 minutes 6 seconds 915 msec
