                         Program Version 5.0.3 -  RELEASE  -
|  1> ! PBEh-3c def2/J TightSCF DefGrid3
|  2>
|  3> %maxcore 60000
|  4>
|  5> %pal
|  6> nprocs 4
|  7> end
|  8>
|  9> *xyzfile 0 1 SER_aL.xyz
| 10>
| 11>                          ****END OF INPUT****

CARTESIAN COORDINATES (ANGSTROEM)
---------------------------------
  H      2.256606    2.823006   -2.892914
  C      2.993531    2.671409   -2.100946
  H      3.225363    3.652942   -1.674687
  H      3.907543    2.252734   -2.528746
  C      2.377679    1.800680   -1.020761
  O      1.204650    1.928514   -0.674599
  N      3.201992    0.849960   -0.478978
  H      4.182218    0.915252   -0.714478
  C      2.888288    0.162203    0.785168
  H      3.637518   -0.633618    0.882394
  C      2.963328    1.085028    2.002418
  H      2.233800    1.891366    1.910319
  H      2.733675    0.526324    2.911077
  H      3.966018    1.513176    2.089966
  C      1.514588   -0.541642    0.700233
  O      0.692130   -0.458483    1.604753
  N      1.313014   -1.275639   -0.426915
  H      2.096820   -1.406680   -1.048672
  C      0.141035   -2.131361   -0.619464
  H      0.199249   -2.491462   -1.652992
  C      0.144463   -3.349248    0.299943
  H      0.145930   -3.017606    1.344877
  H     -0.776012   -3.916355    0.123982
  O      1.314543   -4.101359   -0.029051
  H      1.335716   -4.873798    0.548333
  C     -1.179918   -1.336235   -0.485491
  O     -2.150588   -1.817262    0.083204
  N     -1.203762   -0.160785   -1.178016
  H     -0.307561    0.250450   -1.408179
  C     -2.361713    0.744543   -1.163994
  H     -2.019555    1.648462   -1.681998
  C     -3.561091    0.161941   -1.910820
  H     -3.902863   -0.749983   -1.419811
  H     -4.383012    0.879903   -1.905505
  H     -3.282258   -0.064403   -2.944919
  C     -2.762156    1.200002    0.266236
  O     -3.936882    1.279770    0.603401
  N     -1.720730    1.617471    1.039060
  H     -0.780650    1.395595    0.738377
  C     -1.902427    1.979543    2.431773
  H     -1.449344    1.233336    3.094027
  H     -1.454994    2.957556    2.642464
  H     -2.974371    2.028896    2.624628

 Total Charge           Charge          ....    0
 Multiplicity           Mult            ....    1
 Number of Electrons    NEL             ....  162
 Basis Dimension        Dim             ....  359

ORBITAL ENERGIES
----------------

  NO   OCC          E(Eh)            E(eV)
   0   2.0000     -19.494322      -530.4675
   1   2.0000     -19.493394      -530.4422
   2   2.0000     -19.477836      -530.0189
   3   2.0000     -19.454201      -529.3757
   4   2.0000     -19.428246      -528.6695
   5   2.0000     -14.699427      -399.9917
   6   2.0000     -14.678681      -399.4272
   7   2.0000     -14.651703      -398.6931
   8   2.0000     -14.627137      -398.0246
   9   2.0000     -10.585707      -288.0517
  10   2.0000     -10.567488      -287.5560
  11   2.0000     -10.544514      -286.9308
  12   2.0000     -10.521072      -286.2929
  13   2.0000     -10.517911      -286.2069
  14   2.0000     -10.497812      -285.6600
  15   2.0000     -10.482385      -285.2402
  16   2.0000     -10.475861      -285.0627
  17   2.0000     -10.471928      -284.9557
  18   2.0000     -10.446422      -284.2616
  19   2.0000     -10.437074      -284.0072
  20   2.0000     -10.403798      -283.1017
  21   2.0000      -1.176524       -32.0149
  22   2.0000      -1.159856       -31.5613
  23   2.0000      -1.136584       -30.9280
  24   2.0000      -1.126653       -30.6578
  25   2.0000      -1.109979       -30.2041
  26   2.0000      -1.058048       -28.7909
  27   2.0000      -1.036700       -28.2100
  28   2.0000      -1.011457       -27.5231
  29   2.0000      -0.982488       -26.7349
  30   2.0000      -0.895228       -24.3604
  31   2.0000      -0.858997       -23.3745
  32   2.0000      -0.838609       -22.8197
  33   2.0000      -0.829185       -22.5633
  34   2.0000      -0.763956       -20.7883
  35   2.0000      -0.755686       -20.5633
  36   2.0000      -0.725675       -19.7466
  37   2.0000      -0.704569       -19.1723
  38   2.0000      -0.681621       -18.5478
  39   2.0000      -0.664521       -18.0825
  40   2.0000      -0.638602       -17.3772
  41   2.0000      -0.616037       -16.7632
  42   2.0000      -0.610226       -16.6051
  43   2.0000      -0.604404       -16.4467
  44   2.0000      -0.593001       -16.1364
  45   2.0000      -0.570697       -15.5294
  46   2.0000      -0.564405       -15.3582
  47   2.0000      -0.547625       -14.9016
  48   2.0000      -0.538823       -14.6621
  49   2.0000      -0.533461       -14.5162
  50   2.0000      -0.521143       -14.1810
  51   2.0000      -0.509090       -13.8530
  52   2.0000      -0.499051       -13.5799
  53   2.0000      -0.495361       -13.4795
  54   2.0000      -0.492178       -13.3928
  55   2.0000      -0.486857       -13.2480
  56   2.0000      -0.480232       -13.0678
  57   2.0000      -0.475389       -12.9360
  58   2.0000      -0.471023       -12.8172
  59   2.0000      -0.462655       -12.5895
  60   2.0000      -0.455777       -12.4023
  61   2.0000      -0.453363       -12.3366
  62   2.0000      -0.446583       -12.1521
  63   2.0000      -0.438502       -11.9322
  64   2.0000      -0.433595       -11.7987
  65   2.0000      -0.428240       -11.6530
  66   2.0000      -0.417320       -11.3558
  67   2.0000      -0.407995       -11.1021
  68   2.0000      -0.405924       -11.0458
  69   2.0000      -0.401879       -10.9357
  70   2.0000      -0.392834       -10.6896
  71   2.0000      -0.386111       -10.5066
  72   2.0000      -0.352457        -9.5908
  73   2.0000      -0.341459        -9.2916
  74   2.0000      -0.335605        -9.1323
  75   2.0000      -0.331261        -9.0141
  76   2.0000      -0.317442        -8.6380
  77   2.0000      -0.312422        -8.5014
  78   2.0000      -0.293987        -7.9998
  79   2.0000      -0.268923        -7.3178
  80   2.0000      -0.268643        -7.3102
  81   0.0000       0.019868         0.5406
  82   0.0000       0.033074         0.9000
  83   0.0000       0.056644         1.5414
  84   0.0000       0.085714         2.3324
  85   0.0000       0.092164         2.5079

MULLIKEN ATOMIC CHARGES
-----------------------
   0 H :    0.269887
   1 C :   -0.752165
   2 H :    0.264830
   3 H :    0.222221
   4 C :    0.541680
   5 O :   -0.443452
   6 N :   -0.636060
   7 H :    0.361993
   8 C :   -0.223230
   9 H :    0.258591
  10 C :   -0.628682
  11 H :    0.252815
  12 H :    0.252498
  13 H :    0.208776
  14 C :    0.575058
  15 O :   -0.419787
  16 N :   -0.642083
  17 H :    0.367320
  18 C :   -0.228980
  19 H :    0.266541
  20 C :   -0.149288
  21 H :    0.227748
  22 H :    0.223576
  23 O :   -0.646797
  24 H :    0.422874
  25 C :    0.560523
  26 O :   -0.412305
  27 N :   -0.660225
  28 H :    0.382140
  29 C :   -0.200461
  30 H :    0.248272
  31 C :   -0.632928
  32 H :    0.262260
  33 H :    0.237923
  34 H :    0.199728
  35 C :    0.555980
  36 O :   -0.430106
  37 N :   -0.642192
  38 H :    0.390428
  39 C :   -0.491967
  40 H :    0.228458
  41 H :    0.203105
  42 H :    0.255480
Sum of atomic charges:   -0.0000000

LOEWDIN ATOMIC CHARGES
----------------------
   0 H :    0.161638
   1 C :   -0.388781
   2 H :    0.162174
   3 H :    0.133224
   4 C :    0.120412
   5 O :   -0.280452
   6 N :   -0.242916
   7 H :    0.257350
   8 C :   -0.094612
   9 H :    0.144184
  10 C :   -0.356836
  11 H :    0.148745
  12 H :    0.150261
  13 H :    0.124769
  14 C :    0.112651
  15 O :   -0.254387
  16 N :   -0.225028
  17 H :    0.261460
  18 C :   -0.097594
  19 H :    0.150577
  20 C :   -0.095480
  21 H :    0.124509
  22 H :    0.122913
  23 O :   -0.425435
  24 H :    0.313118
  25 C :    0.115729
  26 O :   -0.250929
  27 N :   -0.239654
  28 H :    0.259365
  29 C :   -0.091067
  30 H :    0.141983
  31 C :   -0.356900
  32 H :    0.151822
  33 H :    0.142485
  34 H :    0.120239
  35 C :    0.111699
  36 O :   -0.275121
  37 N :   -0.247517
  38 H :    0.258684
  39 C :   -0.255953
  40 H :    0.125800
  41 H :    0.114430
  42 H :    0.148441

  Mayer bond orders larger than 0.100000
B(  0-H ,  1-C ) :   0.9077 B(  1-C ,  2-H ) :   0.9016 B(  1-C ,  3-H ) :   0.9185
B(  1-C ,  4-C ) :   0.9284 B(  4-C ,  5-O ) :   1.9201 B(  4-C ,  6-N ) :   1.1333
B(  6-N ,  7-H ) :   0.8240 B(  6-N ,  8-C ) :   0.9244 B(  8-C ,  9-H ) :   0.8966
B(  8-C , 10-C ) :   0.9907 B(  8-C , 14-C ) :   0.8907 B( 10-C , 11-H ) :   0.9107
B( 10-C , 12-H ) :   0.9082 B( 10-C , 13-H ) :   0.9227 B( 14-C , 15-O ) :   1.9518
B( 14-C , 16-N ) :   1.1272 B( 16-N , 17-H ) :   0.8198 B( 16-N , 18-C ) :   0.9250
B( 18-C , 19-H ) :   0.8918 B( 18-C , 20-C ) :   0.9703 B( 18-C , 25-C ) :   0.8836
B( 20-C , 21-H ) :   0.8876 B( 20-C , 22-H ) :   0.8914 B( 20-C , 23-O ) :   1.0018
B( 23-O , 24-H ) :   0.7898 B( 25-C , 26-O ) :   1.9774 B( 25-C , 27-N ) :   1.1300
B( 27-N , 28-H ) :   0.7849 B( 27-N , 29-C ) :   0.9251 B( 29-C , 30-H ) :   0.9043
B( 29-C , 31-C ) :   0.9902 B( 29-C , 35-C ) :   0.8844 B( 31-C , 32-H ) :   0.9060
B( 31-C , 33-H ) :   0.9144 B( 31-C , 34-H ) :   0.9268 B( 35-C , 36-O ) :   1.9736
B( 35-C , 37-N ) :   1.1490 B( 36-O , 37-N ) :   0.1021 B( 37-N , 38-H ) :   0.7734
B( 37-N , 39-C ) :   0.9634 B( 39-C , 40-H ) :   0.9161 B( 39-C , 41-H ) :   0.9264
B( 39-C , 42-H ) :   0.9026

Dispersion correction           -0.029654476
FINAL SINGLE POINT ENERGY     -1063.448267452067

DIPOLE MOMENT
-------------
                                X             Y             Z
Electronic contribution:     -3.39442      -6.26170      -0.33594
Nuclear contribution   :      8.02483       6.35242      -0.88516
                        -----------------------------------------
Total Dipole Moment    :      4.63041       0.09071      -1.22109
                        -----------------------------------------
Magnitude (a.u.)       :      4.78957
Magnitude (Debye)      :     12.17412

Rotational constants in cm-1:     0.011511     0.008435     0.006563
Rotational constants in MHz :   345.079599   252.860796   196.765865

                             ****ORCA TERMINATED NORMALLY****
TOTAL RUN TIME: 0 days 0 hours 6 minutes 45 seconds 884 msec
