                         Program Version 5.0.3 -  RELEASE  -
|  1> ! PBEh-3c def2/J TightSCF DefGrid3
|  2>
|  3> %maxcore 60000
|  4>
|  5> %pal
|  6> nprocs 4
|  7> end
|  8>
|  9> *xyzfile 0 2 P19.xyz
| 10>
| 11>                          ****END OF INPUT****

CARTESIAN COORDINATES (ANGSTROEM)
---------------------------------
  C     -1.591107    0.148911    0.000000
  C     -0.266501   -0.492036    0.000000
  C      0.891732    0.115316    0.754672
  C      0.891732    0.115316   -0.754672
  H     -2.118633    0.334860    0.928317
  H     -2.118633    0.334860   -0.928317
  H     -0.280871   -1.583198    0.000000
  H      1.576114   -0.548115    1.268565
  H      0.720027    1.061100    1.253766
  H      1.576114   -0.548115   -1.268565
  H      0.720027    1.061100   -1.253766

 Total Charge           Charge          ....    0
 Multiplicity           Mult            ....    2
 Number of Electrons    NEL             ....   31
 Basis Dimension        Dim             ....   74

ORBITAL ENERGIES
----------------
                 SPIN UP ORBITALS
  NO   OCC          E(Eh)            E(eV)
   0   1.0000     -10.448120      -284.3078
   1   1.0000     -10.445479      -284.2359
   2   1.0000     -10.437600      -284.0215
   3   1.0000     -10.437367      -284.0152
   4   1.0000      -0.953133       -25.9361
   5   1.0000      -0.788052       -21.4440
   6   1.0000      -0.673425       -18.3248
   7   1.0000      -0.635475       -17.2922
   8   1.0000      -0.554372       -15.0852
   9   1.0000      -0.515717       -14.0334
  10   1.0000      -0.485214       -13.2033
  11   1.0000      -0.423524       -11.5247
  12   1.0000      -0.415151       -11.2968
  13   1.0000      -0.356458        -9.6997
  14   1.0000      -0.329554        -8.9676
  15   1.0000      -0.257145        -6.9973
  16   0.0000       0.156279         4.2526
  17   0.0000       0.164246         4.4694
  18   0.0000       0.168074         4.5735
  19   0.0000       0.188469         5.1285
  20   0.0000       0.196846         5.3564

                 SPIN DOWN ORBITALS
  NO   OCC          E(Eh)            E(eV)
   0   1.0000     -10.449531      -284.3462
   1   1.0000     -10.437002      -284.0053
   2   1.0000     -10.436771      -283.9990
   3   1.0000     -10.429608      -283.8041
   4   1.0000      -0.948992       -25.8234
   5   1.0000      -0.751524       -20.4500
   6   1.0000      -0.671872       -18.2826
   7   1.0000      -0.622345       -16.9349
   8   1.0000      -0.548825       -14.9343
   9   1.0000      -0.510523       -13.8920
  10   1.0000      -0.474397       -12.9090
  11   1.0000      -0.414799       -11.2873
  12   1.0000      -0.413158       -11.2426
  13   1.0000      -0.344578        -9.3765
  14   1.0000      -0.328501        -8.9390
  15   0.0000      -0.011669        -0.3175
  16   0.0000       0.160947         4.3796
  17   0.0000       0.165937         4.5154
  18   0.0000       0.174887         4.7589
  19   0.0000       0.197383         5.3711

MULLIKEN ATOMIC CHARGES AND SPIN POPULATIONS
--------------------------------------------
   0 C :   -0.437551    1.131648
   1 C :   -0.250257   -0.098577
   2 C :   -0.455966    0.022990
   3 C :   -0.455966    0.022990
   4 H :    0.215600   -0.061968
   5 H :    0.215601   -0.061968
   6 H :    0.242134    0.049595
   7 H :    0.230984   -0.001147
   8 H :    0.232218   -0.001208
   9 H :    0.230984   -0.001147
  10 H :    0.232218   -0.001208
Sum of atomic charges         :   -0.0000000

LOEWDIN ATOMIC CHARGES AND SPIN POPULATIONS
-------------------------------------------
   0 C :   -0.237740    0.992788
   1 C :   -0.182620   -0.019794
   2 C :   -0.254391    0.022516
   3 C :   -0.254391    0.022516
   4 H :    0.127560   -0.029884
   5 H :    0.127560   -0.029884
   6 H :    0.138047    0.045107
   7 H :    0.132700   -0.000805
   8 H :    0.135289   -0.000878
   9 H :    0.132700   -0.000805
  10 H :    0.135289   -0.000878

  Mayer bond orders larger than 0.100000
B(  0-C ,  1-C ) :   1.0279 B(  0-C ,  4-H ) :   0.9193 B(  0-C ,  5-H ) :   0.9193
B(  1-C ,  2-C ) :   0.9264 B(  1-C ,  3-C ) :   0.9264 B(  1-C ,  6-H ) :   0.8995
B(  2-C ,  3-C ) :   0.9382 B(  2-C ,  7-H ) :   0.9243 B(  2-C ,  8-H ) :   0.9263
B(  3-C ,  9-H ) :   0.9243 B(  3-C , 10-H ) :   0.9263

Dispersion correction           -0.003865918
FINAL SINGLE POINT ENERGY      -156.194290366303

DIPOLE MOMENT
-------------
                                X             Y             Z
Electronic contribution:     -0.12625      -0.30854      -0.00000
Nuclear contribution   :      0.16680       0.25306       0.00000
                        -----------------------------------------
Total Dipole Moment    :      0.04054      -0.05548      -0.00000
                        -----------------------------------------
Magnitude (a.u.)       :      0.06871
Magnitude (Debye)      :      0.17465

Rotational constants in cm-1:     0.545099     0.225895     0.192959
Rotational constants in MHz : 16341.649268  6772.165029  5784.766764

                             ****ORCA TERMINATED NORMALLY****
TOTAL RUN TIME: 0 days 0 hours 2 minutes 10 seconds 466 msec
