                         Program Version 5.0.3 -  RELEASE  -
|  1> ! PBEh-3c def2/J TightSCF DefGrid3
|  2>
|  3> %maxcore 60000
|  4>
|  5> %pal
|  6> nprocs 4
|  7> end
|  8>
|  9> *xyzfile 0 1 becl2.xyz
| 10>
| 11>                          ****END OF INPUT****

CARTESIAN COORDINATES (ANGSTROEM)
---------------------------------
  Be     0.000000    0.000000    0.000000
  Cl     1.799840    0.000000    0.000000
  Cl    -1.799840    0.000000    0.000000

 Total Charge           Charge          ....    0
 Multiplicity           Mult            ....    1
 Number of Electrons    NEL             ....   38
 Basis Dimension        Dim             ....   45

ORBITAL ENERGIES
----------------

  NO   OCC          E(Eh)            E(eV)
   0   2.0000    -102.308270     -2783.9496
   1   2.0000    -102.308177     -2783.9470
   2   2.0000      -9.776761      -266.0392
   3   2.0000      -9.776711      -266.0378
   4   2.0000      -7.461126      -203.0276
   5   2.0000      -7.461107      -203.0270
   6   2.0000      -7.457714      -202.9347
   7   2.0000      -7.457714      -202.9347
   8   2.0000      -7.457696      -202.9342
   9   2.0000      -7.457696      -202.9342
  10   2.0000      -4.289543      -116.7244
  11   2.0000      -0.917848       -24.9759
  12   2.0000      -0.917133       -24.9565
  13   2.0000      -0.474199       -12.9036
  14   2.0000      -0.463555       -12.6140
  15   2.0000      -0.412964       -11.2373
  16   2.0000      -0.412964       -11.2373
  17   2.0000      -0.387446       -10.5429
  18   2.0000      -0.387446       -10.5429
  19   0.0000       0.003390         0.0922
  20   0.0000       0.014258         0.3880
  21   0.0000       0.014258         0.3880
  22   0.0000       0.130654         3.5553
  23   0.0000       0.165417         4.5012

MULLIKEN ATOMIC CHARGES
-----------------------
   0 Be:    0.456206
   1 Cl:   -0.228103
   2 Cl:   -0.228103
Sum of atomic charges:    0.0000000

LOEWDIN ATOMIC CHARGES
----------------------
   0 Be:   -0.009232
   1 Cl:    0.004616
   2 Cl:    0.004616

  Mayer bond orders larger than 0.100000
B(  0-Be,  1-Cl) :   1.2142 B(  0-Be,  2-Cl) :   1.2142

Dispersion correction           -0.000963337
FINAL SINGLE POINT ENERGY      -934.238270654692

DIPOLE MOMENT
-------------
                                X             Y             Z
Electronic contribution:      0.00000      -0.00000      -0.00000
Nuclear contribution   :      0.00000       0.00000       0.00000
                        -----------------------------------------
Total Dipole Moment    :      0.00000      -0.00000      -0.00000
                        -----------------------------------------
Magnitude (a.u.)       :      0.00000
Magnitude (Debye)      :      0.00000

Rotational constants in cm-1:     0.000000     0.073392     0.073392
Rotational constants in MHz :     0.000000  2200.223845  2200.223845

                             ****ORCA TERMINATED NORMALLY****
TOTAL RUN TIME: 0 days 0 hours 0 minutes 13 seconds 561 msec
