                         Program Version 5.0.3 -  RELEASE  -
|  1> ! PBEh-3c def2/J TightSCF DefGrid3
|  2>
|  3> %maxcore 60000
|  4>
|  5> %pal
|  6> nprocs 4
|  7> end
|  8>
|  9> *xyzfile 0 1 al2f6.xyz
| 10>
| 11>                          ****END OF INPUT****

CARTESIAN COORDINATES (ANGSTROEM)
---------------------------------
  Al     0.000000    0.000000   -1.376927
  Al     0.000000    0.000000    1.376927
  F      0.000000    1.168038    0.000000
  F      0.000000   -1.168038    0.000000
  F      1.441517    0.000000   -2.146046
  F     -1.441517    0.000000   -2.146046
  F     -1.441517    0.000000    2.146046
  F      1.441517    0.000000    2.146046

 Total Charge           Charge          ....    0
 Multiplicity           Mult            ....    1
 Number of Electrons    NEL             ....   80
 Basis Dimension        Dim             ....  126

ORBITAL ENERGIES
----------------

  NO   OCC          E(Eh)            E(eV)
   0   2.0000     -56.707488     -1543.0892
   1   2.0000     -56.707389     -1543.0865
   2   2.0000     -25.180659      -685.2006
   3   2.0000     -25.180567      -685.1981
   4   2.0000     -25.083040      -682.5442
   5   2.0000     -25.083026      -682.5438
   6   2.0000     -25.082987      -682.5428
   7   2.0000     -25.082987      -682.5428
   8   2.0000      -4.436297      -120.7178
   9   2.0000      -4.436277      -120.7172
  10   2.0000      -2.928672       -79.6932
  11   2.0000      -2.928628       -79.6920
  12   2.0000      -2.927035       -79.6487
  13   2.0000      -2.926583       -79.6364
  14   2.0000      -2.924640       -79.5835
  15   2.0000      -2.924616       -79.5829
  16   2.0000      -1.404239       -38.2113
  17   2.0000      -1.375435       -37.4275
  18   2.0000      -1.291043       -35.1311
  19   2.0000      -1.290076       -35.1048
  20   2.0000      -1.283277       -34.9197
  21   2.0000      -1.283217       -34.9181
  22   2.0000      -0.671579       -18.2746
  23   2.0000      -0.671380       -18.2692
  24   2.0000      -0.641478       -17.4555
  25   2.0000      -0.612027       -16.6541
  26   2.0000      -0.580062       -15.7843
  27   2.0000      -0.568841       -15.4790
  28   2.0000      -0.559287       -15.2190
  29   2.0000      -0.550594       -14.9824
  30   2.0000      -0.531231       -14.4555
  31   2.0000      -0.525448       -14.2982
  32   2.0000      -0.505211       -13.7475
  33   2.0000      -0.504009       -13.7148
  34   2.0000      -0.501647       -13.6505
  35   2.0000      -0.498401       -13.5622
  36   2.0000      -0.491699       -13.3798
  37   2.0000      -0.488997       -13.3063
  38   2.0000      -0.485189       -13.2027
  39   2.0000      -0.483416       -13.1544
  40   0.0000      -0.015679        -0.4266
  41   0.0000       0.040222         1.0945
  42   0.0000       0.055309         1.5050
  43   0.0000       0.099046         2.6952
  44   0.0000       0.102369         2.7856

MULLIKEN ATOMIC CHARGES
-----------------------
   0 Al:    1.530108
   1 Al:    1.530108
   2 F :   -0.498079
   3 F :   -0.498079
   4 F :   -0.516015
   5 F :   -0.516015
   6 F :   -0.516015
   7 F :   -0.516015
Sum of atomic charges:    0.0000000

LOEWDIN ATOMIC CHARGES
----------------------
   0 Al:    0.600958
   1 Al:    0.600958
   2 F :   -0.126364
   3 F :   -0.126364
   4 F :   -0.237297
   5 F :   -0.237297
   6 F :   -0.237297
   7 F :   -0.237297

  Mayer bond orders larger than 0.100000
B(  0-Al,  2-F ) :   0.4429 B(  0-Al,  3-F ) :   0.4429 B(  0-Al,  4-F ) :   0.8901
B(  0-Al,  5-F ) :   0.8901 B(  1-Al,  2-F ) :   0.4429 B(  1-Al,  3-F ) :   0.4429
B(  1-Al,  6-F ) :   0.8901 B(  1-Al,  7-F ) :   0.8901

Dispersion correction           -0.002560850
FINAL SINGLE POINT ENERGY     -1082.703586319149

DIPOLE MOMENT
-------------
                                X             Y             Z
Electronic contribution:      0.00000      -0.00000      -0.00000
Nuclear contribution   :      0.00000       0.00000       0.00000
                        -----------------------------------------
Total Dipole Moment    :      0.00000      -0.00000      -0.00000
                        -----------------------------------------
Magnitude (a.u.)       :      0.00000
Magnitude (Debye)      :      0.00000

Rotational constants in cm-1:     0.080371     0.033439     0.027626
Rotational constants in MHz :  2409.465021  1002.473769   828.215163

                             ****ORCA TERMINATED NORMALLY****
TOTAL RUN TIME: 0 days 0 hours 1 minutes 0 seconds 793 msec
