                         Program Version 5.0.3 -  RELEASE  -
|  1> ! PBEh-3c def2/J TightSCF DefGrid3
|  2>
|  3> %maxcore 60000
|  4>
|  5> %pal
|  6> nprocs 4
|  7> end
|  8>
|  9> *xyzfile -1 1 6.xyz
| 10>
| 11>                          ****END OF INPUT****

CARTESIAN COORDINATES (ANGSTROEM)
---------------------------------
  Cl    -5.217658    1.033541    0.016654
  F     -2.347961    1.108968   -0.002809
  H     -3.324501    1.088222    0.002544

 Total Charge           Charge          ....   -1
 Multiplicity           Mult            ....    1
 Number of Electrons    NEL             ....   28
 Basis Dimension        Dim             ....   35

ORBITAL ENERGIES
----------------

  NO   OCC          E(Eh)            E(eV)
   0   2.0000    -101.954192     -2774.3146
   1   2.0000     -24.811637      -675.1590
   2   2.0000      -9.419010      -256.3043
   3   2.0000      -7.103127      -193.2859
   4   2.0000      -7.101233      -193.2344
   5   2.0000      -7.101232      -193.2344
   6   2.0000      -1.039618       -28.2895
   7   2.0000      -0.556363       -15.1394
   8   2.0000      -0.347975        -9.4689
   9   2.0000      -0.222238        -6.0474
  10   2.0000      -0.222237        -6.0474
  11   2.0000      -0.076165        -2.0726
  12   2.0000      -0.061964        -1.6861
  13   2.0000      -0.061963        -1.6861
  14   0.0000       0.448549        12.2056
  15   0.0000       0.821674        22.3589
  16   0.0000       1.047231        28.4966
  17   0.0000       1.150828        31.3156
  18   0.0000       1.150828        31.3156

MULLIKEN ATOMIC CHARGES
-----------------------
   0 Cl:   -0.839259
   1 F :   -0.623546
   2 H :    0.462805
Sum of atomic charges:   -1.0000000

LOEWDIN ATOMIC CHARGES
----------------------
   0 Cl:   -0.798259
   1 F :   -0.505861
   2 H :    0.304120

  Mayer bond orders larger than 0.100000
B(  0-Cl,  2-H ) :   0.2805 B(  1-F ,  2-H ) :   0.5551

Dispersion correction           -0.000397233
FINAL SINGLE POINT ENERGY      -560.028160852338

DIPOLE MOMENT
-------------
                                X             Y             Z
Electronic contribution:     -0.11762      -0.00482       0.00124
Nuclear contribution   :      0.47103       0.01712      -0.00442
                        -----------------------------------------
Total Dipole Moment    :      0.35341       0.01230      -0.00317
                        -----------------------------------------
Magnitude (a.u.)       :      0.35364
Magnitude (Debye)      :      0.89888

Rotational constants in cm-1: 664867.759433     0.164099     0.164099
Rotational constants in MHz : 19932233984.550007  4919.555323  4919.554109

                             ****ORCA TERMINATED NORMALLY****
TOTAL RUN TIME: 0 days 0 hours 0 minutes 8 seconds 631 msec
