                         Program Version 5.0.3 -  RELEASE  -
|  1> ! PBEh-3c def2/J TightSCF DefGrid3
|  2>
|  3> %maxcore 60000
|  4>
|  5> %pal
|  6> nprocs 4
|  7> end
|  8>
|  9> *xyzfile 0 1 ch3cooh.xyz
| 10>
| 11>                          ****END OF INPUT****

CARTESIAN COORDINATES (ANGSTROEM)
---------------------------------
  C     -0.883171   -0.395305    0.022470
  C      0.368626    0.410303   -0.194449
  O      0.457569    1.380946   -0.892887
  O      1.406074   -0.080724    0.494210
  H     -1.138857   -0.379055    1.080817
  H     -0.700584   -1.428035   -0.269974
  H     -1.697288    0.021832   -0.564309
  H      2.187631    0.470037    0.324123

 Total Charge           Charge          ....    0
 Multiplicity           Mult            ....    1
 Number of Electrons    NEL             ....   32
 Basis Dimension        Dim             ....   68

ORBITAL ENERGIES
----------------

  NO   OCC          E(Eh)            E(eV)
   0   2.0000     -19.542594      -531.7810
   1   2.0000     -19.482195      -530.1375
   2   2.0000     -10.582428      -287.9625
   3   2.0000     -10.448890      -284.3287
   4   2.0000      -1.225204       -33.3395
   5   2.0000      -1.126590       -30.6561
   6   2.0000      -0.848020       -23.0758
   7   2.0000      -0.691507       -18.8169
   8   2.0000      -0.558625       -15.2010
   9   2.0000      -0.549103       -14.9418
  10   2.0000      -0.536490       -14.5986
  11   2.0000      -0.470202       -12.7949
  12   2.0000      -0.454005       -12.3541
  13   2.0000      -0.453654       -12.3446
  14   2.0000      -0.377294       -10.2667
  15   2.0000      -0.334408        -9.0997
  16   0.0000       0.051019         1.3883
  17   0.0000       0.125881         3.4254
  18   0.0000       0.166594         4.5332
  19   0.0000       0.206195         5.6109
  20   0.0000       0.220789         6.0080

MULLIKEN ATOMIC CHARGES
-----------------------
   0 C :   -0.739488
   1 C :    0.500139
   2 O :   -0.385162
   3 O :   -0.580853
   4 H :    0.252169
   5 H :    0.251785
   6 H :    0.258175
   7 H :    0.443236
Sum of atomic charges:   -0.0000000

LOEWDIN ATOMIC CHARGES
----------------------
   0 C :   -0.390825
   1 C :    0.117010
   2 O :   -0.225525
   3 O :   -0.298663
   4 H :    0.156033
   5 H :    0.155551
   6 H :    0.152637
   7 H :    0.333782

  Mayer bond orders larger than 0.100000
B(  0-C ,  1-C ) :   0.9352 B(  0-C ,  4-H ) :   0.9061 B(  0-C ,  5-H ) :   0.9063
B(  0-C ,  6-H ) :   0.9176 B(  1-C ,  2-O ) :   2.0799 B(  1-C ,  3-O ) :   1.1465
B(  3-O ,  7-H ) :   0.7584

Dispersion correction           -0.002313436
FINAL SINGLE POINT ENERGY      -228.602431917108

DIPOLE MOMENT
-------------
                                X             Y             Z
Electronic contribution:      2.71205       1.93012      -0.60971
Nuclear contribution   :     -2.64117      -2.45272       1.02509
                        -----------------------------------------
Total Dipole Moment    :      0.07088      -0.52260       0.41538
                        -----------------------------------------
Magnitude (a.u.)       :      0.67132
Magnitude (Debye)      :      1.70637

Rotational constants in cm-1:     0.383777     0.317078     0.179433
Rotational constants in MHz : 11505.340825  9505.753807  5379.279013

                             ****ORCA TERMINATED NORMALLY****
TOTAL RUN TIME: 0 days 0 hours 1 minutes 15 seconds 38 msec
