                         Program Version 5.0.3 -  RELEASE  -
|  1> ! PBEh-3c def2/J TightSCF DefGrid3
|  2>
|  3> %maxcore 60000
|  4>
|  5> %pal
|  6> nprocs 4
|  7> end
|  8>
|  9> *xyzfile 0 1 26B.xyz
| 10>
| 11>                          ****END OF INPUT****

CARTESIAN COORDINATES (ANGSTROEM)
---------------------------------
  N      0.270703   -0.763299    1.027616
  H      0.595792   -1.309776    1.816347
  C      0.338621   -1.381082   -0.227664
  O      0.727043   -2.534629   -0.332986
  N     -0.363819    1.289656    0.194919
  H     -0.079682   -0.914395   -2.319004
  C     -0.378133    0.773619   -1.071406
  H     -0.649913    1.467508   -1.852654
  C     -0.066908   -0.515490   -1.319496
  H     -0.481850    2.277969    0.349820
  C      0.001659    0.561654    1.311709
  O      0.086488    1.048264    2.422800

 Total Charge           Charge          ....    0
 Multiplicity           Mult            ....    1
 Number of Electrons    NEL             ....   58
 Basis Dimension        Dim             ....  128

ORBITAL ENERGIES
----------------

  NO   OCC          E(Eh)            E(eV)
   0   2.0000     -19.484257      -530.1936
   1   2.0000     -19.476873      -529.9927
   2   2.0000     -14.718710      -400.5165
   3   2.0000     -14.698250      -399.9597
   4   2.0000     -10.610412      -288.7240
   5   2.0000     -10.574394      -287.7439
   6   2.0000     -10.538897      -286.7780
   7   2.0000     -10.467935      -284.8470
   8   2.0000      -1.197880       -32.5960
   9   2.0000      -1.157370       -31.4936
  10   2.0000      -1.095006       -29.7966
  11   2.0000      -1.035475       -28.1767
  12   2.0000      -0.900223       -24.4963
  13   2.0000      -0.781301       -21.2603
  14   2.0000      -0.750598       -20.4248
  15   2.0000      -0.678601       -18.4657
  16   2.0000      -0.637327       -17.3425
  17   2.0000      -0.594451       -16.1758
  18   2.0000      -0.554366       -15.0851
  19   2.0000      -0.544487       -14.8163
  20   2.0000      -0.522794       -14.2260
  21   2.0000      -0.491342       -13.3701
  22   2.0000      -0.486030       -13.2256
  23   2.0000      -0.468820       -12.7573
  24   2.0000      -0.431379       -11.7384
  25   2.0000      -0.362589        -9.8665
  26   2.0000      -0.341626        -9.2961
  27   2.0000      -0.328871        -8.9490
  28   2.0000      -0.300914        -8.1883
  29   0.0000      -0.023384        -0.6363
  30   0.0000       0.038203         1.0395
  31   0.0000       0.095757         2.6057
  32   0.0000       0.151970         4.1353
  33   0.0000       0.156128         4.2485

MULLIKEN ATOMIC CHARGES
-----------------------
   0 N :   -0.721051
   1 H :    0.399284
   2 C :    0.565135
   3 O :   -0.393246
   4 N :   -0.675491
   5 H :    0.267039
   6 C :    0.081471
   7 H :    0.272848
   8 C :   -0.450218
   9 H :    0.393303
  10 C :    0.675353
  11 O :   -0.414426
Sum of atomic charges:   -0.0000000

LOEWDIN ATOMIC CHARGES
----------------------
   0 N :   -0.204968
   1 H :    0.287047
   2 C :    0.123873
   3 O :   -0.244098
   4 N :   -0.188426
   5 H :    0.164032
   6 C :   -0.014227
   7 H :    0.149982
   8 C :   -0.239571
   9 H :    0.282452
  10 C :    0.146304
  11 O :   -0.262400

  Mayer bond orders larger than 0.100000
B(  0-N ,  1-H ) :   0.7982 B(  0-N ,  2-C ) :   0.9816 B(  0-N , 10-C ) :   1.0631
B(  2-C ,  3-O ) :   2.0371 B(  2-C ,  8-C ) :   1.0566 B(  4-N ,  6-C ) :   1.0770
B(  4-N ,  9-H ) :   0.8077 B(  4-N , 10-C ) :   1.0272 B(  5-H ,  8-C ) :   0.9063
B(  6-C ,  7-H ) :   0.8991 B(  6-C ,  8-C ) :   1.6453 B( 10-C , 11-O ) :   2.0465

Dispersion correction           -0.006240350
FINAL SINGLE POINT ENERGY      -413.937672269527

DIPOLE MOMENT
-------------
                                X             Y             Z
Electronic contribution:      0.41165      -0.75906       1.96324
Nuclear contribution   :     -0.89883       2.13970      -2.95527
                        -----------------------------------------
Total Dipole Moment    :     -0.48717       1.38064      -0.99203
                        -----------------------------------------
Magnitude (a.u.)       :      1.76851
Magnitude (Debye)      :      4.49520

Rotational constants in cm-1:     0.130178     0.067461     0.044482
Rotational constants in MHz :  3902.647247  2022.432723  1333.551330

                             ****ORCA TERMINATED NORMALLY****
TOTAL RUN TIME: 0 days 0 hours 1 minutes 37 seconds 54 msec
