                         Program Version 5.0.3 -  RELEASE  -
|  1> ! PBEh-3c def2/J TightSCF DefGrid3
|  2>
|  3> %maxcore 60000
|  4>
|  5> %pal
|  6> nprocs 4
|  7> end
|  8>
|  9> *xyzfile 0 1 20.xyz
| 10>
| 11>                          ****END OF INPUT****

CARTESIAN COORDINATES (ANGSTROEM)
---------------------------------
  N     -0.356468    2.833918    0.190429
  C      0.692664    2.082837    0.672576
  C      0.318506    0.758702    0.756530
  C     -1.037857    0.692226    0.290719
  C     -1.952874   -0.374353    0.144611
  C     -3.221607   -0.087986   -0.337294
  C     -3.594731    1.236582   -0.675919
  C     -2.713139    2.290973   -0.537587
  C     -1.429173    2.006711   -0.051724
  H     -0.337664    3.826234    0.042170
  H      1.634855    2.545338    0.918920
  H     -1.660534   -1.379374    0.410762
  H     -4.597323    1.397430   -1.046858
  H     -3.013174    3.297640   -0.798298
  O     -4.210712   -1.015709   -0.530076
  C     -3.886608   -2.355904   -0.203763
  H     -3.630809   -2.456482    0.853525
  H     -3.057106   -2.723238   -0.812527
  H     -4.776536   -2.940246   -0.416853
  C      1.181897   -0.392430    1.166267
  C      1.732359   -1.152149   -0.054076
  N      2.536231   -0.312836   -0.924029
  C      3.861258   -0.009327   -0.743882
  C      4.657444   -0.941483    0.148935
  H      0.613473   -1.089642    1.788660
  H      2.019044   -0.032747    1.768611
  H      0.900936   -1.543564   -0.642058
  H      2.328567   -2.004624    0.266800
  H      2.040063    0.403013   -1.434364
  O      4.380370    0.941613   -1.311210
  H      4.600924   -1.969083   -0.209297
  H      4.287147   -0.921758    1.173978
  H      5.690575   -0.610290    0.136317

 Total Charge           Charge          ....    0
 Multiplicity           Mult            ....    1
 Number of Electrons    NEL             ....  124
 Basis Dimension        Dim             ....  287

ORBITAL ENERGIES
----------------

  NO   OCC          E(Eh)            E(eV)
   0   2.0000     -19.522970      -531.2470
   1   2.0000     -19.447578      -529.1955
   2   2.0000     -14.687291      -399.6615
   3   2.0000     -14.649372      -398.6297
   4   2.0000     -10.541834      -286.8579
   5   2.0000     -10.503906      -285.8258
   6   2.0000     -10.489506      -285.4340
   7   2.0000     -10.482220      -285.2357
   8   2.0000     -10.480987      -285.2022
   9   2.0000     -10.478711      -285.1402
  10   2.0000     -10.455126      -284.4985
  11   2.0000     -10.451973      -284.4127
  12   2.0000     -10.448884      -284.3286
  13   2.0000     -10.445469      -284.2357
  14   2.0000     -10.444459      -284.2082
  15   2.0000     -10.442863      -284.1647
  16   2.0000     -10.438179      -284.0373
  17   2.0000      -1.171362       -31.8744
  18   2.0000      -1.132700       -30.8223
  19   2.0000      -1.089634       -29.6505
  20   2.0000      -1.016869       -27.6704
  21   2.0000      -0.940369       -25.5887
  22   2.0000      -0.900927       -24.5155
  23   2.0000      -0.844276       -22.9739
  24   2.0000      -0.835759       -22.7422
  25   2.0000      -0.823421       -22.4064
  26   2.0000      -0.808506       -22.0006
  27   2.0000      -0.779515       -21.2117
  28   2.0000      -0.731126       -19.8950
  29   2.0000      -0.693741       -18.8776
  30   2.0000      -0.672818       -18.3083
  31   2.0000      -0.650035       -17.6883
  32   2.0000      -0.631605       -17.1868
  33   2.0000      -0.611107       -16.6291
  34   2.0000      -0.581034       -15.8107
  35   2.0000      -0.561137       -15.2693
  36   2.0000      -0.554047       -15.0764
  37   2.0000      -0.543688       -14.7945
  38   2.0000      -0.532320       -14.4852
  39   2.0000      -0.528291       -14.3755
  40   2.0000      -0.517169       -14.0729
  41   2.0000      -0.508031       -13.8242
  42   2.0000      -0.497510       -13.5379
  43   2.0000      -0.490841       -13.3565
  44   2.0000      -0.474626       -12.9152
  45   2.0000      -0.466916       -12.7054
  46   2.0000      -0.463179       -12.6037
  47   2.0000      -0.455702       -12.4003
  48   2.0000      -0.452694       -12.3184
  49   2.0000      -0.450146       -12.2491
  50   2.0000      -0.428214       -11.6523
  51   2.0000      -0.422027       -11.4839
  52   2.0000      -0.418273       -11.3818
  53   2.0000      -0.407345       -11.0844
  54   2.0000      -0.405473       -11.0335
  55   2.0000      -0.380008       -10.3406
  56   2.0000      -0.353135        -9.6093
  57   2.0000      -0.325246        -8.8504
  58   2.0000      -0.302164        -8.2223
  59   2.0000      -0.291510        -7.9324
  60   2.0000      -0.247030        -6.7220
  61   2.0000      -0.242015        -6.5856
  62   0.0000       0.004014         0.1092
  63   0.0000       0.055930         1.5219
  64   0.0000       0.064909         1.7663
  65   0.0000       0.084500         2.2994
  66   0.0000       0.121434         3.3044

MULLIKEN ATOMIC CHARGES
-----------------------
   0 N :   -0.698149
   1 C :   -0.056781
   2 C :    0.008325
   3 C :    0.089126
   4 C :   -0.489008
   5 C :    0.393585
   6 C :   -0.317532
   7 C :   -0.251720
   8 C :    0.349857
   9 H :    0.361403
  10 H :    0.251540
  11 H :    0.216855
  12 H :    0.235835
  13 H :    0.216073
  14 O :   -0.465856
  15 C :   -0.404268
  16 H :    0.204666
  17 H :    0.202809
  18 H :    0.241833
  19 C :   -0.534244
  20 C :   -0.294817
  21 N :   -0.596485
  22 C :    0.487910
  23 C :   -0.778801
  24 H :    0.226352
  25 H :    0.231090
  26 H :    0.244537
  27 H :    0.231852
  28 H :    0.369915
  29 O :   -0.419146
  30 H :    0.240524
  31 H :    0.230975
  32 H :    0.271745
Sum of atomic charges:    0.0000000

LOEWDIN ATOMIC CHARGES
----------------------
   0 N :   -0.154874
   1 C :   -0.082722
   2 C :   -0.115881
   3 C :   -0.052727
   4 C :   -0.199957
   5 C :    0.060401
   6 C :   -0.156784
   7 C :   -0.144933
   8 C :    0.002755
   9 H :    0.263378
  10 H :    0.140909
  11 H :    0.137853
  12 H :    0.146811
  13 H :    0.138506
  14 O :   -0.190187
  15 C :   -0.179955
  16 H :    0.112807
  17 H :    0.111990
  18 H :    0.130634
  19 C :   -0.237048
  20 C :   -0.147365
  21 N :   -0.243658
  22 C :    0.104521
  23 C :   -0.398995
  24 H :    0.134380
  25 H :    0.132853
  26 H :    0.130180
  27 H :    0.127985
  28 H :    0.262600
  29 O :   -0.274693
  30 H :    0.145067
  31 H :    0.140173
  32 H :    0.155975

  Mayer bond orders larger than 0.100000
B(  0-N ,  1-C ) :   1.1444 B(  0-N ,  8-C ) :   1.0077 B(  0-N ,  9-H ) :   0.8318
B(  1-C ,  2-C ) :   1.5444 B(  1-C , 10-H ) :   0.9058 B(  2-C ,  3-C ) :   1.2535
B(  2-C , 19-C ) :   0.9581 B(  3-C ,  4-C ) :   1.2510 B(  3-C ,  8-C ) :   1.2560
B(  4-C ,  5-C ) :   1.4225 B(  4-C , 11-H ) :   0.9165 B(  5-C ,  6-C ) :   1.2991
B(  5-C , 14-O ) :   1.0270 B(  6-C ,  7-C ) :   1.5284 B(  6-C , 12-H ) :   0.9081
B(  7-C ,  8-C ) :   1.2720 B(  7-C , 13-H ) :   0.9196 B( 14-O , 15-C ) :   0.9573
B( 15-C , 16-H ) :   0.9068 B( 15-C , 17-H ) :   0.9072 B( 15-C , 18-H ) :   0.9229
B( 19-C , 20-C ) :   0.9443 B( 19-C , 24-H ) :   0.9134 B( 19-C , 25-H ) :   0.9241
B( 20-C , 21-N ) :   0.9762 B( 20-C , 26-H ) :   0.9100 B( 20-C , 27-H ) :   0.9077
B( 21-N , 22-C ) :   1.1525 B( 21-N , 28-H ) :   0.8117 B( 22-C , 23-C ) :   0.9253
B( 22-C , 29-O ) :   2.0306 B( 23-C , 30-H ) :   0.9096 B( 23-C , 31-H ) :   0.9088
B( 23-C , 32-H ) :   0.9159

Dispersion correction           -0.021711462
FINAL SINGLE POINT ENERGY      -763.326802410854

DIPOLE MOMENT
-------------
                                X             Y             Z
Electronic contribution:     -5.27552      10.07923      -2.99738
Nuclear contribution   :      4.71226     -10.53353       3.84087
                        -----------------------------------------
Total Dipole Moment    :     -0.56326      -0.45431       0.84349
                        -----------------------------------------
Magnitude (a.u.)       :      1.11137
Magnitude (Debye)      :      2.82487

Rotational constants in cm-1:     0.028714     0.008091     0.006838
Rotational constants in MHz :   860.810828   242.569207   204.994252

                             ****ORCA TERMINATED NORMALLY****
TOTAL RUN TIME: 0 days 0 hours 4 minutes 22 seconds 230 msec
