                         Program Version 5.0.3 -  RELEASE  -
|  1> ! PBEh-3c def2/J TightSCF DefGrid3
|  2>
|  3> %maxcore 60000
|  4>
|  5> %pal
|  6> nprocs 4
|  7> end
|  8>
|  9> *xyzfile 0 3 IP_n65.xyz
| 10>
| 11>                          ****END OF INPUT****

CARTESIAN COORDINATES (ANGSTROEM)
---------------------------------
  P      0.000000    0.000000    0.715286
  H      0.000000    0.000000   -0.715286

 Total Charge           Charge          ....    0
 Multiplicity           Mult            ....    3
 Number of Electrons    NEL             ....   16
 Basis Dimension        Dim             ....   20

ORBITAL ENERGIES
----------------
                 SPIN UP ORBITALS
  NO   OCC          E(Eh)            E(eV)
   0   1.0000     -77.759535     -2115.9445
   1   1.0000      -6.835884      -186.0139
   2   1.0000      -4.930717      -134.1716
   3   1.0000      -4.930717      -134.1716
   4   1.0000      -4.921999      -133.9344
   5   1.0000      -0.696099       -18.9418
   6   1.0000      -0.393772       -10.7151
   7   1.0000      -0.301058        -8.1922
   8   1.0000      -0.301058        -8.1922
   9   0.0000       0.084629         2.3029
  10   0.0000       0.258022         7.0211
  11   0.0000       0.519490        14.1360
  12   0.0000       0.559319        15.2199
  13   0.0000       0.559320        15.2199

                 SPIN DOWN ORBITALS
  NO   OCC          E(Eh)            E(eV)
   0   1.0000     -77.749849     -2115.6809
   1   1.0000      -6.825566      -185.7331
   2   1.0000      -4.916202      -133.7767
   3   1.0000      -4.908995      -133.5805
   4   1.0000      -4.908995      -133.5805
   5   1.0000      -0.609198       -16.5771
   6   1.0000      -0.362404        -9.8615
   7   0.0000      -0.074796        -2.0353
   8   0.0000      -0.074796        -2.0353
   9   0.0000       0.112919         3.0727
  10   0.0000       0.295562         8.0427
  11   0.0000       0.540941        14.7197

MULLIKEN ATOMIC CHARGES AND SPIN POPULATIONS
--------------------------------------------
   0 P :   -0.047400    2.065142
   1 H :    0.047400   -0.065142
Sum of atomic charges         :   -0.0000000

LOEWDIN ATOMIC CHARGES AND SPIN POPULATIONS
-------------------------------------------
   0 P :   -0.021673    2.036971
   1 H :    0.021673   -0.036971

  Mayer bond orders larger than 0.100000
B(  0-P ,  1-H ) :   0.9595

Dispersion correction           -0.000202704
FINAL SINGLE POINT ENERGY      -341.469854186416

DIPOLE MOMENT
-------------
                                X             Y             Z
Electronic contribution:     -0.00000      -0.00000       1.05814
Nuclear contribution   :      0.00000       0.00000      -1.34011
                        -----------------------------------------
Total Dipole Moment    :     -0.00000      -0.00000      -0.28197
                        -----------------------------------------
Magnitude (a.u.)       :      0.28197
Magnitude (Debye)      :      0.71672

Rotational constants in cm-1:     0.000000     8.437716     8.437716
Rotational constants in MHz :     0.000000 252956.353135 252956.353135

                             ****ORCA TERMINATED NORMALLY****
TOTAL RUN TIME: 0 days 0 hours 0 minutes 8 seconds 840 msec
