                         Program Version 5.0.3 -  RELEASE  -
|  1> ! PBEh-3c def2/J TightSCF DefGrid3
|  2>
|  3> %maxcore 60000
|  4>
|  5> %pal
|  6> nprocs 4
|  7> end
|  8>
|  9> *xyzfile 0 1 13r_3.xyz
| 10>
| 11>                          ****END OF INPUT****

CARTESIAN COORDINATES (ANGSTROEM)
---------------------------------
  N      0.000000    0.000000    1.888325
  N      0.000000    0.000000    0.751656
  C      0.000000    0.000000   -0.543323
  H      0.952037    0.000000   -1.048329
  H     -0.952037    0.000000   -1.048329

 Total Charge           Charge          ....    0
 Multiplicity           Mult            ....    1
 Number of Electrons    NEL             ....   22
 Basis Dimension        Dim             ....   49

ORBITAL ENERGIES
----------------

  NO   OCC          E(Eh)            E(eV)
   0   2.0000     -14.791295      -402.4916
   1   2.0000     -14.714744      -400.4086
   2   2.0000     -10.474716      -285.0315
   3   2.0000      -1.223170       -33.2842
   4   2.0000      -0.939050       -25.5528
   5   2.0000      -0.626408       -17.0454
   6   2.0000      -0.585032       -15.9195
   7   2.0000      -0.546843       -14.8804
   8   2.0000      -0.513721       -13.9791
   9   2.0000      -0.451094       -12.2749
  10   2.0000      -0.264496        -7.1973
  11   0.0000      -0.010292        -0.2801
  12   0.0000       0.054682         1.4880
  13   0.0000       0.166168         4.5217
  14   0.0000       0.240041         6.5319
  15   0.0000       0.278113         7.5678

MULLIKEN ATOMIC CHARGES
-----------------------
   0 N :   -0.154660
   1 N :    0.147959
   2 C :   -0.501328
   3 H :    0.254014
   4 H :    0.254014
Sum of atomic charges:    0.0000000

LOEWDIN ATOMIC CHARGES
----------------------
   0 N :   -0.066610
   1 N :    0.180269
   2 C :   -0.423032
   3 H :    0.154686
   4 H :    0.154686

  Mayer bond orders larger than 0.100000
B(  0-N ,  1-N ) :   2.4327 B(  0-N ,  2-C ) :   0.3360 B(  1-N ,  2-C ) :   1.4413
B(  2-C ,  3-H ) :   0.8941 B(  2-C ,  4-H ) :   0.8941

Dispersion correction           -0.001224574
FINAL SINGLE POINT ENERGY      -148.403454308555

DIPOLE MOMENT
-------------
                                X             Y             Z
Electronic contribution:     -0.00000      -0.00000       2.61724
Nuclear contribution   :      0.00000       0.00000      -3.22473
                        -----------------------------------------
Total Dipole Moment    :     -0.00000      -0.00000      -0.60749
                        -----------------------------------------
Magnitude (a.u.)       :      0.60749
Magnitude (Debye)      :      1.54411

Rotational constants in cm-1:     9.225689     0.378670     0.363740
Rotational constants in MHz : 276579.198096 11352.230920 10904.648149

                             ****ORCA TERMINATED NORMALLY****
TOTAL RUN TIME: 0 days 0 hours 1 minutes 11 seconds 914 msec
