                         Program Version 5.0.3 -  RELEASE  -
|  1> ! PBEh-3c def2/J TightSCF DefGrid3
|  2>
|  3> %maxcore 60000
|  4>
|  5> %pal
|  6> nprocs 4
|  7> end
|  8>
|  9> *xyzfile 1 2 10p1.xyz
| 10>
| 11>                          ****END OF INPUT****

CARTESIAN COORDINATES (ANGSTROEM)
---------------------------------
  C      1.269753    0.919367   -0.397435
  C      0.311030    0.738872    0.396327
  C     -0.311030   -0.738872    0.396327
  C     -1.269753   -0.919367   -0.397435
  H      2.054744    0.916321   -1.132298
  H     -0.145924    1.393784    1.133405
  H      0.145924   -1.393784    1.133405
  H     -2.054744   -0.916321   -1.132298

 Total Charge           Charge          ....    1
 Multiplicity           Mult            ....    2
 Number of Electrons    NEL             ....   27
 Basis Dimension        Dim             ....   68

ORBITAL ENERGIES
----------------
                 SPIN UP ORBITALS
  NO   OCC          E(Eh)            E(eV)
   0   1.0000     -10.747763      -292.4615
   1   1.0000     -10.747698      -292.4597
   2   1.0000     -10.723437      -291.7996
   3   1.0000     -10.723274      -291.7951
   4   1.0000      -1.168995       -31.8100
   5   1.0000      -1.091063       -29.6893
   6   1.0000      -0.911528       -24.8039
   7   1.0000      -0.866126       -23.5685
   8   1.0000      -0.790986       -21.5238
   9   1.0000      -0.783182       -21.3115
  10   1.0000      -0.742703       -20.2100
  11   1.0000      -0.588661       -16.0183
  12   1.0000      -0.588065       -16.0021
  13   1.0000      -0.502505       -13.6739
  14   0.0000      -0.329596        -8.9688
  15   0.0000      -0.195127        -5.3097
  16   0.0000      -0.182007        -4.9527
  17   0.0000      -0.050701        -1.3797
  18   0.0000      -0.047202        -1.2844

                 SPIN DOWN ORBITALS
  NO   OCC          E(Eh)            E(eV)
   0   1.0000     -10.737306      -292.1770
   1   1.0000     -10.737249      -292.1754
   2   1.0000     -10.724789      -291.8364
   3   1.0000     -10.724586      -291.8308
   4   1.0000      -1.156793       -31.4779
   5   1.0000      -1.065796       -29.0018
   6   1.0000      -0.894178       -24.3318
   7   1.0000      -0.856111       -23.2960
   8   1.0000      -0.785446       -21.3731
   9   1.0000      -0.777675       -21.1616
  10   1.0000      -0.723964       -19.7001
  11   1.0000      -0.582034       -15.8379
  12   1.0000      -0.579131       -15.7590
  13   0.0000      -0.311433        -8.4745
  14   0.0000      -0.256277        -6.9736
  15   0.0000      -0.181441        -4.9373
  16   0.0000      -0.176424        -4.8007
  17   0.0000      -0.041705        -1.1349

MULLIKEN ATOMIC CHARGES AND SPIN POPULATIONS
--------------------------------------------
   0 C :    0.097977    0.634891
   1 C :   -0.335674   -0.116088
   2 C :   -0.335674   -0.116088
   3 C :    0.097977    0.634891
   4 H :    0.356919   -0.030924
   5 H :    0.380778    0.012121
   6 H :    0.380778    0.012121
   7 H :    0.356919   -0.030924
Sum of atomic charges         :    1.0000000

LOEWDIN ATOMIC CHARGES AND SPIN POPULATIONS
-------------------------------------------
   0 C :    0.138370    0.561733
   1 C :   -0.090963   -0.054657
   2 C :   -0.090963   -0.054657
   3 C :    0.138370    0.561733
   4 H :    0.223080   -0.018352
   5 H :    0.229513    0.011277
   6 H :    0.229513    0.011277
   7 H :    0.223080   -0.018352

  Mayer bond orders larger than 0.100000
B(  0-C ,  1-C ) :   2.0783 B(  0-C ,  3-C ) :   0.2152 B(  0-C ,  4-H ) :   0.8545
B(  1-C ,  2-C ) :   0.8145 B(  1-C ,  5-H ) :   0.8194 B(  2-C ,  3-C ) :   2.0783
B(  2-C ,  6-H ) :   0.8194 B(  3-C ,  7-H ) :   0.8545

Dispersion correction           -0.002754266
FINAL SINGLE POINT ENERGY      -153.949211166472

DIPOLE MOMENT
-------------
                                X             Y             Z
Electronic contribution:     -0.00000      -0.00000      -0.35194
Nuclear contribution   :     -0.00000      -0.00000       0.00383
                        -----------------------------------------
Total Dipole Moment    :     -0.00000      -0.00000      -0.34810
                        -----------------------------------------
Magnitude (a.u.)       :      0.34810
Magnitude (Debye)      :      0.88481

Rotational constants in cm-1:     0.854220     0.190190     0.178604
Rotational constants in MHz : 25608.883552  5701.738398  5354.406155

                             ****ORCA TERMINATED NORMALLY****
TOTAL RUN TIME: 0 days 0 hours 2 minutes 11 seconds 633 msec
