                         Program Version 5.0.3 -  RELEASE  -
|  1> ! PBEh-3c def2/J TightSCF DefGrid3
|  2>
|  3> %maxcore 60000
|  4>
|  5> %pal
|  6> nprocs 4
|  7> end
|  8>
|  9> *xyzfile 0 1 E3.xyz
| 10>
| 11>                          ****END OF INPUT****

CARTESIAN COORDINATES (ANGSTROEM)
---------------------------------
  C     -1.131543   -0.126499    0.000000
  C      0.233042    0.492712    0.000000
  C      1.380546   -0.176427    0.000000
  H     -1.076988   -1.216875    0.000000
  H     -1.705360    0.187300   -0.877914
  H     -1.705360    0.187300    0.877914
  H      0.261847    1.580460    0.000000
  H      1.407343   -1.261593    0.000000
  H      2.336473    0.333622    0.000000

 Total Charge           Charge          ....    0
 Multiplicity           Mult            ....    1
 Number of Electrons    NEL             ....   24
 Basis Dimension        Dim             ....   57

ORBITAL ENERGIES
----------------

  NO   OCC          E(Eh)            E(eV)
   0   2.0000     -10.445947      -284.2487
   1   2.0000     -10.431897      -283.8663
   2   2.0000     -10.429516      -283.8016
   3   2.0000      -0.876397       -23.8480
   4   2.0000      -0.766541       -20.8586
   5   2.0000      -0.622231       -16.9318
   6   2.0000      -0.527206       -14.3460
   7   2.0000      -0.478366       -13.0170
   8   2.0000      -0.467100       -12.7104
   9   2.0000      -0.424512       -11.5515
  10   2.0000      -0.395659       -10.7664
  11   2.0000      -0.298582        -8.1248
  12   0.0000       0.051270         1.3951
  13   0.0000       0.163804         4.4573
  14   0.0000       0.191560         5.2126
  15   0.0000       0.198512         5.4018
  16   0.0000       0.218263         5.9392

MULLIKEN ATOMIC CHARGES
-----------------------
   0 C :   -0.685369
   1 C :   -0.144135
   2 C :   -0.474339
   3 H :    0.222681
   4 H :    0.225341
   5 H :    0.225341
   6 H :    0.211218
   7 H :    0.206180
   8 H :    0.213081
Sum of atomic charges:    0.0000000

LOEWDIN ATOMIC CHARGES
----------------------
   0 C :   -0.361244
   1 C :   -0.145633
   2 C :   -0.280586
   3 H :    0.132191
   4 H :    0.135353
   5 H :    0.135353
   6 H :    0.126883
   7 H :    0.126567
   8 H :    0.131116

  Mayer bond orders larger than 0.100000
B(  0-C ,  1-C ) :   0.9974 B(  0-C ,  3-H ) :   0.9306 B(  0-C ,  4-H ) :   0.9164
B(  0-C ,  5-H ) :   0.9164 B(  1-C ,  2-C ) :   1.9453 B(  1-C ,  6-H ) :   0.9208
B(  2-C ,  7-H ) :   0.9308 B(  2-C ,  8-H ) :   0.9302

Dispersion correction           -0.002684229
FINAL SINGLE POINT ENERGY      -117.639498670086

DIPOLE MOMENT
-------------
                                X             Y             Z
Electronic contribution:      1.01865       0.48676       0.00000
Nuclear contribution   :     -1.16173      -0.45739       0.00000
                        -----------------------------------------
Total Dipole Moment    :     -0.14309       0.02937       0.00000
                        -----------------------------------------
Magnitude (a.u.)       :      0.14607
Magnitude (Debye)      :      0.37128

Rotational constants in cm-1:     1.571102     0.309833     0.271762
Rotational constants in MHz : 47100.442750  9288.567625  8147.209493

                             ****ORCA TERMINATED NORMALLY****
TOTAL RUN TIME: 0 days 0 hours 0 minutes 49 seconds 705 msec
