                         Program Version 5.0.3 -  RELEASE  -
|  1> ! PBEh-3c def2/J TightSCF DefGrid3
|  2>
|  3> %maxcore 60000
|  4>
|  5> %pal
|  6> nprocs 4
|  7> end
|  8>
|  9> *xyzfile 0 1 4CL_B.xyz
| 10>
| 11>                          ****END OF INPUT****

CARTESIAN COORDINATES (ANGSTROEM)
---------------------------------
  Cl     0.000000    0.000000   -0.677834
  H      0.000000    0.000000    0.677834

 Total Charge           Charge          ....    0
 Multiplicity           Mult            ....    1
 Number of Electrons    NEL             ....   18
 Basis Dimension        Dim             ....   20

ORBITAL ENERGIES
----------------

  NO   OCC          E(Eh)            E(eV)
   0   2.0000    -102.302335     -2783.7881
   1   2.0000      -9.769343      -265.8373
   2   2.0000      -7.457486      -202.9285
   3   2.0000      -7.448470      -202.6832
   4   2.0000      -7.448470      -202.6832
   5   2.0000      -0.915529       -24.9128
   6   2.0000      -0.511118       -13.9082
   7   2.0000      -0.373665       -10.1679
   8   2.0000      -0.373665       -10.1679
   9   0.0000       0.038975         1.0606
  10   0.0000       0.511534        13.9196
  11   0.0000       0.642253        17.4766
  12   0.0000       0.807795        21.9812
  13   0.0000       0.807795        21.9812

MULLIKEN ATOMIC CHARGES
-----------------------
   0 Cl:   -0.282496
   1 H :    0.282496
Sum of atomic charges:   -0.0000000

LOEWDIN ATOMIC CHARGES
----------------------
   0 Cl:   -0.188217
   1 H :    0.188217

  Mayer bond orders larger than 0.100000
B(  0-Cl,  1-H ) :   0.8976

Dispersion correction           -0.000168106
FINAL SINGLE POINT ENERGY      -460.293256311045

DIPOLE MOMENT
-------------
                                X             Y             Z
Electronic contribution:      0.00000      -0.00000      -0.67252
Nuclear contribution   :      0.00000       0.00000       1.28700
                        -----------------------------------------
Total Dipole Moment    :      0.00000      -0.00000       0.61448
                        -----------------------------------------
Magnitude (a.u.)       :      0.61448
Magnitude (Debye)      :      1.56187

Rotational constants in cm-1:     0.000000     9.358476     9.358476
Rotational constants in MHz :     0.000000 280560.055682 280560.055682

                             ****ORCA TERMINATED NORMALLY****
TOTAL RUN TIME: 0 days 0 hours 0 minutes 31 seconds 318 msec
