                         Program Version 5.0.3 -  RELEASE  -
|  1> ! PBEh-3c def2/J TightSCF DefGrid3
|  2>
|  3> %maxcore 60000
|  4>
|  5> %pal
|  6> nprocs 4
|  7> end
|  8>
|  9> *xyzfile 0 1 E45.xyz
| 10>
| 11>                          ****END OF INPUT****

CARTESIAN COORDINATES (ANGSTROEM)
---------------------------------
  C     -0.887870   -0.887870   -0.887870
  C      0.000000    0.000000    0.000000
  C      0.887870    0.887870   -0.887870
  C     -0.887870    0.887870    0.887870
  C      0.887870   -0.887870    0.887870
  H     -1.531768   -0.282307   -1.531768
  H     -0.282307   -1.531768   -1.531768
  H     -1.531768   -1.531768   -0.282307
  H      0.282307    1.531768   -1.531768
  H      1.531768    1.531768   -0.282307
  H      1.531768    0.282307   -1.531768
  H     -1.531768    1.531768    0.282307
  H     -1.531768    0.282307    1.531768
  H     -0.282307    1.531768    1.531768
  H      1.531768   -1.531768    0.282307
  H      1.531768   -0.282307    1.531768
  H      0.282307   -1.531768    1.531768

 Total Charge           Charge          ....    0
 Multiplicity           Mult            ....    1
 Number of Electrons    NEL             ....   42
 Basis Dimension        Dim             ....   99

ORBITAL ENERGIES
----------------

  NO   OCC          E(Eh)            E(eV)
   0   2.0000     -10.450349      -284.3685
   1   2.0000     -10.419032      -283.5163
   2   2.0000     -10.419032      -283.5163
   3   2.0000     -10.419032      -283.5163
   4   2.0000     -10.418919      -283.5132
   5   2.0000      -0.908462       -24.7205
   6   2.0000      -0.760419       -20.6921
   7   2.0000      -0.760419       -20.6921
   8   2.0000      -0.760419       -20.6921
   9   2.0000      -0.596798       -16.2397
  10   2.0000      -0.502406       -13.6712
  11   2.0000      -0.502406       -13.6712
  12   2.0000      -0.502406       -13.6712
  13   2.0000      -0.450807       -12.2671
  14   2.0000      -0.450807       -12.2671
  15   2.0000      -0.411018       -11.1844
  16   2.0000      -0.411018       -11.1844
  17   2.0000      -0.411017       -11.1844
  18   2.0000      -0.364401        -9.9159
  19   2.0000      -0.364401        -9.9159
  20   2.0000      -0.364401        -9.9159
  21   0.0000       0.118228         3.2171
  22   0.0000       0.186226         5.0675
  23   0.0000       0.186226         5.0675
  24   0.0000       0.186226         5.0675
  25   0.0000       0.217074         5.9069

MULLIKEN ATOMIC CHARGES
-----------------------
   0 C :   -0.607844
   1 C :   -0.104050
   2 C :   -0.607843
   3 C :   -0.607843
   4 C :   -0.607843
   5 H :    0.211285
   6 H :    0.211285
   7 H :    0.211285
   8 H :    0.211285
   9 H :    0.211285
  10 H :    0.211285
  11 H :    0.211285
  12 H :    0.211285
  13 H :    0.211285
  14 H :    0.211285
  15 H :    0.211285
  16 H :    0.211285
Sum of atomic charges:   -0.0000000

LOEWDIN ATOMIC CHARGES
----------------------
   0 C :   -0.345180
   1 C :   -0.109322
   2 C :   -0.345180
   3 C :   -0.345180
   4 C :   -0.345180
   5 H :    0.124170
   6 H :    0.124170
   7 H :    0.124170
   8 H :    0.124170
   9 H :    0.124170
  10 H :    0.124170
  11 H :    0.124170
  12 H :    0.124170
  13 H :    0.124170
  14 H :    0.124170
  15 H :    0.124170
  16 H :    0.124170

  Mayer bond orders larger than 0.100000
B(  0-C ,  1-C ) :   0.9798 B(  0-C ,  5-H ) :   0.9303 B(  0-C ,  6-H ) :   0.9303
B(  0-C ,  7-H ) :   0.9303 B(  1-C ,  2-C ) :   0.9798 B(  1-C ,  3-C ) :   0.9798
B(  1-C ,  4-C ) :   0.9798 B(  2-C ,  8-H ) :   0.9303 B(  2-C ,  9-H ) :   0.9303
B(  2-C , 10-H ) :   0.9303 B(  3-C , 11-H ) :   0.9303 B(  3-C , 12-H ) :   0.9303
B(  3-C , 13-H ) :   0.9303 B(  4-C , 14-H ) :   0.9303 B(  4-C , 15-H ) :   0.9303
B(  4-C , 16-H ) :   0.9303

Dispersion correction           -0.007669580
FINAL SINGLE POINT ENERGY      -197.340752662208

DIPOLE MOMENT
-------------
                                X             Y             Z
Electronic contribution:     -0.00000      -0.00000       0.00000
Nuclear contribution   :     -0.00000       0.00000       0.00000
                        -----------------------------------------
Total Dipole Moment    :     -0.00000      -0.00000       0.00000
                        -----------------------------------------
Magnitude (a.u.)       :      0.00000
Magnitude (Debye)      :      0.00000

Rotational constants in cm-1:     0.147574     0.147574     0.147574
Rotational constants in MHz :  4424.168934  4424.168934  4424.168934

                             ****ORCA TERMINATED NORMALLY****
TOTAL RUN TIME: 0 days 0 hours 1 minutes 16 seconds 190 msec
