                         Program Version 5.0.3 -  RELEASE  -
|  1> ! PBEh-3c def2/J TightSCF DefGrid3
|  2>
|  3> %maxcore 60000
|  4>
|  5> %pal
|  6> nprocs 4
|  7> end
|  8>
|  9> *xyzfile 0 1 64B.xyz
| 10>
| 11>                          ****END OF INPUT****

CARTESIAN COORDINATES (ANGSTROEM)
---------------------------------
  C     -0.567259   -0.346674    0.000000
  H     -0.573170   -1.427609    0.000000
  H     -1.523729    0.157467    0.000000
  C      0.567259    0.346674    0.000000
  H      1.523729   -0.157467    0.000000
  H      0.573170    1.427609    0.000000

 Total Charge           Charge          ....    0
 Multiplicity           Mult            ....    1
 Number of Electrons    NEL             ....   16
 Basis Dimension        Dim             ....   38

ORBITAL ENERGIES
----------------

  NO   OCC          E(Eh)            E(eV)
   0   2.0000     -10.440260      -284.0939
   1   2.0000     -10.439293      -284.0676
   2   2.0000      -0.849913       -23.1273
   3   2.0000      -0.651457       -17.7270
   4   2.0000      -0.532638       -14.4938
   5   2.0000      -0.476873       -12.9764
   6   2.0000      -0.409460       -11.1420
   7   2.0000      -0.316540        -8.6135
   8   0.0000       0.040244         1.0951
   9   0.0000       0.168869         4.5952
  10   0.0000       0.197586         5.3766
  11   0.0000       0.211251         5.7484
  12   0.0000       0.317481         8.6391

MULLIKEN ATOMIC CHARGES
-----------------------
   0 C :   -0.430288
   1 H :    0.216041
   2 H :    0.214247
   3 C :   -0.430288
   4 H :    0.214247
   5 H :    0.216041
Sum of atomic charges:   -0.0000000

LOEWDIN ATOMIC CHARGES
----------------------
   0 C :   -0.260589
   1 H :    0.130562
   2 H :    0.130027
   3 C :   -0.260589
   4 H :    0.130027
   5 H :    0.130562

  Mayer bond orders larger than 0.100000
B(  0-C ,  1-H ) :   0.9298 B(  0-C ,  2-H ) :   0.9306 B(  0-C ,  3-C ) :   1.9826
B(  3-C ,  4-H ) :   0.9306 B(  3-C ,  5-H ) :   0.9298

Dispersion correction           -0.001302698
FINAL SINGLE POINT ENERGY       -78.405312246054

DIPOLE MOMENT
-------------
                                X             Y             Z
Electronic contribution:      0.00000      -0.00000      -0.00000
Nuclear contribution   :     -0.00000       0.00000       0.00000
                        -----------------------------------------
Total Dipole Moment    :      0.00000      -0.00000      -0.00000
                        -----------------------------------------
Magnitude (a.u.)       :      0.00000
Magnitude (Debye)      :      0.00000

Rotational constants in cm-1:     4.895911     1.010931     0.837914
Rotational constants in MHz : 146775.709834 30306.943567 25120.038973

                             ****ORCA TERMINATED NORMALLY****
TOTAL RUN TIME: 0 days 0 hours 0 minutes 57 seconds 409 msec
