                         Program Version 5.0.3 -  RELEASE  -
|  1> ! PBEh-3c def2/J TightSCF DefGrid3
|  2>
|  3> %maxcore 60000
|  4>
|  5> %pal
|  6> nprocs 4
|  7> end
|  8>
|  9> *xyzfile 1 2 7p1.xyz
| 10>
| 11>                          ****END OF INPUT****

CARTESIAN COORDINATES (ANGSTROEM)
---------------------------------
  O     -0.306705    2.645116    0.000000
  C     -0.631843    1.567977    0.000000
  C     -1.040964    0.261546    0.000000
  H     -2.119469    0.121711    0.000000
  C     -0.140870   -0.804701    0.000000
  H     -0.587715   -1.793691    0.000000
  C      1.233306   -0.690247    0.000000
  H      1.740317    0.269876    0.000000
  H      1.853944   -1.577587    0.000000

 Total Charge           Charge          ....    1
 Multiplicity           Mult            ....    2
 Number of Electrons    NEL             ....   35
 Basis Dimension        Dim             ....   83

ORBITAL ENERGIES
----------------
                 SPIN UP ORBITALS
  NO   OCC          E(Eh)            E(eV)
   0   1.0000     -19.859569      -540.4063
   1   1.0000     -10.861265      -295.5500
   2   1.0000     -10.738548      -292.2108
   3   1.0000     -10.718232      -291.6579
   4   1.0000     -10.705522      -291.3121
   5   1.0000      -1.533204       -41.7206
   6   1.0000      -1.186747       -32.2930
   7   1.0000      -1.076799       -29.3012
   8   1.0000      -0.938674       -25.5426
   9   1.0000      -0.859793       -23.3961
  10   1.0000      -0.830264       -22.5926
  11   1.0000      -0.805490       -21.9185
  12   1.0000      -0.792864       -21.5749
  13   1.0000      -0.759487       -20.6667
  14   1.0000      -0.704568       -19.1723
  15   1.0000      -0.667412       -18.1612
  16   1.0000      -0.635998       -17.3064
  17   1.0000      -0.520353       -14.1595
  18   0.0000      -0.252711        -6.8766
  19   0.0000      -0.247866        -6.7448
  20   0.0000      -0.112645        -3.0652
  21   0.0000      -0.065113        -1.7718
  22   0.0000      -0.038493        -1.0475

                 SPIN DOWN ORBITALS
  NO   OCC          E(Eh)            E(eV)
   0   1.0000     -19.855036      -540.2830
   1   1.0000     -10.860772      -295.5366
   2   1.0000     -10.732669      -292.0508
   3   1.0000     -10.719944      -291.7045
   4   1.0000     -10.695730      -291.0456
   5   1.0000      -1.525346       -41.5068
   6   1.0000      -1.172068       -31.8936
   7   1.0000      -1.051178       -28.6040
   8   1.0000      -0.928415       -25.2635
   9   1.0000      -0.852573       -23.1997
  10   1.0000      -0.825543       -22.4642
  11   1.0000      -0.785716       -21.3804
  12   1.0000      -0.778216       -21.1763
  13   1.0000      -0.755093       -20.5471
  14   1.0000      -0.698529       -19.0079
  15   1.0000      -0.663453       -18.0535
  16   1.0000      -0.591068       -16.0838
  17   0.0000      -0.350788        -9.5454
  18   0.0000      -0.250184        -6.8079
  19   0.0000      -0.205672        -5.5966
  20   0.0000      -0.076404        -2.0790
  21   0.0000      -0.058083        -1.5805

MULLIKEN ATOMIC CHARGES AND SPIN POPULATIONS
--------------------------------------------
   0 O :   -0.023157    0.131987
   1 C :    0.503180    0.040873
   2 C :   -0.349564    0.369636
   3 H :    0.394340   -0.021797
   4 C :   -0.094626   -0.110518
   5 H :    0.344052    0.004376
   6 C :   -0.403515    0.655039
   7 H :    0.294097   -0.034028
   8 H :    0.335193   -0.035568
Sum of atomic charges         :    1.0000000

LOEWDIN ATOMIC CHARGES AND SPIN POPULATIONS
-------------------------------------------
   0 O :    0.157248    0.127370
   1 C :    0.348650    0.069921
   2 C :   -0.176650    0.309247
   3 H :    0.231455   -0.011360
   4 C :   -0.046489   -0.046354
   5 H :    0.194319    0.001769
   6 C :   -0.068171    0.583698
   7 H :    0.167868   -0.016867
   8 H :    0.191771   -0.017423

  Mayer bond orders larger than 0.100000
B(  0-O ,  1-C ) :   2.5105 B(  1-C ,  2-C ) :   1.2743 B(  2-C ,  3-H ) :   0.8140
B(  2-C ,  4-C ) :   1.3690 B(  4-C ,  5-H ) :   0.8649 B(  4-C ,  6-C ) :   1.3993
B(  6-C ,  7-H ) :   0.9007 B(  6-C ,  8-H ) :   0.8830

Dispersion correction           -0.003431390
FINAL SINGLE POINT ENERGY      -229.184024566312

DIPOLE MOMENT
-------------
                                X             Y             Z
Electronic contribution:     -1.53497       4.24799      -0.00000
Nuclear contribution   :      1.43557      -5.15462       0.00000
                        -----------------------------------------
Total Dipole Moment    :     -0.09940      -0.90663      -0.00000
                        -----------------------------------------
Magnitude (a.u.)       :      0.91206
Magnitude (Debye)      :      2.31828

Rotational constants in cm-1:     0.454563     0.116739     0.092885
Rotational constants in MHz : 13627.460929  3499.740753  2784.610192

                             ****ORCA TERMINATED NORMALLY****
TOTAL RUN TIME: 0 days 0 hours 3 minutes 5 seconds 502 msec
