                         Program Version 5.0.3 -  RELEASE  -
|  1> ! PBEh-3c def2/J TightSCF DefGrid3
|  2>
|  3> %maxcore 60000
|  4>
|  5> %pal
|  6> nprocs 4
|  7> end
|  8>
|  9> *xyzfile 0 1 97.xyz
| 10>
| 11>                          ****END OF INPUT****

CARTESIAN COORDINATES (ANGSTROEM)
---------------------------------
  Cl     0.000000    1.493992    0.834644
  C      0.000000    0.000000   -0.155598
  Cl     0.000000   -1.493992    0.834644
  H      0.898649    0.000000   -0.756845
  H     -0.898649    0.000000   -0.756845

 Total Charge           Charge          ....    0
 Multiplicity           Mult            ....    1
 Number of Electrons    NEL             ....   42
 Basis Dimension        Dim             ....   55

ORBITAL ENERGIES
----------------

  NO   OCC          E(Eh)            E(eV)
   0   2.0000    -102.308707     -2783.9615
   1   2.0000    -102.308646     -2783.9598
   2   2.0000     -10.567188      -287.5478
   3   2.0000      -9.776187      -266.0236
   4   2.0000      -9.776153      -266.0226
   5   2.0000      -7.464143      -203.1096
   6   2.0000      -7.464119      -203.1090
   7   2.0000      -7.455435      -202.8727
   8   2.0000      -7.455419      -202.8723
   9   2.0000      -7.455046      -202.8621
  10   2.0000      -7.455043      -202.8620
  11   2.0000      -0.994325       -27.0570
  12   2.0000      -0.911737       -24.8096
  13   2.0000      -0.745559       -20.2877
  14   2.0000      -0.564033       -15.3481
  15   2.0000      -0.516411       -14.0523
  16   2.0000      -0.497192       -13.5293
  17   2.0000      -0.379274       -10.3206
  18   2.0000      -0.378108       -10.2889
  19   2.0000      -0.359367        -9.7789
  20   2.0000      -0.355836        -9.6828
  21   0.0000       0.031829         0.8661
  22   0.0000       0.072401         1.9701
  23   0.0000       0.144583         3.9343
  24   0.0000       0.174506         4.7486
  25   0.0000       0.435294        11.8449

MULLIKEN ATOMIC CHARGES
-----------------------
   0 Cl:   -0.081869
   1 C :   -0.431966
   2 Cl:   -0.081869
   3 H :    0.297853
   4 H :    0.297853
Sum of atomic charges:   -0.0000000

LOEWDIN ATOMIC CHARGES
----------------------
   0 Cl:    0.015896
   1 C :   -0.321847
   2 Cl:    0.015896
   3 H :    0.145028
   4 H :    0.145028

  Mayer bond orders larger than 0.100000
B(  0-Cl,  1-C ) :   1.0283 B(  1-C ,  2-Cl) :   1.0283 B(  1-C ,  3-H ) :   0.8552
B(  1-C ,  4-H ) :   0.8552

Dispersion correction           -0.001751519
FINAL SINGLE POINT ENERGY      -958.613459812391

DIPOLE MOMENT
-------------
                                X             Y             Z
Electronic contribution:      0.00000       0.00000       2.40688
Nuclear contribution   :      0.00000       0.00000      -3.12988
                        -----------------------------------------
Total Dipole Moment    :      0.00000       0.00000      -0.72300
                        -----------------------------------------
Magnitude (a.u.)       :      0.72300
Magnitude (Debye)      :      1.83772

Rotational constants in cm-1:     1.065144     0.105432     0.097747
Rotational constants in MHz : 31932.218026  3160.771131  2930.386672

                             ****ORCA TERMINATED NORMALLY****
TOTAL RUN TIME: 0 days 0 hours 0 minutes 44 seconds 848 msec
