                         Program Version 5.0.3 -  RELEASE  -
|  1> ! PBEh-3c def2/J TightSCF DefGrid3
|  2>
|  3> %maxcore 60000
|  4>
|  5> %pal
|  6> nprocs 4
|  7> end
|  8>
|  9> *xyzfile -1 1 9A.xyz
| 10>
| 11>                          ****END OF INPUT****

CARTESIAN COORDINATES (ANGSTROEM)
---------------------------------
  O      0.379141    1.170065   -0.635039
  H     -0.134136    1.611432   -1.323229

 Total Charge           Charge          ....   -1
 Multiplicity           Mult            ....    1
 Number of Electrons    NEL             ....   10
 Basis Dimension        Dim             ....   17

ORBITAL ENERGIES
----------------

  NO   OCC          E(Eh)            E(eV)
   0   2.0000     -18.994232      -516.8593
   1   2.0000      -0.580027       -15.7833
   2   2.0000      -0.043003        -1.1702
   3   2.0000       0.106230         2.8907
   4   2.0000       0.106232         2.8907
   5   0.0000       0.487595        13.2681
   6   0.0000       1.319913        35.9167
   7   0.0000       1.413717        38.4692
   8   0.0000       1.413720        38.4693
   9   0.0000       1.467541        39.9338

MULLIKEN ATOMIC CHARGES
-----------------------
   0 O :   -1.194239
   1 H :    0.194239
Sum of atomic charges:   -1.0000000

LOEWDIN ATOMIC CHARGES
----------------------
   0 O :   -1.139874
   1 H :    0.139874

  Mayer bond orders larger than 0.100000
B(  0-O ,  1-H ) :   0.9342

Dispersion correction           -0.000087274
FINAL SINGLE POINT ENERGY       -75.563067129707

DIPOLE MOMENT
-------------
                                X             Y             Z
Electronic contribution:      0.20097      -0.17281       0.26946
Nuclear contribution   :     -0.45255       0.38915      -0.60677
                        -----------------------------------------
Total Dipole Moment    :     -0.25158       0.21634      -0.33732
                        -----------------------------------------
Magnitude (a.u.)       :      0.47316
Magnitude (Debye)      :      1.20267

Rotational constants in cm-1:     0.000000    19.077389    19.077389
Rotational constants in MHz :     0.000000 571925.720310 571925.720310

                             ****ORCA TERMINATED NORMALLY****
TOTAL RUN TIME: 0 days 0 hours 0 minutes 5 seconds 294 msec
