                         Program Version 5.0.3 -  RELEASE  -
|  1> ! PBEh-3c def2/J TightSCF DefGrid3
|  2>
|  3> %maxcore 60000
|  4>
|  5> %pal
|  6> nprocs 4
|  7> end
|  8>
|  9> *xyzfile 0 1 i17e.xyz
| 10>
| 11>                          ****END OF INPUT****

CARTESIAN COORDINATES (ANGSTROEM)
---------------------------------
  C      0.075099    1.316829   -1.309209
  C     -1.208046    0.583151   -1.228940
  C     -1.043108   -0.402606   -0.094852
  C      0.401914   -0.278928    0.418760
  C      0.964538    0.911414   -0.371496
  C      2.774638    2.601659   -0.801653
  C      2.283580    1.486750   -0.085744
  C      3.107347    0.941064    0.920665
  C      4.365818    1.481502    1.196465
  C      4.836295    2.581238    0.474210
  C      4.030712    3.137941   -0.528754
  C      1.617415   -1.937943   -1.075700
  C      1.168133   -1.575306    0.201900
  C      1.391667   -2.452679    1.271809
  C      2.055549   -3.667755    1.074407
  C      2.501988   -4.020503   -0.203408
  C      2.279674   -3.151508   -1.278134
  C     -5.628649    1.231115    0.999553
  C     -6.247237    0.223065    0.252603
  C     -5.465145   -0.614585   -0.551294
  C     -4.079949   -0.447023   -0.606496
  C     -3.445338    0.563261    0.140276
  C     -4.242557    1.399442    0.941173
  C     -1.976422    0.771914    0.098416
  H      0.237246    2.129293   -2.013026
  H     -1.805013    0.374303   -2.115029
  H     -1.490283   -1.392605   -0.138268
  H      0.405394   -0.054634    1.495415
  H      2.161751    3.053181   -1.578340
  H      2.766161    0.076703    1.482435
  H      4.980725    1.037518    1.977338
  H      5.816629    3.002457    0.688098
  H      4.383866    3.996909   -1.096780
  H      1.454217   -1.253627   -1.905800
  H      1.044173   -2.176036    2.267130
  H      2.225768   -4.336234    1.916625
  H      3.021797   -4.963703   -0.360507
  H      2.627710   -3.418367   -2.274592
  H     -6.226024    1.888937    1.628487
  H     -7.326480    0.090860    0.295709
  H     -5.936058   -1.402344   -1.136878
  H     -3.484117   -1.106322   -1.234873
  H     -3.765268    2.187220    1.522756
  H     -1.610110    1.584982    0.725546

 Total Charge           Charge          ....    0
 Multiplicity           Mult            ....    1
 Number of Electrons    NEL             ....  164
 Basis Dimension        Dim             ....  400

ORBITAL ENERGIES
----------------

  NO   OCC          E(Eh)            E(eV)
   0   2.0000     -10.464794      -284.7615
   1   2.0000     -10.462747      -284.7058
   2   2.0000     -10.462162      -284.6899
   3   2.0000     -10.460776      -284.6522
   4   2.0000     -10.460195      -284.6364
   5   2.0000     -10.459359      -284.6136
   6   2.0000     -10.459290      -284.6117
   7   2.0000     -10.457895      -284.5738
   8   2.0000     -10.452867      -284.4370
   9   2.0000     -10.450955      -284.3849
  10   2.0000     -10.450832      -284.3816
  11   2.0000     -10.450694      -284.3778
  12   2.0000     -10.450243      -284.3656
  13   2.0000     -10.449945      -284.3574
  14   2.0000     -10.449779      -284.3529
  15   2.0000     -10.449665      -284.3498
  16   2.0000     -10.449577      -284.3475
  17   2.0000     -10.449049      -284.3331
  18   2.0000     -10.448928      -284.3298
  19   2.0000     -10.448646      -284.3221
  20   2.0000     -10.448221      -284.3105
  21   2.0000     -10.447900      -284.3018
  22   2.0000     -10.447154      -284.2815
  23   2.0000     -10.445877      -284.2468
  24   2.0000      -1.004234       -27.3266
  25   2.0000      -0.958926       -26.0937
  26   2.0000      -0.951661       -25.8960
  27   2.0000      -0.946475       -25.7549
  28   2.0000      -0.893222       -24.3058
  29   2.0000      -0.856181       -23.2979
  30   2.0000      -0.843864       -22.9627
  31   2.0000      -0.833775       -22.6882
  32   2.0000      -0.833348       -22.6766
  33   2.0000      -0.833030       -22.6679
  34   2.0000      -0.809344       -22.0234
  35   2.0000      -0.781982       -21.2788
  36   2.0000      -0.719570       -19.5805
  37   2.0000      -0.693324       -18.8663
  38   2.0000      -0.682829       -18.5807
  39   2.0000      -0.682091       -18.5606
  40   2.0000      -0.679049       -18.4779
  41   2.0000      -0.668148       -18.1812
  42   2.0000      -0.641978       -17.4691
  43   2.0000      -0.628965       -17.1150
  44   2.0000      -0.609670       -16.5900
  45   2.0000      -0.601282       -16.3617
  46   2.0000      -0.580425       -15.7942
  47   2.0000      -0.573457       -15.6045
  48   2.0000      -0.549627       -14.9561
  49   2.0000      -0.532000       -14.4765
  50   2.0000      -0.525357       -14.2957
  51   2.0000      -0.517586       -14.0842
  52   2.0000      -0.514693       -14.0055
  53   2.0000      -0.508266       -13.8306
  54   2.0000      -0.505954       -13.7677
  55   2.0000      -0.493385       -13.4257
  56   2.0000      -0.480140       -13.0653
  57   2.0000      -0.478870       -13.0307
  58   2.0000      -0.478194       -13.0123
  59   2.0000      -0.474745       -12.9185
  60   2.0000      -0.466250       -12.6873
  61   2.0000      -0.445423       -12.1206
  62   2.0000      -0.438203       -11.9241
  63   2.0000      -0.431908       -11.7528
  64   2.0000      -0.425225       -11.5710
  65   2.0000      -0.422177       -11.4880
  66   2.0000      -0.412603       -11.2275
  67   2.0000      -0.406302       -11.0560
  68   2.0000      -0.399918       -10.8823
  69   2.0000      -0.397479       -10.8160
  70   2.0000      -0.395552       -10.7635
  71   2.0000      -0.391331       -10.6486
  72   2.0000      -0.383739       -10.4421
  73   2.0000      -0.373150       -10.1539
  74   2.0000      -0.342434        -9.3181
  75   2.0000      -0.327898        -8.9226
  76   2.0000      -0.293218        -7.9789
  77   2.0000      -0.291593        -7.9346
  78   2.0000      -0.291050        -7.9199
  79   2.0000      -0.283329        -7.7098
  80   2.0000      -0.275662        -7.5011
  81   2.0000      -0.244508        -6.6534
  82   0.0000      -0.021258        -0.5785
  83   0.0000       0.010058         0.2737
  84   0.0000       0.015818         0.4304
  85   0.0000       0.017425         0.4742
  86   0.0000       0.021406         0.5825

MULLIKEN ATOMIC CHARGES
-----------------------
   0 C :   -0.232245
   1 C :   -0.261401
   2 C :   -0.220440
   3 C :   -0.373217
   4 C :    0.097270
   5 C :   -0.303169
   6 C :    0.149799
   7 C :   -0.299456
   8 C :   -0.200132
   9 C :   -0.239988
  10 C :   -0.198146
  11 C :   -0.262662
  12 C :    0.162270
  13 C :   -0.291338
  14 C :   -0.209627
  15 C :   -0.233984
  16 C :   -0.205862
  17 C :   -0.204580
  18 C :   -0.239781
  19 C :   -0.200773
  20 C :   -0.331501
  21 C :    0.273331
  22 C :   -0.295728
  23 C :   -0.340593
  24 H :    0.212463
  25 H :    0.238419
  26 H :    0.256299
  27 H :    0.240966
  28 H :    0.203685
  29 H :    0.231444
  30 H :    0.220116
  31 H :    0.219621
  32 H :    0.219070
  33 H :    0.231285
  34 H :    0.214957
  35 H :    0.218391
  36 H :    0.219201
  37 H :    0.219083
  38 H :    0.218597
  39 H :    0.218445
  40 H :    0.218785
  41 H :    0.214195
  42 H :    0.212199
  43 H :    0.234735
Sum of atomic charges:   -0.0000000

LOEWDIN ATOMIC CHARGES
----------------------
   0 C :   -0.122950
   1 C :   -0.136143
   2 C :   -0.118189
   3 C :   -0.110161
   4 C :   -0.039825
   5 C :   -0.120631
   6 C :   -0.039414
   7 C :   -0.124457
   8 C :   -0.131687
   9 C :   -0.137141
  10 C :   -0.133823
  11 C :   -0.123513
  12 C :   -0.040507
  13 C :   -0.142069
  14 C :   -0.133228
  15 C :   -0.139137
  16 C :   -0.129783
  17 C :   -0.130294
  18 C :   -0.145104
  19 C :   -0.129022
  20 C :   -0.144322
  21 C :   -0.027877
  22 C :   -0.136531
  23 C :   -0.121750
  24 H :    0.135415
  25 H :    0.140044
  26 H :    0.145680
  27 H :    0.140682
  28 H :    0.133754
  29 H :    0.143473
  30 H :    0.137214
  31 H :    0.136305
  32 H :    0.136388
  33 H :    0.144956
  34 H :    0.134351
  35 H :    0.136290
  36 H :    0.135959
  37 H :    0.136566
  38 H :    0.136486
  39 H :    0.135742
  40 H :    0.136299
  41 H :    0.134528
  42 H :    0.135291
  43 H :    0.142132

  Mayer bond orders larger than 0.100000
B(  0-C ,  1-C ) :   1.0372 B(  0-C ,  4-C ) :   1.7309 B(  0-C , 24-H ) :   0.9238
B(  1-C ,  2-C ) :   0.9237 B(  1-C , 23-C ) :   0.8674 B(  1-C , 25-H ) :   0.9048
B(  2-C ,  3-C ) :   0.9764 B(  2-C , 23-C ) :   0.8955 B(  2-C , 26-H ) :   0.9026
B(  3-C ,  4-C ) :   0.9596 B(  3-C , 12-C ) :   0.9539 B(  3-C , 27-H ) :   0.9045
B(  4-C ,  6-C ) :   1.0104 B(  5-C ,  6-C ) :   1.3506 B(  5-C , 10-C ) :   1.4473
B(  5-C , 28-H ) :   0.9234 B(  6-C ,  7-C ) :   1.3621 B(  7-C ,  8-C ) :   1.4202
B(  7-C , 29-H ) :   0.9080 B(  8-C ,  9-C ) :   1.4277 B(  8-C , 30-H ) :   0.9205
B(  9-C , 10-C ) :   1.4000 B(  9-C , 31-H ) :   0.9189 B( 10-C , 32-H ) :   0.9204
B( 11-C , 12-C ) :   1.3960 B( 11-C , 16-C ) :   1.4270 B( 11-C , 33-H ) :   0.9103
B( 12-C , 13-C ) :   1.3917 B( 13-C , 14-C ) :   1.4219 B( 13-C , 34-H ) :   0.9212
B( 14-C , 15-C ) :   1.4258 B( 14-C , 35-H ) :   0.9198 B( 15-C , 16-C ) :   1.4166
B( 15-C , 36-H ) :   0.9195 B( 16-C , 37-H ) :   0.9205 B( 17-C , 18-C ) :   1.4240
B( 17-C , 22-C ) :   1.4242 B( 17-C , 38-H ) :   0.9197 B( 18-C , 19-C ) :   1.4168
B( 18-C , 39-H ) :   0.9194 B( 19-C , 20-C ) :   1.4359 B( 19-C , 40-H ) :   0.9206
B( 20-C , 21-C ) :   1.3600 B( 20-C , 41-H ) :   0.9192 B( 21-C , 22-C ) :   1.3752
B( 21-C , 23-C ) :   0.9760 B( 22-C , 42-H ) :   0.9225 B( 23-C , 43-H ) :   0.9156

Dispersion correction           -0.034061323
FINAL SINGLE POINT ENERGY      -924.514828761267

DIPOLE MOMENT
-------------
                                X             Y             Z
Electronic contribution:      0.89159       1.05886      -0.27588
Nuclear contribution   :     -0.83258      -1.09557       0.23381
                        -----------------------------------------
Total Dipole Moment    :      0.05901      -0.03671      -0.04206
                        -----------------------------------------
Magnitude (a.u.)       :      0.08124
Magnitude (Debye)      :      0.20649

Rotational constants in cm-1:     0.011933     0.004679     0.003702
Rotational constants in MHz :   357.755359   140.275554   110.991530

                             ****ORCA TERMINATED NORMALLY****
TOTAL RUN TIME: 0 days 0 hours 6 minutes 53 seconds 527 msec
