                         Program Version 5.0.3 -  RELEASE  -
|  1> ! PBEh-3c def2/J TightSCF DefGrid3
|  2>
|  3> %maxcore 60000
|  4>
|  5> %pal
|  6> nprocs 4
|  7> end
|  8>
|  9> *xyzfile -1 2 EA_25.xyz
| 10>
| 11>                          ****END OF INPUT****

CARTESIAN COORDINATES (ANGSTROEM)
---------------------------------
  Cl     0.000000    0.000000    1.366505
  Cl     0.000000    0.000000   -1.366505

 Total Charge           Charge          ....   -1
 Multiplicity           Mult            ....    2
 Number of Electrons    NEL             ....   35
 Basis Dimension        Dim             ....   36

ORBITAL ENERGIES
----------------
                 SPIN UP ORBITALS
  NO   OCC          E(Eh)            E(eV)
   0   1.0000    -102.026723     -2776.2883
   1   1.0000    -102.026655     -2776.2864
   2   1.0000      -9.490114      -258.2391
   3   1.0000      -9.490086      -258.2384
   4   1.0000      -7.182135      -195.4358
   5   1.0000      -7.182112      -195.4352
   6   1.0000      -7.169851      -195.1016
   7   1.0000      -7.169851      -195.1016
   8   1.0000      -7.169835      -195.1011
   9   1.0000      -7.169835      -195.1011
  10   1.0000      -0.634420       -17.2635
  11   1.0000      -0.603665       -16.4266
  12   1.0000      -0.188251        -5.1226
  13   1.0000      -0.126012        -3.4290
  14   1.0000      -0.126012        -3.4290
  15   1.0000      -0.100230        -2.7274
  16   1.0000      -0.100230        -2.7274
  17   1.0000      -0.081518        -2.2182
  18   0.0000       0.691714        18.8225
  19   0.0000       0.791232        21.5305
  20   0.0000       1.013210        27.5708
  21   0.0000       1.057999        28.7896
  22   0.0000       1.061327        28.8802

                 SPIN DOWN ORBITALS
  NO   OCC          E(Eh)            E(eV)
   0   1.0000    -102.022069     -2776.1616
   1   1.0000    -102.022003     -2776.1598
   2   1.0000      -9.485474      -258.1129
   3   1.0000      -9.485465      -258.1126
   4   1.0000      -7.167053      -195.0254
   5   1.0000      -7.167053      -195.0254
   6   1.0000      -7.167040      -195.0251
   7   1.0000      -7.167040      -195.0251
   8   1.0000      -7.166199      -195.0022
   9   1.0000      -7.166176      -195.0016
  10   1.0000      -0.600351       -16.3364
  11   1.0000      -0.565956       -15.4004
  12   1.0000      -0.116122        -3.1598
  13   1.0000      -0.116122        -3.1598
  14   1.0000      -0.106493        -2.8978
  15   1.0000      -0.089746        -2.4421
  16   1.0000      -0.089746        -2.4421
  17   0.0000       0.100894         2.7455
  18   0.0000       0.703043        19.1308
  19   0.0000       0.805287        21.9130
  20   0.0000       1.053841        28.6765
  21   0.0000       1.085974        29.5509

MULLIKEN ATOMIC CHARGES AND SPIN POPULATIONS
--------------------------------------------
   0 Cl:   -0.500000    0.500000
   1 Cl:   -0.500000    0.500000
Sum of atomic charges         :   -1.0000000

LOEWDIN ATOMIC CHARGES AND SPIN POPULATIONS
-------------------------------------------
   0 Cl:   -0.500000    0.500000
   1 Cl:   -0.500000    0.500000

  Mayer bond orders larger than 0.100000
B(  0-Cl,  1-Cl) :   0.5072

Dispersion correction           -0.000421805
FINAL SINGLE POINT ENERGY      -919.443796325018

DIPOLE MOMENT
-------------
                                X             Y             Z
Electronic contribution:      0.00000       0.00000       0.00000
Nuclear contribution   :      0.00000       0.00000       0.00000
                        -----------------------------------------
Total Dipole Moment    :      0.00000       0.00000       0.00000
                        -----------------------------------------
Magnitude (a.u.)       :      0.00000
Magnitude (Debye)      :      0.00000

Rotational constants in cm-1:     0.000000     0.127319     0.127319
Rotational constants in MHz :     0.000000  3816.914411  3816.914411

                             ****ORCA TERMINATED NORMALLY****
TOTAL RUN TIME: 0 days 0 hours 0 minutes 18 seconds 578 msec
