                         Program Version 5.0.3 -  RELEASE  -
|  1> ! PBEh-3c def2/J TightSCF DefGrid3
|  2>
|  3> %maxcore 60000
|  4>
|  5> %pal
|  6> nprocs 4
|  7> end
|  8>
|  9> *xyzfile 0 1 67.xyz
| 10>
| 11>                          ****END OF INPUT****

CARTESIAN COORDINATES (ANGSTROEM)
---------------------------------
  Si     0.000000    0.000000    0.000000
  Cl     1.182528   -1.182528    1.182528
  Cl    -1.182528    1.182528    1.182528
  Cl    -1.182528   -1.182528   -1.182528
  Cl     1.182528    1.182528   -1.182528

 Total Charge           Charge          ....    0
 Multiplicity           Mult            ....    1
 Number of Electrons    NEL             ....   82
 Basis Dimension        Dim             ....   90

ORBITAL ENERGIES
----------------

  NO   OCC          E(Eh)            E(eV)
   0   2.0000    -102.331978     -2784.5947
   1   2.0000    -102.331859     -2784.5915
   2   2.0000    -102.331859     -2784.5915
   3   2.0000    -102.331859     -2784.5915
   4   2.0000     -66.909267     -1820.6937
   5   2.0000      -9.799807      -266.6663
   6   2.0000      -9.799765      -266.6651
   7   2.0000      -9.799765      -266.6651
   8   2.0000      -9.799765      -266.6651
   9   2.0000      -7.485915      -203.7021
  10   2.0000      -7.485915      -203.7021
  11   2.0000      -7.485915      -203.7021
  12   2.0000      -7.485913      -203.7020
  13   2.0000      -7.479791      -203.5355
  14   2.0000      -7.479791      -203.5355
  15   2.0000      -7.479791      -203.5355
  16   2.0000      -7.479781      -203.5352
  17   2.0000      -7.479781      -203.5352
  18   2.0000      -7.479781      -203.5352
  19   2.0000      -7.479762      -203.5347
  20   2.0000      -7.479762      -203.5347
  21   2.0000      -5.669531      -154.2758
  22   2.0000      -3.961669      -107.8025
  23   2.0000      -3.961669      -107.8025
  24   2.0000      -3.961669      -107.8025
  25   2.0000      -0.986529       -26.8448
  26   2.0000      -0.937074       -25.4991
  27   2.0000      -0.937074       -25.4991
  28   2.0000      -0.937074       -25.4991
  29   2.0000      -0.616705       -16.7814
  30   2.0000      -0.506492       -13.7823
  31   2.0000      -0.506492       -13.7823
  32   2.0000      -0.506492       -13.7823
  33   2.0000      -0.430667       -11.7190
  34   2.0000      -0.430667       -11.7190
  35   2.0000      -0.418627       -11.3914
  36   2.0000      -0.418627       -11.3914
  37   2.0000      -0.418627       -11.3914
  38   2.0000      -0.389680       -10.6037
  39   2.0000      -0.389680       -10.6037
  40   2.0000      -0.389680       -10.6037
  41   0.0000      -0.004288        -0.1167
  42   0.0000       0.051152         1.3919
  43   0.0000       0.051152         1.3919
  44   0.0000       0.051152         1.3919
  45   0.0000       0.148769         4.0482

MULLIKEN ATOMIC CHARGES
-----------------------
   0 Si:    0.828998
   1 Cl:   -0.207249
   2 Cl:   -0.207249
   3 Cl:   -0.207249
   4 Cl:   -0.207249
Sum of atomic charges:   -0.0000000

LOEWDIN ATOMIC CHARGES
----------------------
   0 Si:    0.073770
   1 Cl:   -0.018442
   2 Cl:   -0.018442
   3 Cl:   -0.018442
   4 Cl:   -0.018442

  Mayer bond orders larger than 0.100000
B(  0-Si,  1-Cl) :   1.1206 B(  0-Si,  2-Cl) :   1.1206 B(  0-Si,  3-Cl) :   1.1206
B(  0-Si,  4-Cl) :   1.1206

Dispersion correction           -0.003676033
FINAL SINGLE POINT ENERGY     -2128.160659516409

DIPOLE MOMENT
-------------
                                X             Y             Z
Electronic contribution:      0.00000       0.00000       0.00000
Nuclear contribution   :      0.00000       0.00000       0.00000
                        -----------------------------------------
Total Dipole Moment    :      0.00000       0.00000       0.00000
                        -----------------------------------------
Magnitude (a.u.)       :      0.00000
Magnitude (Debye)      :      0.00000

Rotational constants in cm-1:     0.042504     0.042504     0.042504
Rotational constants in MHz :  1274.241114  1274.241114  1274.241114

                             ****ORCA TERMINATED NORMALLY****
TOTAL RUN TIME: 0 days 0 hours 0 minutes 32 seconds 365 msec
