                         Program Version 5.0.3 -  RELEASE  -
|  1> ! PBEh-3c def2/J TightSCF DefGrid3
|  2>
|  3> %maxcore 60000
|  4>
|  5> %pal
|  6> nprocs 4
|  7> end
|  8>
|  9> *xyzfile 0 1 ch2n2.xyz
| 10>
| 11>                          ****END OF INPUT****

CARTESIAN COORDINATES (ANGSTROEM)
---------------------------------
  N      0.000000    0.000000   -1.884941
  N      0.000000    0.000000   -0.751000
  C      0.000000    0.000000    0.541184
  H     -0.950852    0.000000    1.047378
  H      0.950852    0.000000    1.047378

 Total Charge           Charge          ....    0
 Multiplicity           Mult            ....    1
 Number of Electrons    NEL             ....   22
 Basis Dimension        Dim             ....   49

ORBITAL ENERGIES
----------------

  NO   OCC          E(Eh)            E(eV)
   0   2.0000     -14.791077      -402.4857
   1   2.0000     -14.714079      -400.3904
   2   2.0000     -10.473885      -285.0089
   3   2.0000      -1.225104       -33.3368
   4   2.0000      -0.940266       -25.5859
   5   2.0000      -0.626356       -17.0440
   6   2.0000      -0.585903       -15.9432
   7   2.0000      -0.548106       -14.9147
   8   2.0000      -0.513666       -13.9775
   9   2.0000      -0.451211       -12.2781
  10   2.0000      -0.264443        -7.1959
  11   0.0000      -0.009412        -0.2561
  12   0.0000       0.056028         1.5246
  13   0.0000       0.166706         4.5363
  14   0.0000       0.240742         6.5509
  15   0.0000       0.278758         7.5854

MULLIKEN ATOMIC CHARGES
-----------------------
   0 N :   -0.155498
   1 N :    0.151122
   2 C :   -0.503204
   3 H :    0.253790
   4 H :    0.253790
Sum of atomic charges:   -0.0000000

LOEWDIN ATOMIC CHARGES
----------------------
   0 N :   -0.066031
   1 N :    0.181006
   2 C :   -0.424103
   3 H :    0.154564
   4 H :    0.154564

  Mayer bond orders larger than 0.100000
B(  0-N ,  1-N ) :   2.4364 B(  0-N ,  2-C ) :   0.3347 B(  1-N ,  2-C ) :   1.4434
B(  2-C ,  3-H ) :   0.8941 B(  2-C ,  4-H ) :   0.8941

Dispersion correction           -0.001225254
FINAL SINGLE POINT ENERGY      -148.403609553156

DIPOLE MOMENT
-------------
                                X             Y             Z
Electronic contribution:      0.00000      -0.00000      -2.61640
Nuclear contribution   :      0.00000       0.00000       3.22167
                        -----------------------------------------
Total Dipole Moment    :      0.00000      -0.00000       0.60526
                        -----------------------------------------
Magnitude (a.u.)       :      0.60526
Magnitude (Debye)      :      1.53846

Rotational constants in cm-1:     9.248700     0.380254     0.365238
Rotational constants in MHz : 277269.060111 11399.729940 10949.546729

                             ****ORCA TERMINATED NORMALLY****
TOTAL RUN TIME: 0 days 0 hours 0 minutes 40 seconds 175 msec
