                         Program Version 5.0.3 -  RELEASE  -
|  1> ! PBEh-3c def2/J TightSCF DefGrid3
|  2>
|  3> %maxcore 60000
|  4>
|  5> %pal
|  6> nprocs 4
|  7> end
|  8>
|  9> *xyzfile 0 1 TRP_xac.xyz
| 10>
| 11>                          ****END OF INPUT****

CARTESIAN COORDINATES (ANGSTROEM)
---------------------------------
  N     -1.207498    1.263405   -0.231130
  C     -1.561424    0.162936   -1.096295
  C     -2.062227   -1.087056   -0.365340
  O     -2.434879   -2.068095   -1.002365
  C     -0.349422   -0.257443   -1.943445
  H     -0.244472    1.343908    0.071228
  H     -2.363272    0.466612   -1.769243
  H     -0.684877   -1.045800   -2.615106
  H     -0.032070    0.594055   -2.546977
  C     -2.056032    2.205049    0.292051
  O     -1.652465    3.060746    1.067442
  N     -2.046946   -1.021259    0.983045
  H     -1.622473   -0.208825    1.398215
  C     -2.379554   -2.169261    1.796957
  H     -1.491892   -2.747745    2.055147
  H     -2.872461   -1.846195    2.709857
  H     -3.050202   -2.802232    1.224038
  C     -3.497666    2.116756   -0.147438
  H     -4.060260    2.864642    0.399972
  H     -3.911597    1.128545    0.048361
  H     -3.587323    2.311563   -1.215620
  C      0.770652   -0.743964   -1.085468
  C      0.938769   -2.035830   -0.628289
  C      1.814398    0.033042   -0.490869
  H      0.351432   -2.913909   -0.843883
  C      2.586948   -0.845078    0.318993
  C      2.184757    1.388822   -0.565860
  H      2.376454   -2.926461    0.645521
  C      3.284057    1.822028    0.157685
  H      1.626882    2.083695   -1.181672
  N      2.023898   -2.091012    0.212538
  C      3.697880   -0.409526    1.044694
  C      4.032386    0.933232    0.954850
  H      4.277080   -1.089840    1.655463
  H      4.884902    1.305343    1.506121
  H      3.576667    2.861910    0.111179

 Total Charge           Charge          ....    0
 Multiplicity           Mult            ....    1
 Number of Electrons    NEL             ....  138
 Basis Dimension        Dim             ....  319

ORBITAL ENERGIES
----------------

  NO   OCC          E(Eh)            E(eV)
   0   2.0000     -19.459151      -529.5104
   1   2.0000     -19.455577      -529.4132
   2   2.0000     -14.695058      -399.8729
   3   2.0000     -14.666642      -399.0996
   4   2.0000     -14.662561      -398.9886
   5   2.0000     -10.550865      -287.1036
   6   2.0000     -10.546841      -286.9941
   7   2.0000     -10.498655      -285.6829
   8   2.0000     -10.488323      -285.4018
   9   2.0000     -10.485672      -285.3296
  10   2.0000     -10.470996      -284.9303
  11   2.0000     -10.456693      -284.5411
  12   2.0000     -10.455785      -284.5164
  13   2.0000     -10.453532      -284.4551
  14   2.0000     -10.452504      -284.4271
  15   2.0000     -10.449532      -284.3462
  16   2.0000     -10.449480      -284.3448
  17   2.0000     -10.444912      -284.2205
  18   2.0000     -10.441266      -284.1213
  19   2.0000      -1.146881       -31.2082
  20   2.0000      -1.139638       -31.0111
  21   2.0000      -1.098712       -29.8975
  22   2.0000      -1.040186       -28.3049
  23   2.0000      -1.017521       -27.6882
  24   2.0000      -0.946355       -25.7516
  25   2.0000      -0.910121       -24.7656
  26   2.0000      -0.859734       -23.3945
  27   2.0000      -0.833389       -22.6777
  28   2.0000      -0.829208       -22.5639
  29   2.0000      -0.814943       -22.1757
  30   2.0000      -0.798049       -21.7160
  31   2.0000      -0.740447       -20.1486
  32   2.0000      -0.708684       -19.2843
  33   2.0000      -0.679354       -18.4862
  34   2.0000      -0.662903       -18.0385
  35   2.0000      -0.657790       -17.8994
  36   2.0000      -0.637488       -17.3469
  37   2.0000      -0.618694       -16.8355
  38   2.0000      -0.606962       -16.5163
  39   2.0000      -0.564449       -15.3594
  40   2.0000      -0.558520       -15.1981
  41   2.0000      -0.547168       -14.8892
  42   2.0000      -0.543301       -14.7840
  43   2.0000      -0.521704       -14.1963
  44   2.0000      -0.512666       -13.9503
  45   2.0000      -0.511067       -13.9069
  46   2.0000      -0.501786       -13.6543
  47   2.0000      -0.499889       -13.6027
  48   2.0000      -0.496693       -13.5157
  49   2.0000      -0.487525       -13.2662
  50   2.0000      -0.478559       -13.0223
  51   2.0000      -0.464760       -12.6468
  52   2.0000      -0.462341       -12.5809
  53   2.0000      -0.456492       -12.4218
  54   2.0000      -0.451585       -12.2883
  55   2.0000      -0.443190       -12.0598
  56   2.0000      -0.433541       -11.7972
  57   2.0000      -0.420385       -11.4393
  58   2.0000      -0.413102       -11.2411
  59   2.0000      -0.410503       -11.1704
  60   2.0000      -0.396236       -10.7821
  61   2.0000      -0.393308       -10.7024
  62   2.0000      -0.338907        -9.2221
  63   2.0000      -0.330574        -8.9954
  64   2.0000      -0.307813        -8.3760
  65   2.0000      -0.307133        -8.3575
  66   2.0000      -0.288888        -7.8610
  67   2.0000      -0.270091        -7.3496
  68   2.0000      -0.247660        -6.7392
  69   0.0000      -0.002628        -0.0715
  70   0.0000       0.037202         1.0123
  71   0.0000       0.053737         1.4623
  72   0.0000       0.059670         1.6237
  73   0.0000       0.079641         2.1671

MULLIKEN ATOMIC CHARGES
-----------------------
   0 N :   -0.654517
   1 C :   -0.171666
   2 C :    0.534955
   3 O :   -0.442637
   4 C :   -0.531037
   5 H :    0.400509
   6 H :    0.267349
   7 H :    0.275333
   8 H :    0.245872
   9 C :    0.479294
  10 O :   -0.409571
  11 N :   -0.626164
  12 H :    0.382388
  13 C :   -0.492646
  14 H :    0.217836
  15 H :    0.225236
  16 H :    0.259754
  17 C :   -0.786408
  18 H :    0.273990
  19 H :    0.245511
  20 H :    0.242894
  21 C :   -0.012093
  22 C :   -0.045966
  23 C :    0.016327
  24 H :    0.269080
  25 C :    0.376630
  26 C :   -0.348763
  27 H :    0.362145
  28 C :   -0.224005
  29 H :    0.222918
  30 N :   -0.696832
  31 C :   -0.272169
  32 C :   -0.239582
  33 H :    0.215185
  34 H :    0.219669
  35 H :    0.221183
Sum of atomic charges:    0.0000000

LOEWDIN ATOMIC CHARGES
----------------------
   0 N :   -0.245104
   1 C :   -0.091340
   2 C :    0.096568
   3 O :   -0.293146
   4 C :   -0.213650
   5 H :    0.271032
   6 H :    0.147696
   7 H :    0.158491
   8 H :    0.139920
   9 C :    0.101751
  10 O :   -0.268445
  11 N :   -0.236106
  12 H :    0.263509
  13 C :   -0.255095
  14 H :    0.119885
  15 H :    0.127448
  16 H :    0.149829
  17 C :   -0.398995
  18 H :    0.157132
  19 H :    0.147619
  20 H :    0.147634
  21 C :   -0.119064
  22 C :   -0.073292
  23 C :   -0.072790
  24 H :    0.148445
  25 C :    0.018231
  26 C :   -0.146726
  27 H :    0.263900
  28 C :   -0.148530
  29 H :    0.138843
  30 N :   -0.149096
  31 C :   -0.158322
  32 C :   -0.139786
  33 H :    0.136994
  34 H :    0.136908
  35 H :    0.137649

  Mayer bond orders larger than 0.100000
B(  0-N ,  1-C ) :   0.9237 B(  0-N ,  5-H ) :   0.7718 B(  0-N ,  9-C ) :   1.1399
B(  1-C ,  2-C ) :   0.8923 B(  1-C ,  4-C ) :   0.9642 B(  1-C ,  6-H ) :   0.8845
B(  2-C ,  3-O ) :   1.9529 B(  2-C , 11-N ) :   1.1581 B(  4-C ,  7-H ) :   0.8990
B(  4-C ,  8-H ) :   0.9127 B(  4-C , 21-C ) :   0.9542 B(  9-C , 10-O ) :   2.0469
B(  9-C , 17-C ) :   0.9339 B( 11-N , 12-H ) :   0.7928 B( 11-N , 13-C ) :   0.9554
B( 13-C , 14-H ) :   0.9186 B( 13-C , 15-H ) :   0.9237 B( 13-C , 16-H ) :   0.9033
B( 17-C , 18-H ) :   0.9151 B( 17-C , 19-H ) :   0.9005 B( 17-C , 20-H ) :   0.9061
B( 21-C , 22-C ) :   1.5582 B( 21-C , 23-C ) :   1.2431 B( 22-C , 24-H ) :   0.8936
B( 22-C , 30-N ) :   1.1354 B( 23-C , 25-C ) :   1.2316 B( 23-C , 26-C ) :   1.2775
B( 25-C , 30-N ) :   1.0287 B( 25-C , 31-C ) :   1.2928 B( 26-C , 28-C ) :   1.5051
B( 26-C , 29-H ) :   0.9238 B( 27-H , 30-N ) :   0.8311 B( 28-C , 32-C ) :   1.3613
B( 28-C , 35-H ) :   0.9183 B( 31-C , 32-C ) :   1.4939 B( 31-C , 33-H ) :   0.9193
B( 32-C , 34-H ) :   0.9188

Dispersion correction           -0.026338466
FINAL SINGLE POINT ENERGY      -856.622626591401

DIPOLE MOMENT
-------------
                                X             Y             Z
Electronic contribution:      6.94778      -0.42500      -1.47544
Nuclear contribution   :     -6.43633      -0.74658       1.85874
                        -----------------------------------------
Total Dipole Moment    :      0.51145      -1.17158       0.38330
                        -----------------------------------------
Magnitude (a.u.)       :      1.33458
Magnitude (Debye)      :      3.39224

Rotational constants in cm-1:     0.017725     0.010000     0.007805
Rotational constants in MHz :   531.391678   299.781494   233.993705

                             ****ORCA TERMINATED NORMALLY****
TOTAL RUN TIME: 0 days 0 hours 6 minutes 17 seconds 257 msec
