                         Program Version 5.0.3 -  RELEASE  -
|  1> ! PBEh-3c def2/J TightSCF DefGrid3
|  2>
|  3> %maxcore 60000
|  4>
|  5> %pal
|  6> nprocs 4
|  7> end
|  8>
|  9> *xyzfile 0 2 P26.xyz
| 10>
| 11>                          ****END OF INPUT****

CARTESIAN COORDINATES (ANGSTROEM)
---------------------------------
  C     -1.498398    0.226528    0.000000
  N     -0.192289   -0.226159    0.000000
  C      0.572113   -0.063621    1.223553
  C      0.572113   -0.063621   -1.223553
  H     -2.042447    0.149207   -0.931348
  H     -2.042447    0.149207    0.931348
  H     -0.042036   -0.350118   -2.078046
  H      0.906440    0.974860   -1.371346
  H      1.451273   -0.710512   -1.199069
  H     -0.042036   -0.350118    2.078046
  H      0.906440    0.974860    1.371346
  H      1.451273   -0.710512    1.199069

 Total Charge           Charge          ....    0
 Multiplicity           Mult            ....    2
 Number of Electrons    NEL             ....   33
 Basis Dimension        Dim             ....   76

ORBITAL ENERGIES
----------------
                 SPIN UP ORBITALS
  NO   OCC          E(Eh)            E(eV)
   0   1.0000     -14.652004      -398.7013
   1   1.0000     -10.459312      -284.6124
   2   1.0000     -10.459251      -284.6107
   3   1.0000     -10.436297      -283.9861
   4   1.0000      -1.036596       -28.2072
   5   1.0000      -0.798135       -21.7184
   6   1.0000      -0.783536       -21.3211
   7   1.0000      -0.653451       -17.7813
   8   1.0000      -0.539625       -14.6839
   9   1.0000      -0.534823       -14.5533
  10   1.0000      -0.522215       -14.2102
  11   1.0000      -0.451987       -12.2992
  12   1.0000      -0.437695       -11.9103
  13   1.0000      -0.429571       -11.6892
  14   1.0000      -0.424408       -11.5487
  15   1.0000      -0.349332        -9.5058
  16   1.0000      -0.178593        -4.8598
  17   0.0000       0.132087         3.5943
  18   0.0000       0.184938         5.0324
  19   0.0000       0.195776         5.3273
  20   0.0000       0.199747         5.4354
  21   0.0000       0.206726         5.6253

                 SPIN DOWN ORBITALS
  NO   OCC          E(Eh)            E(eV)
   0   1.0000     -14.645762      -398.5314
   1   1.0000     -10.459501      -284.6175
   2   1.0000     -10.459440      -284.6158
   3   1.0000     -10.423470      -283.6370
   4   1.0000      -1.022614       -27.8268
   5   1.0000      -0.796945       -21.6860
   6   1.0000      -0.766961       -20.8701
   7   1.0000      -0.635334       -17.2883
   8   1.0000      -0.534886       -14.5550
   9   1.0000      -0.524970       -14.2851
  10   1.0000      -0.508479       -13.8364
  11   1.0000      -0.450294       -12.2531
  12   1.0000      -0.433983       -11.8093
  13   1.0000      -0.428183       -11.6515
  14   1.0000      -0.417501       -11.3608
  15   1.0000      -0.293285        -7.9807
  16   0.0000       0.032700         0.8898
  17   0.0000       0.134908         3.6710
  18   0.0000       0.187442         5.1006
  19   0.0000       0.198332         5.3969
  20   0.0000       0.208662         5.6780

MULLIKEN ATOMIC CHARGES AND SPIN POPULATIONS
--------------------------------------------
   0 C :   -0.378843    0.883379
   1 N :   -0.339759    0.183750
   2 C :   -0.480541   -0.018010
   3 C :   -0.480541   -0.018010
   4 H :    0.195855   -0.043020
   5 H :    0.195855   -0.043020
   6 H :    0.224678    0.004241
   7 H :    0.204099    0.024579
   8 H :    0.215211   -0.001354
   9 H :    0.224678    0.004241
  10 H :    0.204099    0.024579
  11 H :    0.215211   -0.001354
Sum of atomic charges         :   -0.0000000

LOEWDIN ATOMIC CHARGES AND SPIN POPULATIONS
-------------------------------------------
   0 C :   -0.304667    0.781419
   1 N :   -0.150658    0.223328
   2 C :   -0.248654   -0.002479
   3 C :   -0.248654   -0.002479
   4 H :    0.116845   -0.018848
   5 H :    0.116845   -0.018848
   6 H :    0.128346    0.003492
   7 H :    0.109707    0.016260
   8 H :    0.121418   -0.000798
   9 H :    0.128346    0.003492
  10 H :    0.109707    0.016260
  11 H :    0.121418   -0.000798

  Mayer bond orders larger than 0.100000
B(  0-C ,  1-N ) :   1.2170 B(  0-C ,  4-H ) :   0.9298 B(  0-C ,  5-H ) :   0.9298
B(  1-N ,  2-C ) :   0.9775 B(  1-N ,  3-C ) :   0.9775 B(  2-C ,  9-H ) :   0.9252
B(  2-C , 10-H ) :   0.9042 B(  2-C , 11-H ) :   0.9236 B(  3-C ,  6-H ) :   0.9252
B(  3-C ,  7-H ) :   0.9042 B(  3-C ,  8-H ) :   0.9236

Dispersion correction           -0.004378558
FINAL SINGLE POINT ENERGY      -173.431507592257

DIPOLE MOMENT
-------------
                                X             Y             Z
Electronic contribution:     -0.91370      -0.44123      -0.00000
Nuclear contribution   :      1.33847       0.35659       0.00000
                        -----------------------------------------
Total Dipole Moment    :      0.42477      -0.08464      -0.00000
                        -----------------------------------------
Magnitude (a.u.)       :      0.43312
Magnitude (Debye)      :      1.10091

Rotational constants in cm-1:     0.314764     0.295491     0.164111
Rotational constants in MHz :  9436.398387  8858.599761  4919.928100

                             ****ORCA TERMINATED NORMALLY****
TOTAL RUN TIME: 0 days 0 hours 2 minutes 31 seconds 131 msec
