                         Program Version 5.0.3 -  RELEASE  -
|  1> ! PBEh-3c def2/J TightSCF DefGrid3
|  2>
|  3> %maxcore 60000
|  4>
|  5> %pal
|  6> nprocs 4
|  7> end
|  8>
|  9> *xyzfile 0 1 21_benI-acetoneA.xyz
| 10>
| 11>                          ****END OF INPUT****

CARTESIAN COORDINATES (ANGSTROEM)
---------------------------------
  C     -0.436020   -0.000001    1.035407
  C      0.589762   -0.000013    1.978500
  C      1.922247   -0.000006    1.571696
  C      2.228266   -0.000022    0.212569
  C      1.211087   -0.000006   -0.740154
  H     -1.469242   -0.000002    1.352225
  H      0.343101   -0.000008    3.031630
  H      2.714694    0.000012    2.307033
  H      3.260261   -0.000027   -0.111551
  H      1.450708   -0.000010   -1.793985
  C     -0.120403    0.000022   -0.323576
  I     -1.658224    0.000221   -1.738020

 Total Charge           Charge          ....    0
 Multiplicity           Mult            ....    1
 Number of Electrons    NEL             ....   66
 Basis Dimension        Dim             ....  126

ORBITAL ENERGIES
----------------

  NO   OCC          E(Eh)            E(eV)
   0   2.0000     -10.506657      -285.9007
   1   2.0000     -10.466827      -284.8168
   2   2.0000     -10.466665      -284.8124
   3   2.0000     -10.463849      -284.7358
   4   2.0000     -10.463732      -284.7326
   5   2.0000     -10.461615      -284.6750
   6   2.0000      -7.095709      -193.0840
   7   2.0000      -5.079253      -138.2135
   8   2.0000      -5.062575      -137.7597
   9   2.0000      -5.062474      -137.7569
  10   2.0000      -2.033312       -55.3292
  11   2.0000      -2.027796       -55.1791
  12   2.0000      -2.027765       -55.1783
  13   2.0000      -2.013386       -54.7870
  14   2.0000      -2.013378       -54.7868
  15   2.0000      -0.972608       -26.4660
  16   2.0000      -0.864736       -23.5307
  17   2.0000      -0.852957       -23.2101
  18   2.0000      -0.767469       -20.8839
  19   2.0000      -0.698727       -19.0133
  20   2.0000      -0.674212       -18.3462
  21   2.0000      -0.593431       -16.1481
  22   2.0000      -0.531438       -14.4612
  23   2.0000      -0.527986       -14.3672
  24   2.0000      -0.497792       -13.5456
  25   2.0000      -0.469820       -12.7844
  26   2.0000      -0.443759       -12.0753
  27   2.0000      -0.416703       -11.3391
  28   2.0000      -0.391810       -10.6617
  29   2.0000      -0.343912        -9.3583
  30   2.0000      -0.309243        -8.4149
  31   2.0000      -0.308026        -8.3818
  32   2.0000      -0.278120        -7.5680
  33   0.0000      -0.000976        -0.0266
  34   0.0000       0.000355         0.0097
  35   0.0000       0.003732         0.1015
  36   0.0000       0.149213         4.0603
  37   0.0000       0.175795         4.7836

MULLIKEN ATOMIC CHARGES
-----------------------
   0 C :   -0.203532
   1 C :   -0.211365
   2 C :   -0.224116
   3 C :   -0.211235
   4 C :   -0.204545
   5 H :    0.245671
   6 H :    0.230293
   7 H :    0.228567
   8 H :    0.230358
   9 H :    0.245519
  10 C :   -0.194255
  11 I :    0.068638
Sum of atomic charges:   -0.0000000

LOEWDIN ATOMIC CHARGES
----------------------
   0 C :   -0.138965
   1 C :   -0.127178
   2 C :   -0.131975
   3 C :   -0.127136
   4 C :   -0.138765
   5 H :    0.146935
   6 H :    0.141568
   7 H :    0.140170
   8 H :    0.141585
   9 H :    0.147002
  10 C :   -0.174857
  11 I :    0.121615

  Mayer bond orders larger than 0.100000
B(  0-C ,  1-C ) :   1.4322 B(  0-C ,  5-H ) :   0.9100 B(  0-C , 10-C ) :   1.3703
B(  1-C ,  2-C ) :   1.4209 B(  1-C ,  6-H ) :   0.9156 B(  2-C ,  3-C ) :   1.4213
B(  2-C ,  7-H ) :   0.9170 B(  3-C ,  4-C ) :   1.4316 B(  3-C ,  8-H ) :   0.9156
B(  4-C ,  9-H ) :   0.9101 B(  4-C , 10-C ) :   1.3710 B( 10-C , 11-I ) :   1.0424

Dispersion correction           -0.007091033
FINAL SINGLE POINT ENERGY      -528.867596672903

DIPOLE MOMENT
-------------
                                X             Y             Z
Electronic contribution:    -79.40503       0.00686     -73.29896
Nuclear contribution   :     79.88523      -0.00686      73.74377
                        -----------------------------------------
Total Dipole Moment    :      0.48020      -0.00001       0.44481
                        -----------------------------------------
Magnitude (a.u.)       :      0.65456
Magnitude (Debye)      :      1.66375

Rotational constants in cm-1:     0.190200     0.025014     0.022107
Rotational constants in MHz :  5702.049244   749.911449   662.749235

                             ****ORCA TERMINATED NORMALLY****
TOTAL RUN TIME: 0 days 0 hours 2 minutes 1 seconds 489 msec
