                         Program Version 5.0.3 -  RELEASE  -
|  1> ! PBEh-3c def2/J TightSCF DefGrid3
|  2>
|  3> %maxcore 60000
|  4>
|  5> %pal
|  6> nprocs 4
|  7> end
|  8>
|  9> *xyzfile 0 1 H_t+g+x-.xyz
| 10>
| 11>                          ****END OF INPUT****

CARTESIAN COORDINATES (ANGSTROEM)
---------------------------------
  C      2.711793   -0.434757    0.121817
  C      1.212638   -0.405737   -0.148216
  C      0.632729    0.992511    0.026910
  C     -0.845938    1.137671   -0.328367
  C     -1.790860    0.254888    0.497633
  C     -2.117593   -1.082836   -0.159469
  H      2.927380   -0.097852    1.135843
  H      3.241441    0.225412   -0.564844
  H      3.122957   -1.436558    0.008006
  H      0.711427   -1.101080    0.526638
  H      1.012631   -0.756602   -1.163582
  H      1.213483    1.688333   -0.584753
  H      0.777796    1.304675    1.065545
  H     -0.988103    0.919492   -1.390698
  H     -1.120033    2.185366   -0.193822
  H     -2.726777    0.788877    0.667180
  H     -1.354544    0.088733    1.485950
  H     -2.781705   -1.679092    0.465247
  H     -1.222406   -1.669839   -0.351826
  H     -2.616313   -0.921604   -1.115187

 Total Charge           Charge          ....    0
 Multiplicity           Mult            ....    1
 Number of Electrons    NEL             ....   50
 Basis Dimension        Dim             ....  118

ORBITAL ENERGIES
----------------

  NO   OCC          E(Eh)            E(eV)
   0   2.0000     -10.426824      -283.7283
   1   2.0000     -10.426581      -283.7217
   2   2.0000     -10.425342      -283.6880
   3   2.0000     -10.425079      -283.6808
   4   2.0000     -10.418844      -283.5112
   5   2.0000     -10.417457      -283.4734
   6   2.0000      -0.897856       -24.4319
   7   2.0000      -0.851091       -23.1594
   8   2.0000      -0.790980       -21.5237
   9   2.0000      -0.718175       -19.5425
  10   2.0000      -0.663582       -18.0570
  11   2.0000      -0.630541       -17.1579
  12   2.0000      -0.530836       -14.4448
  13   2.0000      -0.508189       -13.8285
  14   2.0000      -0.499159       -13.5828
  15   2.0000      -0.463404       -12.6099
  16   2.0000      -0.462427       -12.5833
  17   2.0000      -0.443220       -12.0606
  18   2.0000      -0.418959       -11.4005
  19   2.0000      -0.403420       -10.9776
  20   2.0000      -0.394242       -10.7279
  21   2.0000      -0.383031       -10.4228
  22   2.0000      -0.364557        -9.9201
  23   2.0000      -0.355571        -9.6756
  24   2.0000      -0.352951        -9.6043
  25   0.0000       0.136003         3.7008
  26   0.0000       0.158449         4.3116
  27   0.0000       0.165062         4.4916
  28   0.0000       0.175168         4.7666
  29   0.0000       0.188089         5.1182

MULLIKEN ATOMIC CHARGES
-----------------------
   0 C :   -0.634496
   1 C :   -0.419938
   2 C :   -0.406574
   3 C :   -0.414788
   4 C :   -0.428276
   5 C :   -0.648733
   6 H :    0.208744
   7 H :    0.208696
   8 H :    0.218646
   9 H :    0.210929
  10 H :    0.204060
  11 H :    0.206851
  12 H :    0.201019
  13 H :    0.204461
  14 H :    0.217810
  15 H :    0.216981
  16 H :    0.208372
  17 H :    0.216517
  18 H :    0.219405
  19 H :    0.210316
Sum of atomic charges:    0.0000000

LOEWDIN ATOMIC CHARGES
----------------------
   0 C :   -0.360878
   1 C :   -0.250129
   2 C :   -0.239791
   3 C :   -0.241446
   4 C :   -0.248689
   5 C :   -0.365182
   6 H :    0.123589
   7 H :    0.123050
   8 H :    0.125659
   9 H :    0.120154
  10 H :    0.118651
  11 H :    0.120323
  12 H :    0.117947
  13 H :    0.119305
  14 H :    0.123934
  15 H :    0.122892
  16 H :    0.119238
  17 H :    0.124836
  18 H :    0.123896
  19 H :    0.122640

  Mayer bond orders larger than 0.100000
B(  0-C ,  1-C ) :   0.9974 B(  0-C ,  6-H ) :   0.9293 B(  0-C ,  7-H ) :   0.9296
B(  0-C ,  8-H ) :   0.9327 B(  1-C ,  2-C ) :   0.9851 B(  1-C ,  9-H ) :   0.9149
B(  1-C , 10-H ) :   0.9198 B(  2-C ,  3-C ) :   1.0010 B(  2-C , 11-H ) :   0.9213
B(  2-C , 12-H ) :   0.9179 B(  3-C ,  4-C ) :   0.9547 B(  3-C , 13-H ) :   0.9219
B(  3-C , 14-H ) :   0.9296 B(  4-C ,  5-C ) :   0.9928 B(  4-C , 15-H ) :   0.9282
B(  4-C , 16-H ) :   0.9231 B(  5-C , 17-H ) :   0.9315 B(  5-C , 18-H ) :   0.9211
B(  5-C , 19-H ) :   0.9293

Dispersion correction           -0.009088421
FINAL SINGLE POINT ENERGY      -236.557416917540

DIPOLE MOMENT
-------------
                                X             Y             Z
Electronic contribution:     -0.52815       1.23735       0.03265
Nuclear contribution   :      0.51579      -1.20752      -0.02695
                        -----------------------------------------
Total Dipole Moment    :     -0.01236       0.02982       0.00570
                        -----------------------------------------
Magnitude (a.u.)       :      0.03278
Magnitude (Debye)      :      0.08333

Rotational constants in cm-1:     0.201737     0.058481     0.049618
Rotational constants in MHz :  6047.933136  1753.217784  1487.516166

                             ****ORCA TERMINATED NORMALLY****
TOTAL RUN TIME: 0 days 0 hours 1 minutes 36 seconds 610 msec
