                         Program Version 5.0.3 -  RELEASE  -
|  1> ! PBEh-3c def2/J TightSCF DefGrid3
|  2>
|  3> %maxcore 60000
|  4>
|  5> %pal
|  6> nprocs 4
|  7> end
|  8>
|  9> *xyzfile 0 1 E20.xyz
| 10>
| 11>                          ****END OF INPUT****

CARTESIAN COORDINATES (ANGSTROEM)
---------------------------------
  N      0.000000    1.402019    0.000000
  C     -1.131332    0.696332    0.000000
  C     -1.131332   -0.696332    0.000000
  N      0.000000   -1.402019    0.000000
  C      1.131332   -0.696332    0.000000
  C      1.131332    0.696332    0.000000
  H     -2.061973    1.254186    0.000000
  H     -2.061973   -1.254186    0.000000
  H      2.061973   -1.254186    0.000000
  H      2.061973    1.254186    0.000000

 Total Charge           Charge          ....    0
 Multiplicity           Mult            ....    1
 Number of Electrons    NEL             ....   42
 Basis Dimension        Dim             ....   98

ORBITAL ENERGIES
----------------

  NO   OCC          E(Eh)            E(eV)
   0   2.0000     -14.664539      -399.0424
   1   2.0000     -14.664411      -399.0389
   2   2.0000     -10.496628      -285.6278
   3   2.0000     -10.496587      -285.6267
   4   2.0000     -10.496047      -285.6120
   5   2.0000     -10.496035      -285.6116
   6   2.0000      -1.096712       -29.8431
   7   2.0000      -1.016917       -27.6717
   8   2.0000      -0.876224       -23.8433
   9   2.0000      -0.746712       -20.3191
  10   2.0000      -0.742472       -20.2037
  11   2.0000      -0.603792       -16.4300
  12   2.0000      -0.589659       -16.0454
  13   2.0000      -0.559208       -15.2168
  14   2.0000      -0.505021       -13.7423
  15   2.0000      -0.490061       -13.3352
  16   2.0000      -0.451804       -12.2942
  17   2.0000      -0.381667       -10.3857
  18   2.0000      -0.378706       -10.3051
  19   2.0000      -0.321517        -8.7489
  20   2.0000      -0.308083        -8.3834
  21   0.0000      -0.029800        -0.8109
  22   0.0000      -0.004458        -0.1213
  23   0.0000       0.168298         4.5796
  24   0.0000       0.169728         4.6185
  25   0.0000       0.189433         5.1547

MULLIKEN ATOMIC CHARGES
-----------------------
   0 N :   -0.307886
   1 C :   -0.087049
   2 C :   -0.087049
   3 N :   -0.307887
   4 C :   -0.087049
   5 C :   -0.087049
   6 H :    0.240992
   7 H :    0.240992
   8 H :    0.240992
   9 H :    0.240992
Sum of atomic charges:   -0.0000000

LOEWDIN ATOMIC CHARGES
----------------------
   0 N :   -0.107171
   1 C :   -0.083157
   2 C :   -0.083157
   3 N :   -0.107171
   4 C :   -0.083157
   5 C :   -0.083157
   6 H :    0.136743
   7 H :    0.136743
   8 H :    0.136743
   9 H :    0.136743

  Mayer bond orders larger than 0.100000
B(  0-N ,  1-C ) :   1.5035 B(  0-N ,  5-C ) :   1.5035 B(  1-C ,  2-C ) :   1.3403
B(  1-C ,  4-C ) :   0.1057 B(  1-C ,  6-H ) :   0.9081 B(  2-C ,  3-N ) :   1.5035
B(  2-C ,  5-C ) :   0.1057 B(  2-C ,  7-H ) :   0.9081 B(  3-N ,  4-C ) :   1.5035
B(  4-C ,  5-C ) :   1.3403 B(  4-C ,  8-H ) :   0.9081 B(  5-C ,  9-H ) :   0.9081

Dispersion correction           -0.004774110
FINAL SINGLE POINT ENERGY      -263.728681138031

DIPOLE MOMENT
-------------
                                X             Y             Z
Electronic contribution:     -0.00000       0.00000      -0.00000
Nuclear contribution   :      0.00000       0.00000       0.00000
                        -----------------------------------------
Total Dipole Moment    :     -0.00000       0.00000      -0.00000
                        -----------------------------------------
Magnitude (a.u.)       :      0.00000
Magnitude (Debye)      :      0.00000

Rotational constants in cm-1:     0.214378     0.199019     0.103207
Rotational constants in MHz :  6426.898698  5966.439746  3094.057667

                             ****ORCA TERMINATED NORMALLY****
TOTAL RUN TIME: 0 days 0 hours 0 minutes 49 seconds 802 msec
