                         Program Version 5.0.3 -  RELEASE  -
|  1> ! PBEh-3c def2/J TightSCF DefGrid3
|  2>
|  3> %maxcore 60000
|  4>
|  5> %pal
|  6> nprocs 4
|  7> end
|  8>
|  9> *xyzfile 0 1 cs.xyz
| 10>
| 11>                          ****END OF INPUT****

CARTESIAN COORDINATES (ANGSTROEM)
---------------------------------
  C     -1.121407    0.000000    0.000000
  S      0.420125    0.000000    0.000000

 Total Charge           Charge          ....    0
 Multiplicity           Mult            ....    1
 Number of Electrons    NEL             ....   22
 Basis Dimension        Dim             ....   33

ORBITAL ENERGIES
----------------

  NO   OCC          E(Eh)            E(eV)
   0   2.0000     -89.635102     -2439.0951
   1   2.0000     -10.555676      -287.2346
   2   2.0000      -8.280189      -225.3154
   3   2.0000      -6.166843      -167.8083
   4   2.0000      -6.166843      -167.8083
   5   2.0000      -6.166497      -167.7989
   6   2.0000      -0.927974       -25.2515
   7   2.0000      -0.583817       -15.8865
   8   2.0000      -0.402079       -10.9411
   9   2.0000      -0.402079       -10.9411
  10   2.0000      -0.366604        -9.9758
  11   0.0000      -0.056295        -1.5319
  12   0.0000      -0.056295        -1.5319
  13   0.0000       0.166050         4.5184
  14   0.0000       0.351080         9.5534
  15   0.0000       0.468100        12.7376

MULLIKEN ATOMIC CHARGES
-----------------------
   0 C :   -0.095724
   1 S :    0.095724
Sum of atomic charges:    0.0000000

LOEWDIN ATOMIC CHARGES
----------------------
   0 C :   -0.242182
   1 S :    0.242182

  Mayer bond orders larger than 0.100000
B(  0-C ,  1-S ) :   2.5614

Dispersion correction           -0.000426349
FINAL SINGLE POINT ENERGY      -435.663034481011

DIPOLE MOMENT
-------------
                                X             Y             Z
Electronic contribution:      0.64143      -0.00000      -0.00000
Nuclear contribution   :     -0.01216       0.00000       0.00000
                        -----------------------------------------
Total Dipole Moment    :      0.62927      -0.00000      -0.00000
                        -----------------------------------------
Magnitude (a.u.)       :      0.62927
Magnitude (Debye)      :      1.59948

Rotational constants in cm-1:     0.000000     0.811898     0.811898
Rotational constants in MHz :     0.000000 24340.092700 24340.092700

                             ****ORCA TERMINATED NORMALLY****
TOTAL RUN TIME: 0 days 0 hours 0 minutes 57 seconds 330 msec
