                         Program Version 5.0.3 -  RELEASE  -
|  1> ! PBEh-3c def2/J TightSCF DefGrid3
|  2>
|  3> %maxcore 60000
|  4>
|  5> %pal
|  6> nprocs 4
|  7> end
|  8>
|  9> *xyzfile 0 1 ne2.xyz
| 10>
| 11>                          ****END OF INPUT****

CARTESIAN COORDINATES (ANGSTROEM)
---------------------------------
  Ne     0.000000    0.000000    1.544986
  Ne     0.000000    0.000000   -1.544986

 Total Charge           Charge          ....    0
 Multiplicity           Mult            ....    1
 Number of Electrons    NEL             ....   20
 Basis Dimension        Dim             ....   30

ORBITAL ENERGIES
----------------

  NO   OCC          E(Eh)            E(eV)
   0   2.0000     -31.402336      -854.5010
   1   2.0000     -31.402335      -854.5010
   2   2.0000      -1.569687       -42.7133
   3   2.0000      -1.569416       -42.7060
   4   2.0000      -0.632450       -17.2098
   5   2.0000      -0.629917       -17.1409
   6   2.0000      -0.629917       -17.1409
   7   2.0000      -0.629419       -17.1273
   8   2.0000      -0.629419       -17.1273
   9   2.0000      -0.626905       -17.0589
  10   0.0000       1.424449        38.7612
  11   0.0000       1.451149        39.4878
  12   0.0000       1.451149        39.4878
  13   0.0000       1.456103        39.6226
  14   0.0000       1.456103        39.6226

MULLIKEN ATOMIC CHARGES
-----------------------
   0 Ne:   -0.000000
   1 Ne:    0.000000
Sum of atomic charges:    0.0000000

LOEWDIN ATOMIC CHARGES
----------------------
   0 Ne:   -0.000000
   1 Ne:    0.000000

Dispersion correction           -0.000059271
FINAL SINGLE POINT ENERGY      -257.390924800701

DIPOLE MOMENT
-------------
                                X             Y             Z
Electronic contribution:      0.00000       0.00000      -0.00000
Nuclear contribution   :      0.00000       0.00000       0.00000
                        -----------------------------------------
Total Dipole Moment    :      0.00000       0.00000      -0.00000
                        -----------------------------------------
Magnitude (a.u.)       :      0.00000
Magnitude (Debye)      :      0.00000

Rotational constants in cm-1:     0.000000     0.174992     0.174992
Rotational constants in MHz :     0.000000  5246.128540  5246.128540

                             ****ORCA TERMINATED NORMALLY****
TOTAL RUN TIME: 0 days 0 hours 0 minutes 23 seconds 538 msec
