                         Program Version 5.0.3 -  RELEASE  -
|  1> ! PBEh-3c def2/J TightSCF DefGrid3
|  2>
|  3> %maxcore 60000
|  4>
|  5> %pal
|  6> nprocs 4
|  7> end
|  8>
|  9> *xyzfile 0 1 ISO_C8H8_41.xyz
| 10>
| 11>                          ****END OF INPUT****

CARTESIAN COORDINATES (ANGSTROEM)
---------------------------------
  C     -0.350909   -0.061881   -1.309940
  C      0.719159    0.910619   -0.704622
  C     -0.253751    1.244959    0.478119
  C     -1.323819    0.272458   -0.127199
  C      0.253751   -1.244959   -0.478119
  C      1.323819   -0.272458    0.127199
  C      0.350909    0.061881    1.309940
  C     -0.719159   -0.910619    0.704622
  H      0.456837   -2.241345   -0.860775
  H     -0.631754   -0.111407   -2.358333
  H      1.294728    1.639422   -1.268557
  H      2.383320   -0.490516    0.229001
  H     -0.456837    2.241345    0.860775
  H      0.631754    0.111407    2.358333
  H     -1.294728   -1.639422    1.268557
  H     -2.383320    0.490516   -0.229001

 Total Charge           Charge          ....    0
 Multiplicity           Mult            ....    1
 Number of Electrons    NEL             ....   56
 Basis Dimension        Dim             ....  136

ORBITAL ENERGIES
----------------

  NO   OCC          E(Eh)            E(eV)
   0   2.0000     -10.438635      -284.0497
   1   2.0000     -10.438502      -284.0461
   2   2.0000     -10.438502      -284.0461
   3   2.0000     -10.438501      -284.0461
   4   2.0000     -10.438346      -284.0418
   5   2.0000     -10.438346      -284.0418
   6   2.0000     -10.438345      -284.0418
   7   2.0000     -10.438215      -284.0383
   8   2.0000      -1.046427       -28.4747
   9   2.0000      -0.809857       -22.0373
  10   2.0000      -0.809855       -22.0373
  11   2.0000      -0.809853       -22.0372
  12   2.0000      -0.629024       -17.1166
  13   2.0000      -0.629024       -17.1166
  14   2.0000      -0.629023       -17.1166
  15   2.0000      -0.596292       -16.2259
  16   2.0000      -0.524405       -14.2698
  17   2.0000      -0.487770       -13.2729
  18   2.0000      -0.487768       -13.2728
  19   2.0000      -0.480553       -13.0765
  20   2.0000      -0.480553       -13.0765
  21   2.0000      -0.480551       -13.0765
  22   2.0000      -0.318702        -8.6723
  23   2.0000      -0.318702        -8.6723
  24   2.0000      -0.318702        -8.6723
  25   2.0000      -0.305974        -8.3260
  26   2.0000      -0.305973        -8.3259
  27   2.0000      -0.305972        -8.3259
  28   0.0000       0.095260         2.5922
  29   0.0000       0.095264         2.5923
  30   0.0000       0.095266         2.5923
  31   0.0000       0.135272         3.6809
  32   0.0000       0.227207         6.1826

MULLIKEN ATOMIC CHARGES
-----------------------
   0 C :   -0.196259
   1 C :   -0.196252
   2 C :   -0.196248
   3 C :   -0.196254
   4 C :   -0.196247
   5 C :   -0.196255
   6 C :   -0.196259
   7 C :   -0.196253
   8 H :    0.196249
   9 H :    0.196254
  10 H :    0.196256
  11 H :    0.196255
  12 H :    0.196249
  13 H :    0.196254
  14 H :    0.196256
  15 H :    0.196255
Sum of atomic charges:    0.0000000

LOEWDIN ATOMIC CHARGES
----------------------
   0 C :   -0.117868
   1 C :   -0.117870
   2 C :   -0.117865
   3 C :   -0.117863
   4 C :   -0.117865
   5 C :   -0.117863
   6 C :   -0.117868
   7 C :   -0.117870
   8 H :    0.117866
   9 H :    0.117867
  10 H :    0.117867
  11 H :    0.117867
  12 H :    0.117866
  13 H :    0.117867
  14 H :    0.117867
  15 H :    0.117867

  Mayer bond orders larger than 0.100000
B(  0-C ,  1-C ) :   0.9659 B(  0-C ,  3-C ) :   0.9659 B(  0-C ,  4-C ) :   0.9659
B(  0-C ,  9-H ) :   0.9370 B(  1-C ,  2-C ) :   0.9659 B(  1-C ,  5-C ) :   0.9659
B(  1-C , 10-H ) :   0.9370 B(  2-C ,  3-C ) :   0.9659 B(  2-C ,  6-C ) :   0.9659
B(  2-C , 12-H ) :   0.9371 B(  3-C ,  7-C ) :   0.9659 B(  3-C , 15-H ) :   0.9370
B(  4-C ,  5-C ) :   0.9659 B(  4-C ,  7-C ) :   0.9659 B(  4-C ,  8-H ) :   0.9371
B(  5-C ,  6-C ) :   0.9659 B(  5-C , 11-H ) :   0.9370 B(  6-C ,  7-C ) :   0.9659
B(  6-C , 13-H ) :   0.9370 B(  7-C , 14-H ) :   0.9370

Dispersion correction           -0.008735682
FINAL SINGLE POINT ENERGY      -308.793415825074

DIPOLE MOMENT
-------------
                                X             Y             Z
Electronic contribution:     -0.00000      -0.00000      -0.00000
Nuclear contribution   :     -0.00000      -0.00000       0.00000
                        -----------------------------------------
Total Dipole Moment    :     -0.00000      -0.00000      -0.00000
                        -----------------------------------------
Magnitude (a.u.)       :      0.00000
Magnitude (Debye)      :      0.00000

Rotational constants in cm-1:     0.112260     0.112260     0.112260
Rotational constants in MHz :  3365.459175  3365.459125  3365.459027

                             ****ORCA TERMINATED NORMALLY****
TOTAL RUN TIME: 0 days 0 hours 1 minutes 13 seconds 258 msec
