                         Program Version 5.0.3 -  RELEASE  -
|  1> ! PBEh-3c def2/J TightSCF DefGrid3
|  2>
|  3> %maxcore 60000
|  4>
|  5> %pal
|  6> nprocs 4
|  7> end
|  8>
|  9> *xyzfile 0 1 09.xyz
| 10>
| 11>                          ****END OF INPUT****

CARTESIAN COORDINATES (ANGSTROEM)
---------------------------------
  N     -1.561581   -0.576912   -0.788368
  H     -0.571182   -0.789127   -0.816440
  H     -2.036569   -1.466458   -0.711532
  C     -1.843912    0.224840    0.399867
  H     -2.909756    0.439148    0.449654
  H     -1.548920   -0.228821    1.351839
  H     -1.331136    1.181262    0.315439
  O      1.616329   -0.580544   -0.717545
  H      1.898356   -0.210595   -1.557409
  C      2.002243    0.331040    0.301891
  H      1.679060   -0.098593    1.244958
  H      3.083298    0.470123    0.340931
  H      1.523769    1.304638    0.186715

 Total Charge           Charge          ....    0
 Multiplicity           Mult            ....    1
 Number of Electrons    NEL             ....   36
 Basis Dimension        Dim             ....   78

ORBITAL ENERGIES
----------------

  NO   OCC          E(Eh)            E(eV)
   0   2.0000     -19.499766      -530.6156
   1   2.0000     -14.583518      -396.8377
   2   2.0000     -10.482484      -285.2429
   3   2.0000     -10.435128      -283.9543
   4   2.0000      -1.133390       -30.8411
   5   2.0000      -0.947826       -25.7917
   6   2.0000      -0.771598       -20.9962
   7   2.0000      -0.721416       -19.6307
   8   2.0000      -0.580188       -15.7877
   9   2.0000      -0.533567       -14.5191
  10   2.0000      -0.505946       -13.7675
  11   2.0000      -0.492668       -13.4062
  12   2.0000      -0.478274       -13.0145
  13   2.0000      -0.439608       -11.9623
  14   2.0000      -0.408801       -11.1240
  15   2.0000      -0.397951       -10.8288
  16   2.0000      -0.339528        -9.2390
  17   2.0000      -0.266940        -7.2638
  18   0.0000       0.109340         2.9753
  19   0.0000       0.160759         4.3745
  20   0.0000       0.181394         4.9360
  21   0.0000       0.199347         5.4245
  22   0.0000       0.215243         5.8570

MULLIKEN ATOMIC CHARGES
-----------------------
   0 N :   -0.766076
   1 H :    0.342147
   2 H :    0.305121
   3 C :   -0.497971
   4 H :    0.210390
   5 H :    0.172791
   6 H :    0.203245
   7 O :   -0.628098
   8 H :    0.423396
   9 C :   -0.377576
  10 H :    0.222625
  11 H :    0.196316
  12 H :    0.193690
Sum of atomic charges:   -0.0000000

LOEWDIN ATOMIC CHARGES
----------------------
   0 N :   -0.501512
   1 H :    0.222689
   2 H :    0.214221
   3 C :   -0.278057
   4 H :    0.115859
   5 H :    0.086592
   6 H :    0.113176
   7 O :   -0.415582
   8 H :    0.311578
   9 C :   -0.199311
  10 H :    0.124608
  11 H :    0.103434
  12 H :    0.102304

  Mayer bond orders larger than 0.100000
B(  0-N ,  1-H ) :   0.8155 B(  0-N ,  2-H ) :   0.8723 B(  0-N ,  3-C ) :   1.0481
B(  3-C ,  4-H ) :   0.9284 B(  3-C ,  5-H ) :   0.9179 B(  3-C ,  6-H ) :   0.9290
B(  7-O ,  8-H ) :   0.7886 B(  7-O ,  9-C ) :   0.9914 B(  9-C , 10-H ) :   0.9241
B(  9-C , 11-H ) :   0.9168 B(  9-C , 12-H ) :   0.9156

Dispersion correction           -0.003746840
FINAL SINGLE POINT ENERGY      -211.115299633341

DIPOLE MOMENT
-------------
                                X             Y             Z
Electronic contribution:      1.67753      -1.63827      -2.21337
Nuclear contribution   :     -0.94561       1.90548       2.52123
                        -----------------------------------------
Total Dipole Moment    :      0.73192       0.26722       0.30786
                        -----------------------------------------
Magnitude (a.u.)       :      0.83779
Magnitude (Debye)      :      2.12948

Rotational constants in cm-1:     0.408569     0.082409     0.071054
Rotational constants in MHz : 12248.597634  2470.547546  2130.134917

                             ****ORCA TERMINATED NORMALLY****
TOTAL RUN TIME: 0 days 0 hours 0 minutes 56 seconds 773 msec
