                         Program Version 5.0.3 -  RELEASE  -
|  1> ! PBEh-3c def2/J TightSCF DefGrid3
|  2>
|  3> %maxcore 60000
|  4>
|  5> %pal
|  6> nprocs 4
|  7> end
|  8>
|  9> *xyzfile 0 1 i12e.xyz
| 10>
| 11>                          ****END OF INPUT****

CARTESIAN COORDINATES (ANGSTROEM)
---------------------------------
  C     -2.541728    0.490416    0.937658
  C     -1.580960    0.248959   -0.048111
  C     -1.929384   -0.539295   -1.157836
  C     -3.205139   -1.079671   -1.271807
  C     -4.166262   -0.839788   -0.274167
  C     -3.828408   -0.049504    0.835825
  C     -0.205428    0.893411    0.025425
  N      0.823047    0.054227   -0.546964
  C      1.744353   -0.121802    0.335537
  C      1.370326    0.547656    1.650504
  O      0.156712    1.131943    1.423355
  C     -0.216175    2.285570   -0.686500
  C      2.983702   -0.867532    0.087924
  C      3.316076   -1.228725   -1.235224
  C      4.484130   -1.938574   -1.497936
  C      5.339554   -2.299902   -0.447299
  C      5.019186   -1.942932    0.865687
  C      3.850317   -1.227717    1.138302
  O      1.939974    0.595569    2.711991
  C      1.132154    2.934810   -0.749970
  C      1.705992    3.701274    0.173989
  O     -5.389942   -1.417160   -0.474050
  C     -6.397602   -1.203217    0.519979
  F      1.814922    2.632760   -1.895803
  H     -0.607027    2.133200   -1.697809
  H     -1.187185   -0.735319   -1.926682
  H     -3.477253   -1.696834   -2.124538
  H     -4.549835    0.148437    1.622349
  H     -2.286608    1.093351    1.804763
  H      3.605935   -0.946432    2.156969
  H      5.681478   -2.220044    1.683247
  H      6.253274   -2.853743   -0.654857
  H      4.734104   -2.208409   -2.522056
  H      2.649448   -0.936043   -2.041836
  H     -7.279375   -1.746174    0.169360
  H     -6.633511   -0.132754    0.620406
  H     -6.079774   -1.597895    1.497038
  H      1.166124    3.924182    1.088515
  H      2.707721    4.097481    0.034842
  H     -0.916935    2.916218   -0.130219

 Total Charge           Charge          ....    0
 Multiplicity           Mult            ....    1
 Number of Electrons    NEL             ....  170
 Basis Dimension        Dim             ....  392

ORBITAL ENERGIES
----------------

  NO   OCC          E(Eh)            E(eV)
   0   2.0000     -25.099370      -682.9886
   1   2.0000     -19.558038      -532.2013
   2   2.0000     -19.536667      -531.6197
   3   2.0000     -19.502795      -530.6980
   4   2.0000     -14.670885      -399.2151
   5   2.0000     -10.598068      -288.3881
   6   2.0000     -10.567553      -287.5577
   7   2.0000     -10.541347      -286.8446
   8   2.0000     -10.527446      -286.4664
   9   2.0000     -10.522153      -286.3223
  10   2.0000     -10.502640      -285.7914
  11   2.0000     -10.476722      -285.0861
  12   2.0000     -10.472434      -284.9694
  13   2.0000     -10.468091      -284.8512
  14   2.0000     -10.465094      -284.7697
  15   2.0000     -10.464050      -284.7413
  16   2.0000     -10.463438      -284.7246
  17   2.0000     -10.462829      -284.7081
  18   2.0000     -10.461885      -284.6824
  19   2.0000     -10.460651      -284.6488
  20   2.0000     -10.459778      -284.6250
  21   2.0000     -10.458567      -284.5921
  22   2.0000     -10.453983      -284.4673
  23   2.0000     -10.444775      -284.2168
  24   2.0000      -1.333869       -36.2964
  25   2.0000      -1.237604       -33.6769
  26   2.0000      -1.180346       -32.1188
  27   2.0000      -1.153516       -31.3888
  28   2.0000      -1.052909       -28.6511
  29   2.0000      -0.969288       -26.3757
  30   2.0000      -0.961626       -26.1672
  31   2.0000      -0.916417       -24.9370
  32   2.0000      -0.877625       -23.8814
  33   2.0000      -0.859757       -23.3952
  34   2.0000      -0.848704       -23.0944
  35   2.0000      -0.846116       -23.0240
  36   2.0000      -0.827304       -22.5121
  37   2.0000      -0.790181       -21.5019
  38   2.0000      -0.767945       -20.8968
  39   2.0000      -0.722403       -19.6576
  40   2.0000      -0.714360       -19.4387
  41   2.0000      -0.699216       -19.0266
  42   2.0000      -0.679815       -18.4987
  43   2.0000      -0.664063       -18.0701
  44   2.0000      -0.654323       -17.8050
  45   2.0000      -0.653452       -17.7813
  46   2.0000      -0.615732       -16.7549
  47   2.0000      -0.600909       -16.3516
  48   2.0000      -0.585011       -15.9189
  49   2.0000      -0.573071       -15.5941
  50   2.0000      -0.557414       -15.1680
  51   2.0000      -0.555560       -15.1176
  52   2.0000      -0.553337       -15.0571
  53   2.0000      -0.538985       -14.6665
  54   2.0000      -0.534959       -14.5570
  55   2.0000      -0.532612       -14.4931
  56   2.0000      -0.522870       -14.2280
  57   2.0000      -0.519998       -14.1499
  58   2.0000      -0.512198       -13.9376
  59   2.0000      -0.503717       -13.7068
  60   2.0000      -0.492654       -13.4058
  61   2.0000      -0.490449       -13.3458
  62   2.0000      -0.482829       -13.1384
  63   2.0000      -0.481016       -13.0891
  64   2.0000      -0.473467       -12.8837
  65   2.0000      -0.464305       -12.6344
  66   2.0000      -0.456418       -12.4198
  67   2.0000      -0.448271       -12.1981
  68   2.0000      -0.444546       -12.0967
  69   2.0000      -0.440859       -11.9964
  70   2.0000      -0.428343       -11.6558
  71   2.0000      -0.427813       -11.6414
  72   2.0000      -0.416902       -11.3445
  73   2.0000      -0.408782       -11.1235
  74   2.0000      -0.398384       -10.8406
  75   2.0000      -0.394015       -10.7217
  76   2.0000      -0.386451       -10.5159
  77   2.0000      -0.381185       -10.3726
  78   2.0000      -0.362490        -9.8638
  79   2.0000      -0.331384        -9.0174
  80   2.0000      -0.309596        -8.4245
  81   2.0000      -0.303811        -8.2671
  82   2.0000      -0.302731        -8.2377
  83   2.0000      -0.293759        -7.9936
  84   2.0000      -0.269633        -7.3371
  85   0.0000      -0.060460        -1.6452
  86   0.0000       0.005830         0.1586
  87   0.0000       0.008244         0.2243
  88   0.0000       0.010710         0.2914
  89   0.0000       0.016087         0.4377

MULLIKEN ATOMIC CHARGES
-----------------------
   0 C :   -0.255564
   1 C :    0.079406
   2 C :   -0.249175
   3 C :   -0.289491
   4 C :    0.386892
   5 C :   -0.335620
   6 C :    0.229777
   7 N :   -0.326500
   8 C :    0.079710
   9 C :    0.552187
  10 O :   -0.459267
  11 C :   -0.523578
  12 C :    0.063916
  13 C :   -0.242379
  14 C :   -0.211213
  15 C :   -0.216966
  16 C :   -0.208402
  17 C :   -0.292829
  18 O :   -0.353845
  19 C :    0.508518
  20 C :   -0.621756
  21 O :   -0.463414
  22 C :   -0.404074
  23 F :   -0.320192
  24 H :    0.274982
  25 H :    0.243883
  26 H :    0.240955
  27 H :    0.238190
  28 H :    0.242882
  29 H :    0.269570
  30 H :    0.229779
  31 H :    0.228909
  32 H :    0.227941
  33 H :    0.249062
  34 H :    0.245431
  35 H :    0.209605
  36 H :    0.211621
  37 H :    0.245639
  38 H :    0.250607
  39 H :    0.264802
Sum of atomic charges:    0.0000000

LOEWDIN ATOMIC CHARGES
----------------------
   0 C :   -0.111816
   1 C :   -0.079344
   2 C :   -0.112153
   3 C :   -0.152468
   4 C :    0.079580
   5 C :   -0.189907
   6 C :    0.118070
   7 N :   -0.107041
   8 C :    0.011514
   9 C :    0.154461
  10 O :   -0.155780
  11 C :   -0.230477
  12 C :   -0.069031
  13 C :   -0.094603
  14 C :   -0.134330
  15 C :   -0.115032
  16 C :   -0.134358
  17 C :   -0.107465
  18 O :   -0.187205
  19 C :    0.141207
  20 C :   -0.305076
  21 O :   -0.187852
  22 C :   -0.176597
  23 F :   -0.179390
  24 H :    0.161778
  25 H :    0.151050
  26 H :    0.149953
  27 H :    0.143247
  28 H :    0.149248
  29 H :    0.160505
  30 H :    0.141276
  31 H :    0.140310
  32 H :    0.140701
  33 H :    0.153858
  34 H :    0.134762
  35 H :    0.116314
  36 H :    0.117298
  37 H :    0.152871
  38 H :    0.153372
  39 H :    0.158552

  Mayer bond orders larger than 0.100000
B(  0-C ,  1-C ) :   1.4097 B(  0-C ,  5-C ) :   1.4011 B(  0-C , 28-H ) :   0.9110
B(  1-C ,  2-C ) :   1.3616 B(  1-C ,  6-C ) :   0.9490 B(  2-C ,  3-C ) :   1.4555
B(  2-C , 25-H ) :   0.9079 B(  3-C ,  4-C ) :   1.3471 B(  3-C , 26-H ) :   0.9089
B(  4-C ,  5-C ) :   1.3260 B(  4-C , 21-O ) :   1.0525 B(  5-C , 27-H ) :   0.9062
B(  6-C ,  7-N ) :   1.0698 B(  6-C , 10-O ) :   0.8799 B(  6-C , 11-C ) :   0.9100
B(  7-N ,  8-C ) :   1.8336 B(  8-C ,  9-C ) :   0.9139 B(  8-C , 12-C ) :   0.9883
B(  9-C , 10-O ) :   1.0778 B(  9-C , 18-O ) :   2.0592 B( 11-C , 19-C ) :   0.9683
B( 11-C , 24-H ) :   0.8905 B( 11-C , 39-H ) :   0.8925 B( 12-C , 13-C ) :   1.3501
B( 12-C , 17-C ) :   1.3773 B( 13-C , 14-C ) :   1.4395 B( 13-C , 33-H ) :   0.9047
B( 14-C , 15-C ) :   1.3971 B( 14-C , 32-H ) :   0.9183 B( 15-C , 16-C ) :   1.4240
B( 15-C , 31-H ) :   0.9173 B( 16-C , 17-C ) :   1.4080 B( 16-C , 30-H ) :   0.9178
B( 17-C , 29-H ) :   0.8875 B( 19-C , 20-C ) :   1.8212 B( 19-C , 23-F ) :   0.9780
B( 20-C , 37-H ) :   0.9137 B( 20-C , 38-H ) :   0.9148 B( 21-O , 22-C ) :   0.9382
B( 22-C , 34-H ) :   0.9211 B( 22-C , 35-H ) :   0.9073 B( 22-C , 36-H ) :   0.9067

Dispersion correction           -0.029367716
FINAL SINGLE POINT ENERGY     -1111.508004176610

DIPOLE MOMENT
-------------
                                X             Y             Z
Electronic contribution:      9.76014       4.18084      -1.39725
Nuclear contribution   :    -10.58538      -4.36950       1.20069
                        -----------------------------------------
Total Dipole Moment    :     -0.82524      -0.18866      -0.19656
                        -----------------------------------------
Magnitude (a.u.)       :      0.86905
Magnitude (Debye)      :      2.20894

Rotational constants in cm-1:     0.012994     0.004332     0.003919
Rotational constants in MHz :   389.537369   129.865402   117.479402

                             ****ORCA TERMINATED NORMALLY****
TOTAL RUN TIME: 0 days 0 hours 7 minutes 49 seconds 129 msec
