                         Program Version 5.0.3 -  RELEASE  -
|  1> ! PBEh-3c def2/J TightSCF DefGrid3
|  2>
|  3> %maxcore 60000
|  4>
|  5> %pal
|  6> nprocs 4
|  7> end
|  8>
|  9> *xyzfile 0 1 28B.xyz
| 10>
| 11>                          ****END OF INPUT****

CARTESIAN COORDINATES (ANGSTROEM)
---------------------------------
  N     -0.481924    1.211871    0.000000
  H     -0.860502    2.148228    0.000000
  C      0.914841    1.113598    0.000000
  O      1.608350    2.116715    0.000000
  C      1.395442   -0.257281    0.000000
  H      2.457251   -0.433560    0.000000
  C      0.511884   -1.276158    0.000000
  H      0.818981   -2.311598    0.000000
  N     -0.839525   -1.060443    0.000000
  H     -1.490859   -1.827191    0.000000
  C     -1.415624    0.199640    0.000000
  O     -2.618316    0.376178    0.000000

 Total Charge           Charge          ....    0
 Multiplicity           Mult            ....    1
 Number of Electrons    NEL             ....   58
 Basis Dimension        Dim             ....  128

ORBITAL ENERGIES
----------------

  NO   OCC          E(Eh)            E(eV)
   0   2.0000     -19.483994      -530.1864
   1   2.0000     -19.477092      -529.9986
   2   2.0000     -14.718074      -400.4992
   3   2.0000     -14.698237      -399.9594
   4   2.0000     -10.610309      -288.7212
   5   2.0000     -10.574467      -287.7459
   6   2.0000     -10.538768      -286.7744
   7   2.0000     -10.467502      -284.8352
   8   2.0000      -1.197852       -32.5952
   9   2.0000      -1.158659       -31.5287
  10   2.0000      -1.094263       -29.7764
  11   2.0000      -1.036331       -28.2000
  12   2.0000      -0.899955       -24.4890
  13   2.0000      -0.780626       -21.2419
  14   2.0000      -0.751868       -20.4594
  15   2.0000      -0.678832       -18.4720
  16   2.0000      -0.637237       -17.3401
  17   2.0000      -0.594802       -16.1854
  18   2.0000      -0.553651       -15.0656
  19   2.0000      -0.544931       -14.8283
  20   2.0000      -0.522840       -14.2272
  21   2.0000      -0.491402       -13.3717
  22   2.0000      -0.486225       -13.2309
  23   2.0000      -0.469254       -12.7691
  24   2.0000      -0.431376       -11.7383
  25   2.0000      -0.362141        -9.8544
  26   2.0000      -0.342133        -9.3099
  27   2.0000      -0.329322        -8.9613
  28   2.0000      -0.300479        -8.1764
  29   0.0000      -0.022545        -0.6135
  30   0.0000       0.038489         1.0473
  31   0.0000       0.096367         2.6223
  32   0.0000       0.153050         4.1647
  33   0.0000       0.160701         4.3729

MULLIKEN ATOMIC CHARGES
-----------------------
   0 N :   -0.722093
   1 H :    0.399276
   2 C :    0.567099
   3 O :   -0.391892
   4 C :   -0.453489
   5 H :    0.266671
   6 C :    0.085257
   7 H :    0.272770
   8 N :   -0.679721
   9 H :    0.393138
  10 C :    0.677627
  11 O :   -0.414643
Sum of atomic charges:   -0.0000000

LOEWDIN ATOMIC CHARGES
----------------------
   0 N :   -0.203101
   1 H :    0.286578
   2 C :    0.123422
   3 O :   -0.242216
   4 C :   -0.240696
   5 H :    0.163805
   6 C :   -0.013569
   7 H :    0.150053
   8 N :   -0.189938
   9 H :    0.281941
  10 C :    0.146160
  11 O :   -0.262440

  Mayer bond orders larger than 0.100000
B(  0-N ,  1-H ) :   0.7983 B(  0-N ,  2-C ) :   0.9802 B(  0-N , 10-C ) :   1.0664
B(  2-C ,  3-O ) :   2.0391 B(  2-C ,  4-C ) :   1.0568 B(  4-C ,  5-H ) :   0.9065
B(  4-C ,  6-C ) :   1.6431 B(  6-C ,  7-H ) :   0.8991 B(  6-C ,  8-N ) :   1.0764
B(  8-N ,  9-H ) :   0.8081 B(  8-N , 10-C ) :   1.0234 B( 10-C , 11-O ) :   2.0466

Dispersion correction           -0.006238827
FINAL SINGLE POINT ENERGY      -413.938375691612

DIPOLE MOMENT
-------------
                                X             Y             Z
Electronic contribution:     -1.28480       1.73141      -0.00000
Nuclear contribution   :      1.41544      -3.48588       0.00000
                        -----------------------------------------
Total Dipole Moment    :      0.13064      -1.75447      -0.00000
                        -----------------------------------------
Magnitude (a.u.)       :      1.75933
Magnitude (Debye)      :      4.47186

Rotational constants in cm-1:     0.130347     0.067383     0.044420
Rotational constants in MHz :  3907.715222  2020.100114  1331.683853

                             ****ORCA TERMINATED NORMALLY****
TOTAL RUN TIME: 0 days 0 hours 1 minutes 33 seconds 816 msec
