                         Program Version 5.0.3 -  RELEASE  -
|  1> ! PBEh-3c def2/J TightSCF DefGrid3
|  2>
|  3> %maxcore 60000
|  4>
|  5> %pal
|  6> nprocs 4
|  7> end
|  8>
|  9> *xyzfile 0 1 Triindenotriphenylene.xyz
| 10>
| 11>                          ****END OF INPUT****

CARTESIAN COORDINATES (ANGSTROEM)
---------------------------------
  C     -0.434157   -1.016630   -2.061030
  C     -0.028360    0.253873   -2.393381
  C      1.145545    0.828903   -1.816610
  C      1.892321    0.074305   -0.942665
  C      1.494966   -1.248792   -0.581323
  C      0.362589   -1.779151   -1.152912
  C     -0.500766   -2.578702   -0.383356
  C     -0.142153   -2.976101    0.918052
  C      1.069180   -2.425402    1.492838
  C      1.832044   -1.503971    0.796709
  C      0.947875    2.240869   -1.610742
  C      1.653695    2.854695   -0.591166
  C      2.425891    2.074503    0.356302
  C      2.471745    0.677398    0.188033
  C     -2.358484    0.986212   -2.522993
  C     -2.764719   -0.364499   -2.184603
  C     -1.827300   -1.333229   -1.872928
  C     -1.182902   -3.600704    1.652343
  C     -2.469252   -3.641051    1.141284
  C     -2.835173   -3.002156   -0.069364
  C     -1.847582   -2.430881   -0.841759
  C      2.556530   -0.266049    1.260499
  C      2.920586    0.228804    2.494865
  C      3.126741    1.622702    2.637252
  C      2.852104    2.531471    1.629428
  C     -3.200713    2.128326   -2.494742
  C     -2.655853    3.392263   -2.341400
  C     -1.274933    3.611134   -2.114645
  C     -0.980658    1.276538   -2.550710
  C     -0.412253    2.538374   -2.188863
  H      1.234941   -2.587003    2.552332
  H      1.461009    3.891347   -0.338689
  H     -3.812810   -0.528477   -1.959062
  H     -0.989317   -3.988759    2.645367
  H     -3.248871   -4.102780    1.733869
  H     -3.882643   -2.914795   -0.330815
  H      2.986000   -0.406309    3.369450
  H      3.425656    2.000387    3.606994
  H      2.892676    3.593026    1.842551
  H     -4.277341    2.012212   -2.525295
  H     -3.323391    4.243571   -2.300299
  H     -0.935459    4.596528   -1.820816

 Total Charge           Charge          ....    0
 Multiplicity           Mult            ....    1
 Number of Electrons    NEL             ....  192
 Basis Dimension        Dim             ....  474

ORBITAL ENERGIES
----------------

  NO   OCC          E(Eh)            E(eV)
   0   2.0000     -10.481453      -285.2148
   1   2.0000     -10.481316      -285.2111
   2   2.0000     -10.481169      -285.2071
   3   2.0000     -10.477856      -285.1170
   4   2.0000     -10.477647      -285.1113
   5   2.0000     -10.477638      -285.1110
   6   2.0000     -10.476874      -285.0902
   7   2.0000     -10.476873      -285.0902
   8   2.0000     -10.476662      -285.0845
   9   2.0000     -10.476612      -285.0831
  10   2.0000     -10.476555      -285.0815
  11   2.0000     -10.476298      -285.0746
  12   2.0000     -10.467934      -284.8470
  13   2.0000     -10.467866      -284.8451
  14   2.0000     -10.467833      -284.8442
  15   2.0000     -10.466169      -284.7989
  16   2.0000     -10.466088      -284.7967
  17   2.0000     -10.466065      -284.7961
  18   2.0000     -10.464602      -284.7563
  19   2.0000     -10.464589      -284.7559
  20   2.0000     -10.464461      -284.7524
  21   2.0000     -10.462171      -284.6901
  22   2.0000     -10.462141      -284.6893
  23   2.0000     -10.462097      -284.6881
  24   2.0000     -10.461554      -284.6734
  25   2.0000     -10.461492      -284.6717
  26   2.0000     -10.461358      -284.6680
  27   2.0000     -10.461282      -284.6660
  28   2.0000     -10.461261      -284.6654
  29   2.0000     -10.461108      -284.6612
  30   2.0000      -1.044231       -28.4150
  31   2.0000      -1.003477       -27.3060
  32   2.0000      -1.003297       -27.3011
  33   2.0000      -0.953056       -25.9340
  34   2.0000      -0.944822       -25.7099
  35   2.0000      -0.944699       -25.7066
  36   2.0000      -0.900191       -24.4954
  37   2.0000      -0.900178       -24.4951
  38   2.0000      -0.884984       -24.0816
  39   2.0000      -0.867327       -23.6012
  40   2.0000      -0.829563       -22.5736
  41   2.0000      -0.829502       -22.5719
  42   2.0000      -0.821664       -22.3586
  43   2.0000      -0.810581       -22.0570
  44   2.0000      -0.810531       -22.0557
  45   2.0000      -0.750905       -20.4332
  46   2.0000      -0.732584       -19.9346
  47   2.0000      -0.732461       -19.9313
  48   2.0000      -0.701194       -19.0805
  49   2.0000      -0.700697       -19.0669
  50   2.0000      -0.700574       -19.0636
  51   2.0000      -0.655927       -17.8487
  52   2.0000      -0.655754       -17.8440
  53   2.0000      -0.634963       -17.2782
  54   2.0000      -0.610432       -16.6107
  55   2.0000      -0.610356       -16.6086
  56   2.0000      -0.606585       -16.5060
  57   2.0000      -0.585346       -15.9281
  58   2.0000      -0.561213       -15.2714
  59   2.0000      -0.561201       -15.2711
  60   2.0000      -0.542268       -14.7559
  61   2.0000      -0.542153       -14.7527
  62   2.0000      -0.533329       -14.5126
  63   2.0000      -0.530244       -14.4287
  64   2.0000      -0.514742       -14.0068
  65   2.0000      -0.514705       -14.0058
  66   2.0000      -0.509829       -13.8732
  67   2.0000      -0.489425       -13.3179
  68   2.0000      -0.489338       -13.3156
  69   2.0000      -0.487290       -13.2598
  70   2.0000      -0.479523       -13.0485
  71   2.0000      -0.474977       -12.9248
  72   2.0000      -0.474816       -12.9204
  73   2.0000      -0.466083       -12.6828
  74   2.0000      -0.465875       -12.6771
  75   2.0000      -0.457266       -12.4428
  76   2.0000      -0.439133       -11.9494
  77   2.0000      -0.439049       -11.9471
  78   2.0000      -0.421187       -11.4611
  79   2.0000      -0.416678       -11.3384
  80   2.0000      -0.409420       -11.1409
  81   2.0000      -0.405025       -11.0213
  82   2.0000      -0.404774       -11.0145
  83   2.0000      -0.399133       -10.8610
  84   2.0000      -0.399045       -10.8586
  85   2.0000      -0.383080       -10.4241
  86   2.0000      -0.383007       -10.4222
  87   2.0000      -0.346040        -9.4162
  88   2.0000      -0.345922        -9.4130
  89   2.0000      -0.334135        -9.0923
  90   2.0000      -0.317008        -8.6262
  91   2.0000      -0.271116        -7.3774
  92   2.0000      -0.271065        -7.3760
  93   2.0000      -0.266231        -7.2445
  94   2.0000      -0.250830        -6.8254
  95   2.0000      -0.250773        -6.8239
  96   0.0000      -0.063460        -1.7268
  97   0.0000      -0.059559        -1.6207
  98   0.0000      -0.059361        -1.6153
  99   0.0000       0.004303         0.1171
 100   0.0000       0.004376         0.1191

MULLIKEN ATOMIC CHARGES
-----------------------
   0 C :   -0.045556
   1 C :    0.045344
   2 C :   -0.044312
   3 C :    0.046199
   4 C :   -0.045427
   5 C :    0.045600
   6 C :   -0.025006
   7 C :    0.151955
   8 C :   -0.374076
   9 C :    0.091264
  10 C :    0.090080
  11 C :   -0.372710
  12 C :    0.150210
  13 C :   -0.024139
  14 C :    0.150654
  15 C :   -0.373461
  16 C :    0.090953
  17 C :   -0.298466
  18 C :   -0.199965
  19 C :   -0.334051
  20 C :    0.103380
  21 C :    0.101333
  22 C :   -0.333861
  23 C :   -0.199399
  24 C :   -0.298247
  25 C :   -0.299135
  26 C :   -0.198908
  27 C :   -0.334198
  28 C :   -0.024643
  29 C :    0.102590
  30 H :    0.216565
  31 H :    0.216341
  32 H :    0.216143
  33 H :    0.223649
  34 H :    0.226719
  35 H :    0.218567
  36 H :    0.218526
  37 H :    0.226706
  38 H :    0.223663
  39 H :    0.223739
  40 H :    0.226821
  41 H :    0.218560
Sum of atomic charges:    0.0000000

LOEWDIN ATOMIC CHARGES
----------------------
   0 C :   -0.003421
   1 C :   -0.013596
   2 C :   -0.003191
   3 C :   -0.013549
   4 C :   -0.003285
   5 C :   -0.013380
   6 C :   -0.008627
   7 C :   -0.035462
   8 C :   -0.092737
   9 C :   -0.019548
  10 C :   -0.019391
  11 C :   -0.093007
  12 C :   -0.035206
  13 C :   -0.008814
  14 C :   -0.035103
  15 C :   -0.093543
  16 C :   -0.019160
  17 C :   -0.117418
  18 C :   -0.134665
  19 C :   -0.118080
  20 C :   -0.019125
  21 C :   -0.018722
  22 C :   -0.118039
  23 C :   -0.134738
  24 C :   -0.117580
  25 C :   -0.117746
  26 C :   -0.134560
  27 C :   -0.118358
  28 C :   -0.008514
  29 C :   -0.018747
  30 H :    0.142416
  31 H :    0.142389
  32 H :    0.142469
  33 H :    0.140098
  34 H :    0.139654
  35 H :    0.140269
  36 H :    0.140263
  37 H :    0.139545
  38 H :    0.140140
  39 H :    0.140163
  40 H :    0.139639
  41 H :    0.140265

  Mayer bond orders larger than 0.100000
B(  0-C ,  1-C ) :   1.3440 B(  0-C ,  5-C ) :   1.1703 B(  0-C , 16-C ) :   1.1842
B(  1-C ,  2-C ) :   1.1704 B(  1-C , 28-C ) :   1.1890 B(  2-C ,  3-C ) :   1.3438
B(  2-C , 10-C ) :   1.1838 B(  3-C ,  4-C ) :   1.1704 B(  3-C , 13-C ) :   1.1892
B(  4-C ,  5-C ) :   1.3438 B(  4-C ,  9-C ) :   1.1840 B(  5-C ,  6-C ) :   1.1893
B(  6-C ,  7-C ) :   1.2702 B(  6-C , 20-C ) :   1.2365 B(  7-C ,  8-C ) :   1.1978
B(  7-C , 17-C ) :   1.2254 B(  8-C ,  9-C ) :   1.5021 B(  8-C , 30-H ) :   0.9297
B(  9-C , 21-C ) :   1.0151 B( 10-C , 11-C ) :   1.5041 B( 10-C , 29-C ) :   1.0146
B( 11-C , 12-C ) :   1.1973 B( 11-C , 31-H ) :   0.9298 B( 12-C , 13-C ) :   1.2698
B( 12-C , 24-C ) :   1.2268 B( 13-C , 21-C ) :   1.2370 B( 14-C , 15-C ) :   1.1969
B( 14-C , 25-C ) :   1.2255 B( 14-C , 28-C ) :   1.2708 B( 15-C , 16-C ) :   1.5041
B( 15-C , 32-H ) :   0.9301 B( 16-C , 20-C ) :   1.0147 B( 17-C , 18-C ) :   1.5287
B( 17-C , 33-H ) :   0.9212 B( 18-C , 19-C ) :   1.3301 B( 18-C , 34-H ) :   0.9171
B( 19-C , 20-C ) :   1.4218 B( 19-C , 35-H ) :   0.9266 B( 21-C , 22-C ) :   1.4202
B( 22-C , 23-C ) :   1.3320 B( 22-C , 36-H ) :   0.9267 B( 23-C , 24-C ) :   1.5275
B( 23-C , 37-H ) :   0.9170 B( 24-C , 38-H ) :   0.9212 B( 25-C , 26-C ) :   1.5281
B( 25-C , 39-H ) :   0.9213 B( 26-C , 27-C ) :   1.3307 B( 26-C , 40-H ) :   0.9170
B( 27-C , 29-C ) :   1.4214 B( 27-C , 41-H ) :   0.9266 B( 28-C , 29-C ) :   1.2369

Dispersion correction           -0.041871056
FINAL SINGLE POINT ENERGY     -1147.852092809079

DIPOLE MOMENT
-------------
                                X             Y             Z
Electronic contribution:      7.26368      -4.85332     -10.20091
Nuclear contribution   :     -8.35468       5.58033      11.74083
                        -----------------------------------------
Total Dipole Moment    :     -1.09099       0.72701       1.53992
                        -----------------------------------------
Magnitude (a.u.)       :      2.02241
Magnitude (Debye)      :      5.14056

Rotational constants in cm-1:     0.007355     0.007323     0.004198
Rotational constants in MHz :   220.504309   219.545410   125.839516

                             ****ORCA TERMINATED NORMALLY****
TOTAL RUN TIME: 0 days 0 hours 9 minutes 44 seconds 980 msec
