                         Program Version 5.0.3 -  RELEASE  -
|  1> ! PBEh-3c def2/J TightSCF DefGrid3
|  2>
|  3> %maxcore 60000
|  4>
|  5> %pal
|  6> nprocs 4
|  7> end
|  8>
|  9> *xyzfile 0 1 23A.xyz
| 10>
| 11>                          ****END OF INPUT****

CARTESIAN COORDINATES (ANGSTROEM)
---------------------------------
  C      0.483192    0.350264    0.058542
  O      1.144643    1.380640    0.225782
  N      1.045339   -0.857487   -0.114116
  H      2.059766   -0.951935   -0.108161
  H      0.471705   -1.667699   -0.246517
  C     -1.022326    0.405382    0.044279
  H     -1.362056    0.785230    1.004667
  H     -1.486196   -0.558510   -0.146045
  H     -1.334068    1.114115   -0.718432

 Total Charge           Charge          ....    0
 Multiplicity           Mult            ....    1
 Number of Electrons    NEL             ....   32
 Basis Dimension        Dim             ....   70

ORBITAL ENERGIES
----------------

  NO   OCC          E(Eh)            E(eV)
   0   2.0000     -19.443330      -529.0799
   1   2.0000     -14.660356      -398.9286
   2   2.0000     -10.546044      -286.9724
   3   2.0000     -10.440508      -284.1007
   4   2.0000      -1.126659       -30.6579
   5   2.0000      -1.005429       -27.3591
   6   2.0000      -0.826967       -22.5029
   7   2.0000      -0.664827       -18.0909
   8   2.0000      -0.609789       -16.5932
   9   2.0000      -0.533246       -14.5104
  10   2.0000      -0.505849       -13.7649
  11   2.0000      -0.460227       -12.5234
  12   2.0000      -0.451757       -12.2929
  13   2.0000      -0.419181       -11.4065
  14   2.0000      -0.314778        -8.5655
  15   2.0000      -0.299015        -8.1366
  16   0.0000       0.069702         1.8967
  17   0.0000       0.117717         3.2033
  18   0.0000       0.162996         4.4353
  19   0.0000       0.186924         5.0865
  20   0.0000       0.221459         6.0262

MULLIKEN ATOMIC CHARGES
-----------------------
   0 C :    0.501722
   1 O :   -0.433280
   2 N :   -0.787042
   3 H :    0.375486
   4 H :    0.361798
   5 C :   -0.744813
   6 H :    0.261088
   7 H :    0.202789
   8 H :    0.262253
Sum of atomic charges:    0.0000000

LOEWDIN ATOMIC CHARGES
----------------------
   0 C :    0.098255
   1 O :   -0.297627
   2 N :   -0.363098
   3 H :    0.263460
   4 H :    0.251890
   5 C :   -0.392353
   6 H :    0.158522
   7 H :    0.122246
   8 H :    0.158704

  Mayer bond orders larger than 0.100000
B(  0-C ,  1-O ) :   2.0166 B(  0-C ,  2-N ) :   1.1589 B(  0-C ,  5-C ) :   0.9264
B(  2-N ,  3-H ) :   0.8219 B(  2-N ,  4-H ) :   0.8303 B(  5-C ,  6-H ) :   0.9094
B(  5-C ,  7-H ) :   0.9217 B(  5-C ,  8-H ) :   0.9099

Dispersion correction           -0.002888965
FINAL SINGLE POINT ENERGY      -208.766381767622

DIPOLE MOMENT
-------------
                                X             Y             Z
Electronic contribution:      2.96695       1.12145       0.21228
Nuclear contribution   :     -3.50536      -2.60894      -0.44040
                        -----------------------------------------
Total Dipole Moment    :     -0.53841      -1.48749      -0.22812
                        -----------------------------------------
Magnitude (a.u.)       :      1.59829
Magnitude (Debye)      :      4.06254

Rotational constants in cm-1:     0.361940     0.313047     0.173213
Rotational constants in MHz : 10850.696871  9384.924499  5192.795096

                             ****ORCA TERMINATED NORMALLY****
TOTAL RUN TIME: 0 days 0 hours 1 minutes 7 seconds 663 msec
