                         Program Version 5.0.3 -  RELEASE  -
|  1> ! PBEh-3c def2/J TightSCF DefGrid3
|  2>
|  3> %maxcore 60000
|  4>
|  5> %pal
|  6> nprocs 4
|  7> end
|  8>
|  9> *xyzfile 0 1 LYS_xat.xyz
| 10>
| 11>                          ****END OF INPUT****

CARTESIAN COORDINATES (ANGSTROEM)
---------------------------------
  N      1.704282   -1.060275    0.587462
  C      0.401646   -0.437626    0.399107
  C      0.568538    1.084467    0.441799
  O      0.374636    1.741622    1.459925
  C     -0.568884   -0.930086    1.456946
  C     -1.971592   -0.345364    1.307250
  H      2.003353   -1.270122    1.525059
  H      0.071983   -0.732376   -0.596383
  H     -0.609636   -2.019706    1.389399
  H     -1.940214    0.716239    1.552926
  H     -2.621567   -0.821094    2.045252
  N      0.968283    1.613479   -0.738685
  H      1.321957    0.954819   -1.421972
  C      1.341328    3.010207   -0.822545
  H      2.329627    3.195880   -0.400348
  H      0.620323    3.598827   -0.263433
  H      1.333319    3.320057   -1.863294
  C      2.576641   -1.211474   -0.439724
  O      2.312048   -0.847478   -1.585781
  C      3.889379   -1.868226   -0.097509
  H      4.694799   -1.176386   -0.332584
  H      4.010850   -2.743248   -0.731236
  H      3.962261   -2.166031    0.945315
  H     -0.174044   -0.666184    2.440087
  C     -2.575262   -0.533081   -0.079991
  H     -2.500491   -1.582681   -0.383277
  H     -2.016530    0.049375   -0.817561
  C     -4.037155   -0.101324   -0.134145
  H     -4.614111   -0.693622    0.578547
  H     -4.116086    0.936274    0.195205
  N     -4.687909   -0.209385   -1.438154
  H     -4.180081    0.349247   -2.113665
  H     -4.621723   -1.164783   -1.768592

 Total Charge           Charge          ....    0
 Multiplicity           Mult            ....    1
 Number of Electrons    NEL             ....  110
 Basis Dimension        Dim             ....  248

ORBITAL ENERGIES
----------------

  NO   OCC          E(Eh)            E(eV)
   0   2.0000     -19.472153      -529.8642
   1   2.0000     -19.455727      -529.4172
   2   2.0000     -14.679423      -399.4474
   3   2.0000     -14.651438      -398.6859
   4   2.0000     -14.603113      -397.3709
   5   2.0000     -10.564338      -287.4702
   6   2.0000     -10.539009      -286.7810
   7   2.0000     -10.489563      -285.4355
   8   2.0000     -10.460490      -284.6444
   9   2.0000     -10.453758      -284.4612
  10   2.0000     -10.451232      -284.3925
  11   2.0000     -10.443386      -284.1790
  12   2.0000     -10.431685      -283.8606
  13   2.0000     -10.429747      -283.8079
  14   2.0000      -1.158254       -31.5177
  15   2.0000      -1.137041       -30.9404
  16   2.0000      -1.040481       -28.3129
  17   2.0000      -1.013616       -27.5819
  18   2.0000      -0.973018       -26.4772
  19   2.0000      -0.903269       -24.5792
  20   2.0000      -0.857164       -23.3246
  21   2.0000      -0.819695       -22.3050
  22   2.0000      -0.795822       -21.6554
  23   2.0000      -0.747649       -20.3446
  24   2.0000      -0.694559       -18.8999
  25   2.0000      -0.672713       -18.3055
  26   2.0000      -0.652680       -17.7603
  27   2.0000      -0.641419       -17.4539
  28   2.0000      -0.604460       -16.4482
  29   2.0000      -0.566745       -15.4219
  30   2.0000      -0.560079       -15.2405
  31   2.0000      -0.557616       -15.1735
  32   2.0000      -0.531187       -14.4543
  33   2.0000      -0.518423       -14.1070
  34   2.0000      -0.509222       -13.8566
  35   2.0000      -0.502472       -13.6730
  36   2.0000      -0.495172       -13.4743
  37   2.0000      -0.483628       -13.1602
  38   2.0000      -0.476770       -12.9736
  39   2.0000      -0.468298       -12.7430
  40   2.0000      -0.462305       -12.5800
  41   2.0000      -0.449815       -12.2401
  42   2.0000      -0.442662       -12.0454
  43   2.0000      -0.427760       -11.6399
  44   2.0000      -0.424746       -11.5579
  45   2.0000      -0.417099       -11.3498
  46   2.0000      -0.405657       -11.0385
  47   2.0000      -0.397043       -10.8041
  48   2.0000      -0.380144       -10.3442
  49   2.0000      -0.373776       -10.1710
  50   2.0000      -0.338013        -9.1978
  51   2.0000      -0.324579        -8.8322
  52   2.0000      -0.301125        -8.1940
  53   2.0000      -0.290112        -7.8944
  54   2.0000      -0.281182        -7.6513
  55   0.0000       0.039599         1.0775
  56   0.0000       0.061611         1.6765
  57   0.0000       0.113768         3.0958
  58   0.0000       0.129546         3.5251
  59   0.0000       0.141268         3.8441

MULLIKEN ATOMIC CHARGES
-----------------------
   0 N :   -0.622306
   1 C :   -0.211674
   2 C :    0.560606
   3 O :   -0.436647
   4 C :   -0.430552
   5 C :   -0.438227
   6 H :    0.364265
   7 H :    0.268905
   8 H :    0.221131
   9 H :    0.251506
  10 H :    0.215969
  11 N :   -0.643914
  12 H :    0.399566
  13 C :   -0.492612
  14 H :    0.220195
  15 H :    0.249384
  16 H :    0.220369
  17 C :    0.539607
  18 O :   -0.461302
  19 C :   -0.744970
  20 H :    0.260755
  21 H :    0.264434
  22 H :    0.217001
  23 H :    0.233434
  24 C :   -0.447267
  25 H :    0.196675
  26 H :    0.205345
  27 C :   -0.273014
  28 H :    0.207299
  29 H :    0.213621
  30 N :   -0.725266
  31 H :    0.309592
  32 H :    0.308092
Sum of atomic charges:    0.0000000

LOEWDIN ATOMIC CHARGES
----------------------
   0 N :   -0.211217
   1 C :   -0.096895
   2 C :    0.100789
   3 O :   -0.281432
   4 C :   -0.234392
   5 C :   -0.241999
   6 H :    0.260802
   7 H :    0.145854
   8 H :    0.127357
   9 H :    0.141282
  10 H :    0.125955
  11 N :   -0.248982
  12 H :    0.266559
  13 C :   -0.254677
  14 H :    0.120374
  15 H :    0.142792
  16 H :    0.125976
  17 C :    0.113880
  18 O :   -0.302104
  19 C :   -0.384355
  20 H :    0.158621
  21 H :    0.160690
  22 H :    0.129671
  23 H :    0.136467
  24 C :   -0.268446
  25 H :    0.114466
  26 H :    0.117893
  27 C :   -0.170490
  28 H :    0.116549
  29 H :    0.120107
  30 N :   -0.466720
  31 H :    0.218286
  32 H :    0.217340

  Mayer bond orders larger than 0.100000
B(  0-N ,  1-C ) :   0.9149 B(  0-N ,  6-H ) :   0.8195 B(  0-N , 17-C ) :   1.1705
B(  1-C ,  2-C ) :   0.8692 B(  1-C ,  4-C ) :   0.9893 B(  1-C ,  7-H ) :   0.8756
B(  2-C ,  3-O ) :   1.9589 B(  2-C , 11-N ) :   1.1680 B(  4-C ,  5-C ) :   0.9950
B(  4-C ,  8-H ) :   0.9137 B(  4-C , 23-H ) :   0.9068 B(  5-C ,  9-H ) :   0.8948
B(  5-C , 10-H ) :   0.9198 B(  5-C , 24-C ) :   0.9673 B( 11-N , 12-H ) :   0.7520
B( 11-N , 13-C ) :   0.9624 B( 13-C , 14-H ) :   0.9178 B( 13-C , 15-H ) :   0.9107
B( 13-C , 16-H ) :   0.9259 B( 17-C , 18-O ) :   1.8950 B( 17-C , 19-C ) :   0.9323
B( 19-C , 20-H ) :   0.9072 B( 19-C , 21-H ) :   0.9069 B( 19-C , 22-H ) :   0.9213
B( 24-C , 25-H ) :   0.9189 B( 24-C , 26-H ) :   0.9133 B( 24-C , 27-C ) :   0.9758
B( 27-C , 28-H ) :   0.9179 B( 27-C , 29-H ) :   0.9165 B( 27-C , 30-N ) :   1.0582
B( 30-N , 31-H ) :   0.8644 B( 30-N , 32-H ) :   0.8654

Dispersion correction           -0.019247709
FINAL SINGLE POINT ENERGY      -667.701505604217

DIPOLE MOMENT
-------------
                                X             Y             Z
Electronic contribution:      8.02728       0.92176       0.14880
Nuclear contribution   :     -6.86098      -1.88726      -0.03877
                        -----------------------------------------
Total Dipole Moment    :      1.16631      -0.96549       0.11004
                        -----------------------------------------
Magnitude (a.u.)       :      1.51808
Magnitude (Debye)      :      3.85865

Rotational constants in cm-1:     0.028916     0.011679     0.010487
Rotational constants in MHz :   866.873118   350.133288   314.385198

                             ****ORCA TERMINATED NORMALLY****
TOTAL RUN TIME: 0 days 0 hours 3 minutes 34 seconds 706 msec
