                         Program Version 5.0.3 -  RELEASE  -
|  1> ! PBEh-3c def2/J TightSCF DefGrid3
|  2>
|  3> %maxcore 60000
|  4>
|  5> %pal
|  6> nprocs 4
|  7> end
|  8>
|  9> *xyzfile 0 1 hcl.xyz
| 10>
| 11>                          ****END OF INPUT****

CARTESIAN COORDINATES (ANGSTROEM)
---------------------------------
  Cl     0.000000    0.000000    0.637224
  H      0.000000    0.000000   -0.637224

 Total Charge           Charge          ....    0
 Multiplicity           Mult            ....    1
 Number of Electrons    NEL             ....   18
 Basis Dimension        Dim             ....   20

ORBITAL ENERGIES
----------------

  NO   OCC          E(Eh)            E(eV)
   0   2.0000    -102.297983     -2783.6696
   1   2.0000      -9.767295      -265.7816
   2   2.0000      -7.455142      -202.8647
   3   2.0000      -7.446384      -202.6264
   4   2.0000      -7.446384      -202.6264
   5   2.0000      -0.928568       -25.2676
   6   2.0000      -0.523297       -14.2396
   7   2.0000      -0.375599       -10.2206
   8   2.0000      -0.375599       -10.2206
   9   0.0000       0.069173         1.8823
  10   0.0000       0.497460        13.5366
  11   0.0000       0.626733        17.0543
  12   0.0000       0.802555        21.8386
  13   0.0000       0.802555        21.8386

MULLIKEN ATOMIC CHARGES
-----------------------
   0 Cl:   -0.289150
   1 H :    0.289150
Sum of atomic charges:    0.0000000

LOEWDIN ATOMIC CHARGES
----------------------
   0 Cl:   -0.180731
   1 H :    0.180731

  Mayer bond orders larger than 0.100000
B(  0-Cl,  1-H ) :   0.8891

Dispersion correction           -0.000168160
FINAL SINGLE POINT ENERGY      -460.296633350370

DIPOLE MOMENT
-------------
                                X             Y             Z
Electronic contribution:      0.00000       0.00000       0.61640
Nuclear contribution   :      0.00000       0.00000      -1.20989
                        -----------------------------------------
Total Dipole Moment    :      0.00000       0.00000      -0.59349
                        -----------------------------------------
Magnitude (a.u.)       :      0.59349
Magnitude (Debye)      :      1.50854

Rotational constants in cm-1:     0.000000    10.589308    10.589308
Rotational constants in MHz :     0.000000 317459.465252 317459.465252

                             ****ORCA TERMINATED NORMALLY****
TOTAL RUN TIME: 0 days 0 hours 0 minutes 8 seconds 83 msec
