                         Program Version 5.0.3 -  RELEASE  -
|  1> ! PBEh-3c def2/J TightSCF DefGrid3
|  2>
|  3> %maxcore 60000
|  4>
|  5> %pal
|  6> nprocs 4
|  7> end
|  8>
|  9> *xyzfile 0 1 na2.xyz
| 10>
| 11>                          ****END OF INPUT****

CARTESIAN COORDINATES (ANGSTROEM)
---------------------------------
  Na     0.000000    0.000000    1.562177
  Na     0.000000    0.000000   -1.562177

 Total Charge           Charge          ....    0
 Multiplicity           Mult            ....    1
 Number of Electrons    NEL             ....   22
 Basis Dimension        Dim             ....   30

ORBITAL ENERGIES
----------------

  NO   OCC          E(Eh)            E(eV)
   0   2.0000     -38.933980     -1059.4475
   1   2.0000     -38.933871     -1059.4445
   2   2.0000      -2.378076       -64.7107
   3   2.0000      -2.377976       -64.7080
   4   2.0000      -1.251972       -34.0679
   5   2.0000      -1.251305       -34.0497
   6   2.0000      -1.251305       -34.0497
   7   2.0000      -1.251115       -34.0446
   8   2.0000      -1.251115       -34.0446
   9   2.0000      -1.250464       -34.0268
  10   2.0000      -0.145331        -3.9547
  11   0.0000      -0.038892        -1.0583
  12   0.0000       0.000721         0.0196
  13   0.0000       0.000721         0.0196
  14   0.0000       0.021291         0.5794
  15   0.0000       0.055261         1.5037

MULLIKEN ATOMIC CHARGES
-----------------------
   0 Na:   -0.000000
   1 Na:    0.000000
Sum of atomic charges:   -0.0000000

LOEWDIN ATOMIC CHARGES
----------------------
   0 Na:   -0.000000
   1 Na:    0.000000

  Mayer bond orders larger than 0.100000
B(  0-Na,  1-Na) :   1.0020

Dispersion correction           -0.000189430
FINAL SINGLE POINT ENERGY      -324.047661972403

DIPOLE MOMENT
-------------
                                X             Y             Z
Electronic contribution:     -0.00000      -0.00000       0.00000
Nuclear contribution   :      0.00000       0.00000       0.00000
                        -----------------------------------------
Total Dipole Moment    :     -0.00000      -0.00000       0.00000
                        -----------------------------------------
Magnitude (a.u.)       :      0.00000
Magnitude (Debye)      :      0.00000

Rotational constants in cm-1:     0.000000     0.150234     0.150234
Rotational constants in MHz :     0.000000  4503.894551  4503.894551

                             ****ORCA TERMINATED NORMALLY****
TOTAL RUN TIME: 0 days 0 hours 0 minutes 48 seconds 29 msec
