                         Program Version 5.0.3 -  RELEASE  -
|  1> ! PBEh-3c def2/J TightSCF DefGrid3
|  2>
|  3> %maxcore 60000
|  4>
|  5> %pal
|  6> nprocs 4
|  7> end
|  8>
|  9> *xyzfile 0 1 ISO_E35.xyz
| 10>
| 11>                          ****END OF INPUT****

CARTESIAN COORDINATES (ANGSTROEM)
---------------------------------
  C     -1.193452   -0.689040   -0.352394
  C     -0.753097   -0.434801   -1.787504
  C      0.000000    0.869602   -1.787504
  C      0.000000    1.378080   -0.352394
  C     -1.193452    0.689040    0.352394
  C      0.000000   -1.378080    0.352394
  C      1.193452   -0.689040   -0.352394
  C      0.753097   -0.434801   -1.787504
  C      0.000000   -0.869602    1.787504
  C     -0.753097    0.434801    1.787504
  C      1.193452    0.689040    0.352394
  C      0.753097    0.434801    1.787504
  H     -2.134225   -1.232195   -0.250184
  H     -1.326772   -0.766012   -2.644012
  H      0.000000    1.532024   -2.644012
  H      0.000000    2.464391   -0.250184
  H     -2.134225    1.232195    0.250184
  H      0.000000   -2.464391    0.250184
  H      2.134225   -1.232195   -0.250184
  H      1.326772   -0.766012   -2.644012
  H      0.000000   -1.532024    2.644012
  H     -1.326772    0.766012    2.644012
  H      2.134225    1.232195    0.250184
  H      1.326772    0.766012    2.644012

 Total Charge           Charge          ....    0
 Multiplicity           Mult            ....    1
 Number of Electrons    NEL             ....   84
 Basis Dimension        Dim             ....  204

ORBITAL ENERGIES
----------------

  NO   OCC          E(Eh)            E(eV)
   0   2.0000     -10.433203      -283.9019
   1   2.0000     -10.433141      -283.9002
   2   2.0000     -10.432704      -283.8883
   3   2.0000     -10.432702      -283.8883
   4   2.0000     -10.432685      -283.8878
   5   2.0000     -10.432684      -283.8878
   6   2.0000     -10.432135      -283.8728
   7   2.0000     -10.432099      -283.8719
   8   2.0000     -10.432098      -283.8718
   9   2.0000     -10.431849      -283.8650
  10   2.0000     -10.431848      -283.8650
  11   2.0000     -10.431695      -283.8609
  12   2.0000      -1.036843       -28.2139
  13   2.0000      -0.964599       -26.2481
  14   2.0000      -0.845781       -23.0149
  15   2.0000      -0.845780       -23.0148
  16   2.0000      -0.832747       -22.6602
  17   2.0000      -0.717803       -19.5324
  18   2.0000      -0.717803       -19.5324
  19   2.0000      -0.618623       -16.8336
  20   2.0000      -0.612767       -16.6742
  21   2.0000      -0.612767       -16.6742
  22   2.0000      -0.604967       -16.4620
  23   2.0000      -0.601401       -16.3649
  24   2.0000      -0.601401       -16.3649
  25   2.0000      -0.560350       -15.2479
  26   2.0000      -0.475241       -12.9320
  27   2.0000      -0.470263       -12.7965
  28   2.0000      -0.470262       -12.7965
  29   2.0000      -0.452109       -12.3025
  30   2.0000      -0.451598       -12.2886
  31   2.0000      -0.451596       -12.2886
  32   2.0000      -0.406457       -11.0603
  33   2.0000      -0.383838       -10.4448
  34   2.0000      -0.367720       -10.0062
  35   2.0000      -0.367719       -10.0061
  36   2.0000      -0.346067        -9.4169
  37   2.0000      -0.346065        -9.4169
  38   2.0000      -0.314923        -8.5695
  39   2.0000      -0.314923        -8.5695
  40   2.0000      -0.294348        -8.0096
  41   2.0000      -0.294347        -8.0096
  42   0.0000       0.117124         3.1871
  43   0.0000       0.126300         3.4368
  44   0.0000       0.141211         3.8425
  45   0.0000       0.175593         4.7781
  46   0.0000       0.198085         5.3902

MULLIKEN ATOMIC CHARGES
-----------------------
   0 C :   -0.226055
   1 C :   -0.217489
   2 C :   -0.217533
   3 C :   -0.226075
   4 C :   -0.226054
   5 C :   -0.226076
   6 C :   -0.226054
   7 C :   -0.217489
   8 C :   -0.217533
   9 C :   -0.217488
  10 C :   -0.226055
  11 C :   -0.217489
  12 H :    0.223113
  13 H :    0.220444
  14 H :    0.220463
  15 H :    0.223118
  16 H :    0.223113
  17 H :    0.223118
  18 H :    0.223113
  19 H :    0.220444
  20 H :    0.220463
  21 H :    0.220444
  22 H :    0.223113
  23 H :    0.220444
Sum of atomic charges:   -0.0000000

LOEWDIN ATOMIC CHARGES
----------------------
   0 C :   -0.119344
   1 C :   -0.139481
   2 C :   -0.139497
   3 C :   -0.119347
   4 C :   -0.119344
   5 C :   -0.119347
   6 C :   -0.119344
   7 C :   -0.139481
   8 C :   -0.139497
   9 C :   -0.139481
  10 C :   -0.119344
  11 C :   -0.139481
  12 H :    0.128654
  13 H :    0.130176
  14 H :    0.130178
  15 H :    0.128656
  16 H :    0.128654
  17 H :    0.128656
  18 H :    0.128654
  19 H :    0.130176
  20 H :    0.130178
  21 H :    0.130176
  22 H :    0.128654
  23 H :    0.130176

  Mayer bond orders larger than 0.100000
B(  0-C ,  1-C ) :   0.9814 B(  0-C ,  4-C ) :   0.9620 B(  0-C ,  5-C ) :   0.9620
B(  0-C , 12-H ) :   0.9264 B(  1-C ,  2-C ) :   0.9287 B(  1-C ,  7-C ) :   0.9287
B(  1-C , 13-H ) :   0.9245 B(  2-C ,  3-C ) :   0.9814 B(  2-C ,  7-C ) :   0.9287
B(  2-C , 14-H ) :   0.9245 B(  3-C ,  4-C ) :   0.9620 B(  3-C , 10-C ) :   0.9620
B(  3-C , 15-H ) :   0.9264 B(  4-C ,  9-C ) :   0.9814 B(  4-C , 16-H ) :   0.9264
B(  5-C ,  6-C ) :   0.9620 B(  5-C ,  8-C ) :   0.9814 B(  5-C , 17-H ) :   0.9264
B(  6-C ,  7-C ) :   0.9814 B(  6-C , 10-C ) :   0.9620 B(  6-C , 18-H ) :   0.9264
B(  7-C , 19-H ) :   0.9245 B(  8-C ,  9-C ) :   0.9287 B(  8-C , 11-C ) :   0.9287
B(  8-C , 20-H ) :   0.9245 B(  9-C , 11-C ) :   0.9287 B(  9-C , 21-H ) :   0.9245
B( 10-C , 11-C ) :   0.9814 B( 10-C , 22-H ) :   0.9264 B( 11-C , 23-H ) :   0.9245

Dispersion correction           -0.017187844
FINAL SINGLE POINT ENERGY      -463.445685781246

DIPOLE MOMENT
-------------
                                X             Y             Z
Electronic contribution:      0.00000       0.00000       0.00000
Nuclear contribution   :     -0.00000      -0.00000       0.00000
                        -----------------------------------------
Total Dipole Moment    :      0.00000       0.00000       0.00000
                        -----------------------------------------
Magnitude (a.u.)       :      0.00000
Magnitude (Debye)      :      0.00000

Rotational constants in cm-1:     0.069578     0.041829     0.041829
Rotational constants in MHz :  2085.899378  1254.002448  1254.002420

                             ****ORCA TERMINATED NORMALLY****
TOTAL RUN TIME: 0 days 0 hours 2 minutes 13 seconds 165 msec
