                         Program Version 5.0.3 -  RELEASE  -
|  1> ! PBEh-3c def2/J TightSCF DefGrid3
|  2>
|  3> %maxcore 60000
|  4>
|  5> %pal
|  6> nprocs 4
|  7> end
|  8>
|  9> *xyzfile 0 1 AM2.xyz
| 10>
| 11>                          ****END OF INPUT****

CARTESIAN COORDINATES (ANGSTROEM)
---------------------------------
  C      0.000000    0.000000    0.762988
  C      0.000000    0.000000   -0.762988
  H     -0.882809    0.509690    1.158040
  H      0.000000   -1.019380    1.158040
  H      0.882809    0.509690    1.158040
  H      0.882809   -0.509690   -1.158040
  H     -0.882809   -0.509690   -1.158040
  H      0.000000    1.019380   -1.158040

 Total Charge           Charge          ....    0
 Multiplicity           Mult            ....    1
 Number of Electrons    NEL             ....   18
 Basis Dimension        Dim             ....   42

ORBITAL ENERGIES
----------------

  NO   OCC          E(Eh)            E(eV)
   0   2.0000     -10.422654      -283.6148
   1   2.0000     -10.422446      -283.6092
   2   2.0000      -0.838130       -22.8067
   3   2.0000      -0.688335       -18.7306
   4   2.0000      -0.490808       -13.3556
   5   2.0000      -0.490808       -13.3556
   6   2.0000      -0.417889       -11.3713
   7   2.0000      -0.391359       -10.6494
   8   2.0000      -0.391359       -10.6494
   9   0.0000       0.154215         4.1964
  10   0.0000       0.200980         5.4689
  11   0.0000       0.218071         5.9340
  12   0.0000       0.218072         5.9341
  13   0.0000       0.224377         6.1056

MULLIKEN ATOMIC CHARGES
-----------------------
   0 C :   -0.636555
   1 C :   -0.636555
   2 H :    0.212186
   3 H :    0.212184
   4 H :    0.212186
   5 H :    0.212186
   6 H :    0.212186
   7 H :    0.212184
Sum of atomic charges:    0.0000000

LOEWDIN ATOMIC CHARGES
----------------------
   0 C :   -0.370956
   1 C :   -0.370956
   2 H :    0.123652
   3 H :    0.123652
   4 H :    0.123652
   5 H :    0.123652
   6 H :    0.123652
   7 H :    0.123652

  Mayer bond orders larger than 0.100000
B(  0-C ,  1-C ) :   0.9955 B(  0-C ,  2-H ) :   0.9315 B(  0-C ,  3-H ) :   0.9315
B(  0-C ,  4-H ) :   0.9315 B(  1-C ,  5-H ) :   0.9315 B(  1-C ,  6-H ) :   0.9315
B(  1-C ,  7-H ) :   0.9315

Dispersion correction           -0.001883964
FINAL SINGLE POINT ENERGY       -79.650839372026

DIPOLE MOMENT
-------------
                                X             Y             Z
Electronic contribution:     -0.00000       0.00000      -0.00000
Nuclear contribution   :      0.00000       0.00000      -0.00000
                        -----------------------------------------
Total Dipole Moment    :     -0.00000       0.00000      -0.00000
                        -----------------------------------------
Magnitude (a.u.)       :      0.00000
Magnitude (Debye)      :      0.00000

Rotational constants in cm-1:     2.682334     0.667960     0.667960
Rotational constants in MHz : 80414.351538 20024.950720 20024.950528

                             ****ORCA TERMINATED NORMALLY****
TOTAL RUN TIME: 0 days 0 hours 0 minutes 49 seconds 978 msec
