                         Program Version 5.0.3 -  RELEASE  -
|  1> ! PBEh-3c def2/J TightSCF DefGrid3
|  2>
|  3> %maxcore 60000
|  4>
|  5> %pal
|  6> nprocs 4
|  7> end
|  8>
|  9> *xyzfile 0 1 C4H9NCO.xyz
| 10>
| 11>                          ****END OF INPUT****

CARTESIAN COORDINATES (ANGSTROEM)
---------------------------------
  C     -0.088646   -0.236136    0.126578
  H     -0.866734   -1.016812    0.134184
  H      0.869085   -0.745186    0.325272
  C     -0.372991    0.756530    1.259058
  H      0.409074    1.533798    1.291686
  H     -1.327187    1.269933    1.070434
  N     -0.477557    0.122303    2.556587
  C     -0.042479    0.445263   -1.245194
  H     -0.996807    0.968707   -1.423991
  H      0.736970    1.226312   -1.240552
  C      0.224133   -0.536307   -2.389527
  H      0.253517   -0.020886   -3.359702
  H      1.186498   -1.052257   -2.255522
  H     -0.560203   -1.306112   -2.444040
  C      0.237374   -0.427923    3.361449
  O      0.815953   -0.981226    4.233279

 Total Charge           Charge          ....    0
 Multiplicity           Mult            ....    1
 Number of Electrons    NEL             ....   54
 Basis Dimension        Dim             ....  123

ORBITAL ENERGIES
----------------

  NO   OCC          E(Eh)            E(eV)
   0   2.0000     -19.535381      -531.5848
   1   2.0000     -14.663263      -399.0077
   2   2.0000     -10.586683      -288.0783
   3   2.0000     -10.502724      -285.7936
   4   2.0000     -10.452640      -284.4308
   5   2.0000     -10.450791      -284.3805
   6   2.0000     -10.437065      -284.0070
   7   2.0000      -1.201465       -32.6935
   8   2.0000      -1.050685       -28.5906
   9   2.0000      -0.902649       -24.5623
  10   2.0000      -0.834646       -22.7119
  11   2.0000      -0.744990       -20.2722
  12   2.0000      -0.668968       -18.2035
  13   2.0000      -0.597822       -16.2676
  14   2.0000      -0.562031       -15.2936
  15   2.0000      -0.557416       -15.1681
  16   2.0000      -0.527147       -14.3444
  17   2.0000      -0.519289       -14.1306
  18   2.0000      -0.492258       -13.3950
  19   2.0000      -0.482052       -13.1173
  20   2.0000      -0.453227       -12.3329
  21   2.0000      -0.428368       -11.6565
  22   2.0000      -0.418492       -11.3877
  23   2.0000      -0.399222       -10.8634
  24   2.0000      -0.388376       -10.5682
  25   2.0000      -0.340496        -9.2654
  26   2.0000      -0.325618        -8.8605
  27   0.0000       0.054830         1.4920
  28   0.0000       0.092945         2.5292
  29   0.0000       0.129602         3.5266
  30   0.0000       0.142704         3.8832
  31   0.0000       0.160911         4.3786

MULLIKEN ATOMIC CHARGES
-----------------------
   0 C :   -0.422388
   1 H :    0.226323
   2 H :    0.215827
   3 C :   -0.258874
   4 H :    0.224930
   5 H :    0.231632
   6 N :   -0.408099
   7 C :   -0.417205
   8 H :    0.209961
   9 H :    0.209022
  10 C :   -0.634783
  11 H :    0.223461
  12 H :    0.213196
  13 H :    0.213535
  14 C :    0.510905
  15 O :   -0.337442
Sum of atomic charges:   -0.0000000

LOEWDIN ATOMIC CHARGES
----------------------
   0 C :   -0.248239
   1 H :    0.131183
   2 H :    0.126083
   3 C :   -0.127509
   4 H :    0.126324
   5 H :    0.130612
   6 N :   -0.194160
   7 C :   -0.246165
   8 H :    0.122305
   9 H :    0.121646
  10 C :   -0.359494
  11 H :    0.129615
  12 H :    0.126065
  13 H :    0.126243
  14 C :    0.191667
  15 O :   -0.156176

  Mayer bond orders larger than 0.100000
B(  0-C ,  1-H ) :   0.9110 B(  0-C ,  2-H ) :   0.9135 B(  0-C ,  3-C ) :   0.9721
B(  0-C ,  7-C ) :   0.9738 B(  3-C ,  4-H ) :   0.9032 B(  3-C ,  5-H ) :   0.9047
B(  3-C ,  6-N ) :   0.9387 B(  6-N , 14-C ) :   2.0064 B(  6-N , 15-O ) :   0.2441
B(  7-C ,  8-H ) :   0.9175 B(  7-C ,  9-H ) :   0.9177 B(  7-C , 10-C ) :   0.9939
B( 10-C , 11-H ) :   0.9297 B( 10-C , 12-H ) :   0.9277 B( 10-C , 13-H ) :   0.9276
B( 14-C , 15-O ) :   2.0665

Dispersion correction           -0.006905801
FINAL SINGLE POINT ENERGY      -325.225042697168

DIPOLE MOMENT
-------------
                                X             Y             Z
Electronic contribution:      0.65261      -1.41618      15.44207
Nuclear contribution   :     -0.74237       1.90946     -16.63764
                        -----------------------------------------
Total Dipole Moment    :     -0.08977       0.49327      -1.19558
                        -----------------------------------------
Magnitude (a.u.)       :      1.29645
Magnitude (Debye)      :      3.29531

Rotational constants in cm-1:     0.285964     0.030962     0.028880
Rotational constants in MHz :  8572.990195   928.208685   865.787820

                             ****ORCA TERMINATED NORMALLY****
TOTAL RUN TIME: 0 days 0 hours 1 minutes 50 seconds 396 msec
