                         Program Version 5.0.3 -  RELEASE  -
|  1> ! PBEh-3c def2/J TightSCF DefGrid3
|  2>
|  3> %maxcore 60000
|  4>
|  5> %pal
|  6> nprocs 4
|  7> end
|  8>
|  9> *xyzfile 0 1 P25.xyz
| 10>
| 11>                          ****END OF INPUT****

CARTESIAN COORDINATES (ANGSTROEM)
---------------------------------
  C     -0.354685   -0.816651    0.000000
  C      0.809867   -1.534522    0.642789
  C      0.809867   -1.534522   -0.642789
  C     -0.465870    0.668431    0.000000
  C     -1.662442    1.253676    0.000000
  H     -1.322972   -1.314393    0.000000
  H      1.268726   -1.815462    1.573035
  H     -2.573373    0.668594    0.000000
  H      1.268726   -1.815462   -1.573035
  H     -1.770348    2.329846    0.000000
  C      0.809867    1.459468    0.000000
  H      1.420555    1.221432    0.874502
  H      1.420555    1.221432   -0.874502
  H      0.608503    2.528735    0.000000

 Total Charge           Charge          ....    0
 Multiplicity           Mult            ....    1
 Number of Electrons    NEL             ....   44
 Basis Dimension        Dim             ....  106

ORBITAL ENERGIES
----------------

  NO   OCC          E(Eh)            E(eV)
   0   2.0000     -10.464453      -284.7523
   1   2.0000     -10.462999      -284.7127
   2   2.0000     -10.462677      -284.7039
   3   2.0000     -10.445138      -284.2267
   4   2.0000     -10.426182      -283.7108
   5   2.0000     -10.417758      -283.4816
   6   2.0000      -0.981874       -26.7182
   7   2.0000      -0.875935       -23.8354
   8   2.0000      -0.765229       -20.8229
   9   2.0000      -0.693728       -18.8773
  10   2.0000      -0.640837       -17.4381
  11   2.0000      -0.596451       -16.2303
  12   2.0000      -0.563646       -15.3376
  13   2.0000      -0.519264       -14.1299
  14   2.0000      -0.481427       -13.1003
  15   2.0000      -0.467135       -12.7114
  16   2.0000      -0.426422       -11.6035
  17   2.0000      -0.406758       -11.0685
  18   2.0000      -0.394814       -10.7434
  19   2.0000      -0.370205       -10.0738
  20   2.0000      -0.305488        -8.3128
  21   2.0000      -0.271283        -7.3820
  22   0.0000       0.028230         0.7682
  23   0.0000       0.058534         1.5928
  24   0.0000       0.159811         4.3487
  25   0.0000       0.175841         4.7849
  26   0.0000       0.182916         4.9774

MULLIKEN ATOMIC CHARGES
-----------------------
   0 C :   -0.287429
   1 C :   -0.195768
   2 C :   -0.195768
   3 C :    0.210234
   4 C :   -0.557772
   5 H :    0.209339
   6 H :    0.216607
   7 H :    0.207372
   8 H :    0.216607
   9 H :    0.206862
  10 C :   -0.708738
  11 H :    0.224733
  12 H :    0.224733
  13 H :    0.228988
Sum of atomic charges:   -0.0000000

LOEWDIN ATOMIC CHARGES
----------------------
   0 C :   -0.130833
   1 C :   -0.116767
   2 C :   -0.116767
   3 C :   -0.059548
   4 C :   -0.295935
   5 H :    0.116712
   6 H :    0.145054
   7 H :    0.127555
   8 H :    0.145054
   9 H :    0.127419
  10 C :   -0.347604
  11 H :    0.135412
  12 H :    0.135412
  13 H :    0.134835

  Mayer bond orders larger than 0.100000
B(  0-C ,  1-C ) :   0.9335 B(  0-C ,  2-C ) :   0.9335 B(  0-C ,  3-C ) :   0.9920
B(  0-C ,  5-H ) :   0.9118 B(  1-C ,  2-C ) :   1.8399 B(  1-C ,  6-H ) :   0.9210
B(  2-C ,  8-H ) :   0.9210 B(  3-C ,  4-C ) :   1.8489 B(  3-C , 10-C ) :   0.9804
B(  4-C ,  7-H ) :   0.9309 B(  4-C ,  9-H ) :   0.9304 B( 10-C , 11-H ) :   0.9134
B( 10-C , 12-H ) :   0.9134 B( 10-C , 13-H ) :   0.9300

Dispersion correction           -0.006368489
FINAL SINGLE POINT ENERGY      -232.813285085190

DIPOLE MOMENT
-------------
                                X             Y             Z
Electronic contribution:      0.05549      -3.32075      -0.00000
Nuclear contribution   :      0.33039       3.11929       0.00000
                        -----------------------------------------
Total Dipole Moment    :      0.38588      -0.20146      -0.00000
                        -----------------------------------------
Magnitude (a.u.)       :      0.43530
Magnitude (Debye)      :      1.10645

Rotational constants in cm-1:     0.232952     0.094267     0.077228
Rotational constants in MHz :  6983.729181  2826.042449  2315.243158

                             ****ORCA TERMINATED NORMALLY****
TOTAL RUN TIME: 0 days 0 hours 0 minutes 58 seconds 422 msec
