                         Program Version 5.0.3 -  RELEASE  -
|  1> ! PBEh-3c def2/J TightSCF DefGrid3
|  2>
|  3> %maxcore 60000
|  4>
|  5> %pal
|  6> nprocs 4
|  7> end
|  8>
|  9> *xyzfile 0 1 B43.xyz
| 10>
| 11>                          ****END OF INPUT****

CARTESIAN COORDINATES (ANGSTROEM)
---------------------------------
  C      1.255201   -0.412467    0.227148
  H      0.765795   -1.262577   -0.235988
  O      2.614856   -0.460585   -0.204903
  C      0.579770    0.893498   -0.179859
  H      1.180947    1.720046    0.212584
  H      0.606236    0.979536   -1.268834
  C     -0.856815    1.063656    0.323789
  H     -1.175043    2.090470    0.129091
  H     -0.898417    0.918648    1.406163
  H      3.076116    0.266958    0.220989
  H      1.183981   -0.545110    1.311855
  C     -1.877718    0.140739   -0.320031
  H     -2.885907    0.477503   -0.061166
  H     -1.776480    0.179697   -1.410037
  O     -1.661937   -1.186370    0.161421
  H     -2.303212   -1.762087   -0.263084

 Total Charge           Charge          ....    0
 Multiplicity           Mult            ....    1
 Number of Electrons    NEL             ....   50
 Basis Dimension        Dim             ....  110

ORBITAL ENERGIES
----------------

  NO   OCC          E(Eh)            E(eV)
   0   2.0000     -19.488255      -530.3024
   1   2.0000     -19.472715      -529.8795
   2   2.0000     -10.484299      -285.2923
   3   2.0000     -10.464046      -284.7412
   4   2.0000     -10.436144      -283.9819
   5   2.0000     -10.429837      -283.8103
   6   2.0000      -1.124083       -30.5878
   7   2.0000      -1.108552       -30.1652
   8   2.0000      -0.880437       -23.9579
   9   2.0000      -0.791664       -21.5423
  10   2.0000      -0.706513       -19.2252
  11   2.0000      -0.647928       -17.6310
  12   2.0000      -0.585754       -15.9392
  13   2.0000      -0.557201       -15.1622
  14   2.0000      -0.532779       -14.4977
  15   2.0000      -0.494882       -13.4664
  16   2.0000      -0.468710       -12.7542
  17   2.0000      -0.464230       -12.6323
  18   2.0000      -0.432778       -11.7765
  19   2.0000      -0.423393       -11.5211
  20   2.0000      -0.394631       -10.7384
  21   2.0000      -0.374807       -10.1990
  22   2.0000      -0.359079        -9.7710
  23   2.0000      -0.328753        -8.9458
  24   2.0000      -0.311188        -8.4679
  25   0.0000       0.123119         3.3502
  26   0.0000       0.137279         3.7356
  27   0.0000       0.156505         4.2587
  28   0.0000       0.184751         5.0273
  29   0.0000       0.198770         5.4088

MULLIKEN ATOMIC CHARGES
-----------------------
   0 C :   -0.137518
   1 H :    0.231951
   2 O :   -0.627480
   3 C :   -0.459483
   4 H :    0.196661
   5 H :    0.218120
   6 C :   -0.451454
   7 H :    0.217709
   8 H :    0.225961
   9 H :    0.403711
  10 H :    0.174191
  11 C :   -0.150590
  12 H :    0.190015
  13 H :    0.179254
  14 O :   -0.629769
  15 H :    0.418721
Sum of atomic charges:   -0.0000000

LOEWDIN ATOMIC CHARGES
----------------------
   0 C :   -0.099925
   1 H :    0.129174
   2 O :   -0.415393
   3 C :   -0.263250
   4 H :    0.116595
   5 H :    0.126120
   6 C :   -0.253516
   7 H :    0.129600
   8 H :    0.131273
   9 H :    0.302116
  10 H :    0.096795
  11 C :   -0.091065
  12 H :    0.101284
  13 H :    0.097908
  14 O :   -0.417022
  15 H :    0.309307

  Mayer bond orders larger than 0.100000
B(  0-C ,  1-H ) :   0.9013 B(  0-C ,  2-O ) :   1.0029 B(  0-C ,  3-C ) :   0.9776
B(  0-C , 10-H ) :   0.9137 B(  2-O ,  9-H ) :   0.7983 B(  3-C ,  4-H ) :   0.9254
B(  3-C ,  5-H ) :   0.9143 B(  3-C ,  6-C ) :   0.9754 B(  6-C ,  7-H ) :   0.9198
B(  6-C ,  8-H ) :   0.9085 B(  6-C , 11-C ) :   0.9804 B( 11-C , 12-H ) :   0.9105
B( 11-C , 13-H ) :   0.9052 B( 11-C , 14-O ) :   1.0063 B( 14-O , 15-H ) :   0.7916

Dispersion correction           -0.006623490
FINAL SINGLE POINT ENERGY      -308.205350315761

DIPOLE MOMENT
-------------
                                X             Y             Z
Electronic contribution:      1.48624      -2.56697      -0.06285
Nuclear contribution   :     -2.30374       3.16456       0.04260
                        -----------------------------------------
Total Dipole Moment    :     -0.81750       0.59759      -0.02024
                        -----------------------------------------
Magnitude (a.u.)       :      1.01283
Magnitude (Debye)      :      2.57442

Rotational constants in cm-1:     0.216184     0.061912     0.051711
Rotational constants in MHz :  6481.024362  1856.070554  1550.243726

                             ****ORCA TERMINATED NORMALLY****
TOTAL RUN TIME: 0 days 0 hours 1 minutes 28 seconds 937 msec
