                         Program Version 5.0.3 -  RELEASE  -
|  1> ! PBEh-3c def2/J TightSCF DefGrid3
|  2>
|  3> %maxcore 60000
|  4>
|  5> %pal
|  6> nprocs 4
|  7> end
|  8>
|  9> *xyzfile 0 1 1.xyz
| 10>
| 11>                          ****END OF INPUT****

CARTESIAN COORDINATES (ANGSTROEM)
---------------------------------
  N     -0.291222    3.223123    0.340764
  C      0.923392    2.918877   -0.238779
  C      0.911986    1.616262   -0.691699
  C     -0.388468    1.096173   -0.379918
  C     -0.990706   -0.159860   -0.611237
  C     -2.293413   -0.348830   -0.175895
  C     -3.006755    0.689011    0.475601
  C     -2.434337    1.927452    0.698664
  C     -1.116153    2.123229    0.261658
  H     -0.551271    4.123167    0.700046
  H      1.704827    3.660067   -0.291786
  H     -0.435543   -0.941494   -1.107592
  H     -4.020525    0.483431    0.790323
  H     -2.994449    2.711737    1.191507
  O     -2.994633   -1.516434   -0.318375
  C     -2.344688   -2.548853   -1.047292
  H     -1.419106   -2.864045   -0.562049
  H     -2.120409   -2.227821   -2.066794
  H     -3.042913   -3.379973   -1.072825
  C      2.035453    0.846271   -1.314805
  C      2.974315    0.218426   -0.268502
  N      2.281961   -0.499817    0.789175
  C      1.672272   -1.697655    0.564747
  C      0.835421   -2.212599    1.717512
  H      2.634472    1.489111   -1.964167
  H      1.628280    0.049707   -1.937652
  H      3.564643    0.999617    0.210889
  H      3.656952   -0.475362   -0.757765
  H      1.982270    0.025786    1.591596
  O      1.786811   -2.307079   -0.492689
  H     -0.180229   -1.828334    1.611717
  H      1.226468   -1.895715    2.683272
  H      0.805295   -3.297571    1.672341

 Total Charge           Charge          ....    0
 Multiplicity           Mult            ....    1
 Number of Electrons    NEL             ....  124
 Basis Dimension        Dim             ....  287

ORBITAL ENERGIES
----------------

  NO   OCC          E(Eh)            E(eV)
   0   2.0000     -19.515223      -531.0362
   1   2.0000     -19.449533      -529.2487
   2   2.0000     -14.684452      -399.5843
   3   2.0000     -14.652882      -398.7252
   4   2.0000     -10.540767      -286.8289
   5   2.0000     -10.497562      -285.6532
   6   2.0000     -10.478242      -285.1275
   7   2.0000     -10.477718      -285.1132
   8   2.0000     -10.474619      -285.0289
   9   2.0000     -10.471595      -284.9466
  10   2.0000     -10.451476      -284.3991
  11   2.0000     -10.442566      -284.1567
  12   2.0000     -10.439690      -284.0784
  13   2.0000     -10.439060      -284.0613
  14   2.0000     -10.438734      -284.0524
  15   2.0000     -10.436109      -283.9810
  16   2.0000     -10.433113      -283.8994
  17   2.0000      -1.162831       -31.6422
  18   2.0000      -1.133398       -30.8413
  19   2.0000      -1.085527       -29.5387
  20   2.0000      -1.015372       -27.6297
  21   2.0000      -0.935069       -25.4445
  22   2.0000      -0.895488       -24.3675
  23   2.0000      -0.848508       -23.0891
  24   2.0000      -0.829198       -22.5636
  25   2.0000      -0.816295       -22.2125
  26   2.0000      -0.795348       -21.6425
  27   2.0000      -0.771582       -20.9958
  28   2.0000      -0.722507       -19.6604
  29   2.0000      -0.688842       -18.7443
  30   2.0000      -0.666185       -18.1278
  31   2.0000      -0.649799       -17.6819
  32   2.0000      -0.625589       -17.0231
  33   2.0000      -0.606296       -16.4981
  34   2.0000      -0.572576       -15.5806
  35   2.0000      -0.565931       -15.3998
  36   2.0000      -0.553827       -15.0704
  37   2.0000      -0.531858       -14.4726
  38   2.0000      -0.523726       -14.2513
  39   2.0000      -0.521424       -14.1887
  40   2.0000      -0.510015       -13.8782
  41   2.0000      -0.499156       -13.5827
  42   2.0000      -0.491368       -13.3708
  43   2.0000      -0.486726       -13.2445
  44   2.0000      -0.474876       -12.9220
  45   2.0000      -0.463199       -12.6043
  46   2.0000      -0.455126       -12.3846
  47   2.0000      -0.453851       -12.3499
  48   2.0000      -0.449104       -12.2207
  49   2.0000      -0.443464       -12.0673
  50   2.0000      -0.426749       -11.6124
  51   2.0000      -0.411079       -11.1860
  52   2.0000      -0.402102       -10.9417
  53   2.0000      -0.401210       -10.9175
  54   2.0000      -0.394629       -10.7384
  55   2.0000      -0.374182       -10.1820
  56   2.0000      -0.347165        -9.4468
  57   2.0000      -0.319053        -8.6819
  58   2.0000      -0.304806        -8.2942
  59   2.0000      -0.294475        -8.0131
  60   2.0000      -0.242209        -6.5908
  61   2.0000      -0.236489        -6.4352
  62   0.0000       0.007645         0.2080
  63   0.0000       0.056361         1.5337
  64   0.0000       0.070810         1.9268
  65   0.0000       0.089101         2.4246
  66   0.0000       0.121902         3.3171

MULLIKEN ATOMIC CHARGES
-----------------------
   0 N :   -0.699253
   1 C :   -0.062786
   2 C :    0.012845
   3 C :    0.067230
   4 C :   -0.500668
   5 C :    0.378640
   6 C :   -0.317248
   7 C :   -0.256728
   8 C :    0.345902
   9 H :    0.357055
  10 H :    0.235633
  11 H :    0.266775
  12 H :    0.233318
  13 H :    0.212174
  14 O :   -0.469444
  15 C :   -0.414784
  16 H :    0.219566
  17 H :    0.211146
  18 H :    0.236683
  19 C :   -0.545842
  20 C :   -0.269028
  21 N :   -0.611174
  22 C :    0.518984
  23 C :   -0.766482
  24 H :    0.228873
  25 H :    0.257139
  26 H :    0.214062
  27 H :    0.250931
  28 H :    0.361265
  29 O :   -0.441389
  30 H :    0.267554
  31 H :    0.222117
  32 H :    0.256935
Sum of atomic charges:   -0.0000000

LOEWDIN ATOMIC CHARGES
----------------------
   0 N :   -0.159311
   1 C :   -0.091391
   2 C :   -0.107687
   3 C :   -0.055261
   4 C :   -0.198295
   5 C :    0.053756
   6 C :   -0.158748
   7 C :   -0.149676
   8 C :   -0.000996
   9 H :    0.260566
  10 H :    0.133390
  11 H :    0.154094
  12 H :    0.145600
  13 H :    0.136545
  14 O :   -0.193885
  15 C :   -0.180956
  16 H :    0.118311
  17 H :    0.116542
  18 H :    0.128517
  19 C :   -0.238416
  20 C :   -0.141286
  21 N :   -0.238268
  22 C :    0.107659
  23 C :   -0.395757
  24 H :    0.135643
  25 H :    0.146678
  26 H :    0.121406
  27 H :    0.139418
  28 H :    0.256549
  29 O :   -0.290269
  30 H :    0.159384
  31 H :    0.133406
  32 H :    0.152738

  Mayer bond orders larger than 0.100000
B(  0-N ,  1-C ) :   1.1364 B(  0-N ,  8-C ) :   1.0059 B(  0-N ,  9-H ) :   0.8342
B(  1-C ,  2-C ) :   1.5463 B(  1-C , 10-H ) :   0.9133 B(  2-C ,  3-C ) :   1.2646
B(  2-C , 19-C ) :   0.9485 B(  3-C ,  4-C ) :   1.2610 B(  3-C ,  8-C ) :   1.2533
B(  4-C ,  5-C ) :   1.4154 B(  4-C , 11-H ) :   0.8802 B(  5-C ,  6-C ) :   1.3002
B(  5-C , 14-O ) :   1.0319 B(  6-C ,  7-C ) :   1.5292 B(  6-C , 12-H ) :   0.9090
B(  7-C ,  8-C ) :   1.2718 B(  7-C , 13-H ) :   0.9206 B( 14-O , 15-C ) :   0.9473
B( 15-C , 16-H ) :   0.8987 B( 15-C , 17-H ) :   0.9072 B( 15-C , 18-H ) :   0.9241
B( 19-C , 20-C ) :   0.9596 B( 19-C , 24-H ) :   0.9220 B( 19-C , 25-H ) :   0.9075
B( 20-C , 21-N ) :   0.9581 B( 20-C , 26-H ) :   0.9241 B( 20-C , 27-H ) :   0.9046
B( 21-N , 22-C ) :   1.1492 B( 21-N , 28-H ) :   0.8250 B( 22-C , 23-C ) :   0.9345
B( 22-C , 29-O ) :   1.9652 B( 23-C , 30-H ) :   0.8937 B( 23-C , 31-H ) :   0.9193
B( 23-C , 32-H ) :   0.9168

Dispersion correction           -0.023236607
FINAL SINGLE POINT ENERGY      -763.332748430601

DIPOLE MOMENT
-------------
                                X             Y             Z
Electronic contribution:     -3.75696       6.50773      -0.25296
Nuclear contribution   :      4.07450      -4.96628       1.19872
                        -----------------------------------------
Total Dipole Moment    :      0.31753       1.54145       0.94577
                        -----------------------------------------
Magnitude (a.u.)       :      1.83613
Magnitude (Debye)      :      4.66708

Rotational constants in cm-1:     0.018091     0.015983     0.009939
Rotational constants in MHz :   542.341445   479.169080   297.969236

                             ****ORCA TERMINATED NORMALLY****
TOTAL RUN TIME: 0 days 0 hours 4 minutes 49 seconds 806 msec
