                         Program Version 5.0.3 -  RELEASE  -
|  1> ! PBEh-3c def2/J TightSCF DefGrid3
|  2>
|  3> %maxcore 60000
|  4>
|  5> %pal
|  6> nprocs 4
|  7> end
|  8>
|  9> *xyzfile 0 2 P8.xyz
| 10>
| 11>                          ****END OF INPUT****

CARTESIAN COORDINATES (ANGSTROEM)
---------------------------------
  C     -0.735285    0.532186    0.000000
  C      0.270881   -0.515366    0.000000
  Cl     2.011859    0.253936    0.000000
  H     -1.045940    0.993159   -0.928366
  H     -1.045940    0.993159    0.928366
  H      0.272212   -1.128537   -0.896087
  H      0.272212   -1.128537    0.896087

 Total Charge           Charge          ....    0
 Multiplicity           Mult            ....    2
 Number of Electrons    NEL             ....   33
 Basis Dimension        Dim             ....   56

ORBITAL ENERGIES
----------------
                 SPIN UP ORBITALS
  NO   OCC          E(Eh)            E(eV)
   0   1.0000    -102.275234     -2783.0506
   1   1.0000     -10.507846      -285.9330
   2   1.0000     -10.474605      -285.0285
   3   1.0000      -9.741497      -265.0796
   4   1.0000      -7.431018      -202.2083
   5   1.0000      -7.420773      -201.9295
   6   1.0000      -7.420399      -201.9193
   7   1.0000      -0.933335       -25.3973
   8   1.0000      -0.834660       -22.7123
   9   1.0000      -0.694641       -18.9021
  10   1.0000      -0.557086       -15.1591
  11   1.0000      -0.501104       -13.6357
  12   1.0000      -0.463883       -12.6229
  13   1.0000      -0.451767       -12.2932
  14   1.0000      -0.345661        -9.4059
  15   1.0000      -0.338655        -9.2153
  16   1.0000      -0.285780        -7.7765
  17   0.0000       0.059690         1.6243
  18   0.0000       0.144641         3.9359
  19   0.0000       0.174293         4.7427
  20   0.0000       0.179222         4.8769
  21   0.0000       0.260409         7.0861

                 SPIN DOWN ORBITALS
  NO   OCC          E(Eh)            E(eV)
   0   1.0000    -102.273578     -2783.0055
   1   1.0000     -10.509572      -285.9800
   2   1.0000     -10.459453      -284.6162
   3   1.0000      -9.739822      -265.0340
   4   1.0000      -7.425908      -202.0692
   5   1.0000      -7.419386      -201.8917
   6   1.0000      -7.419324      -201.8901
   7   1.0000      -0.920957       -25.0605
   8   1.0000      -0.808110       -21.9898
   9   1.0000      -0.674119       -18.3437
  10   1.0000      -0.551050       -14.9948
  11   1.0000      -0.491369       -13.3708
  12   1.0000      -0.445893       -12.1334
  13   1.0000      -0.439972       -11.9723
  14   1.0000      -0.338997        -9.2246
  15   1.0000      -0.335452        -9.1281
  16   0.0000      -0.059352        -1.6151
  17   0.0000       0.081874         2.2279
  18   0.0000       0.152019         4.1366
  19   0.0000       0.176071         4.7911
  20   0.0000       0.193478         5.2648

MULLIKEN ATOMIC CHARGES AND SPIN POPULATIONS
--------------------------------------------
   0 C :   -0.380215    1.041220
   1 C :   -0.465544   -0.107701
   2 Cl:   -0.168996    0.161096
   3 H :    0.236795   -0.055963
   4 H :    0.236795   -0.055963
   5 H :    0.270582    0.008656
   6 H :    0.270582    0.008656
Sum of atomic charges         :   -0.0000000

LOEWDIN ATOMIC CHARGES AND SPIN POPULATIONS
-------------------------------------------
   0 C :   -0.233373    0.921790
   1 C :   -0.259842   -0.044266
   2 Cl:   -0.073775    0.161124
   3 H :    0.138455   -0.027168
   4 H :    0.138455   -0.027168
   5 H :    0.145039    0.007844
   6 H :    0.145039    0.007844

  Mayer bond orders larger than 0.100000
B(  0-C ,  1-C ) :   1.0583 B(  0-C ,  3-H ) :   0.9189 B(  0-C ,  4-H ) :   0.9189
B(  1-C ,  2-Cl) :   0.9349 B(  1-C ,  5-H ) :   0.8902 B(  1-C ,  6-H ) :   0.8902

Dispersion correction           -0.002236746
FINAL SINGLE POINT ENERGY      -538.079639778062

DIPOLE MOMENT
-------------
                                X             Y             Z
Electronic contribution:      5.73833       0.67630       0.00000
Nuclear contribution   :     -6.58849      -0.93387       0.00000
                        -----------------------------------------
Total Dipole Moment    :     -0.85016      -0.25758       0.00000
                        -----------------------------------------
Magnitude (a.u.)       :      0.88832
Magnitude (Debye)      :      2.25793

Rotational constants in cm-1:     1.085194     0.183820     0.167690
Rotational constants in MHz : 32533.290762  5510.789453  5027.206757

                             ****ORCA TERMINATED NORMALLY****
TOTAL RUN TIME: 0 days 0 hours 2 minutes 17 seconds 15 msec
