                         Program Version 5.0.3 -  RELEASE  -
|  1> ! PBEh-3c def2/J TightSCF DefGrid3
|  2>
|  3> %maxcore 60000
|  4>
|  5> %pal
|  6> nprocs 4
|  7> end
|  8>
|  9> *xyzfile 0 1 h2o_2_ts.xyz
| 10>
| 11>                          ****END OF INPUT****

CARTESIAN COORDINATES (ANGSTROEM)
---------------------------------
  O      0.000000    1.098108    0.000000
  H      0.000000    0.000000    0.596495
  H      0.000000    0.000000   -0.596495
  O      0.000000   -1.098108    0.000000
  H      0.867311    1.517487    0.000000
  H     -0.867311   -1.517487    0.000000

 Total Charge           Charge          ....    0
 Multiplicity           Mult            ....    1
 Number of Electrons    NEL             ....   20
 Basis Dimension        Dim             ....   38

ORBITAL ENERGIES
----------------

  NO   OCC          E(Eh)            E(eV)
   0   2.0000     -19.485195      -530.2191
   1   2.0000     -19.485139      -530.2176
   2   2.0000      -1.137607       -30.9558
   3   2.0000      -1.056012       -28.7355
   4   2.0000      -0.655067       -17.8253
   5   2.0000      -0.514748       -14.0070
   6   2.0000      -0.473705       -12.8902
   7   2.0000      -0.426024       -11.5927
   8   2.0000      -0.357914        -9.7393
   9   2.0000      -0.343847        -9.3566
  10   0.0000       0.120427         3.2770
  11   0.0000       0.170168         4.6305
  12   0.0000       0.191342         5.2067
  13   0.0000       0.261947         7.1279
  14   0.0000       0.712898        19.3989

MULLIKEN ATOMIC CHARGES
-----------------------
   0 O :   -0.887840
   1 H :    0.465766
   2 H :    0.465766
   3 O :   -0.887840
   4 H :    0.422074
   5 H :    0.422074
Sum of atomic charges:   -0.0000000

LOEWDIN ATOMIC CHARGES
----------------------
   0 O :   -0.680090
   1 H :    0.377119
   2 H :    0.377119
   3 O :   -0.680090
   4 H :    0.302971
   5 H :    0.302971

  Mayer bond orders larger than 0.100000
B(  0-O ,  1-H ) :   0.3911 B(  0-O ,  2-H ) :   0.3911 B(  0-O ,  4-H ) :   0.7953
B(  1-H ,  3-O ) :   0.3911 B(  2-H ,  3-O ) :   0.3911 B(  3-O ,  5-H ) :   0.7953

Dispersion correction           -0.000981411
FINAL SINGLE POINT ENERGY      -152.451928049782

DIPOLE MOMENT
-------------
                                X             Y             Z
Electronic contribution:      0.00000       0.00000       0.00000
Nuclear contribution   :      0.00000       0.00000       0.00000
                        -----------------------------------------
Total Dipole Moment    :      0.00000       0.00000       0.00000
                        -----------------------------------------
Magnitude (a.u.)       :      0.00000
Magnitude (Debye)      :      0.00000

Rotational constants in cm-1:     8.160785     0.382153     0.376763
Rotational constants in MHz : 244654.186363 11456.659298 11295.070052

                             ****ORCA TERMINATED NORMALLY****
TOTAL RUN TIME: 0 days 0 hours 0 minutes 49 seconds 190 msec
