                         Program Version 5.0.3 -  RELEASE  -
|  1> ! PBEh-3c def2/J TightSCF DefGrid3
|  2>
|  3> %maxcore 60000
|  4>
|  5> %pal
|  6> nprocs 4
|  7> end
|  8>
|  9> *xyzfile 0 1 38.xyz
| 10>
| 11>                          ****END OF INPUT****

CARTESIAN COORDINATES (ANGSTROEM)
---------------------------------
  C     -0.435239   -1.931380    1.237825
  H     -0.569636   -2.787885    1.897190
  H     -0.628425   -1.040114    1.832311
  C      0.994919   -1.935903    0.638328
  H      1.535135   -2.823346    0.966621
  H      1.579316   -1.072972    0.953149
  C      0.802053   -1.979839   -0.885369
  H      1.623387   -2.475158   -1.400841
  H      0.725342   -0.966114   -1.283916
  C     -0.542364   -2.684345   -1.055915
  H     -0.428856   -3.751616   -0.851157
  H     -0.965029   -2.576519   -2.053835
  C     -1.390718   -2.032024    0.034927
  H     -2.300725   -2.583530    0.265266
  H     -1.685258   -1.033867   -0.293887
  C     -0.802053    1.979839   -0.885369
  H     -0.725342    0.966114   -1.283916
  H     -1.623387    2.475158   -1.400841
  C     -0.994919    1.935903    0.638328
  H     -1.579316    1.072972    0.953149
  H     -1.535135    2.823346    0.966621
  C      0.435239    1.931380    1.237825
  H      0.628425    1.040114    1.832311
  H      0.569636    2.787885    1.897190
  C      1.390718    2.032024    0.034927
  H      1.685258    1.033867   -0.293887
  H      2.300725    2.583530    0.265266
  C      0.542364    2.684345   -1.055915
  H      0.965029    2.576519   -2.053835
  H      0.428856    3.751616   -0.851157

 Total Charge           Charge          ....    0
 Multiplicity           Mult            ....    1
 Number of Electrons    NEL             ....   80
 Basis Dimension        Dim             ....  190

ORBITAL ENERGIES
----------------

  NO   OCC          E(Eh)            E(eV)
   0   2.0000     -10.425619      -283.6955
   1   2.0000     -10.425608      -283.6952
   2   2.0000     -10.425414      -283.6899
   3   2.0000     -10.425402      -283.6896
   4   2.0000     -10.425315      -283.6872
   5   2.0000     -10.425309      -283.6871
   6   2.0000     -10.425183      -283.6836
   7   2.0000     -10.425177      -283.6835
   8   2.0000     -10.424988      -283.6784
   9   2.0000     -10.424983      -283.6782
  10   2.0000      -0.926858       -25.2211
  11   2.0000      -0.924512       -25.1572
  12   2.0000      -0.788903       -21.4671
  13   2.0000      -0.788241       -21.4491
  14   2.0000      -0.785763       -21.3817
  15   2.0000      -0.785161       -21.3653
  16   2.0000      -0.640292       -17.4232
  17   2.0000      -0.635446       -17.2914
  18   2.0000      -0.628108       -17.0917
  19   2.0000      -0.627967       -17.0878
  20   2.0000      -0.548302       -14.9200
  21   2.0000      -0.537601       -14.6289
  22   2.0000      -0.536974       -14.6118
  23   2.0000      -0.530465       -14.4347
  24   2.0000      -0.474843       -12.9211
  25   2.0000      -0.473643       -12.8885
  26   2.0000      -0.462045       -12.5729
  27   2.0000      -0.458761       -12.4835
  28   2.0000      -0.386788       -10.5250
  29   2.0000      -0.386610       -10.5202
  30   2.0000      -0.385248       -10.4831
  31   2.0000      -0.382733       -10.4147
  32   2.0000      -0.380712       -10.3597
  33   2.0000      -0.380523       -10.3546
  34   2.0000      -0.377394       -10.2694
  35   2.0000      -0.375917       -10.2292
  36   2.0000      -0.374912       -10.2019
  37   2.0000      -0.363161        -9.8821
  38   2.0000      -0.359704        -9.7880
  39   2.0000      -0.358374        -9.7518
  40   0.0000       0.089599         2.4381
  41   0.0000       0.131346         3.5741
  42   0.0000       0.143758         3.9119
  43   0.0000       0.150129         4.0852
  44   0.0000       0.152032         4.1370

MULLIKEN ATOMIC CHARGES
-----------------------
   0 C :   -0.438526
   1 H :    0.219589
   2 H :    0.221674
   3 C :   -0.440443
   4 H :    0.219037
   5 H :    0.222866
   6 C :   -0.439750
   7 H :    0.221988
   8 H :    0.214339
   9 C :   -0.428115
  10 H :    0.207600
  11 H :    0.220712
  12 C :   -0.440625
  13 H :    0.221929
  14 H :    0.217725
  15 C :   -0.439750
  16 H :    0.214339
  17 H :    0.221988
  18 C :   -0.440443
  19 H :    0.222866
  20 H :    0.219037
  21 C :   -0.438526
  22 H :    0.221674
  23 H :    0.219589
  24 C :   -0.440625
  25 H :    0.217725
  26 H :    0.221929
  27 C :   -0.428115
  28 H :    0.220712
  29 H :    0.207600
Sum of atomic charges:   -0.0000000

LOEWDIN ATOMIC CHARGES
----------------------
   0 C :   -0.246195
   1 H :    0.124001
   2 H :    0.122723
   3 C :   -0.246195
   4 H :    0.123750
   5 H :    0.123112
   6 C :   -0.244464
   7 H :    0.124096
   8 H :    0.117846
   9 C :   -0.243203
  10 H :    0.120362
  11 H :    0.123836
  12 C :   -0.244527
  13 H :    0.124021
  14 H :    0.120838
  15 C :   -0.244464
  16 H :    0.117846
  17 H :    0.124096
  18 C :   -0.246195
  19 H :    0.123112
  20 H :    0.123750
  21 C :   -0.246195
  22 H :    0.122723
  23 H :    0.124001
  24 C :   -0.244527
  25 H :    0.120838
  26 H :    0.124021
  27 C :   -0.243203
  28 H :    0.123836
  29 H :    0.120362

  Mayer bond orders larger than 0.100000
B(  0-C ,  1-H ) :   0.9302 B(  0-C ,  2-H ) :   0.9251 B(  0-C ,  3-C ) :   0.9611
B(  0-C , 12-C ) :   0.9744 B(  3-C ,  4-H ) :   0.9290 B(  3-C ,  5-H ) :   0.9251
B(  3-C ,  6-C ) :   0.9776 B(  6-C ,  7-H ) :   0.9297 B(  6-C ,  8-H ) :   0.9114
B(  6-C ,  9-C ) :   0.9789 B(  9-C , 10-H ) :   0.9214 B(  9-C , 11-H ) :   0.9294
B(  9-C , 12-C ) :   0.9798 B( 12-C , 13-H ) :   0.9303 B( 12-C , 14-H ) :   0.9139
B( 15-C , 16-H ) :   0.9114 B( 15-C , 17-H ) :   0.9297 B( 15-C , 18-C ) :   0.9776
B( 15-C , 27-C ) :   0.9789 B( 18-C , 19-H ) :   0.9251 B( 18-C , 20-H ) :   0.9290
B( 18-C , 21-C ) :   0.9611 B( 21-C , 22-H ) :   0.9251 B( 21-C , 23-H ) :   0.9302
B( 21-C , 24-C ) :   0.9744 B( 24-C , 25-H ) :   0.9139 B( 24-C , 26-H ) :   0.9303
B( 24-C , 27-C ) :   0.9798 B( 27-C , 28-H ) :   0.9294 B( 27-C , 29-H ) :   0.9214

Dispersion correction           -0.016652657
FINAL SINGLE POINT ENERGY      -392.256164084483

DIPOLE MOMENT
-------------
                                X             Y             Z
Electronic contribution:      0.00000       0.00000      -0.15006
Nuclear contribution   :     -0.00000      -0.00000       0.14670
                        -----------------------------------------
Total Dipole Moment    :      0.00000       0.00000      -0.00336
                        -----------------------------------------
Magnitude (a.u.)       :      0.00336
Magnitude (Debye)      :      0.00854

Rotational constants in cm-1:     0.065546     0.021465     0.021407
Rotational constants in MHz :  1965.018982   643.498797   641.767192

                             ****ORCA TERMINATED NORMALLY****
TOTAL RUN TIME: 0 days 0 hours 2 minutes 4 seconds 631 msec
