                         Program Version 5.0.3 -  RELEASE  -
|  1> ! PBEh-3c def2/J TightSCF DefGrid3
|  2>
|  3> %maxcore 60000
|  4>
|  5> %pal
|  6> nprocs 4
|  7> end
|  8>
|  9> *xyzfile 0 1 HIS_xav.xyz
| 10>
| 11>                          ****END OF INPUT****

CARTESIAN COORDINATES (ANGSTROEM)
---------------------------------
  N      1.554443   -0.983855   -0.835718
  H      1.564956   -1.612355   -1.622221
  C      0.322004   -0.247119   -0.586043
  H     -0.171429   -0.137619   -1.554410
  C     -0.640224   -0.980752    0.364972
  C      0.624970    1.175339   -0.098835
  H     -0.526705   -2.050092    0.183296
  H     -0.335252   -0.786486    1.392449
  C     -2.071820   -0.645642    0.140890
  O     -0.133841    1.782460    0.654667
  N     -2.605341    0.593904    0.374693
  C     -3.135128   -1.402454   -0.314995
  H     -2.034160    1.375539    0.674165
  C     -3.925574    0.543887    0.059035
  N     -4.286522   -0.659787   -0.362657
  H     -3.122280   -2.442928   -0.594569
  H     -4.575053    1.397215    0.150698
  C      2.412002   -1.259401    0.202451
  C      3.485704   -2.275688   -0.097332
  O      2.308648   -0.698302    1.282441
  H      3.197311   -3.225715    0.350107
  H      4.410983   -1.954334    0.371076
  H      3.644088   -2.423037   -1.163000
  N      1.729386    1.738964   -0.624280
  C      2.176700    3.038832   -0.167429
  H      2.375640    1.124071   -1.087586
  H      2.611620    2.981408    0.830022
  H      2.915010    3.424417   -0.863887
  H      1.326764    3.713157   -0.132568

 Total Charge           Charge          ....    0
 Multiplicity           Mult            ....    1
 Number of Electrons    NEL             ....  112
 Basis Dimension        Dim             ....  253

ORBITAL ENERGIES
----------------

  NO   OCC          E(Eh)            E(eV)
   0   2.0000     -19.481439      -530.1169
   1   2.0000     -19.475071      -529.9436
   2   2.0000     -14.689197      -399.7134
   3   2.0000     -14.670813      -399.2131
   4   2.0000     -14.668061      -399.1382
   5   2.0000     -14.598887      -397.2559
   6   2.0000     -10.572045      -287.6800
   7   2.0000     -10.561314      -287.3880
   8   2.0000     -10.509479      -285.9775
   9   2.0000     -10.476343      -285.0758
  10   2.0000     -10.472872      -284.9813
  11   2.0000     -10.462532      -284.7000
  12   2.0000     -10.460849      -284.6542
  13   2.0000     -10.453184      -284.4456
  14   2.0000     -10.435063      -283.9525
  15   2.0000      -1.170343       -31.8467
  16   2.0000      -1.156262       -31.4635
  17   2.0000      -1.101769       -29.9806
  18   2.0000      -1.053816       -28.6758
  19   2.0000      -1.028821       -27.9956
  20   2.0000      -0.947205       -25.7748
  21   2.0000      -0.896205       -24.3870
  22   2.0000      -0.850172       -23.1344
  23   2.0000      -0.819858       -22.3095
  24   2.0000      -0.789264       -21.4770
  25   2.0000      -0.735076       -20.0024
  26   2.0000      -0.685536       -18.6544
  27   2.0000      -0.673834       -18.3360
  28   2.0000      -0.654295       -17.8043
  29   2.0000      -0.644031       -17.5250
  30   2.0000      -0.613808       -16.7026
  31   2.0000      -0.591729       -16.1018
  32   2.0000      -0.586325       -15.9547
  33   2.0000      -0.553201       -15.0534
  34   2.0000      -0.535269       -14.5654
  35   2.0000      -0.528918       -14.3926
  36   2.0000      -0.518928       -14.1208
  37   2.0000      -0.502348       -13.6696
  38   2.0000      -0.489674       -13.3247
  39   2.0000      -0.486510       -13.2386
  40   2.0000      -0.482244       -13.1225
  41   2.0000      -0.479304       -13.0425
  42   2.0000      -0.463892       -12.6232
  43   2.0000      -0.458243       -12.4694
  44   2.0000      -0.448938       -12.2162
  45   2.0000      -0.446217       -12.1422
  46   2.0000      -0.433994       -11.8096
  47   2.0000      -0.423582       -11.5263
  48   2.0000      -0.418356       -11.3840
  49   2.0000      -0.347841        -9.4652
  50   2.0000      -0.333513        -9.0753
  51   2.0000      -0.323377        -8.7995
  52   2.0000      -0.315729        -8.5914
  53   2.0000      -0.307211        -8.3596
  54   2.0000      -0.303254        -8.2520
  55   2.0000      -0.245199        -6.6722
  56   0.0000       0.031909         0.8683
  57   0.0000       0.043322         1.1789
  58   0.0000       0.073683         2.0050
  59   0.0000       0.099540         2.7086
  60   0.0000       0.114548         3.1170

MULLIKEN ATOMIC CHARGES
-----------------------
   0 N :   -0.663688
   1 H :    0.361215
   2 C :   -0.191214
   3 H :    0.283081
   4 C :   -0.527566
   5 C :    0.601220
   6 H :    0.234067
   7 H :    0.287652
   8 C :    0.293972
   9 O :   -0.468996
  10 N :   -0.623227
  11 C :   -0.218648
  12 H :    0.408336
  13 C :    0.101739
  14 N :   -0.381514
  15 H :    0.205118
  16 H :    0.226821
  17 C :    0.510289
  18 C :   -0.757681
  19 O :   -0.401940
  20 H :    0.263304
  21 H :    0.270591
  22 H :    0.219702
  23 N :   -0.618341
  24 C :   -0.493426
  25 H :    0.369966
  26 H :    0.240438
  27 H :    0.217648
  28 H :    0.251082
Sum of atomic charges:   -0.0000000

LOEWDIN ATOMIC CHARGES
----------------------
   0 N :   -0.252087
   1 H :    0.257553
   2 C :   -0.090727
   3 H :    0.155175
   4 C :   -0.231183
   5 C :    0.125894
   6 H :    0.141412
   7 H :    0.162078
   8 C :   -0.057022
   9 O :   -0.288345
  10 N :   -0.138827
  11 C :   -0.152600
  12 H :    0.275804
  13 C :   -0.057524
  14 N :   -0.193177
  15 H :    0.122900
  16 H :    0.127001
  17 C :    0.104331
  18 C :   -0.390345
  19 O :   -0.250977
  20 H :    0.161280
  21 H :    0.161420
  22 H :    0.132065
  23 N :   -0.230665
  24 C :   -0.251962
  25 H :    0.258470
  26 H :    0.130935
  27 H :    0.125758
  28 H :    0.143365

  Mayer bond orders larger than 0.100000
B(  0-N ,  1-H ) :   0.8257 B(  0-N ,  2-C ) :   0.9312 B(  0-N , 17-C ) :   1.0930
B(  2-C ,  3-H ) :   0.8864 B(  2-C ,  4-C ) :   0.9413 B(  2-C ,  5-C ) :   0.9101
B(  4-C ,  6-H ) :   0.9234 B(  4-C ,  7-H ) :   0.8862 B(  4-C ,  8-C ) :   0.9487
B(  5-C ,  9-O ) :   1.8680 B(  5-C , 23-N ) :   1.1737 B(  8-C , 10-N ) :   1.1348
B(  8-C , 11-C ) :   1.5235 B( 10-N , 12-H ) :   0.7355 B( 10-N , 13-C ) :   1.2104
B( 11-C , 14-N ) :   1.3789 B( 11-C , 15-H ) :   0.9330 B( 13-C , 14-N ) :   1.6052
B( 13-C , 16-H ) :   0.9147 B( 17-C , 18-C ) :   0.9290 B( 17-C , 19-O ) :   2.0074
B( 18-C , 20-H ) :   0.9033 B( 18-C , 21-H ) :   0.9087 B( 18-C , 22-H ) :   0.9198
B( 23-N , 24-C ) :   0.9523 B( 23-N , 25-H ) :   0.8069 B( 24-C , 26-H ) :   0.9110
B( 24-C , 27-H ) :   0.9265 B( 24-C , 28-H ) :   0.9105

Dispersion correction           -0.018245458
FINAL SINGLE POINT ENERGY      -719.329838482400

DIPOLE MOMENT
-------------
                                X             Y             Z
Electronic contribution:     -8.78333       0.47984       1.52923
Nuclear contribution   :     11.43652      -0.66663      -2.95943
                        -----------------------------------------
Total Dipole Moment    :      2.65319      -0.18679      -1.43020
                        -----------------------------------------
Magnitude (a.u.)       :      3.01989
Magnitude (Debye)      :      7.67596

Rotational constants in cm-1:     0.032120     0.012693     0.009870
Rotational constants in MHz :   962.922010   380.522474   295.907366

                             ****ORCA TERMINATED NORMALLY****
TOTAL RUN TIME: 0 days 0 hours 4 minutes 31 seconds 530 msec
