                         Program Version 5.0.3 -  RELEASE  -
|  1> ! PBEh-3c def2/J TightSCF DefGrid3
|  2>
|  3> %maxcore 60000
|  4>
|  5> %pal
|  6> nprocs 4
|  7> end
|  8>
|  9> *xyzfile 0 1 P30.xyz
| 10>
| 11>                          ****END OF INPUT****

CARTESIAN COORDINATES (ANGSTROEM)
---------------------------------
  O      0.112061    0.000478    2.438848
  C      0.678721   -0.001303    1.362865
  N      0.073257   -0.003193    0.144299
  C     -1.375922   -0.000302    0.041107
  C      0.838025    0.000727   -1.086955
  H      1.780346   -0.002279    1.276787
  H     -1.791458   -0.017893    1.045909
  H     -1.723633   -0.878771   -0.511055
  H     -1.724207    0.897602   -0.478929
  H      1.903712   -0.002383   -0.856631
  H      0.612721   -0.883587   -1.691688
  H      0.616378    0.890903   -1.684556

 Total Charge           Charge          ....    0
 Multiplicity           Mult            ....    1
 Number of Electrons    NEL             ....   40
 Basis Dimension        Dim             ....   89

ORBITAL ENERGIES
----------------

  NO   OCC          E(Eh)            E(eV)
   0   2.0000     -19.457310      -529.4603
   1   2.0000     -14.674968      -399.3262
   2   2.0000     -10.539492      -286.7942
   3   2.0000     -10.484011      -285.2844
   4   2.0000     -10.469570      -284.8915
   5   2.0000      -1.140609       -31.0375
   6   2.0000      -1.041684       -28.3457
   7   2.0000      -0.819989       -22.3130
   8   2.0000      -0.786515       -21.4022
   9   2.0000      -0.642251       -17.4765
  10   2.0000      -0.583270       -15.8716
  11   2.0000      -0.543934       -14.8012
  12   2.0000      -0.531283       -14.4570
  13   2.0000      -0.471123       -12.8199
  14   2.0000      -0.468001       -12.7350
  15   2.0000      -0.463621       -12.6158
  16   2.0000      -0.443741       -12.0748
  17   2.0000      -0.432043       -11.7565
  18   2.0000      -0.310894        -8.4598
  19   2.0000      -0.291096        -7.9211
  20   0.0000       0.065137         1.7725
  21   0.0000       0.131096         3.5673
  22   0.0000       0.160771         4.3748
  23   0.0000       0.181439         4.9372
  24   0.0000       0.188610         5.1323

MULLIKEN ATOMIC CHARGES
-----------------------
   0 O :   -0.412333
   1 C :    0.277717
   2 N :   -0.420033
   3 C :   -0.497101
   4 C :   -0.477466
   5 H :    0.147692
   6 H :    0.273044
   7 H :    0.217643
   8 H :    0.218008
   9 H :    0.226935
  10 H :    0.222998
  11 H :    0.222896
Sum of atomic charges:   -0.0000000

LOEWDIN ATOMIC CHARGES
----------------------
   0 O :   -0.270346
   1 C :    0.060400
   2 N :   -0.154225
   3 C :   -0.251170
   4 C :   -0.244430
   5 H :    0.082030
   6 H :    0.155485
   7 H :    0.122525
   8 H :    0.122476
   9 H :    0.132517
  10 H :    0.122427
  11 H :    0.122311

  Mayer bond orders larger than 0.100000
B(  0-O ,  1-C ) :   1.9901 B(  0-O ,  2-N ) :   0.1080 B(  1-C ,  2-N ) :   1.1567
B(  1-C ,  5-H ) :   0.8768 B(  2-N ,  3-C ) :   0.9423 B(  2-N ,  4-C ) :   0.9675
B(  3-C ,  6-H ) :   0.8975 B(  3-C ,  7-H ) :   0.9173 B(  3-C ,  8-H ) :   0.9170
B(  4-C ,  9-H ) :   0.9208 B(  4-C , 10-H ) :   0.9095 B(  4-C , 11-H ) :   0.9093

Dispersion correction           -0.004640606
FINAL SINGLE POINT ENERGY      -247.972590035892

DIPOLE MOMENT
-------------
                                X             Y             Z
Electronic contribution:      0.87700      -0.00731       4.90146
Nuclear contribution   :     -0.68078       0.00733      -6.46237
                        -----------------------------------------
Total Dipole Moment    :      0.19621       0.00002      -1.56091
                        -----------------------------------------
Magnitude (a.u.)       :      1.57320
Magnitude (Debye)      :      3.99875

Rotational constants in cm-1:     0.297011     0.139515     0.098449
Rotational constants in MHz :  8904.156331  4182.553844  2951.432310

                             ****ORCA TERMINATED NORMALLY****
TOTAL RUN TIME: 0 days 0 hours 1 minutes 12 seconds 344 msec
