                         Program Version 5.0.3 -  RELEASE  -
|  1> ! PBEh-3c def2/J TightSCF DefGrid3
|  2>
|  3> %maxcore 60000
|  4>
|  5> %pal
|  6> nprocs 4
|  7> end
|  8>
|  9> *xyzfile 0 1 H_ttt.xyz
| 10>
| 11>                          ****END OF INPUT****

CARTESIAN COORDINATES (ANGSTROEM)
---------------------------------
  C      1.415180    2.869287    0.000000
  C      1.415180    1.346168    0.000000
  C      0.008931    0.761264    0.000000
  C     -0.008931   -0.761264    0.000000
  C     -1.415180   -1.346168    0.000000
  C     -1.415180   -2.869287    0.000000
  H      0.900916    3.255866    0.879663
  H      0.900916    3.255866   -0.879663
  H      2.426624    3.272493    0.000000
  H      1.955908    0.977316    0.874466
  H      1.955908    0.977316   -0.874466
  H     -0.534197    1.129236   -0.875273
  H     -0.534197    1.129236    0.875273
  H      0.534197   -1.129236    0.875273
  H      0.534197   -1.129236   -0.875273
  H     -1.955908   -0.977316   -0.874466
  H     -1.955908   -0.977316    0.874466
  H     -2.426624   -3.272493    0.000000
  H     -0.900916   -3.255866    0.879663
  H     -0.900916   -3.255866   -0.879663

 Total Charge           Charge          ....    0
 Multiplicity           Mult            ....    1
 Number of Electrons    NEL             ....   50
 Basis Dimension        Dim             ....  118

ORBITAL ENERGIES
----------------

  NO   OCC          E(Eh)            E(eV)
   0   2.0000     -10.426654      -283.7237
   1   2.0000     -10.426628      -283.7230
   2   2.0000     -10.424804      -283.6733
   3   2.0000     -10.424572      -283.6670
   4   2.0000     -10.418665      -283.5063
   5   2.0000     -10.418657      -283.5061
   6   2.0000      -0.898088       -24.4382
   7   2.0000      -0.856016       -23.2934
   8   2.0000      -0.791003       -21.5243
   9   2.0000      -0.714133       -19.4325
  10   2.0000      -0.652021       -17.7424
  11   2.0000      -0.644437       -17.5360
  12   2.0000      -0.540579       -14.7099
  13   2.0000      -0.503794       -13.7089
  14   2.0000      -0.492957       -13.4140
  15   2.0000      -0.476569       -12.9681
  16   2.0000      -0.452696       -12.3185
  17   2.0000      -0.433430       -11.7942
  18   2.0000      -0.429428       -11.6853
  19   2.0000      -0.403861       -10.9896
  20   2.0000      -0.389165       -10.5897
  21   2.0000      -0.373607       -10.1664
  22   2.0000      -0.371347       -10.1049
  23   2.0000      -0.365387        -9.9427
  24   2.0000      -0.354626        -9.6499
  25   0.0000       0.135076         3.6756
  26   0.0000       0.149322         4.0633
  27   0.0000       0.177527         4.8307
  28   0.0000       0.180071         4.9000
  29   0.0000       0.187446         5.1007

MULLIKEN ATOMIC CHARGES
-----------------------
   0 C :   -0.639148
   1 C :   -0.409987
   2 C :   -0.395642
   3 C :   -0.395642
   4 C :   -0.409987
   5 C :   -0.639148
   6 H :    0.208765
   7 H :    0.208765
   8 H :    0.218445
   9 H :    0.204645
  10 H :    0.204645
  11 H :    0.199756
  12 H :    0.199756
  13 H :    0.199756
  14 H :    0.199756
  15 H :    0.204645
  16 H :    0.204645
  17 H :    0.218445
  18 H :    0.208765
  19 H :    0.208765
Sum of atomic charges:   -0.0000000

LOEWDIN ATOMIC CHARGES
----------------------
   0 C :   -0.362074
   1 C :   -0.245694
   2 C :   -0.240098
   3 C :   -0.240098
   4 C :   -0.245694
   5 C :   -0.362074
   6 H :    0.123285
   7 H :    0.123285
   8 H :    0.125777
   9 H :    0.119286
  10 H :    0.119286
  11 H :    0.118474
  12 H :    0.118474
  13 H :    0.118474
  14 H :    0.118474
  15 H :    0.119286
  16 H :    0.119286
  17 H :    0.125777
  18 H :    0.123285
  19 H :    0.123285

  Mayer bond orders larger than 0.100000
B(  0-C ,  1-C ) :   0.9989 B(  0-C ,  6-H ) :   0.9297 B(  0-C ,  7-H ) :   0.9297
B(  0-C ,  8-H ) :   0.9324 B(  1-C ,  2-C ) :   0.9914 B(  1-C ,  9-H ) :   0.9206
B(  1-C , 10-H ) :   0.9206 B(  2-C ,  3-C ) :   0.9974 B(  2-C , 11-H ) :   0.9183
B(  2-C , 12-H ) :   0.9183 B(  3-C ,  4-C ) :   0.9914 B(  3-C , 13-H ) :   0.9183
B(  3-C , 14-H ) :   0.9183 B(  4-C ,  5-C ) :   0.9989 B(  4-C , 15-H ) :   0.9206
B(  4-C , 16-H ) :   0.9206 B(  5-C , 17-H ) :   0.9324 B(  5-C , 18-H ) :   0.9297
B(  5-C , 19-H ) :   0.9297

Dispersion correction           -0.008527502
FINAL SINGLE POINT ENERGY      -236.561558821681

DIPOLE MOMENT
-------------
                                X             Y             Z
Electronic contribution:     -0.00000       0.00000       0.00000
Nuclear contribution   :     -0.00000       0.00000       0.00000
                        -----------------------------------------
Total Dipole Moment    :     -0.00000       0.00000       0.00000
                        -----------------------------------------
Magnitude (a.u.)       :      0.00000
Magnitude (Debye)      :      0.00000

Rotational constants in cm-1:     0.489260     0.038259     0.036929
Rotational constants in MHz : 14667.643880  1146.985901  1107.107536

                             ****ORCA TERMINATED NORMALLY****
TOTAL RUN TIME: 0 days 0 hours 1 minutes 33 seconds 590 msec
