                         Program Version 5.0.3 -  RELEASE  -
|  1> ! PBEh-3c def2/J TightSCF DefGrid3
|  2>
|  3> %maxcore 60000
|  4>
|  5> %pal
|  6> nprocs 4
|  7> end
|  8>
|  9> *xyzfile 0 1 EA_15n.xyz
| 10>
| 11>                          ****END OF INPUT****

CARTESIAN COORDINATES (ANGSTROEM)
---------------------------------
  Si     0.000000    0.000000    0.710864
  H      1.093946    0.000000   -0.355432
  H     -1.093946    0.000000   -0.355432

 Total Charge           Charge          ....    0
 Multiplicity           Mult            ....    1
 Number of Electrons    NEL             ....   16
 Basis Dimension        Dim             ....   22

ORBITAL ENERGIES
----------------

  NO   OCC          E(Eh)            E(eV)
   0   2.0000     -66.757108     -1816.5533
   1   2.0000      -5.534653      -150.6056
   2   2.0000      -3.829299      -104.2005
   3   2.0000      -3.821531      -103.9892
   4   2.0000      -3.819735      -103.9403
   5   2.0000      -0.566203       -15.4072
   6   2.0000      -0.374990       -10.2040
   7   2.0000      -0.278781        -7.5860
   8   0.0000      -0.092380        -2.5138
   9   0.0000       0.068897         1.8748
  10   0.0000       0.148074         4.0293
  11   0.0000       0.188168         5.1203
  12   0.0000       0.418344        11.3837

MULLIKEN ATOMIC CHARGES
-----------------------
   0 Si:    0.099823
   1 H :   -0.049911
   2 H :   -0.049911
Sum of atomic charges:    0.0000000

LOEWDIN ATOMIC CHARGES
----------------------
   0 Si:    0.088980
   1 H :   -0.044490
   2 H :   -0.044490

  Mayer bond orders larger than 0.100000
B(  0-Si,  1-H ) :   0.9722 B(  0-Si,  2-H ) :   0.9722

Dispersion correction           -0.000445578
FINAL SINGLE POINT ENERGY      -290.236976438722

DIPOLE MOMENT
-------------
                                X             Y             Z
Electronic contribution:      0.00000       0.00000       1.67412
Nuclear contribution   :      0.00000       0.00000      -1.87082
                        -----------------------------------------
Total Dipole Moment    :      0.00000       0.00000      -0.19670
                        -----------------------------------------
Magnitude (a.u.)       :      0.19670
Magnitude (Debye)      :      0.49998

Rotational constants in cm-1:     7.882360     6.987379     3.703968
Rotational constants in MHz : 236307.211821 209476.345825 111042.164690

                             ****ORCA TERMINATED NORMALLY****
TOTAL RUN TIME: 0 days 0 hours 0 minutes 40 seconds 78 msec
