                         Program Version 5.0.3 -  RELEASE  -
|  1> ! PBEh-3c def2/J TightSCF DefGrid3
|  2>
|  3> %maxcore 60000
|  4>
|  5> %pal
|  6> nprocs 4
|  7> end
|  8>
|  9> *xyzfile 0 1 H2O4.xyz
| 10>
| 11>                          ****END OF INPUT****

CARTESIAN COORDINATES (ANGSTROEM)
---------------------------------
  O     -1.456492    1.287209   -0.007369
  H     -0.492967    1.479693   -0.009861
  H     -1.819420    1.749373    0.752144
  O     -1.287209   -1.456492    0.007369
  H     -1.479693   -0.492967    0.009861
  H     -1.749373   -1.819420   -0.752144
  O      1.456492   -1.287209   -0.007369
  H      0.492967   -1.479693   -0.009861
  H      1.819420   -1.749373    0.752144
  O      1.287209    1.456492    0.007369
  H      1.479693    0.492967    0.009861
  H      1.749373    1.819420   -0.752144

 Total Charge           Charge          ....    0
 Multiplicity           Mult            ....    1
 Number of Electrons    NEL             ....   40
 Basis Dimension        Dim             ....   76

ORBITAL ENERGIES
----------------

  NO   OCC          E(Eh)            E(eV)
   0   2.0000     -19.474919      -529.9395
   1   2.0000     -19.474884      -529.9385
   2   2.0000     -19.474884      -529.9385
   3   2.0000     -19.474792      -529.9360
   4   2.0000      -1.111925       -30.2570
   5   2.0000      -1.097985       -29.8777
   6   2.0000      -1.097985       -29.8777
   7   2.0000      -1.084342       -29.5064
   8   2.0000      -0.595378       -16.2011
   9   2.0000      -0.583021       -15.8648
  10   2.0000      -0.583021       -15.8648
  11   2.0000      -0.574237       -15.6258
  12   2.0000      -0.475176       -12.9302
  13   2.0000      -0.441328       -12.0091
  14   2.0000      -0.441328       -12.0091
  15   2.0000      -0.407782       -11.0963
  16   2.0000      -0.362659        -9.8684
  17   2.0000      -0.359613        -9.7856
  18   2.0000      -0.359613        -9.7856
  19   2.0000      -0.357652        -9.7322
  20   0.0000       0.117111         3.1867
  21   0.0000       0.157183         4.2772
  22   0.0000       0.157183         4.2772
  23   0.0000       0.180180         4.9029
  24   0.0000       0.276185         7.5154

MULLIKEN ATOMIC CHARGES
-----------------------
   0 O :   -0.871667
   1 H :    0.453125
   2 H :    0.418542
   3 O :   -0.871667
   4 H :    0.453125
   5 H :    0.418542
   6 O :   -0.871667
   7 H :    0.453125
   8 H :    0.418542
   9 O :   -0.871667
  10 H :    0.453125
  11 H :    0.418542
Sum of atomic charges:   -0.0000000

LOEWDIN ATOMIC CHARGES
----------------------
   0 O :   -0.607597
   1 H :    0.302033
   2 H :    0.305564
   3 O :   -0.607597
   4 H :    0.302033
   5 H :    0.305564
   6 O :   -0.607597
   7 H :    0.302033
   8 H :    0.305564
   9 O :   -0.607597
  10 H :    0.302033
  11 H :    0.305564

  Mayer bond orders larger than 0.100000
B(  0-O ,  1-H ) :   0.6713 B(  0-O ,  2-H ) :   0.8055 B(  0-O ,  4-H ) :   0.1466
B(  1-H ,  9-O ) :   0.1466 B(  3-O ,  4-H ) :   0.6713 B(  3-O ,  5-H ) :   0.8055
B(  3-O ,  7-H ) :   0.1466 B(  6-O ,  7-H ) :   0.6713 B(  6-O ,  8-H ) :   0.8055
B(  6-O , 10-H ) :   0.1466 B(  9-O , 10-H ) :   0.6713 B(  9-O , 11-H ) :   0.8055

Dispersion correction           -0.002988189
FINAL SINGLE POINT ENERGY      -305.086395192426

DIPOLE MOMENT
-------------
                                X             Y             Z
Electronic contribution:      0.00000      -0.00000      -0.00000
Nuclear contribution   :     -0.00000       0.00000      -0.00000
                        -----------------------------------------
Total Dipole Moment    :      0.00000      -0.00000      -0.00000
                        -----------------------------------------
Magnitude (a.u.)       :      0.00000
Magnitude (Debye)      :      0.00000

Rotational constants in cm-1:     0.119618     0.119618     0.060795
Rotational constants in MHz :  3586.051276  3586.051276  1822.574578

                             ****ORCA TERMINATED NORMALLY****
TOTAL RUN TIME: 0 days 0 hours 1 minutes 8 seconds 64 msec
