                         Program Version 5.0.3 -  RELEASE  -
|  1> ! PBEh-3c def2/J TightSCF DefGrid3
|  2>
|  3> %maxcore 60000
|  4>
|  5> %pal
|  6> nprocs 4
|  7> end
|  8>
|  9> *xyzfile 0 1 ISO_E36.xyz
| 10>
| 11>                          ****END OF INPUT****

CARTESIAN COORDINATES (ANGSTROEM)
---------------------------------
  C     -0.056450    1.165375    0.000000
  N     -1.251212    0.593281    0.000000
  C     -1.303152   -0.744691    0.000000
  C     -0.175336   -1.549791    0.000000
  C      1.074175   -0.926043    0.000000
  C      1.148724    0.454927    0.000000
  O     -0.012352    2.518669    0.000000
  H     -2.297682   -1.178206    0.000000
  H     -0.268849   -2.627495    0.000000
  H      1.982617   -1.516531    0.000000
  H      2.090931    0.985481    0.000000
  H     -0.931414    2.825023    0.000000

 Total Charge           Charge          ....    0
 Multiplicity           Mult            ....    1
 Number of Electrons    NEL             ....   50
 Basis Dimension        Dim             ....  115

ORBITAL ENERGIES
----------------

  NO   OCC          E(Eh)            E(eV)
   0   2.0000     -19.527804      -531.3786
   1   2.0000     -14.640068      -398.3765
   2   2.0000     -10.545473      -286.9569
   3   2.0000     -10.487975      -285.3923
   4   2.0000     -10.471831      -284.9530
   5   2.0000     -10.455328      -284.5039
   6   2.0000     -10.451653      -284.4039
   7   2.0000      -1.186370       -32.2828
   8   2.0000      -1.044617       -28.4255
   9   2.0000      -0.904257       -24.6061
  10   2.0000      -0.848979       -23.1019
  11   2.0000      -0.727945       -19.8084
  12   2.0000      -0.708200       -19.2711
  13   2.0000      -0.624322       -16.9887
  14   2.0000      -0.585214       -15.9245
  15   2.0000      -0.549110       -14.9420
  16   2.0000      -0.510576       -13.8935
  17   2.0000      -0.498812       -13.5734
  18   2.0000      -0.477649       -12.9975
  19   2.0000      -0.460091       -12.5197
  20   2.0000      -0.429479       -11.6867
  21   2.0000      -0.411294       -11.1919
  22   2.0000      -0.335231        -9.1221
  23   2.0000      -0.329646        -8.9701
  24   2.0000      -0.280733        -7.6391
  25   0.0000      -0.003278        -0.0892
  26   0.0000       0.024712         0.6724
  27   0.0000       0.141385         3.8473
  28   0.0000       0.149549         4.0694
  29   0.0000       0.192623         5.2415

MULLIKEN ATOMIC CHARGES
-----------------------
   0 C :    0.488765
   1 N :   -0.440169
   2 C :   -0.028355
   3 C :   -0.319573
   4 C :   -0.123509
   5 C :   -0.357426
   6 O :   -0.602300
   7 H :    0.234199
   8 H :    0.228709
   9 H :    0.235299
  10 H :    0.246242
  11 H :    0.438117
Sum of atomic charges:   -0.0000000

LOEWDIN ATOMIC CHARGES
----------------------
   0 C :    0.105428
   1 N :   -0.186170
   2 C :   -0.043909
   3 C :   -0.194372
   4 C :   -0.090833
   5 C :   -0.186233
   6 O :   -0.303326
   7 H :    0.131132
   8 H :    0.142011
   9 H :    0.142199
  10 H :    0.151542
  11 H :    0.332531

  Mayer bond orders larger than 0.100000
B(  0-C ,  1-N ) :   1.4933 B(  0-C ,  5-C ) :   1.3140 B(  0-C ,  6-O ) :   1.1095
B(  1-N ,  2-C ) :   1.4605 B(  2-C ,  3-C ) :   1.4222 B(  2-C ,  7-H ) :   0.9148
B(  3-C ,  4-C ) :   1.3712 B(  3-C ,  8-H ) :   0.9150 B(  4-C ,  5-C ) :   1.4574
B(  4-C ,  9-H ) :   0.9187 B(  5-C , 10-H ) :   0.9045 B(  6-O , 11-H ) :   0.7610

Dispersion correction           -0.005976160
FINAL SINGLE POINT ENERGY      -322.814826462502

DIPOLE MOMENT
-------------
                                X             Y             Z
Electronic contribution:     -0.85387       2.30272      -0.00000
Nuclear contribution   :      0.97285      -2.75801       0.00000
                        -----------------------------------------
Total Dipole Moment    :      0.11898      -0.45529      -0.00000
                        -----------------------------------------
Magnitude (a.u.)       :      0.47058
Magnitude (Debye)      :      1.19612

Rotational constants in cm-1:     0.195445     0.092336     0.062710
Rotational constants in MHz :  5859.288574  2768.176803  1879.989777

                             ****ORCA TERMINATED NORMALLY****
TOTAL RUN TIME: 0 days 0 hours 1 minutes 8 seconds 156 msec
