                         Program Version 5.0.3 -  RELEASE  -
|  1> ! PBEh-3c def2/J TightSCF DefGrid3
|  2>
|  3> %maxcore 60000
|  4>
|  5> %pal
|  6> nprocs 4
|  7> end
|  8>
|  9> *xyzfile 0 1 02.xyz
| 10>
| 11>                          ****END OF INPUT****

CARTESIAN COORDINATES (ANGSTROEM)
---------------------------------
  O     -2.235437    0.143124    0.279183
  H     -2.652114    0.941997    0.604952
  H     -1.306411    0.253881    0.520131
  O      0.606526    0.239596    0.665558
  H      0.974509   -0.332481    1.343086
  C      1.071531   -0.232034   -0.596601
  H      0.640714    0.419060   -1.349715
  H      2.157494   -0.181241   -0.670913
  H      0.743188   -1.251903   -0.795682

 Total Charge           Charge          ....    0
 Multiplicity           Mult            ....    1
 Number of Electrons    NEL             ....   28
 Basis Dimension        Dim             ....   57

ORBITAL ENERGIES
----------------

  NO   OCC          E(Eh)            E(eV)
   0   2.0000     -19.511391      -530.9319
   1   2.0000     -19.439541      -528.9768
   2   2.0000     -10.485953      -285.3373
   3   2.0000      -1.143483       -31.1157
   4   2.0000      -1.068854       -29.0850
   5   2.0000      -0.776747       -21.1364
   6   2.0000      -0.590353       -16.0643
   7   2.0000      -0.553009       -15.0481
   8   2.0000      -0.510569       -13.8933
   9   2.0000      -0.497071       -13.5260
  10   2.0000      -0.419004       -11.4017
  11   2.0000      -0.398753       -10.8506
  12   2.0000      -0.349325        -9.5056
  13   2.0000      -0.325891        -8.8680
  14   0.0000       0.108583         2.9547
  15   0.0000       0.176884         4.8133
  16   0.0000       0.185677         5.0525
  17   0.0000       0.208364         5.6699
  18   0.0000       0.224259         6.1024

MULLIKEN ATOMIC CHARGES
-----------------------
   0 O :   -0.865605
   1 H :    0.395912
   2 H :    0.429147
   3 O :   -0.642939
   4 H :    0.427765
   5 C :   -0.384274
   6 H :    0.234271
   7 H :    0.200259
   8 H :    0.205462
Sum of atomic charges:   -0.0000000

LOEWDIN ATOMIC CHARGES
----------------------
   0 O :   -0.627734
   1 H :    0.292117
   2 H :    0.288465
   3 O :   -0.414243
   4 H :    0.313869
   5 C :   -0.199184
   6 H :    0.130611
   7 H :    0.106938
   8 H :    0.109161

  Mayer bond orders larger than 0.100000
B(  0-O ,  1-H ) :   0.8265 B(  0-O ,  2-H ) :   0.7398 B(  3-O ,  4-H ) :   0.7855
B(  3-O ,  5-C ) :   0.9668 B(  5-C ,  6-H ) :   0.9210 B(  5-C ,  7-H ) :   0.9182
B(  5-C ,  8-H ) :   0.9153

Dispersion correction           -0.001984277
FINAL SINGLE POINT ENERGY      -191.733786354512

DIPOLE MOMENT
-------------
                                X             Y             Z
Electronic contribution:     -0.87655       0.54335       1.45697
Nuclear contribution   :      1.92646      -0.49568      -1.17158
                        -----------------------------------------
Total Dipole Moment    :      1.04990       0.04767       0.28539
                        -----------------------------------------
Magnitude (a.u.)       :      1.08905
Magnitude (Debye)      :      2.76813

Rotational constants in cm-1:     0.900711     0.144051     0.128892
Rotational constants in MHz : 27002.647108  4318.526464  3864.093522

                             ****ORCA TERMINATED NORMALLY****
TOTAL RUN TIME: 0 days 0 hours 1 minutes 3 seconds 388 msec
