                         Program Version 5.0.3 -  RELEASE  -
|  1> ! PBEh-3c def2/J TightSCF DefGrid3
|  2>
|  3> %maxcore 60000
|  4>
|  5> %pal
|  6> nprocs 4
|  7> end
|  8>
|  9> *xyzfile 0 1 P15.xyz
| 10>
| 11>                          ****END OF INPUT****

CARTESIAN COORDINATES (ANGSTROEM)
---------------------------------
  C     -0.104105    0.056123   -1.216757
  N      0.689331    0.155820    0.000000
  C     -0.104105    0.056123    1.216757
  H      0.553436    0.072988   -2.087864
  H     -0.769654    0.920698   -1.290017
  H     -0.730546   -0.850981   -1.272162
  H      1.412405   -0.553477    0.000000
  H     -0.769654    0.920698    1.290017
  H      0.553436    0.072988    2.087864
  H     -0.730546   -0.850981    1.272162

 Total Charge           Charge          ....    0
 Multiplicity           Mult            ....    1
 Number of Electrons    NEL             ....   26
 Basis Dimension        Dim             ....   59

ORBITAL ENERGIES
----------------

  NO   OCC          E(Eh)            E(eV)
   0   2.0000     -14.612613      -397.6294
   1   2.0000     -10.447269      -284.2847
   2   2.0000     -10.447215      -284.2832
   3   2.0000      -0.989044       -26.9133
   4   2.0000      -0.778110       -21.1735
   5   2.0000      -0.698937       -19.0190
   6   2.0000      -0.545760       -14.8509
   7   2.0000      -0.496970       -13.5232
   8   2.0000      -0.488016       -13.2796
   9   2.0000      -0.436741       -11.8843
  10   2.0000      -0.413257       -11.2453
  11   2.0000      -0.410759       -11.1773
  12   2.0000      -0.265026        -7.2117
  13   0.0000       0.133954         3.6451
  14   0.0000       0.191315         5.2059
  15   0.0000       0.201270         5.4768
  16   0.0000       0.205957         5.6044
  17   0.0000       0.230915         6.2835

MULLIKEN ATOMIC CHARGES
-----------------------
   0 C :   -0.491583
   1 N :   -0.548324
   2 C :   -0.491583
   3 H :    0.216975
   4 H :    0.214065
   5 H :    0.176759
   6 H :    0.315891
   7 H :    0.214065
   8 H :    0.216975
   9 H :    0.176759
Sum of atomic charges:    0.0000000

LOEWDIN ATOMIC CHARGES
----------------------
   0 C :   -0.269011
   1 N :   -0.350524
   2 C :   -0.269011
   3 H :    0.121662
   4 H :    0.119484
   5 H :    0.091147
   6 H :    0.223959
   7 H :    0.119484
   8 H :    0.121662
   9 H :    0.091147

  Mayer bond orders larger than 0.100000
B(  0-C ,  1-N ) :   1.0181 B(  0-C ,  3-H ) :   0.9323 B(  0-C ,  4-H ) :   0.9209
B(  0-C ,  5-H ) :   0.9103 B(  1-N ,  2-C ) :   1.0181 B(  1-N ,  6-H ) :   0.8540
B(  2-C ,  7-H ) :   0.9209 B(  2-C ,  8-H ) :   0.9323 B(  2-C ,  9-H ) :   0.9103

Dispersion correction           -0.002979699
FINAL SINGLE POINT ENERGY      -134.863318414020

DIPOLE MOMENT
-------------
                                X             Y             Z
Electronic contribution:      1.33065       0.32603       0.00000
Nuclear contribution   :     -1.41993      -0.72597       0.00000
                        -----------------------------------------
Total Dipole Moment    :     -0.08927      -0.39995       0.00000
                        -----------------------------------------
Magnitude (a.u.)       :      0.40979
Magnitude (Debye)      :      1.04160

Rotational constants in cm-1:     1.162895     0.308530     0.272786
Rotational constants in MHz : 34862.701102  9249.505140  8177.905353

                             ****ORCA TERMINATED NORMALLY****
TOTAL RUN TIME: 0 days 0 hours 0 minutes 52 seconds 884 msec
