                         Program Version 5.0.3 -  RELEASE  -
|  1> ! PBEh-3c def2/J TightSCF DefGrid3
|  2>
|  3> %maxcore 60000
|  4>
|  5> %pal
|  6> nprocs 4
|  7> end
|  8>
|  9> *xyzfile 0 1 6.xyz
| 10>
| 11>                          ****END OF INPUT****

CARTESIAN COORDINATES (ANGSTROEM)
---------------------------------
  C      0.893906   -3.763224   -1.243778
  C     -0.465030   -3.728321   -1.523118
  C     -1.190517   -3.889883   -0.257406
  C      1.055785   -3.933854    0.214247
  C     -0.239061   -3.862787    0.822140
  C      2.126017   -3.126962    0.633143
  C      1.754082   -2.722352   -1.669635
  C      2.669895   -2.458639   -0.558602
  C      1.246207   -1.620343   -2.445510
  C     -1.032297   -2.628081   -2.233941
  C     -0.198849   -1.561370   -2.712797
  C     -2.297406   -3.024876   -0.283403
  C     -2.287146   -2.310313   -1.568797
  C     -2.613308   -2.281372    0.877718
  C     -0.441659   -2.935009    1.918699
  C     -1.676560   -2.208919    1.964987
  C      1.992672   -2.373226    1.824242
  C      0.701168   -2.246145    2.437057
  C      2.674442   -1.097855    1.949902
  C      3.263896   -1.224451   -0.437526
  C      3.362786   -0.565026    0.865939
  C      2.014183   -0.377135   -2.411392
  C      3.053016   -0.207871   -1.438997
  C      1.388358    0.823049   -2.879081
  C     -0.841655   -0.245721   -2.884765
  C     -0.025362    0.900733   -3.036102
  C     -2.825161   -1.040850   -1.644299
  C     -2.158363   -0.009764   -2.379736
  C     -3.291682   -1.002513    0.768375
  C     -3.455102   -0.416883   -0.482369
  C     -1.774576   -0.867984    2.531769
  C     -2.854456   -0.169532    1.876809
  C      0.599028   -0.883641    2.969735
  C      1.844285   -0.213152    2.749722
  C     -0.629909   -0.154439    2.993835
  C      1.869251    1.170528    2.539562
  C      3.366926    0.865522    0.628594
  C      3.265901    1.074708   -0.793006
  C      2.698352    1.737613    1.504706
  C      1.812512    2.111954   -2.405033
  C      2.643737    2.243367   -1.278004
  C     -0.472932    2.253964   -2.613396
  C      0.676115    2.999954   -2.281978
  C     -2.537829    1.277551   -1.799809
  C     -3.339690    1.020637   -0.634829
  C     -1.680225    2.420244   -1.870250
  C     -2.845807    1.210833    1.765375
  C     -3.213965    1.847484    0.498793
  C     -0.602415    1.313974    2.881726
  C      0.659648    1.958439    2.662896
  C     -1.760122    1.983540    2.358538
  C      2.010399    2.916030    0.998810
  C      2.007291    3.199517   -0.365514
  C      0.773538    3.670740   -1.018376
  C      0.790655    3.095231    1.778813
  C     -1.661848    3.335558   -0.744987
  C     -2.458893    3.040698    0.393420
  C     -1.615934    3.156252    1.572511
  C     -0.381277    3.867773   -0.264602
  C     -0.345014    3.656597    1.178972

 Total Charge           Charge          ....    0
 Multiplicity           Mult            ....    1
 Number of Electrons    NEL             ....  360
 Basis Dimension        Dim             ....  900

ORBITAL ENERGIES
----------------

  NO   OCC          E(Eh)            E(eV)
   0   2.0000     -10.532798      -286.6120
   1   2.0000     -10.532155      -286.5945
   2   2.0000     -10.531606      -286.5796
   3   2.0000     -10.530337      -286.5450
   4   2.0000     -10.529946      -286.5344
   5   2.0000     -10.527768      -286.4751
   6   2.0000     -10.527227      -286.4604
   7   2.0000     -10.527209      -286.4599
   8   2.0000     -10.526930      -286.4523
   9   2.0000     -10.526280      -286.4346
  10   2.0000     -10.525865      -286.4233
  11   2.0000     -10.525502      -286.4135
  12   2.0000     -10.524510      -286.3865
  13   2.0000     -10.524020      -286.3732
  14   2.0000     -10.523933      -286.3708
  15   2.0000     -10.522710      -286.3375
  16   2.0000     -10.522153      -286.3223
  17   2.0000     -10.521758      -286.3116
  18   2.0000     -10.521754      -286.3115
  19   2.0000     -10.521343      -286.3003
  20   2.0000     -10.521154      -286.2951
  21   2.0000     -10.520565      -286.2791
  22   2.0000     -10.520259      -286.2708
  23   2.0000     -10.520142      -286.2676
  24   2.0000     -10.519409      -286.2477
  25   2.0000     -10.518958      -286.2354
  26   2.0000     -10.518663      -286.2274
  27   2.0000     -10.518177      -286.2141
  28   2.0000     -10.518044      -286.2105
  29   2.0000     -10.517894      -286.2065
  30   2.0000     -10.517866      -286.2057
  31   2.0000     -10.517497      -286.1956
  32   2.0000     -10.517380      -286.1925
  33   2.0000     -10.517192      -286.1873
  34   2.0000     -10.516456      -286.1673
  35   2.0000     -10.516181      -286.1598
  36   2.0000     -10.516014      -286.1553
  37   2.0000     -10.515686      -286.1464
  38   2.0000     -10.515670      -286.1459
  39   2.0000     -10.515404      -286.1387
  40   2.0000     -10.515059      -286.1293
  41   2.0000     -10.515041      -286.1288
  42   2.0000     -10.514836      -286.1232
  43   2.0000     -10.514265      -286.1077
  44   2.0000     -10.514200      -286.1059
  45   2.0000     -10.513376      -286.0835
  46   2.0000     -10.513058      -286.0748
  47   2.0000     -10.512458      -286.0585
  48   2.0000     -10.512258      -286.0531
  49   2.0000     -10.511884      -286.0429
  50   2.0000     -10.509645      -285.9820
  51   2.0000     -10.509146      -285.9684
  52   2.0000     -10.508193      -285.9425
  53   2.0000     -10.507777      -285.9312
  54   2.0000     -10.507366      -285.9200
  55   2.0000     -10.503633      -285.8184
  56   2.0000     -10.501567      -285.7622
  57   2.0000     -10.500524      -285.7338
  58   2.0000     -10.493105      -285.5319
  59   2.0000     -10.492848      -285.5249
  60   2.0000      -1.099913       -29.9302
  61   2.0000      -1.084406       -29.5082
  62   2.0000      -1.080461       -29.4008
  63   2.0000      -1.071277       -29.1509
  64   2.0000      -1.050106       -28.5748
  65   2.0000      -1.043290       -28.3894
  66   2.0000      -1.037721       -28.2378
  67   2.0000      -1.031941       -28.0806
  68   2.0000      -1.015575       -27.6352
  69   2.0000      -1.000834       -27.2341
  70   2.0000      -0.986052       -26.8318
  71   2.0000      -0.978617       -26.6295
  72   2.0000      -0.969444       -26.3799
  73   2.0000      -0.962971       -26.2038
  74   2.0000      -0.957986       -26.0681
  75   2.0000      -0.950927       -25.8760
  76   2.0000      -0.923927       -25.1413
  77   2.0000      -0.917075       -24.9549
  78   2.0000      -0.905783       -24.6476
  79   2.0000      -0.897509       -24.4225
  80   2.0000      -0.892697       -24.2915
  81   2.0000      -0.890708       -24.2374
  82   2.0000      -0.883715       -24.0471
  83   2.0000      -0.874152       -23.7869
  84   2.0000      -0.872413       -23.7396
  85   2.0000      -0.844798       -22.9881
  86   2.0000      -0.838258       -22.8102
  87   2.0000      -0.831164       -22.6171
  88   2.0000      -0.825381       -22.4598
  89   2.0000      -0.819900       -22.3106
  90   2.0000      -0.801615       -21.8131
  91   2.0000      -0.791475       -21.5371
  92   2.0000      -0.779907       -21.2224
  93   2.0000      -0.768797       -20.9200
  94   2.0000      -0.765492       -20.8301
  95   2.0000      -0.765167       -20.8213
  96   2.0000      -0.751714       -20.4552
  97   2.0000      -0.741404       -20.1746
  98   2.0000      -0.728480       -19.8229
  99   2.0000      -0.719007       -19.5652
 100   2.0000      -0.709334       -19.3020
 101   2.0000      -0.707082       -19.2407
 102   2.0000      -0.698670       -19.0118
 103   2.0000      -0.688375       -18.7316
 104   2.0000      -0.673536       -18.3278
 105   2.0000      -0.668733       -18.1972
 106   2.0000      -0.663814       -18.0633
 107   2.0000      -0.654212       -17.8020
 108   2.0000      -0.651587       -17.7306
 109   2.0000      -0.638266       -17.3681
 110   2.0000      -0.633513       -17.2388
 111   2.0000      -0.625114       -17.0102
 112   2.0000      -0.617316       -16.7980
 113   2.0000      -0.609228       -16.5779
 114   2.0000      -0.596062       -16.2197
 115   2.0000      -0.592668       -16.1273
 116   2.0000      -0.583069       -15.8661
 117   2.0000      -0.578041       -15.7293
 118   2.0000      -0.572141       -15.5687
 119   2.0000      -0.570415       -15.5218
 120   2.0000      -0.567265       -15.4361
 121   2.0000      -0.561731       -15.2855
 122   2.0000      -0.557882       -15.1807
 123   2.0000      -0.552352       -15.0303
 124   2.0000      -0.550445       -14.9784
 125   2.0000      -0.543212       -14.7815
 126   2.0000      -0.542072       -14.7505
 127   2.0000      -0.537747       -14.6328
 128   2.0000      -0.533773       -14.5247
 129   2.0000      -0.532210       -14.4822
 130   2.0000      -0.528823       -14.3900
 131   2.0000      -0.527467       -14.3531
 132   2.0000      -0.519852       -14.1459
 133   2.0000      -0.514423       -13.9982
 134   2.0000      -0.514222       -13.9927
 135   2.0000      -0.508577       -13.8391
 136   2.0000      -0.507432       -13.8079
 137   2.0000      -0.503491       -13.7007
 138   2.0000      -0.497477       -13.5370
 139   2.0000      -0.495147       -13.4736
 140   2.0000      -0.493694       -13.4341
 141   2.0000      -0.490243       -13.3402
 142   2.0000      -0.489222       -13.3124
 143   2.0000      -0.485980       -13.2242
 144   2.0000      -0.482984       -13.1427
 145   2.0000      -0.478502       -13.0207
 146   2.0000      -0.475237       -12.9319
 147   2.0000      -0.472210       -12.8495
 148   2.0000      -0.465091       -12.6558
 149   2.0000      -0.449263       -12.2251
 150   2.0000      -0.443388       -12.0652
 151   2.0000      -0.442276       -12.0349
 152   2.0000      -0.438277       -11.9261
 153   2.0000      -0.435019       -11.8375
 154   2.0000      -0.431693       -11.7470
 155   2.0000      -0.429722       -11.6933
 156   2.0000      -0.429298       -11.6818
 157   2.0000      -0.424080       -11.5398
 158   2.0000      -0.422573       -11.4988
 159   2.0000      -0.421238       -11.4625
 160   2.0000      -0.417194       -11.3524
 161   2.0000      -0.412895       -11.2355
 162   2.0000      -0.410598       -11.1730
 163   2.0000      -0.404505       -11.0071
 164   2.0000      -0.398551       -10.8451
 165   2.0000      -0.391391       -10.6503
 166   2.0000      -0.356129        -9.6908
 167   2.0000      -0.348979        -9.4962
 168   2.0000      -0.337282        -9.1779
 169   2.0000      -0.333399        -9.0722
 170   2.0000      -0.331341        -9.0163
 171   2.0000      -0.318971        -8.6796
 172   2.0000      -0.311184        -8.4678
 173   2.0000      -0.303143        -8.2489
 174   2.0000      -0.301231        -8.1969
 175   2.0000      -0.283978        -7.7274
 176   2.0000      -0.275537        -7.4977
 177   2.0000      -0.265912        -7.2358
 178   2.0000      -0.260444        -7.0871
 179   2.0000      -0.241175        -6.5627
 180   0.0000      -0.175521        -4.7762
 181   0.0000      -0.132183        -3.5969
 182   0.0000      -0.116583        -3.1724
 183   0.0000      -0.101152        -2.7525
 184   0.0000      -0.090556        -2.4641

MULLIKEN ATOMIC CHARGES
-----------------------
   0 C :   -0.013617
   1 C :   -0.022481
   2 C :   -0.024185
   3 C :   -0.020747
   4 C :   -0.003472
   5 C :    0.010161
   6 C :    0.006796
   7 C :   -0.016711
   8 C :    0.011083
   9 C :    0.003871
  10 C :    0.010282
  11 C :    0.012748
  12 C :   -0.027926
  13 C :    0.002276
  14 C :    0.027384
  15 C :   -0.000180
  16 C :   -0.005135
  17 C :   -0.005677
  18 C :   -0.001682
  19 C :   -0.012036
  20 C :    0.014346
  21 C :    0.017897
  22 C :    0.010170
  23 C :    0.007041
  24 C :    0.040464
  25 C :   -0.017223
  26 C :   -0.005042
  27 C :    0.004681
  28 C :    0.014866
  29 C :    0.014456
  30 C :   -0.003061
  31 C :   -0.001151
  32 C :   -0.006377
  33 C :    0.002833
  34 C :    0.057856
  35 C :   -0.010448
  36 C :    0.012659
  37 C :   -0.012011
  38 C :    0.006527
  39 C :   -0.019440
  40 C :    0.012975
  41 C :    0.001985
  42 C :   -0.019139
  43 C :   -0.011701
  44 C :    0.005399
  45 C :    0.031018
  46 C :   -0.020610
  47 C :    0.000288
  48 C :    0.016729
  49 C :   -0.003133
  50 C :    0.003321
  51 C :    0.004443
  52 C :   -0.003324
  53 C :    0.002785
  54 C :   -0.004278
  55 C :   -0.009453
  56 C :   -0.024690
  57 C :   -0.027709
  58 C :   -0.020556
  59 C :    0.005860
Sum of atomic charges:   -0.0000000

LOEWDIN ATOMIC CHARGES
----------------------
   0 C :   -0.007734
   1 C :   -0.015027
   2 C :   -0.003889
   3 C :    0.010911
   4 C :   -0.002743
   5 C :    0.001994
   6 C :    0.005374
   7 C :    0.001558
   8 C :   -0.006534
   9 C :   -0.006923
  10 C :    0.008294
  11 C :   -0.005024
  12 C :   -0.003423
  13 C :    0.026856
  14 C :   -0.014476
  15 C :    0.001107
  16 C :   -0.015553
  17 C :    0.004502
  18 C :    0.010952
  19 C :   -0.003081
  20 C :    0.017840
  21 C :    0.002872
  22 C :   -0.013207
  23 C :   -0.027127
  24 C :   -0.007676
  25 C :    0.023319
  26 C :   -0.010193
  27 C :   -0.006350
  28 C :    0.003675
  29 C :    0.030970
  30 C :    0.027984
  31 C :   -0.014532
  32 C :    0.037895
  33 C :   -0.026366
  34 C :   -0.011407
  35 C :    0.018224
  36 C :    0.005557
  37 C :    0.007449
  38 C :   -0.016044
  39 C :    0.033814
  40 C :   -0.002057
  41 C :    0.014833
  42 C :   -0.049059
  43 C :    0.013178
  44 C :   -0.002990
  45 C :   -0.018435
  46 C :    0.013770
  47 C :   -0.011049
  48 C :   -0.004794
  49 C :   -0.005202
  50 C :   -0.008056
  51 C :    0.007784
  52 C :    0.016158
  53 C :    0.011514
  54 C :   -0.000055
  55 C :    0.018188
  56 C :   -0.032612
  57 C :    0.001105
  58 C :   -0.018482
  59 C :   -0.007577

  Mayer bond orders larger than 0.100000
B(  0-C ,  1-C ) :   1.3324 B(  0-C ,  3-C ) :   1.1005 B(  0-C ,  6-C ) :   1.2619
B(  1-C ,  2-C ) :   1.1387 B(  1-C ,  9-C ) :   1.2240 B(  2-C ,  4-C ) :   1.2282
B(  2-C , 11-C ) :   1.2947 B(  3-C ,  4-C ) :   1.2557 B(  3-C ,  5-C ) :   1.3041
B(  4-C , 14-C ) :   1.2097 B(  5-C ,  7-C ) :   1.1266 B(  5-C , 16-C ) :   1.2685
B(  6-C ,  7-C ) :   1.1453 B(  6-C ,  8-C ) :   1.2713 B(  7-C , 19-C ) :   1.4152
B(  8-C , 10-C ) :   1.2397 B(  8-C , 21-C ) :   1.1623 B(  9-C , 10-C ) :   1.2906
B(  9-C , 12-C ) :   1.1761 B( 10-C , 24-C ) :   1.1376 B( 11-C , 12-C ) :   1.1398
B( 11-C , 13-C ) :   1.2592 B( 12-C , 26-C ) :   1.3670 B( 13-C , 15-C ) :   1.2866
B( 13-C , 28-C ) :   1.1132 B( 14-C , 15-C ) :   1.2175 B( 14-C , 17-C ) :   1.2432
B( 15-C , 30-C ) :   1.1617 B( 16-C , 17-C ) :   1.2866 B( 16-C , 18-C ) :   1.1301
B( 17-C , 32-C ) :   1.1460 B( 18-C , 20-C ) :   1.4258 B( 18-C , 33-C ) :   1.1425
B( 19-C , 20-C ) :   1.1219 B( 19-C , 22-C ) :   1.1604 B( 20-C , 36-C ) :   1.1332
B( 21-C , 22-C ) :   1.3063 B( 21-C , 23-C ) :   1.1974 B( 22-C , 37-C ) :   1.2108
B( 23-C , 25-C ) :   1.2778 B( 23-C , 39-C ) :   1.1944 B( 24-C , 25-C ) :   1.2432
B( 24-C , 27-C ) :   1.2566 B( 25-C , 41-C ) :   1.1129 B( 26-C , 27-C ) :   1.2170
B( 26-C , 29-C ) :   1.1088 B( 27-C , 43-C ) :   1.1617 B( 28-C , 29-C ) :   1.4463
B( 28-C , 31-C ) :   1.1289 B( 29-C , 44-C ) :   1.1191 B( 30-C , 31-C ) :   1.1939
B( 30-C , 34-C ) :   1.2624 B( 31-C , 46-C ) :   1.3678 B( 32-C , 33-C ) :   1.2521
B( 32-C , 34-C ) :   1.2284 B( 33-C , 35-C ) :   1.2846 B( 34-C , 48-C ) :   1.1422
B( 35-C , 38-C ) :   1.2202 B( 35-C , 49-C ) :   1.1666 B( 36-C , 37-C ) :   1.2165
B( 36-C , 38-C ) :   1.3319 B( 37-C , 40-C ) :   1.2403 B( 38-C , 51-C ) :   1.1277
B( 39-C , 40-C ) :   1.3078 B( 39-C , 42-C ) :   1.1388 B( 40-C , 52-C ) :   1.1287
B( 41-C , 42-C ) :   1.3357 B( 41-C , 45-C ) :   1.2234 B( 42-C , 53-C ) :   1.2023
B( 43-C , 44-C ) :   1.2681 B( 43-C , 45-C ) :   1.2275 B( 44-C , 47-C ) :   1.3007
B( 45-C , 55-C ) :   1.2190 B( 46-C , 47-C ) :   1.1603 B( 46-C , 50-C ) :   1.1482
B( 47-C , 56-C ) :   1.2415 B( 48-C , 49-C ) :   1.2801 B( 48-C , 50-C ) :   1.2427
B( 49-C , 54-C ) :   1.2340 B( 50-C , 57-C ) :   1.2985 B( 51-C , 52-C ) :   1.4325
B( 51-C , 54-C ) :   1.1361 B( 52-C , 53-C ) :   1.1202 B( 53-C , 58-C ) :   1.3755
B( 54-C , 59-C ) :   1.3226 B( 55-C , 56-C ) :   1.2954 B( 55-C , 58-C ) :   1.1684
B( 56-C , 57-C ) :   1.1636 B( 57-C , 59-C ) :   1.2151 B( 58-C , 59-C ) :   1.1631

Dispersion correction           -0.097049483
FINAL SINGLE POINT ENERGY     -2281.057429933137

DIPOLE MOMENT
-------------
                                X             Y             Z
Electronic contribution:      0.10387      -0.19552       0.26449
Nuclear contribution   :      0.00000      -0.00000      -0.00000
                        -----------------------------------------
Total Dipole Moment    :      0.10387      -0.19552       0.26449
                        -----------------------------------------
Magnitude (a.u.)       :      0.34492
Magnitude (Debye)      :      0.87672

Rotational constants in cm-1:     0.003124     0.002726     0.002489
Rotational constants in MHz :    93.658304    81.737999    74.621040

                             ****ORCA TERMINATED NORMALLY****
TOTAL RUN TIME: 0 days 1 hours 16 minutes 5 seconds 1 msec
