                         Program Version 5.0.3 -  RELEASE  -
|  1> ! PBEh-3c def2/J TightSCF DefGrid3
|  2>
|  3> %maxcore 60000
|  4>
|  5> %pal
|  6> nprocs 4
|  7> end
|  8>
|  9> *xyzfile 0 1 08.xyz
| 10>
| 11>                          ****END OF INPUT****

CARTESIAN COORDINATES (ANGSTROEM)
---------------------------------
  C      0.000000    0.000000   -1.859161
  C      0.000000    0.000000    1.859161
  H      0.888621   -0.513046   -1.494593
  H      0.000000    1.026091   -1.494593
  H      0.000000    0.000000   -2.948285
  H     -0.888621   -0.513046   -1.494593
  H      0.000000    0.000000    2.948285
  H     -0.888621    0.513046    1.494593
  H      0.888621    0.513046    1.494593
  H      0.000000   -1.026091    1.494593

 Total Charge           Charge          ....    0
 Multiplicity           Mult            ....    1
 Number of Electrons    NEL             ....   20
 Basis Dimension        Dim             ....   46

ORBITAL ENERGIES
----------------

  NO   OCC          E(Eh)            E(eV)
   0   2.0000     -10.414064      -283.3811
   1   2.0000     -10.414048      -283.3807
   2   2.0000      -0.775886       -21.1129
   3   2.0000      -0.771662       -20.9980
   4   2.0000      -0.450331       -12.2541
   5   2.0000      -0.446651       -12.1540
   6   2.0000      -0.446649       -12.1539
   7   2.0000      -0.441539       -12.0149
   8   2.0000      -0.441538       -12.0149
   9   2.0000      -0.438536       -11.9332
  10   0.0000       0.142991         3.8910
  11   0.0000       0.199937         5.4406
  12   0.0000       0.204087         5.5535
  13   0.0000       0.216337         5.8868
  14   0.0000       0.216340         5.8869

MULLIKEN ATOMIC CHARGES
-----------------------
   0 C :   -0.878413
   1 C :   -0.878413
   2 H :    0.219372
   3 H :    0.219361
   4 H :    0.220308
   5 H :    0.219372
   6 H :    0.220308
   7 H :    0.219372
   8 H :    0.219372
   9 H :    0.219361
Sum of atomic charges:   -0.0000000

LOEWDIN ATOMIC CHARGES
----------------------
   0 C :   -0.521452
   1 C :   -0.521452
   2 H :    0.130523
   3 H :    0.130519
   4 H :    0.129887
   5 H :    0.130523
   6 H :    0.129887
   7 H :    0.130523
   8 H :    0.130523
   9 H :    0.130519

  Mayer bond orders larger than 0.100000
B(  0-C ,  2-H ) :   0.9367 B(  0-C ,  3-H ) :   0.9367 B(  0-C ,  4-H ) :   0.9355
B(  0-C ,  5-H ) :   0.9367 B(  1-C ,  6-H ) :   0.9355 B(  1-C ,  7-H ) :   0.9367
B(  1-C ,  8-H ) :   0.9367 B(  1-C ,  9-H ) :   0.9367

Dispersion correction           -0.002010166
FINAL SINGLE POINT ENERGY       -80.854033299905

DIPOLE MOMENT
-------------
                                X             Y             Z
Electronic contribution:     -0.00000      -0.00000      -0.00000
Nuclear contribution   :      0.00000       0.00000      -0.00000
                        -----------------------------------------
Total Dipole Moment    :     -0.00000      -0.00000      -0.00000
                        -----------------------------------------
Magnitude (a.u.)       :      0.00000
Magnitude (Debye)      :      0.00000

Rotational constants in cm-1:     2.647360     0.143776     0.143776
Rotational constants in MHz : 79365.842370  4310.295700  4310.295691

                             ****ORCA TERMINATED NORMALLY****
TOTAL RUN TIME: 0 days 0 hours 0 minutes 41 seconds 548 msec
