                         Program Version 5.0.3 -  RELEASE  -
|  1> ! PBEh-3c def2/J TightSCF DefGrid3
|  2>
|  3> %maxcore 60000
|  4>
|  5> %pal
|  6> nprocs 4
|  7> end
|  8>
|  9> *xyzfile -1 1 3d.xyz
| 10>
| 11>                          ****END OF INPUT****

CARTESIAN COORDINATES (ANGSTROEM)
---------------------------------
  H     -3.090261    4.221432    1.307980
  O     -3.230317    3.267264    1.199240
  C     -2.486333    2.596069    2.229137
  H     -2.863991    2.869382    3.222947
  H     -1.419077    2.849413    2.170687
  C     -2.611486    1.104360    2.028781
  H     -2.008313    0.604056    2.797286
  O     -3.994575    0.678624    2.175939
  C     -4.288814   -0.385748    1.293422
  H     -4.679440   -1.246368    1.839582
  N     -5.373702    0.060964    0.358131
  C     -5.756287    1.374145    0.262909
  H     -5.203655    2.053186    0.902129
  C     -6.743358    1.786316   -0.573585
  H     -7.023844    2.829984   -0.622169
  C     -7.420355    0.838279   -1.419446
  O     -8.329694    1.077623   -2.224476
  N     -6.939187   -0.473971   -1.282483
  H     -7.366656   -1.184105   -1.871668
  C     -5.944939   -0.924817   -0.440879
  O     -5.590159   -2.102930   -0.388886
  C     -2.197430    0.579460    0.653883
  H     -2.484468    1.271824   -0.141604
  C     -2.988983   -0.730145    0.543663
  H     -3.175839   -1.036145   -0.489196
  O     -2.318921   -1.767620    1.265543
  H     -1.367096   -1.551920    1.203264
  O     -0.792875    0.329197    0.618805
  P      0.178546    1.204696   -0.407633
  O      0.741744    2.386912    0.316112
  O     -0.536232    1.360187   -1.718772
  O      1.392370    0.121919   -0.512200
  C      1.138821   -1.146062   -1.147038
  H      0.819878   -0.982006   -2.181183
  H      0.347922   -1.685655   -0.612993
  C      2.397909   -1.980462   -1.104440
  H      2.169357   -2.963687   -1.537844
  O      3.438546   -1.349859   -1.896079
  C      4.710880   -1.572012   -1.319444
  H      5.381968   -2.051094   -2.034401
  N      5.320739   -0.248741   -0.981469
  C      4.591037    0.911429   -0.957299
  H      3.540323    0.790313   -1.191882
  C      5.146544    2.113490   -0.657837
  H      4.546852    3.014078   -0.652310
  C      6.548168    2.204224   -0.340468
  O      7.178866    3.229564   -0.051617
  N      7.210195    0.966082   -0.368278
  H      8.202440    0.969964   -0.144980
  C      6.676148   -0.268380   -0.668567
  O      7.337466   -1.307015   -0.668970
  C      3.022424   -2.180643    0.275949
  H      2.918713   -1.278588    0.885234
  C      4.502412   -2.444119   -0.071999
  H      5.191543   -2.177556    0.735493
  O      4.664322   -3.810621   -0.452383
  H      3.992600   -4.300994    0.066132
  O      2.406126   -3.303373    0.910308
  H      2.511427   -3.209798    1.871923

 Total Charge           Charge          ....   -1
 Multiplicity           Mult            ....    1
 Number of Electrons    NEL             ....  286
 Basis Dimension        Dim             ....  602

ORBITAL ENERGIES
----------------

  NO   OCC          E(Eh)            E(eV)
   0   2.0000     -77.726385     -2115.0425
   1   2.0000     -19.459555      -529.5214
   2   2.0000     -19.448857      -529.2303
   3   2.0000     -19.442943      -529.0694
   4   2.0000     -19.427171      -528.6402
   5   2.0000     -19.422156      -528.5037
   6   2.0000     -19.407213      -528.0971
   7   2.0000     -19.404911      -528.0345
   8   2.0000     -19.402630      -527.9724
   9   2.0000     -19.402191      -527.9605
  10   2.0000     -19.399931      -527.8990
  11   2.0000     -19.391703      -527.6751
  12   2.0000     -19.388483      -527.5875
  13   2.0000     -19.282975      -524.7164
  14   2.0000     -19.279899      -524.6327
  15   2.0000     -14.636328      -398.2747
  16   2.0000     -14.635691      -398.2574
  17   2.0000     -14.620065      -397.8322
  18   2.0000     -14.620028      -397.8312
  19   2.0000     -10.528268      -286.4887
  20   2.0000     -10.526690      -286.4458
  21   2.0000     -10.490724      -285.4671
  22   2.0000     -10.487052      -285.3672
  23   2.0000     -10.476769      -285.0874
  24   2.0000     -10.469530      -284.8904
  25   2.0000     -10.439842      -284.0825
  26   2.0000     -10.439531      -284.0741
  27   2.0000     -10.434478      -283.9366
  28   2.0000     -10.432985      -283.8960
  29   2.0000     -10.430960      -283.8409
  30   2.0000     -10.419169      -283.5200
  31   2.0000     -10.414110      -283.3823
  32   2.0000     -10.411540      -283.3124
  33   2.0000     -10.409611      -283.2599
  34   2.0000     -10.405611      -283.1511
  35   2.0000     -10.376600      -282.3616
  36   2.0000     -10.369123      -282.1582
  37   2.0000      -6.770647      -184.2387
  38   2.0000      -4.865835      -132.4061
  39   2.0000      -4.864568      -132.3716
  40   2.0000      -4.861929      -132.2998
  41   2.0000      -1.120184       -30.4818
  42   2.0000      -1.115114       -30.3438
  43   2.0000      -1.104760       -30.0621
  44   2.0000      -1.095604       -29.8129
  45   2.0000      -1.086743       -29.5718
  46   2.0000      -1.065537       -28.9947
  47   2.0000      -1.063357       -28.9354
  48   2.0000      -1.061504       -28.8850
  49   2.0000      -1.053200       -28.6590
  50   2.0000      -1.049738       -28.5648
  51   2.0000      -1.039007       -28.2728
  52   2.0000      -1.012365       -27.5479
  53   2.0000      -1.001626       -27.2556
  54   2.0000      -1.000343       -27.2207
  55   2.0000      -0.952792       -25.9268
  56   2.0000      -0.952300       -25.9134
  57   2.0000      -0.914508       -24.8850
  58   2.0000      -0.870048       -23.6752
  59   2.0000      -0.815928       -22.2025
  60   2.0000      -0.814048       -22.1514
  61   2.0000      -0.802740       -21.8437
  62   2.0000      -0.786815       -21.4103
  63   2.0000      -0.773916       -21.0593
  64   2.0000      -0.766210       -20.8496
  65   2.0000      -0.697236       -18.9728
  66   2.0000      -0.693227       -18.8637
  67   2.0000      -0.691269       -18.8104
  68   2.0000      -0.689925       -18.7738
  69   2.0000      -0.650045       -17.6886
  70   2.0000      -0.645739       -17.5715
  71   2.0000      -0.619177       -16.8487
  72   2.0000      -0.605501       -16.4765
  73   2.0000      -0.595113       -16.1938
  74   2.0000      -0.586302       -15.9541
  75   2.0000      -0.566959       -15.4277
  76   2.0000      -0.559821       -15.2335
  77   2.0000      -0.549917       -14.9640
  78   2.0000      -0.548491       -14.9252
  79   2.0000      -0.537486       -14.6258
  80   2.0000      -0.531819       -14.4715
  81   2.0000      -0.515386       -14.0244
  82   2.0000      -0.511358       -13.9148
  83   2.0000      -0.505528       -13.7561
  84   2.0000      -0.503143       -13.6912
  85   2.0000      -0.494349       -13.4519
  86   2.0000      -0.487058       -13.2535
  87   2.0000      -0.479935       -13.0597
  88   2.0000      -0.472309       -12.8522
  89   2.0000      -0.468388       -12.7455
  90   2.0000      -0.465220       -12.6593
  91   2.0000      -0.459612       -12.5067
  92   2.0000      -0.452612       -12.3162
  93   2.0000      -0.447726       -12.1833
  94   2.0000      -0.441925       -12.0254
  95   2.0000      -0.436947       -11.8899
  96   2.0000      -0.433544       -11.7973
  97   2.0000      -0.428344       -11.6558
  98   2.0000      -0.418425       -11.3859
  99   2.0000      -0.413508       -11.2521
 100   2.0000      -0.408649       -11.1199
 101   2.0000      -0.405181       -11.0255
 102   2.0000      -0.397466       -10.8156
 103   2.0000      -0.396087       -10.7781
 104   2.0000      -0.395203       -10.7540
 105   2.0000      -0.393587       -10.7100
 106   2.0000      -0.389921       -10.6103
 107   2.0000      -0.387284       -10.5385
 108   2.0000      -0.381766       -10.3884
 109   2.0000      -0.372938       -10.1482
 110   2.0000      -0.370441       -10.0802
 111   2.0000      -0.368005       -10.0139
 112   2.0000      -0.353883        -9.6296
 113   2.0000      -0.349175        -9.5015
 114   2.0000      -0.346682        -9.4337
 115   2.0000      -0.339365        -9.2346
 116   2.0000      -0.333777        -9.0825
 117   2.0000      -0.332081        -9.0364
 118   2.0000      -0.329086        -8.9549
 119   2.0000      -0.319924        -8.7056
 120   2.0000      -0.303529        -8.2595
 121   2.0000      -0.291701        -7.9376
 122   2.0000      -0.284289        -7.7359
 123   2.0000      -0.280979        -7.6458
 124   2.0000      -0.279232        -7.5983
 125   2.0000      -0.276281        -7.5180
 126   2.0000      -0.268051        -7.2940
 127   2.0000      -0.265301        -7.2192
 128   2.0000      -0.263636        -7.1739
 129   2.0000      -0.259788        -7.0692
 130   2.0000      -0.259052        -7.0492
 131   2.0000      -0.258008        -7.0208
 132   2.0000      -0.256560        -6.9814
 133   2.0000      -0.249871        -6.7993
 134   2.0000      -0.243268        -6.6197
 135   2.0000      -0.241201        -6.5634
 136   2.0000      -0.236203        -6.4274
 137   2.0000      -0.209900        -5.7117
 138   2.0000      -0.204766        -5.5720
 139   2.0000      -0.201941        -5.4951
 140   2.0000      -0.200533        -5.4568
 141   2.0000      -0.173211        -4.7133
 142   2.0000      -0.157227        -4.2784
 143   0.0000       0.065211         1.7745
 144   0.0000       0.069353         1.8872
 145   0.0000       0.115682         3.1479
 146   0.0000       0.116067         3.1583
 147   0.0000       0.152179         4.1410

MULLIKEN ATOMIC CHARGES
-----------------------
   0 H :    0.425163
   1 O :   -0.637399
   2 C :   -0.196295
   3 H :    0.184952
   4 H :    0.255129
   5 C :    0.045176
   6 H :    0.225232
   7 O :   -0.507671
   8 C :    0.212889
   9 H :    0.266361
  10 N :   -0.577872
  11 C :    0.084266
  12 H :    0.325031
  13 C :   -0.477779
  14 H :    0.245473
  15 C :    0.558931
  16 O :   -0.434898
  17 N :   -0.732017
  18 H :    0.387318
  19 C :    0.717195
  20 O :   -0.446971
  21 C :   -0.032742
  22 H :    0.283428
  23 C :   -0.024867
  24 H :    0.250864
  25 O :   -0.657203
  26 H :    0.434573
  27 O :   -0.656708
  28 P :    1.368041
  29 O :   -0.714754
  30 O :   -0.743283
  31 O :   -0.609328
  32 C :   -0.165675
  33 H :    0.246967
  34 H :    0.201429
  35 C :    0.033297
  36 H :    0.226337
  37 O :   -0.490750
  38 C :    0.216125
  39 H :    0.273455
  40 N :   -0.578940
  41 C :    0.065037
  42 H :    0.354147
  43 C :   -0.479547
  44 H :    0.279989
  45 C :    0.554243
  46 O :   -0.433234
  47 N :   -0.731274
  48 H :    0.384687
  49 C :    0.711718
  50 O :   -0.454468
  51 C :   -0.072883
  52 H :    0.265837
  53 C :   -0.029746
  54 H :    0.232425
  55 O :   -0.640387
  56 H :    0.422769
  57 O :   -0.639541
  58 H :    0.427748
Sum of atomic charges:   -1.0000000

LOEWDIN ATOMIC CHARGES
----------------------
   0 H :    0.315010
   1 O :   -0.415730
   2 C :   -0.099691
   3 H :    0.103226
   4 H :    0.141234
   5 C :   -0.016208
   6 H :    0.126291
   7 O :   -0.239016
   8 C :    0.088311
   9 H :    0.139456
  10 N :   -0.093962
  11 C :    0.002045
  12 H :    0.172362
  13 C :   -0.261368
  14 H :    0.155996
  15 C :    0.125937
  16 O :   -0.287517
  17 N :   -0.200136
  18 H :    0.281818
  19 C :    0.157807
  20 O :   -0.285140
  21 C :   -0.034961
  22 H :    0.152548
  23 C :   -0.030793
  24 H :    0.128755
  25 O :   -0.406113
  26 H :    0.313427
  27 O :   -0.359672
  28 P :    0.807829
  29 O :   -0.602041
  30 O :   -0.609577
  31 O :   -0.352037
  32 C :   -0.086756
  33 H :    0.137563
  34 H :    0.116958
  35 C :   -0.014059
  36 H :    0.127151
  37 O :   -0.226489
  38 C :    0.088406
  39 H :    0.143363
  40 N :   -0.097192
  41 C :    0.001064
  42 H :    0.182073
  43 C :   -0.249124
  44 H :    0.170945
  45 C :    0.123991
  46 O :   -0.285793
  47 N :   -0.201399
  48 H :    0.280231
  49 C :    0.154171
  50 O :   -0.292588
  51 C :   -0.044621
  52 H :    0.138159
  53 C :   -0.042502
  54 H :    0.118477
  55 O :   -0.399647
  56 H :    0.310564
  57 O :   -0.392154
  58 H :    0.321117

  Mayer bond orders larger than 0.100000
B(  0-H ,  1-O ) :   0.7867 B(  1-O ,  2-C ) :   0.9910 B(  2-C ,  3-H ) :   0.9017
B(  2-C ,  4-H ) :   0.8686 B(  2-C ,  5-C ) :   0.9799 B(  5-C ,  6-H ) :   0.8937
B(  5-C ,  7-O ) :   0.8954 B(  5-C , 21-C ) :   0.9073 B(  7-O ,  8-C ) :   1.0119
B(  8-C ,  9-H ) :   0.8848 B(  8-C , 10-N ) :   0.8266 B(  8-C , 23-C ) :   0.9213
B( 10-N , 11-C ) :   1.0984 B( 10-N , 19-C ) :   1.0340 B( 11-C , 12-H ) :   0.8349
B( 11-C , 13-C ) :   1.5782 B( 13-C , 14-H ) :   0.9189 B( 13-C , 15-C ) :   1.0856
B( 15-C , 16-O ) :   1.9967 B( 15-C , 17-N ) :   0.9822 B( 17-N , 18-H ) :   0.8049
B( 17-N , 19-C ) :   1.0660 B( 19-C , 20-O ) :   1.9561 B( 21-C , 22-H ) :   0.8423
B( 21-C , 23-C ) :   0.9474 B( 21-C , 27-O ) :   0.9309 B( 23-C , 24-H ) :   0.8970
B( 23-C , 25-O ) :   0.9992 B( 25-O , 26-H ) :   0.7409 B( 27-O , 28-P ) :   0.7893
B( 28-P , 29-O ) :   1.7869 B( 28-P , 30-O ) :   1.7035 B( 28-P , 31-O ) :   0.8604
B( 31-O , 32-C ) :   0.9346 B( 32-C , 33-H ) :   0.8849 B( 32-C , 34-H ) :   0.8882
B( 32-C , 35-C ) :   0.9728 B( 35-C , 36-H ) :   0.8892 B( 35-C , 37-O ) :   0.9126
B( 35-C , 51-C ) :   0.9197 B( 37-O , 38-C ) :   1.0172 B( 38-C , 39-H ) :   0.8810
B( 38-C , 40-N ) :   0.8384 B( 38-C , 53-C ) :   0.9235 B( 40-N , 41-C ) :   1.0746
B( 40-N , 49-C ) :   1.0394 B( 41-C , 42-H ) :   0.8205 B( 41-C , 43-C ) :   1.5960
B( 43-C , 44-H ) :   0.9038 B( 43-C , 45-C ) :   1.0812 B( 45-C , 46-O ) :   1.9958
B( 45-C , 47-N ) :   0.9748 B( 47-N , 48-H ) :   0.8063 B( 47-N , 49-C ) :   1.0730
B( 49-C , 50-O ) :   1.9480 B( 51-C , 52-H ) :   0.8645 B( 51-C , 53-C ) :   0.9335
B( 51-C , 57-O ) :   0.9850 B( 53-C , 54-H ) :   0.9012 B( 53-C , 55-O ) :   1.0068
B( 55-O , 56-H ) :   0.7493 B( 57-O , 58-H ) :   0.7836

Dispersion correction           -0.045937001
FINAL SINGLE POINT ENERGY     -2308.307506109420

DIPOLE MOMENT
-------------
                                X             Y             Z
Electronic contribution:      2.00463       2.90787      -5.88120
Nuclear contribution   :     -2.02349      -4.70900       8.37413
                        -----------------------------------------
Total Dipole Moment    :     -0.01886      -1.80114       2.49292
                        -----------------------------------------
Magnitude (a.u.)       :      3.07557
Magnitude (Debye)      :      7.81747

Rotational constants in cm-1:     0.007048     0.001328     0.001222
Rotational constants in MHz :   211.305751    39.825018    36.634644

                             ****ORCA TERMINATED NORMALLY****
TOTAL RUN TIME: 0 days 0 hours 13 minutes 46 seconds 579 msec
