                         Program Version 5.0.3 -  RELEASE  -
|  1> ! PBEh-3c def2/J TightSCF DefGrid3
|  2>
|  3> %maxcore 60000
|  4>
|  5> %pal
|  6> nprocs 4
|  7> end
|  8>
|  9> *xyzfile 0 1 N3H5_1.xyz
| 10>
| 11>                          ****END OF INPUT****

CARTESIAN COORDINATES (ANGSTROEM)
---------------------------------
  N     -0.779072    0.109948    0.000000
  N     -0.031500    0.016985    1.222724
  N     -0.031500    0.016985   -1.222724
  H      0.738076   -0.659534   -1.130849
  H      0.389038    0.930516   -1.388969
  H      0.738076   -0.659534    1.130849
  H      0.389038    0.930516    1.388969
  H     -1.412156   -0.685882    0.000000

 Total Charge           Charge          ....    0
 Multiplicity           Mult            ....    1
 Number of Electrons    NEL             ....   26
 Basis Dimension        Dim             ....   55

ORBITAL ENERGIES
----------------

  NO   OCC          E(Eh)            E(eV)
   0   2.0000     -14.669504      -399.1775
   1   2.0000     -14.640910      -398.3994
   2   2.0000     -14.640812      -398.3967
   3   2.0000      -1.089172       -29.6379
   4   2.0000      -0.940568       -25.5942
   5   2.0000      -0.791106       -21.5271
   6   2.0000      -0.584192       -15.8967
   7   2.0000      -0.552445       -15.0328
   8   2.0000      -0.519211       -14.1284
   9   2.0000      -0.512369       -13.9423
  10   2.0000      -0.343889        -9.3577
  11   2.0000      -0.299519        -8.1503
  12   2.0000      -0.291094        -7.9211
  13   0.0000       0.117707         3.2030
  14   0.0000       0.168551         4.5865
  15   0.0000       0.171223         4.6592
  16   0.0000       0.188744         5.1360
  17   0.0000       0.227350         6.1865

MULLIKEN ATOMIC CHARGES
-----------------------
   0 N :   -0.336633
   1 N :   -0.619659
   2 N :   -0.619659
   3 H :    0.290305
   4 H :    0.324962
   5 H :    0.290305
   6 H :    0.324962
   7 H :    0.345417
Sum of atomic charges:   -0.0000000

LOEWDIN ATOMIC CHARGES
----------------------
   0 N :   -0.224294
   1 N :   -0.410002
   2 N :   -0.410002
   3 H :    0.191793
   4 H :    0.217217
   5 H :    0.191793
   6 H :    0.217217
   7 H :    0.226278

  Mayer bond orders larger than 0.100000
B(  0-N ,  1-N ) :   1.0231 B(  0-N ,  2-N ) :   1.0231 B(  0-N ,  7-H ) :   0.8386
B(  1-N ,  5-H ) :   0.8552 B(  1-N ,  6-H ) :   0.8576 B(  2-N ,  3-H ) :   0.8552
B(  2-N ,  4-H ) :   0.8576

Dispersion correction           -0.002220838
FINAL SINGLE POINT ENERGY      -166.820264094441

DIPOLE MOMENT
-------------
                                X             Y             Z
Electronic contribution:     -0.83369       0.16379       0.00000
Nuclear contribution   :      1.88029      -0.32136       0.00000
                        -----------------------------------------
Total Dipole Moment    :      1.04660      -0.15756       0.00000
                        -----------------------------------------
Magnitude (a.u.)       :      1.05839
Magnitude (Debye)      :      2.69022

Rotational constants in cm-1:     1.338266     0.327021     0.291921
Rotational constants in MHz : 40120.209156  9803.833947  8751.570735

                             ****ORCA TERMINATED NORMALLY****
TOTAL RUN TIME: 0 days 0 hours 1 minutes 10 seconds 998 msec
