                         Program Version 5.0.3 -  RELEASE  -
|  1> ! PBEh-3c def2/J TightSCF DefGrid3
|  2>
|  3> %maxcore 60000
|  4>
|  5> %pal
|  6> nprocs 4
|  7> end
|  8>
|  9> *xyzfile 0 1 21B.xyz
| 10>
| 11>                          ****END OF INPUT****

CARTESIAN COORDINATES (ANGSTROEM)
---------------------------------
  C     -0.459160   -0.347919   -0.181568
  O     -1.043581   -1.321940   -0.661299
  N     -1.103247    0.736824    0.286278
  H     -2.123352    0.781262    0.251977
  H     -0.585223    1.504785    0.666399
  C      1.047839   -0.323635   -0.096343
  H      1.439710    0.576014    0.370841
  H      1.451396   -0.411180   -1.102123
  H      1.375618   -1.194210    0.465837

 Total Charge           Charge          ....    0
 Multiplicity           Mult            ....    1
 Number of Electrons    NEL             ....   32
 Basis Dimension        Dim             ....   70

ORBITAL ENERGIES
----------------

  NO   OCC          E(Eh)            E(eV)
   0   2.0000     -19.444105      -529.1010
   1   2.0000     -14.660181      -398.9238
   2   2.0000     -10.546363      -286.9811
   3   2.0000     -10.440583      -284.1027
   4   2.0000      -1.127922       -30.6923
   5   2.0000      -1.004960       -27.3464
   6   2.0000      -0.826237       -22.4830
   7   2.0000      -0.664082       -18.0706
   8   2.0000      -0.608910       -16.5693
   9   2.0000      -0.533169       -14.5083
  10   2.0000      -0.505575       -13.7574
  11   2.0000      -0.459712       -12.5094
  12   2.0000      -0.452807       -12.3215
  13   2.0000      -0.419373       -11.4117
  14   2.0000      -0.315225        -8.5777
  15   2.0000      -0.299616        -8.1530
  16   0.0000       0.070025         1.9055
  17   0.0000       0.117656         3.2016
  18   0.0000       0.162293         4.4162
  19   0.0000       0.187013         5.0889
  20   0.0000       0.221599         6.0300

MULLIKEN ATOMIC CHARGES
-----------------------
   0 C :    0.502012
   1 O :   -0.430098
   2 N :   -0.788507
   3 H :    0.374993
   4 H :    0.361731
   5 C :   -0.745829
   6 H :    0.203054
   7 H :    0.260855
   8 H :    0.261788
Sum of atomic charges:   -0.0000000

LOEWDIN ATOMIC CHARGES
----------------------
   0 C :    0.098301
   1 O :   -0.294050
   2 N :   -0.365123
   3 H :    0.263458
   4 H :    0.251705
   5 C :   -0.393111
   6 H :    0.122283
   7 H :    0.158196
   8 H :    0.158342

  Mayer bond orders larger than 0.100000
B(  0-C ,  1-O ) :   2.0206 B(  0-C ,  2-N ) :   1.1558 B(  0-C ,  5-C ) :   0.9253
B(  2-N ,  3-H ) :   0.8221 B(  2-N ,  4-H ) :   0.8304 B(  5-C ,  6-H ) :   0.9218
B(  5-C ,  7-H ) :   0.9095 B(  5-C ,  8-H ) :   0.9100

Dispersion correction           -0.002888066
FINAL SINGLE POINT ENERGY      -208.766556173894

DIPOLE MOMENT
-------------
                                X             Y             Z
Electronic contribution:     -2.88694      -1.18547      -0.68723
Nuclear contribution   :      3.31529       2.56950       1.34213
                        -----------------------------------------
Total Dipole Moment    :      0.42835       1.38402       0.65491
                        -----------------------------------------
Magnitude (a.u.)       :      1.58994
Magnitude (Debye)      :      4.04130

Rotational constants in cm-1:     0.361426     0.312719     0.172993
Rotational constants in MHz : 10835.264902  9375.065399  5186.207380

                             ****ORCA TERMINATED NORMALLY****
TOTAL RUN TIME: 0 days 0 hours 1 minutes 19 seconds 295 msec
