                         Program Version 5.0.3 -  RELEASE  -
|  1> ! PBEh-3c def2/J TightSCF DefGrid3
|  2>
|  3> %maxcore 60000
|  4>
|  5> %pal
|  6> nprocs 4
|  7> end
|  8>
|  9> *xyzfile 0 1 C13.xyz
| 10>
| 11>                          ****END OF INPUT****

CARTESIAN COORDINATES (ANGSTROEM)
---------------------------------
  C      2.676853    0.772107    0.032171
  C      1.937355   -0.539737    0.323925
  C      0.615666   -0.687122   -0.444902
  C     -0.567074    0.166129    0.046448
  C     -1.773450   -0.749422   -0.195785
  O     -2.856839   -0.384524    0.653921
  C     -1.176737   -2.127233    0.115375
  O      1.990169    1.925283    0.499241
  O     -0.573731    1.397733   -0.664239
  O      2.828277   -1.581233   -0.064107
  O      0.182926   -2.064497   -0.328824
  C     -1.513378    2.364864   -0.177979
  H      2.883662    0.832783   -1.046486
  H      3.637567    0.740216    0.552049
  H      1.725218   -0.599878    1.403791
  H      0.793885   -0.477607   -1.509042
  H     -0.495119    0.362750    1.127498
  H     -2.065054   -0.676689   -1.253074
  H     -3.638533   -0.902187    0.420639
  H     -1.670190   -2.950765   -0.411077
  H     -1.227664   -2.313645    1.197576
  H      1.189545    2.035629   -0.041062
  H      2.325915   -2.409427   -0.049173
  H     -2.542760    2.017023   -0.302966
  H     -1.335219    2.580486    0.883724
  H     -1.351295    3.268962   -0.767644

 Total Charge           Charge          ....    0
 Multiplicity           Mult            ....    1
 Number of Electrons    NEL             ....   96
 Basis Dimension        Dim             ....  208

ORBITAL ENERGIES
----------------

  NO   OCC          E(Eh)            E(eV)
   0   2.0000     -19.524709      -531.2943
   1   2.0000     -19.515328      -531.0391
   2   2.0000     -19.514011      -531.0032
   3   2.0000     -19.480409      -530.0889
   4   2.0000     -19.470188      -529.8107
   5   2.0000     -10.512543      -286.0609
   6   2.0000     -10.511336      -286.0280
   7   2.0000     -10.501283      -285.7544
   8   2.0000     -10.501100      -285.7495
   9   2.0000     -10.489885      -285.4443
  10   2.0000     -10.485663      -285.3294
  11   2.0000     -10.471405      -284.9414
  12   2.0000      -1.173400       -31.9298
  13   2.0000      -1.153030       -31.3756
  14   2.0000      -1.145115       -31.1602
  15   2.0000      -1.117082       -30.3973
  16   2.0000      -1.102266       -29.9942
  17   2.0000      -0.884216       -24.0607
  18   2.0000      -0.856689       -23.3117
  19   2.0000      -0.801738       -21.8164
  20   2.0000      -0.767339       -20.8804
  21   2.0000      -0.708829       -19.2882
  22   2.0000      -0.679409       -18.4877
  23   2.0000      -0.659351       -17.9419
  24   2.0000      -0.612176       -16.6582
  25   2.0000      -0.595761       -16.2115
  26   2.0000      -0.583220       -15.8702
  27   2.0000      -0.555648       -15.1199
  28   2.0000      -0.550996       -14.9934
  29   2.0000      -0.532746       -14.4968
  30   2.0000      -0.525981       -14.3127
  31   2.0000      -0.500865       -13.6292
  32   2.0000      -0.495913       -13.4945
  33   2.0000      -0.480382       -13.0719
  34   2.0000      -0.478030       -13.0078
  35   2.0000      -0.474727       -12.9180
  36   2.0000      -0.455466       -12.3939
  37   2.0000      -0.443123       -12.0580
  38   2.0000      -0.417392       -11.3578
  39   2.0000      -0.412696       -11.2300
  40   2.0000      -0.401177       -10.9166
  41   2.0000      -0.384637       -10.4665
  42   2.0000      -0.365954        -9.9581
  43   2.0000      -0.353301        -9.6138
  44   2.0000      -0.339276        -9.2322
  45   2.0000      -0.325845        -8.8667
  46   2.0000      -0.312111        -8.4930
  47   2.0000      -0.310045        -8.4368
  48   0.0000       0.078727         2.1423
  49   0.0000       0.107197         2.9170
  50   0.0000       0.135251         3.6804
  51   0.0000       0.145538         3.9603
  52   0.0000       0.162626         4.4253

MULLIKEN ATOMIC CHARGES
-----------------------
   0 C :   -0.175954
   1 C :    0.022312
   2 C :    0.021891
   3 C :   -0.009489
   4 C :   -0.027179
   5 O :   -0.628746
   6 C :   -0.157026
   7 O :   -0.653465
   8 O :   -0.502391
   9 O :   -0.643315
  10 O :   -0.504107
  11 C :   -0.390525
  12 H :    0.186328
  13 H :    0.231060
  14 H :    0.187230
  15 H :    0.226498
  16 H :    0.225687
  17 H :    0.216592
  18 H :    0.422154
  19 H :    0.211885
  20 H :    0.208203
  21 H :    0.439952
  22 H :    0.430085
  23 H :    0.227182
  24 H :    0.208891
  25 H :    0.226246
Sum of atomic charges:    0.0000000

LOEWDIN ATOMIC CHARGES
----------------------
   0 C :   -0.094761
   1 C :   -0.044595
   2 C :   -0.019905
   3 C :   -0.026230
   4 C :   -0.044970
   5 O :   -0.394939
   6 C :   -0.088611
   7 O :   -0.424019
   8 O :   -0.257552
   9 O :   -0.398863
  10 O :   -0.266832
  11 C :   -0.185998
  12 H :    0.104423
  13 H :    0.130207
  14 H :    0.104620
  15 H :    0.127064
  16 H :    0.126210
  17 H :    0.117628
  18 H :    0.316196
  19 H :    0.121235
  20 H :    0.115886
  21 H :    0.305448
  22 H :    0.314982
  23 H :    0.121655
  24 H :    0.115183
  25 H :    0.126537

  Mayer bond orders larger than 0.100000
B(  0-C ,  1-C ) :   0.9394 B(  0-C ,  7-O ) :   1.0434 B(  0-C , 12-H ) :   0.9021
B(  0-C , 13-H ) :   0.9098 B(  1-C ,  2-C ) :   0.9560 B(  1-C ,  9-O ) :   1.0041
B(  1-C , 14-H ) :   0.8910 B(  2-C ,  3-C ) :   0.9329 B(  2-C , 10-O ) :   0.9316
B(  2-C , 15-H ) :   0.8846 B(  3-C ,  4-C ) :   0.9524 B(  3-C ,  8-O ) :   0.9280
B(  3-C , 16-H ) :   0.8748 B(  4-C ,  5-O ) :   1.0182 B(  4-C ,  6-C ) :   0.9378
B(  4-C , 17-H ) :   0.8828 B(  5-O , 18-H ) :   0.7859 B(  6-C , 10-O ) :   0.9768
B(  6-C , 19-H ) :   0.9134 B(  6-C , 20-H ) :   0.8918 B(  7-O , 21-H ) :   0.7216
B(  8-O , 11-C ) :   0.9269 B(  9-O , 22-H ) :   0.7634 B( 11-C , 23-H ) :   0.9059
B( 11-C , 24-H ) :   0.9122 B( 11-C , 25-H ) :   0.9254

Dispersion correction           -0.014623359
FINAL SINGLE POINT ENERGY      -649.845457961797

DIPOLE MOMENT
-------------
                                X             Y             Z
Electronic contribution:      1.52333      -3.33881      -0.61073
Nuclear contribution   :     -3.54544       2.84274       0.33214
                        -----------------------------------------
Total Dipole Moment    :     -2.02211      -0.49607      -0.27859
                        -----------------------------------------
Magnitude (a.u.)       :      2.10062
Magnitude (Debye)      :      5.33936

Rotational constants in cm-1:     0.039282     0.026085     0.016806
Rotational constants in MHz :  1177.630211   782.018276   503.821299

                             ****ORCA TERMINATED NORMALLY****
TOTAL RUN TIME: 0 days 0 hours 2 minutes 54 seconds 833 msec
