                         Program Version 5.0.3 -  RELEASE  -
|  1> ! PBEh-3c def2/J TightSCF DefGrid3
|  2>
|  3> %maxcore 60000
|  4>
|  5> %pal
|  6> nprocs 4
|  7> end
|  8>
|  9> *xyzfile 0 2 RKT12.xyz
| 10>
| 11>                          ****END OF INPUT****

CARTESIAN COORDINATES (ANGSTROEM)
---------------------------------
  P      0.826230    0.000333   -0.422747
  H      0.855411    1.034914    0.540668
  H      0.871462   -1.024814    0.550125
  H     -0.657615   -0.010707   -0.462124
  H     -1.895488    0.000274   -0.205922

 Total Charge           Charge          ....    0
 Multiplicity           Mult            ....    2
 Number of Electrons    NEL             ....   19
 Basis Dimension        Dim             ....   26

ORBITAL ENERGIES
----------------
                 SPIN UP ORBITALS
  NO   OCC          E(Eh)            E(eV)
   0   1.0000     -77.735236     -2115.2833
   1   1.0000      -6.816067      -185.4746
   2   1.0000      -4.908433      -133.5652
   3   1.0000      -4.905531      -133.4863
   4   1.0000      -4.903977      -133.4440
   5   1.0000      -0.730008       -19.8645
   6   1.0000      -0.488198       -13.2845
   7   1.0000      -0.442671       -12.0457
   8   1.0000      -0.348164        -9.4740
   9   1.0000      -0.286417        -7.7938
  10   0.0000       0.067350         1.8327
  11   0.0000       0.078247         2.1292
  12   0.0000       0.182324         4.9613
  13   0.0000       0.370754        10.0887
  14   0.0000       0.507049        13.7975

                 SPIN DOWN ORBITALS
  NO   OCC          E(Eh)            E(eV)
   0   1.0000     -77.733319     -2115.2311
   1   1.0000      -6.814022      -185.4190
   2   1.0000      -4.904308      -133.4530
   3   1.0000      -4.903376      -133.4277
   4   1.0000      -4.900558      -133.3510
   5   1.0000      -0.715560       -19.4714
   6   1.0000      -0.450432       -12.2569
   7   1.0000      -0.440492       -11.9864
   8   1.0000      -0.325038        -8.8447
   9   0.0000      -0.066968        -1.8223
  10   0.0000       0.068891         1.8746
  11   0.0000       0.100395         2.7319
  12   0.0000       0.201700         5.4885
  13   0.0000       0.377778        10.2799

MULLIKEN ATOMIC CHARGES AND SPIN POPULATIONS
--------------------------------------------
   0 P :   -0.182214    0.337129
   1 H :    0.093999   -0.010457
   2 H :    0.093920   -0.010450
   3 H :    0.001058   -0.129323
   4 H :   -0.006764    0.813101
Sum of atomic charges         :   -0.0000000

LOEWDIN ATOMIC CHARGES AND SPIN POPULATIONS
-------------------------------------------
   0 P :   -0.073165    0.303034
   1 H :    0.034884   -0.006032
   2 H :    0.034917   -0.006025
   3 H :    0.028292   -0.066040
   4 H :   -0.024928    0.775063

  Mayer bond orders larger than 0.100000
B(  0-P ,  1-H ) :   0.9633 B(  0-P ,  2-H ) :   0.9633 B(  0-P ,  3-H ) :   0.7723
B(  0-P ,  4-H ) :   0.1144 B(  3-H ,  4-H ) :   0.1909

Dispersion correction           -0.001151438
FINAL SINGLE POINT ENERGY      -343.227649855814

DIPOLE MOMENT
-------------
                                X             Y             Z
Electronic contribution:      3.47498       0.00200      -1.46985
Nuclear contribution   :     -3.53562      -0.00143       1.80903
                        -----------------------------------------
Total Dipole Moment    :     -0.06064       0.00058       0.33918
                        -----------------------------------------
Magnitude (a.u.)       :      0.34456
Magnitude (Debye)      :      0.87579

Rotational constants in cm-1:     4.277143     1.532110     1.486786
Rotational constants in MHz : 128225.513186 45931.499649 44572.723231

                             ****ORCA TERMINATED NORMALLY****
TOTAL RUN TIME: 0 days 0 hours 2 minutes 2 seconds 655 msec
