                         Program Version 5.0.3 -  RELEASE  -
|  1> ! PBEh-3c def2/J TightSCF DefGrid3
|  2>
|  3> %maxcore 60000
|  4>
|  5> %pal
|  6> nprocs 4
|  7> end
|  8>
|  9> *xyzfile 0 1 MeI_PCH.xyz
| 10>
| 11>                          ****END OF INPUT****

CARTESIAN COORDINATES (ANGSTROEM)
---------------------------------
  C      0.000000    0.000000    3.016180
  I      0.000000    0.000000    0.887253
  H      0.000000    1.030247    3.352584
  H     -0.892220   -0.515124    3.352584
  H      0.892220   -0.515124    3.352584
  P      0.000000    0.000000   -2.883216
  C      0.000000    0.000000   -4.408482
  H      0.000000    0.000000   -5.480125

 Total Charge           Charge          ....    0
 Multiplicity           Mult            ....    1
 Number of Electrons    NEL             ....   56
 Basis Dimension        Dim             ....   82

ORBITAL ENERGIES
----------------

  NO   OCC          E(Eh)            E(eV)
   0   2.0000     -77.744254     -2115.5287
   1   2.0000     -10.486022      -285.3392
   2   2.0000     -10.483778      -285.2781
   3   2.0000      -7.087539      -192.8617
   4   2.0000      -6.822134      -185.6397
   5   2.0000      -5.070772      -137.9827
   6   2.0000      -5.054479      -137.5394
   7   2.0000      -5.054478      -137.5393
   8   2.0000      -4.911537      -133.6497
   9   2.0000      -4.911537      -133.6497
  10   2.0000      -4.911439      -133.6471
  11   2.0000      -2.024698       -55.0948
  12   2.0000      -2.019521       -54.9539
  13   2.0000      -2.019520       -54.9539
  14   2.0000      -2.005316       -54.5674
  15   2.0000      -2.005314       -54.5674
  16   2.0000      -0.841005       -22.8849
  17   2.0000      -0.802865       -21.8471
  18   2.0000      -0.714062       -19.4306
  19   2.0000      -0.607493       -16.5307
  20   2.0000      -0.500426       -13.6173
  21   2.0000      -0.500426       -13.6173
  22   2.0000      -0.423676       -11.5288
  23   2.0000      -0.392469       -10.6796
  24   2.0000      -0.328624        -8.9423
  25   2.0000      -0.328624        -8.9423
  26   2.0000      -0.298089        -8.1114
  27   2.0000      -0.298089        -8.1114
  28   0.0000      -0.020508        -0.5581
  29   0.0000      -0.020508        -0.5581
  30   0.0000      -0.002204        -0.0600
  31   0.0000       0.144690         3.9372
  32   0.0000       0.160912         4.3786

MULLIKEN ATOMIC CHARGES
-----------------------
   0 C :   -0.814021
   1 I :    0.000879
   2 H :    0.270180
   3 H :    0.270179
   4 H :    0.270179
   5 P :    0.161297
   6 C :   -0.411039
   7 H :    0.252346
Sum of atomic charges:    0.0000000

LOEWDIN ATOMIC CHARGES
----------------------
   0 C :   -0.487117
   1 I :    0.036359
   2 H :    0.147683
   3 H :    0.147683
   4 H :    0.147683
   5 P :    0.236742
   6 C :   -0.381864
   7 H :    0.152833

  Mayer bond orders larger than 0.100000
B(  0-C ,  1-I ) :   1.0133 B(  0-C ,  2-H ) :   0.8953 B(  0-C ,  3-H ) :   0.8953
B(  0-C ,  4-H ) :   0.8953 B(  5-P ,  6-C ) :   2.8961 B(  6-C ,  7-H ) :   0.8934

Dispersion correction           -0.002630428
FINAL SINGLE POINT ENERGY      -717.055486230458

DIPOLE MOMENT
-------------
                                X             Y             Z
Electronic contribution:     -0.00000       0.00000      53.73224
Nuclear contribution   :      0.00000      -0.00000     -53.30939
                        -----------------------------------------
Total Dipole Moment    :     -0.00000       0.00000       0.42284
                        -----------------------------------------
Magnitude (a.u.)       :      0.42284
Magnitude (Debye)      :      1.07478

Rotational constants in cm-1:     5.252093     0.022028     0.022028
Rotational constants in MHz : 157453.773159   660.389259   660.389258

                             ****ORCA TERMINATED NORMALLY****
TOTAL RUN TIME: 0 days 0 hours 1 minutes 43 seconds 313 msec
