                         Program Version 5.0.3 -  RELEASE  -
|  1> ! PBEh-3c def2/J TightSCF DefGrid3
|  2>
|  3> %maxcore 60000
|  4>
|  5> %pal
|  6> nprocs 4
|  7> end
|  8>
|  9> *xyzfile 0 1 hf_3_ts.xyz
| 10>
| 11>                          ****END OF INPUT****

CARTESIAN COORDINATES (ANGSTROEM)
---------------------------------
  H      0.000000    0.928503    0.000000
  H      0.804107   -0.464251    0.000000
  H     -0.804107   -0.464251    0.000000
  F      0.000000   -1.304172    0.000000
  F     -1.129446    0.652086    0.000000
  F      1.129446    0.652086    0.000000

 Total Charge           Charge          ....    0
 Multiplicity           Mult            ....    1
 Number of Electrons    NEL             ....   30
 Basis Dimension        Dim             ....   51

ORBITAL ENERGIES
----------------

  NO   OCC          E(Eh)            E(eV)
   0   2.0000     -25.110597      -683.2941
   1   2.0000     -25.110471      -683.2906
   2   2.0000     -25.110452      -683.2901
   3   2.0000      -1.376667       -37.4610
   4   2.0000      -1.306038       -35.5391
   5   2.0000      -1.306030       -35.5389
   6   2.0000      -0.664673       -18.0867
   7   2.0000      -0.658061       -17.9068
   8   2.0000      -0.658059       -17.9067
   9   2.0000      -0.530466       -14.4347
  10   2.0000      -0.497900       -13.5485
  11   2.0000      -0.497871       -13.5477
  12   2.0000      -0.497867       -13.5477
  13   2.0000      -0.488215       -13.2850
  14   2.0000      -0.488212       -13.2849
  15   0.0000       0.158581         4.3152
  16   0.0000       0.244444         6.6516
  17   0.0000       0.244445         6.6517
  18   0.0000       0.615641        16.7524
  19   0.0000       0.615643        16.7525

MULLIKEN ATOMIC CHARGES
-----------------------
   0 H :    0.556197
   1 H :    0.556209
   2 H :    0.556209
   3 F :   -0.556214
   4 F :   -0.556201
   5 F :   -0.556201
Sum of atomic charges:   -0.0000000

LOEWDIN ATOMIC CHARGES
----------------------
   0 H :    0.426459
   1 H :    0.426465
   2 H :    0.426465
   3 F :   -0.426468
   4 F :   -0.426460
   5 F :   -0.426460

  Mayer bond orders larger than 0.100000
B(  0-H ,  4-F ) :   0.3474 B(  0-H ,  5-F ) :   0.3474 B(  1-H ,  3-F ) :   0.3474
B(  1-H ,  5-F ) :   0.3474 B(  2-H ,  3-F ) :   0.3474 B(  2-H ,  4-F ) :   0.3474

Dispersion correction           -0.000992753
FINAL SINGLE POINT ENERGY      -300.742165098458

DIPOLE MOMENT
-------------
                                X             Y             Z
Electronic contribution:      0.00000       0.00001       0.00000
Nuclear contribution   :      0.00000       0.00000       0.00000
                        -----------------------------------------
Total Dipole Moment    :      0.00000       0.00001       0.00000
                        -----------------------------------------
Magnitude (a.u.)       :      0.00001
Magnitude (Debye)      :      0.00002

Rotational constants in cm-1:     0.338690     0.338690     0.169345
Rotational constants in MHz : 10153.678320 10153.676169  5076.838622

                             ****ORCA TERMINATED NORMALLY****
TOTAL RUN TIME: 0 days 0 hours 0 minutes 55 seconds 568 msec
