                         Program Version 5.0.3 -  RELEASE  -
|  1> ! PBEh-3c def2/J TightSCF DefGrid3
|  2>
|  3> %maxcore 60000
|  4>
|  5> %pal
|  6> nprocs 4
|  7> end
|  8>
|  9> *xyzfile 0 1 19.xyz
| 10>
| 11>                          ****END OF INPUT****

CARTESIAN COORDINATES (ANGSTROEM)
---------------------------------
  O     -2.867930    0.467977    0.001356
  H     -1.896676    0.502812   -0.000716
  C     -3.218209   -0.898047    0.001123
  H     -4.303670   -0.961534    0.004894
  H     -2.855162   -1.425866   -0.885499
  H     -2.848918   -1.427727    0.884057
  N      0.032058    0.396942   -0.001742
  C      0.728427    0.372506   -1.146462
  H      0.143948    0.395730   -2.057437
  C      2.118064    0.322763   -1.195147
  H      2.625416    0.305471   -2.148929
  C      2.828437    0.297051    0.000466
  H      3.908773    0.259286    0.001315
  C      2.116189    0.322072    1.195006
  H      2.621988    0.304248    2.149491
  C      0.726636    0.371822    1.144052
  H      0.140630    0.394496    2.054170

 Total Charge           Charge          ....    0
 Multiplicity           Mult            ....    1
 Number of Electrons    NEL             ....   60
 Basis Dimension        Dim             ....  138

ORBITAL ENERGIES
----------------

  NO   OCC          E(Eh)            E(eV)
   0   2.0000     -19.440303      -528.9975
   1   2.0000     -14.665303      -399.0632
   2   2.0000     -10.500593      -285.7357
   3   2.0000     -10.500570      -285.7350
   4   2.0000     -10.485779      -285.3325
   5   2.0000     -10.473740      -285.0049
   6   2.0000     -10.473727      -285.0046
   7   2.0000     -10.447397      -284.2881
   8   2.0000      -1.080794       -29.4099
   9   2.0000      -1.066109       -29.0103
  10   2.0000      -0.917972       -24.9793
  11   2.0000      -0.871605       -23.7176
  12   2.0000      -0.730906       -19.8890
  13   2.0000      -0.727137       -19.7864
  14   2.0000      -0.724974       -19.7275
  15   2.0000      -0.618167       -16.8212
  16   2.0000      -0.564629       -15.3643
  17   2.0000      -0.551849       -15.0166
  18   2.0000      -0.537117       -14.6157
  19   2.0000      -0.507994       -13.8232
  20   2.0000      -0.482760       -13.1366
  21   2.0000      -0.474399       -12.9091
  22   2.0000      -0.469731       -12.7820
  23   2.0000      -0.449842       -12.2408
  24   2.0000      -0.437736       -11.9114
  25   2.0000      -0.367438        -9.9985
  26   2.0000      -0.350876        -9.5478
  27   2.0000      -0.328493        -8.9388
  28   2.0000      -0.321392        -8.7455
  29   2.0000      -0.289910        -7.8889
  30   0.0000      -0.022304        -0.6069
  31   0.0000      -0.005900        -0.1605
  32   0.0000       0.127977         3.4824
  33   0.0000       0.165720         4.5095
  34   0.0000       0.172704         4.6995

MULLIKEN ATOMIC CHARGES
-----------------------
   0 O :   -0.668021
   1 H :    0.450838
   2 C :   -0.365224
   3 H :    0.201573
   4 H :    0.166203
   5 H :    0.166175
   6 N :   -0.442935
   7 C :    0.005608
   8 H :    0.249585
   9 C :   -0.311168
  10 H :    0.241214
  11 C :   -0.122106
  12 H :    0.242916
  13 C :   -0.311054
  14 H :    0.241234
  15 C :    0.005535
  16 H :    0.249628
Sum of atomic charges:   -0.0000000

LOEWDIN ATOMIC CHARGES
----------------------
   0 O :   -0.450811
   1 H :    0.293269
   2 C :   -0.197871
   3 H :    0.112373
   4 H :    0.087656
   5 H :    0.087655
   6 N :   -0.141491
   7 C :   -0.045874
   8 H :    0.137591
   9 C :   -0.158606
  10 H :    0.146346
  11 C :   -0.094541
  12 H :    0.144798
  13 C :   -0.158595
  14 H :    0.146350
  15 C :   -0.045865
  16 H :    0.137615

  Mayer bond orders larger than 0.100000
B(  0-O ,  1-H ) :   0.7001 B(  0-O ,  2-C ) :   1.0506 B(  2-C ,  3-H ) :   0.9293
B(  2-C ,  4-H ) :   0.9198 B(  2-C ,  5-H ) :   0.9198 B(  6-N ,  7-C ) :   1.4480
B(  6-N , 15-C ) :   1.4478 B(  7-C ,  8-H ) :   0.9095 B(  7-C ,  9-C ) :   1.3902
B(  9-C , 10-H ) :   0.9107 B(  9-C , 11-C ) :   1.4058 B( 11-C , 12-H ) :   0.9158
B( 11-C , 13-C ) :   1.4058 B( 13-C , 14-H ) :   0.9107 B( 13-C , 15-C ) :   1.3903
B( 15-C , 16-H ) :   0.9095

Dispersion correction           -0.007808111
FINAL SINGLE POINT ENERGY      -363.209375952536

DIPOLE MOMENT
-------------
                                X             Y             Z
Electronic contribution:      5.42548       2.67029      -0.00301
Nuclear contribution   :     -3.55181      -3.12936       0.00226
                        -----------------------------------------
Total Dipole Moment    :      1.87366      -0.45907      -0.00076
                        -----------------------------------------
Magnitude (a.u.)       :      1.92908
Magnitude (Debye)      :      4.90334

Rotational constants in cm-1:     0.163542     0.029969     0.026764
Rotational constants in MHz :  4902.852392   898.457599   802.353468

                             ****ORCA TERMINATED NORMALLY****
TOTAL RUN TIME: 0 days 0 hours 1 minutes 52 seconds 375 msec
