                         Program Version 5.0.3 -  RELEASE  -
|  1> ! PBEh-3c def2/J TightSCF DefGrid3
|  2>
|  3> %maxcore 60000
|  4>
|  5> %pal
|  6> nprocs 4
|  7> end
|  8>
|  9> *xyzfile 1 2 5e.xyz
| 10>
| 11>                          ****END OF INPUT****

CARTESIAN COORDINATES (ANGSTROEM)
---------------------------------
  C     -1.793478   -0.765851    0.000000
  C     -0.334325   -0.871489    0.000000
  C      0.334325    0.871489    0.000000
  C      1.793478    0.765851    0.000000
  H     -2.125453   -1.828536    0.000000
  H     -2.213287   -0.323443   -0.903851
  H     -2.213287   -0.323443    0.903851
  H      0.146371   -1.215292   -0.913717
  H      0.146371   -1.215292    0.913717
  H     -0.146371    1.215292    0.913717
  H     -0.146371    1.215292   -0.913717
  H      2.213287    0.323443    0.903851
  H      2.125453    1.828536    0.000000
  H      2.213287    0.323443   -0.903851

 Total Charge           Charge          ....    1
 Multiplicity           Mult            ....    2
 Number of Electrons    NEL             ....   33
 Basis Dimension        Dim             ....   80

ORBITAL ENERGIES
----------------
                 SPIN UP ORBITALS
  NO   OCC          E(Eh)            E(eV)
   0   1.0000     -10.720759      -291.7267
   1   1.0000     -10.720693      -291.7249
   2   1.0000     -10.640640      -289.5465
   3   1.0000     -10.640618      -289.5459
   4   1.0000      -1.130196       -30.7542
   5   1.0000      -1.062785       -28.9198
   6   1.0000      -0.929860       -25.3028
   7   1.0000      -0.894751       -24.3474
   8   1.0000      -0.776270       -21.1234
   9   1.0000      -0.717712       -19.5299
  10   1.0000      -0.711333       -19.3564
  11   1.0000      -0.704919       -19.1818
  12   1.0000      -0.660348       -17.9690
  13   1.0000      -0.655388       -17.8340
  14   1.0000      -0.627230       -17.0678
  15   1.0000      -0.624878       -17.0038
  16   1.0000      -0.558231       -15.1902
  17   0.0000      -0.146343        -3.9822
  18   0.0000      -0.077060        -2.0969
  19   0.0000      -0.020955        -0.5702
  20   0.0000      -0.016129        -0.4389
  21   0.0000      -0.015251        -0.4150

                 SPIN DOWN ORBITALS
  NO   OCC          E(Eh)            E(eV)
   0   1.0000     -10.714043      -291.5439
   1   1.0000     -10.714010      -291.5430
   2   1.0000     -10.640010      -289.5294
   3   1.0000     -10.639986      -289.5287
   4   1.0000      -1.106091       -30.0983
   5   1.0000      -1.050359       -28.5817
   6   1.0000      -0.908638       -24.7253
   7   1.0000      -0.877326       -23.8733
   8   1.0000      -0.769675       -20.9439
   9   1.0000      -0.712939       -19.4001
  10   1.0000      -0.692558       -18.8455
  11   1.0000      -0.680510       -18.5176
  12   1.0000      -0.648842       -17.6559
  13   1.0000      -0.637084       -17.3359
  14   1.0000      -0.623954       -16.9786
  15   1.0000      -0.621094       -16.9008
  16   0.0000      -0.383612       -10.4386
  17   0.0000      -0.093087        -2.5330
  18   0.0000      -0.069679        -1.8961
  19   0.0000      -0.012964        -0.3528
  20   0.0000      -0.011979        -0.3260

MULLIKEN ATOMIC CHARGES AND SPIN POPULATIONS
--------------------------------------------
   0 C :   -0.673728    0.015473
   1 C :   -0.405487    0.402140
   2 C :   -0.405487    0.402140
   3 C :   -0.673728    0.015473
   4 H :    0.332400    0.076367
   5 H :    0.293038    0.005903
   6 H :    0.293038    0.005903
   7 H :    0.330370   -0.002893
   8 H :    0.330370   -0.002893
   9 H :    0.330370   -0.002893
  10 H :    0.330370   -0.002893
  11 H :    0.293038    0.005903
  12 H :    0.332400    0.076367
  13 H :    0.293038    0.005903
Sum of atomic charges         :    1.0000000

LOEWDIN ATOMIC CHARGES AND SPIN POPULATIONS
-------------------------------------------
   0 C :   -0.350293    0.039874
   1 C :   -0.078901    0.375399
   2 C :   -0.078901    0.375399
   3 C :   -0.350293    0.039874
   4 H :    0.217803    0.068092
   5 H :    0.172303    0.006188
   6 H :    0.172303    0.006188
   7 H :    0.183393    0.002130
   8 H :    0.183393    0.002130
   9 H :    0.183393    0.002130
  10 H :    0.183393    0.002130
  11 H :    0.172303    0.006188
  12 H :    0.217803    0.068092
  13 H :    0.172303    0.006188

  Mayer bond orders larger than 0.100000
B(  0-C ,  1-C ) :   1.0481 B(  0-C ,  4-H ) :   0.8075 B(  0-C ,  5-H ) :   0.8884
B(  0-C ,  6-H ) :   0.8884 B(  1-C ,  2-C ) :   0.5311 B(  1-C ,  7-H ) :   0.8568
B(  1-C ,  8-H ) :   0.8568 B(  2-C ,  3-C ) :   1.0481 B(  2-C ,  9-H ) :   0.8568
B(  2-C , 10-H ) :   0.8568 B(  3-C , 11-H ) :   0.8884 B(  3-C , 12-H ) :   0.8075
B(  3-C , 13-H ) :   0.8884

Dispersion correction           -0.005085405
FINAL SINGLE POINT ENERGY      -157.722979422373

DIPOLE MOMENT
-------------
                                X             Y             Z
Electronic contribution:      0.00000      -0.00000       0.00000
Nuclear contribution   :      0.00000       0.00000       0.00000
                        -----------------------------------------
Total Dipole Moment    :      0.00000      -0.00000       0.00000
                        -----------------------------------------
Magnitude (a.u.)       :      0.00000
Magnitude (Debye)      :      0.00000

Rotational constants in cm-1:     0.684664     0.117846     0.109217
Rotational constants in MHz : 20525.723926  3532.925452  3274.245827

                             ****ORCA TERMINATED NORMALLY****
TOTAL RUN TIME: 0 days 0 hours 2 minutes 45 seconds 422 msec
