                         Program Version 5.0.3 -  RELEASE  -
|  1> ! PBEh-3c def2/J TightSCF DefGrid3
|  2>
|  3> %maxcore 60000
|  4>
|  5> %pal
|  6> nprocs 4
|  7> end
|  8>
|  9> *xyzfile 0 1 3b.xyz
| 10>
| 11>                          ****END OF INPUT****

CARTESIAN COORDINATES (ANGSTROEM)
---------------------------------
  O     -0.408222    1.996789    0.634724
  C     -1.026719    0.966608    0.333847
  C     -0.376159   -0.257195   -0.068457
  C      0.983990   -0.382410   -0.151260
  C      1.631630   -1.665875   -0.570967
  C     -2.536809    0.951966    0.378016
  N      1.818981    0.631690    0.137913
  H     -0.983483   -1.113335   -0.316067
  H      1.401234    1.507997    0.425045
  H      2.810373    0.512328    0.069789
  H      0.885719   -2.422446   -0.789015
  H      2.283627   -2.036109    0.219462
  H      2.240271   -1.508991   -1.460823
  H     -2.902561    1.922440    0.695635
  H     -2.937700    0.712258   -0.605883
  H     -2.884172    0.184287    1.068041

 Total Charge           Charge          ....    0
 Multiplicity           Mult            ....    1
 Number of Electrons    NEL             ....   54
 Basis Dimension        Dim             ....  123

ORBITAL ENERGIES
----------------

  NO   OCC          E(Eh)            E(eV)
   0   2.0000     -19.455307      -529.4058
   1   2.0000     -14.647285      -398.5729
   2   2.0000     -10.511700      -286.0379
   3   2.0000     -10.508385      -285.9477
   4   2.0000     -10.449618      -284.3486
   5   2.0000     -10.421146      -283.5738
   6   2.0000     -10.412028      -283.3257
   7   2.0000      -1.117288       -30.4030
   8   2.0000      -1.031630       -28.0721
   9   2.0000      -0.865445       -23.5499
  10   2.0000      -0.827668       -22.5220
  11   2.0000      -0.783886       -21.3306
  12   2.0000      -0.665166       -18.1001
  13   2.0000      -0.615737       -16.7551
  14   2.0000      -0.596542       -16.2327
  15   2.0000      -0.522453       -14.2167
  16   2.0000      -0.503321       -13.6961
  17   2.0000      -0.497799       -13.5458
  18   2.0000      -0.480630       -13.0786
  19   2.0000      -0.466795       -12.7021
  20   2.0000      -0.461583       -12.5603
  21   2.0000      -0.435253       -11.8438
  22   2.0000      -0.424156       -11.5419
  23   2.0000      -0.406881       -11.0718
  24   2.0000      -0.373312       -10.1583
  25   2.0000      -0.286859        -7.8058
  26   2.0000      -0.250874        -6.8266
  27   0.0000       0.006923         0.1884
  28   0.0000       0.125705         3.4206
  29   0.0000       0.126321         3.4374
  30   0.0000       0.168286         4.5793
  31   0.0000       0.182364         4.9624

MULLIKEN ATOMIC CHARGES
-----------------------
   0 O :   -0.446933
   1 C :    0.396348
   2 C :   -0.492978
   3 C :    0.400383
   4 C :   -0.716240
   5 C :   -0.750792
   6 N :   -0.810637
   7 H :    0.205992
   8 H :    0.415618
   9 H :    0.354138
  10 H :    0.247598
  11 H :    0.239949
  12 H :    0.239575
  13 H :    0.252480
  14 H :    0.232826
  15 H :    0.232673
Sum of atomic charges:   -0.0000000

LOEWDIN ATOMIC CHARGES
----------------------
   0 O :   -0.284559
   1 C :    0.101440
   2 C :   -0.331568
   3 C :    0.074376
   4 C :   -0.355612
   5 C :   -0.384093
   6 N :   -0.344255
   7 H :    0.133960
   8 H :    0.274649
   9 H :    0.247234
  10 H :    0.146240
  11 H :    0.144285
  12 H :    0.144036
  13 H :    0.146106
  14 H :    0.143948
  15 H :    0.143815

  Mayer bond orders larger than 0.100000
B(  0-O ,  1-C ) :   1.9205 B(  0-O ,  8-H ) :   0.1075 B(  1-C ,  2-C ) :   1.1129
B(  1-C ,  5-C ) :   0.9477 B(  2-C ,  3-C ) :   1.5055 B(  2-C ,  7-H ) :   0.9232
B(  3-C ,  4-C ) :   0.9791 B(  3-C ,  6-N ) :   1.2479 B(  4-C , 10-H ) :   0.9236
B(  4-C , 11-H ) :   0.9082 B(  4-C , 12-H ) :   0.9085 B(  5-C , 13-H ) :   0.9232
B(  5-C , 14-H ) :   0.9153 B(  5-C , 15-H ) :   0.9154 B(  6-N ,  8-H ) :   0.7253
B(  6-N ,  9-H ) :   0.8398

Dispersion correction           -0.007344834
FINAL SINGLE POINT ENERGY      -325.223768660746

DIPOLE MOMENT
-------------
                                X             Y             Z
Electronic contribution:      1.06765       3.92118       1.18525
Nuclear contribution   :     -0.32978      -4.96331      -1.53218
                        -----------------------------------------
Total Dipole Moment    :      0.73787      -1.04213      -0.34693
                        -----------------------------------------
Magnitude (a.u.)       :      1.32320
Magnitude (Debye)      :      3.36330

Rotational constants in cm-1:     0.184914     0.056564     0.044020
Rotational constants in MHz :  5543.572833  1695.760951  1319.687542

                             ****ORCA TERMINATED NORMALLY****
TOTAL RUN TIME: 0 days 0 hours 1 minutes 51 seconds 739 msec
