                         Program Version 5.0.3 -  RELEASE  -
|  1> ! PBEh-3c def2/J TightSCF DefGrid3
|  2>
|  3> %maxcore 60000
|  4>
|  5> %pal
|  6> nprocs 4
|  7> end
|  8>
|  9> *xyzfile 0 1 66.xyz
| 10>
| 11>                          ****END OF INPUT****

CARTESIAN COORDINATES (ANGSTROEM)
---------------------------------
  Si     0.000000    0.000000    0.000000
  F      0.910202   -0.910202    0.910202
  F     -0.910202    0.910202    0.910202
  F     -0.910202   -0.910202   -0.910202
  F      0.910202    0.910202   -0.910202

 Total Charge           Charge          ....    0
 Multiplicity           Mult            ....    1
 Number of Electrons    NEL             ....   50
 Basis Dimension        Dim             ....   78

ORBITAL ENERGIES
----------------

  NO   OCC          E(Eh)            E(eV)
   0   2.0000     -66.930099     -1821.2606
   1   2.0000     -25.133854      -683.9269
   2   2.0000     -25.133854      -683.9269
   3   2.0000     -25.133854      -683.9269
   4   2.0000     -25.133837      -683.9265
   5   2.0000      -5.680271      -154.5680
   6   2.0000      -3.974065      -108.1398
   7   2.0000      -3.974065      -108.1398
   8   2.0000      -3.974065      -108.1398
   9   2.0000      -1.382370       -37.6162
  10   2.0000      -1.345885       -36.6234
  11   2.0000      -1.345885       -36.6234
  12   2.0000      -1.345885       -36.6234
  13   2.0000      -0.691764       -18.8239
  14   2.0000      -0.617140       -16.7932
  15   2.0000      -0.617140       -16.7932
  16   2.0000      -0.617140       -16.7932
  17   2.0000      -0.559783       -15.2325
  18   2.0000      -0.559783       -15.2325
  19   2.0000      -0.548704       -14.9310
  20   2.0000      -0.548704       -14.9310
  21   2.0000      -0.548704       -14.9310
  22   2.0000      -0.515401       -14.0248
  23   2.0000      -0.515401       -14.0248
  24   2.0000      -0.515401       -14.0248
  25   0.0000       0.049679         1.3518
  26   0.0000       0.148329         4.0362
  27   0.0000       0.148329         4.0362
  28   0.0000       0.148329         4.0362
  29   0.0000       0.284466         7.7407

MULLIKEN ATOMIC CHARGES
-----------------------
   0 Si:    1.772828
   1 F :   -0.443207
   2 F :   -0.443207
   3 F :   -0.443207
   4 F :   -0.443207
Sum of atomic charges:   -0.0000000

LOEWDIN ATOMIC CHARGES
----------------------
   0 Si:    0.779529
   1 F :   -0.194882
   2 F :   -0.194882
   3 F :   -0.194882
   4 F :   -0.194882

  Mayer bond orders larger than 0.100000
B(  0-Si,  1-F ) :   0.9459 B(  0-Si,  2-F ) :   0.9459 B(  0-Si,  3-F ) :   0.9459
B(  0-Si,  4-F ) :   0.9459

Dispersion correction           -0.001175503
FINAL SINGLE POINT ENERGY      -688.016247284357

DIPOLE MOMENT
-------------
                                X             Y             Z
Electronic contribution:     -0.00000       0.00000       0.00000
Nuclear contribution   :      0.00000       0.00000       0.00000
                        -----------------------------------------
Total Dipole Moment    :     -0.00000       0.00000       0.00000
                        -----------------------------------------
Magnitude (a.u.)       :      0.00000
Magnitude (Debye)      :      0.00000

Rotational constants in cm-1:     0.133882     0.133882     0.133882
Rotational constants in MHz :  4013.694872  4013.694872  4013.694872

                             ****ORCA TERMINATED NORMALLY****
TOTAL RUN TIME: 0 days 0 hours 0 minutes 25 seconds 931 msec
