                         Program Version 5.0.3 -  RELEASE  -
|  1> ! PBEh-3c def2/J TightSCF DefGrid3
|  2>
|  3> %maxcore 60000
|  4>
|  5> %pal
|  6> nprocs 4
|  7> end
|  8>
|  9> *xyzfile 1 2 8e.xyz
| 10>
| 11>                          ****END OF INPUT****

CARTESIAN COORDINATES (ANGSTROEM)
---------------------------------
  C     -0.688075   -0.324435    1.099211
  C      0.688075    0.324435    1.099211
  C      1.467627   -0.060849   -0.146997
  C      0.697921   -0.071635   -1.378702
  C     -0.697921    0.071635   -1.378702
  C     -1.467627    0.060849   -0.146997
  H     -1.250404   -0.033828    1.986525
  H     -0.590500   -1.414316    1.136780
  H      1.250404    0.033828    1.986525
  H      0.590500    1.414316    1.136780
  H      1.869369   -1.097626   -0.076014
  H      2.391531    0.516849   -0.294693
  H      1.210738   -0.220149   -2.326109
  H     -1.210738    0.220149   -2.326109
  H     -1.869369    1.097626   -0.076014
  H     -2.391531   -0.516849   -0.294693

 Total Charge           Charge          ....    1
 Multiplicity           Mult            ....    2
 Number of Electrons    NEL             ....   45
 Basis Dimension        Dim             ....  110

ORBITAL ENERGIES
----------------
                 SPIN UP ORBITALS
  NO   OCC          E(Eh)            E(eV)
   0   1.0000     -10.727646      -291.9141
   1   1.0000     -10.727065      -291.8983
   2   1.0000     -10.646914      -289.7173
   3   1.0000     -10.646898      -289.7168
   4   1.0000     -10.612275      -288.7747
   5   1.0000     -10.612032      -288.7681
   6   1.0000      -1.175371       -31.9835
   7   1.0000      -1.061029       -28.8721
   8   1.0000      -1.048799       -28.5393
   9   1.0000      -0.917297       -24.9609
  10   1.0000      -0.890476       -24.2311
  11   1.0000      -0.794333       -21.6149
  12   1.0000      -0.787792       -21.4369
  13   1.0000      -0.722461       -19.6592
  14   1.0000      -0.698666       -19.0117
  15   1.0000      -0.685472       -18.6526
  16   1.0000      -0.667481       -18.1631
  17   1.0000      -0.654521       -17.8104
  18   1.0000      -0.644017       -17.5246
  19   1.0000      -0.568524       -15.4703
  20   1.0000      -0.568359       -15.4658
  21   1.0000      -0.557804       -15.1786
  22   1.0000      -0.531108       -14.4522
  23   0.0000      -0.228583        -6.2201
  24   0.0000      -0.050199        -1.3660
  25   0.0000      -0.014820        -0.4033
  26   0.0000      -0.004078        -0.1110
  27   0.0000       0.003194         0.0869

                 SPIN DOWN ORBITALS
  NO   OCC          E(Eh)            E(eV)
   0   1.0000     -10.720940      -291.7316
   1   1.0000     -10.720471      -291.7189
   2   1.0000     -10.646766      -289.7132
   3   1.0000     -10.646749      -289.7128
   4   1.0000     -10.612283      -288.7749
   5   1.0000     -10.612041      -288.7683
   6   1.0000      -1.155625       -31.4461
   7   1.0000      -1.054123       -28.6842
   8   1.0000      -1.035700       -28.1828
   9   1.0000      -0.907314       -24.6893
  10   1.0000      -0.884332       -24.0639
  11   1.0000      -0.787522       -21.4296
  12   1.0000      -0.777858       -21.1666
  13   1.0000      -0.708097       -19.2683
  14   1.0000      -0.692101       -18.8330
  15   1.0000      -0.670474       -18.2445
  16   1.0000      -0.662951       -18.0398
  17   1.0000      -0.652173       -17.7465
  18   1.0000      -0.622502       -16.9392
  19   1.0000      -0.566066       -15.4034
  20   1.0000      -0.565434       -15.3862
  21   1.0000      -0.554344       -15.0845
  22   0.0000      -0.358440        -9.7536
  23   0.0000      -0.164862        -4.4861
  24   0.0000      -0.047010        -1.2792
  25   0.0000      -0.009111        -0.2479
  26   0.0000       0.000380         0.0103

MULLIKEN ATOMIC CHARGES AND SPIN POPULATIONS
--------------------------------------------
   0 C :   -0.466153    0.001882
   1 C :   -0.466154    0.001882
   2 C :   -0.541713   -0.021728
   3 C :   -0.055868    0.456314
   4 C :   -0.055868    0.456314
   5 C :   -0.541713   -0.021728
   6 H :    0.299417   -0.000896
   7 H :    0.261938    0.000613
   8 H :    0.299417   -0.000896
   9 H :    0.261938    0.000613
  10 H :    0.326091    0.061707
  11 H :    0.337271    0.025765
  12 H :    0.339018   -0.023658
  13 H :    0.339018   -0.023658
  14 H :    0.326091    0.061707
  15 H :    0.337271    0.025765
Sum of atomic charges         :    1.0000000

LOEWDIN ATOMIC CHARGES AND SPIN POPULATIONS
-------------------------------------------
   0 C :   -0.237626    0.000918
   1 C :   -0.237626    0.000918
   2 C :   -0.245489    0.017720
   3 C :    0.076742    0.413670
   4 C :    0.076742    0.413670
   5 C :   -0.245489    0.017720
   6 H :    0.164106   -0.000670
   7 H :    0.148573    0.000622
   8 H :    0.164106   -0.000670
   9 H :    0.148573    0.000622
  10 H :    0.209485    0.055292
  11 H :    0.196502    0.023060
  12 H :    0.187708   -0.010610
  13 H :    0.187707   -0.010610
  14 H :    0.209485    0.055292
  15 H :    0.196502    0.023060

  Mayer bond orders larger than 0.100000
B(  0-C ,  1-C ) :   0.9629 B(  0-C ,  5-C ) :   0.9615 B(  0-C ,  6-H ) :   0.8974
B(  0-C ,  7-H ) :   0.8975 B(  1-C ,  2-C ) :   0.9615 B(  1-C ,  8-H ) :   0.8974
B(  1-C ,  9-H ) :   0.8975 B(  2-C ,  3-C ) :   1.0689 B(  2-C , 10-H ) :   0.8092
B(  2-C , 11-H ) :   0.8472 B(  3-C ,  4-C ) :   1.3726 B(  3-C , 12-H ) :   0.8659
B(  4-C ,  5-C ) :   1.0689 B(  4-C , 13-H ) :   0.8659 B(  5-C , 14-H ) :   0.8092
B(  5-C , 15-H ) :   0.8472

Dispersion correction           -0.007787075
FINAL SINGLE POINT ENERGY      -233.808798760783

DIPOLE MOMENT
-------------
                                X             Y             Z
Electronic contribution:     -0.00000       0.00000      -2.92395
Nuclear contribution   :     -0.00000       0.00000       1.87213
                        -----------------------------------------
Total Dipole Moment    :     -0.00000       0.00000      -1.05182
                        -----------------------------------------
Magnitude (a.u.)       :      1.05182
Magnitude (Debye)      :      2.67352

Rotational constants in cm-1:     0.159635     0.153193     0.086000
Rotational constants in MHz :  4785.733811  4592.601246  2578.219083

                             ****ORCA TERMINATED NORMALLY****
TOTAL RUN TIME: 0 days 0 hours 2 minutes 36 seconds 776 msec
