                         Program Version 5.0.3 -  RELEASE  -
|  1> ! PBEh-3c def2/J TightSCF DefGrid3
|  2>
|  3> %maxcore 60000
|  4>
|  5> %pal
|  6> nprocs 4
|  7> end
|  8>
|  9> *xyzfile 0 1 N4H6_2.xyz
| 10>
| 11>                          ****END OF INPUT****

CARTESIAN COORDINATES (ANGSTROEM)
---------------------------------
  N      0.267052    0.696367   -0.561737
  N      1.355107    0.812540    0.358709
  H      1.847873   -0.086811    0.415336
  H      0.951144    1.000244    1.274518
  H      0.694174    0.790663   -1.486826
  N     -0.267052   -0.696367   -0.561737
  N     -1.355107   -0.812540    0.358709
  H     -0.694174   -0.790663   -1.486826
  H     -0.951144   -1.000244    1.274518
  H     -1.847873    0.086811    0.415336

 Total Charge           Charge          ....    0
 Multiplicity           Mult            ....    1
 Number of Electrons    NEL             ....   34
 Basis Dimension        Dim             ....   72

ORBITAL ENERGIES
----------------

  NO   OCC          E(Eh)            E(eV)
   0   2.0000     -14.674959      -399.3259
   1   2.0000     -14.674876      -399.3237
   2   2.0000     -14.639344      -398.3568
   3   2.0000     -14.639321      -398.3562
   4   2.0000      -1.108546       -30.1651
   5   2.0000      -1.012034       -27.5389
   6   2.0000      -0.873246       -23.7622
   7   2.0000      -0.762754       -20.7556
   8   2.0000      -0.579325       -15.7642
   9   2.0000      -0.565748       -15.3948
  10   2.0000      -0.557515       -15.1708
  11   2.0000      -0.523650       -14.2492
  12   2.0000      -0.484005       -13.1704
  13   2.0000      -0.371018       -10.0959
  14   2.0000      -0.334647        -9.1062
  15   2.0000      -0.296526        -8.0689
  16   2.0000      -0.270543        -7.3619
  17   0.0000       0.123385         3.3575
  18   0.0000       0.141872         3.8605
  19   0.0000       0.153763         4.1841
  20   0.0000       0.183797         5.0014
  21   0.0000       0.209382         5.6976

MULLIKEN ATOMIC CHARGES
-----------------------
   0 N :   -0.357834
   1 N :   -0.612587
   2 H :    0.314298
   3 H :    0.324168
   4 H :    0.331955
   5 N :   -0.357834
   6 N :   -0.612587
   7 H :    0.331955
   8 H :    0.324168
   9 H :    0.314298
Sum of atomic charges:   -0.0000000

LOEWDIN ATOMIC CHARGES
----------------------
   0 N :   -0.238707
   1 N :   -0.401978
   2 H :    0.205794
   3 H :    0.216110
   4 H :    0.218781
   5 N :   -0.238707
   6 N :   -0.401978
   7 H :    0.218781
   8 H :    0.216110
   9 H :    0.205794

  Mayer bond orders larger than 0.100000
B(  0-N ,  1-N ) :   1.0400 B(  0-N ,  4-H ) :   0.8398 B(  0-N ,  5-N ) :   0.9344
B(  1-N ,  2-H ) :   0.8435 B(  1-N ,  3-H ) :   0.8586 B(  5-N ,  6-N ) :   1.0400
B(  5-N ,  7-H ) :   0.8398 B(  6-N ,  8-H ) :   0.8586 B(  6-N ,  9-H ) :   0.8435

Dispersion correction           -0.003371242
FINAL SINGLE POINT ENERGY      -222.019728460694

DIPOLE MOMENT
-------------
                                X             Y             Z
Electronic contribution:      0.00000      -0.00000      -0.72989
Nuclear contribution   :     -0.00000       0.00000       0.85923
                        -----------------------------------------
Total Dipole Moment    :      0.00000      -0.00000       0.12933
                        -----------------------------------------
Magnitude (a.u.)       :      0.12933
Magnitude (Debye)      :      0.32874

Rotational constants in cm-1:     0.598716     0.171157     0.152578
Rotational constants in MHz : 17949.064635  5131.160414  4574.167592

                             ****ORCA TERMINATED NORMALLY****
TOTAL RUN TIME: 0 days 0 hours 0 minutes 54 seconds 441 msec
