                         Program Version 5.0.3 -  RELEASE  -
|  1> ! PBEh-3c def2/J TightSCF DefGrid3
|  2>
|  3> %maxcore 60000
|  4>
|  5> %pal
|  6> nprocs 4
|  7> end
|  8>
|  9> *xyzfile 0 1 E32.xyz
| 10>
| 11>                          ****END OF INPUT****

CARTESIAN COORDINATES (ANGSTROEM)
---------------------------------
  C     -1.672533    0.018616    0.172623
  C     -0.854189    0.115664   -1.107673
  C      0.619301   -0.276826   -0.984841
  C      1.194488    0.329507    0.291723
  C      0.403030   -0.172990    1.484245
  O     -1.025073    0.033768    1.365950
  O     -2.874395    0.001209    0.166055
  H     -0.935860    1.163504   -1.417987
  H     -1.380180   -0.466842   -1.864272
  H      0.715185   -1.366983   -0.944282
  H      1.170141    0.055381   -1.867361
  H      1.148524    1.422440    0.244951
  H      2.243441    0.053980    0.429243
  H      0.566215   -1.246423    1.625301
  H      0.681904    0.335995    2.406326

 Total Charge           Charge          ....    0
 Multiplicity           Mult            ....    1
 Number of Electrons    NEL             ....   54
 Basis Dimension        Dim             ....  121

ORBITAL ENERGIES
----------------

  NO   OCC          E(Eh)            E(eV)
   0   2.0000     -19.533753      -531.5404
   1   2.0000     -19.470415      -529.8169
   2   2.0000     -10.574416      -287.7445
   3   2.0000     -10.509285      -285.9722
   4   2.0000     -10.460215      -284.6369
   5   2.0000     -10.460021      -284.6316
   6   2.0000     -10.459706      -284.6231
   7   2.0000      -1.204687       -32.7812
   8   2.0000      -1.119637       -30.4669
   9   2.0000      -0.919359       -25.0170
  10   2.0000      -0.854300       -23.2467
  11   2.0000      -0.757860       -20.6224
  12   2.0000      -0.709324       -19.3017
  13   2.0000      -0.620045       -16.8723
  14   2.0000      -0.576738       -15.6938
  15   2.0000      -0.549791       -14.9606
  16   2.0000      -0.537163       -14.6170
  17   2.0000      -0.520130       -14.1535
  18   2.0000      -0.504691       -13.7334
  19   2.0000      -0.481857       -13.1120
  20   2.0000      -0.460850       -12.5404
  21   2.0000      -0.422534       -11.4977
  22   2.0000      -0.412633       -11.2283
  23   2.0000      -0.407949       -11.1009
  24   2.0000      -0.382803       -10.4166
  25   2.0000      -0.343439        -9.3454
  26   2.0000      -0.318666        -8.6713
  27   0.0000       0.044640         1.2147
  28   0.0000       0.122757         3.3404
  29   0.0000       0.151192         4.1141
  30   0.0000       0.159563         4.3419
  31   0.0000       0.166865         4.5406

MULLIKEN ATOMIC CHARGES
-----------------------
   0 C :    0.545028
   1 C :   -0.575771
   2 C :   -0.443250
   3 C :   -0.479396
   4 C :   -0.148831
   5 O :   -0.439560
   6 O :   -0.371856
   7 H :    0.259002
   8 H :    0.273738
   9 H :    0.224111
  10 H :    0.241009
  11 H :    0.230741
  12 H :    0.238695
  13 H :    0.210480
  14 H :    0.235860
Sum of atomic charges:    0.0000000

LOEWDIN ATOMIC CHARGES
----------------------
   0 C :    0.144445
   1 C :   -0.282978
   2 C :   -0.243789
   3 C :   -0.260957
   4 C :   -0.068072
   5 O :   -0.180061
   6 O :   -0.203017
   7 H :    0.156796
   8 H :    0.157441
   9 H :    0.127842
  10 H :    0.133689
  11 H :    0.131345
  12 H :    0.139260
  13 H :    0.117444
  14 H :    0.130612

  Mayer bond orders larger than 0.100000
B(  0-C ,  1-C ) :   0.9349 B(  0-C ,  5-O ) :   1.1023 B(  0-C ,  6-O ) :   2.0668
B(  1-C ,  2-C ) :   0.9541 B(  1-C ,  7-H ) :   0.8962 B(  1-C ,  8-H ) :   0.9047
B(  2-C ,  3-C ) :   0.9698 B(  2-C ,  9-H ) :   0.9154 B(  2-C , 10-H ) :   0.9201
B(  3-C ,  4-C ) :   0.9743 B(  3-C , 11-H ) :   0.9086 B(  3-C , 12-H ) :   0.9124
B(  4-C ,  5-O ) :   0.9117 B(  4-C , 13-H ) :   0.9040 B(  4-C , 14-H ) :   0.9162

Dispersion correction           -0.007132685
FINAL SINGLE POINT ENERGY      -345.067199535708

DIPOLE MOMENT
-------------
                                X             Y             Z
Electronic contribution:     -6.67904       0.07541       2.43681
Nuclear contribution   :      8.54767      -0.09644      -2.88891
                        -----------------------------------------
Total Dipole Moment    :      1.86863      -0.02102      -0.45210
                        -----------------------------------------
Magnitude (a.u.)       :      1.92266
Magnitude (Debye)      :      4.88701

Rotational constants in cm-1:     0.155231     0.084851     0.058664
Rotational constants in MHz :  4653.705065  2543.760277  1758.697897

                             ****ORCA TERMINATED NORMALLY****
TOTAL RUN TIME: 0 days 0 hours 1 minutes 30 seconds 626 msec
