                         Program Version 5.0.3 -  RELEASE  -
|  1> ! PBEh-3c def2/J TightSCF DefGrid3
|  2>
|  3> %maxcore 60000
|  4>
|  5> %pal
|  6> nprocs 4
|  7> end
|  8>
|  9> *xyzfile 0 1 11.xyz
| 10>
| 11>                          ****END OF INPUT****

CARTESIAN COORDINATES (ANGSTROEM)
---------------------------------
  C     -1.047826   -1.421674    0.000000
  C     -1.454504   -0.855446    1.206205
  C     -1.454504   -0.855446   -1.206205
  C     -2.266798    0.277161    1.206954
  C     -2.671479    0.845021    0.000000
  C     -2.266798    0.277161   -1.206954
  C      1.047826    1.421674    0.000000
  C      1.454504    0.855446   -1.206205
  C      1.454504    0.855446    1.206205
  C      2.266798   -0.277161   -1.206954
  C      2.671479   -0.845021    0.000000
  C      2.266798   -0.277161    1.206954
  H     -1.133854   -1.292060   -2.142316
  H     -2.582495    0.716307   -2.143798
  H     -3.303043    1.723270    0.000000
  H     -2.582495    0.716307    2.143798
  H     -1.133854   -1.292060    2.142316
  H     -0.406025   -2.291905    0.000000
  H      0.406025    2.291905    0.000000
  H      1.133854    1.292060    2.142316
  H      2.582495   -0.716307    2.143798
  H      3.303043   -1.723270    0.000000
  H      2.582495   -0.716307   -2.143798
  H      1.133854    1.292060   -2.142316

 Total Charge           Charge          ....    0
 Multiplicity           Mult            ....    1
 Number of Electrons    NEL             ....   84
 Basis Dimension        Dim             ....  204

ORBITAL ENERGIES
----------------

  NO   OCC          E(Eh)            E(eV)
   0   2.0000     -10.443704      -284.1876
   1   2.0000     -10.443698      -284.1875
   2   2.0000     -10.442950      -284.1671
   3   2.0000     -10.442936      -284.1667
   4   2.0000     -10.442757      -284.1619
   5   2.0000     -10.442726      -284.1610
   6   2.0000     -10.442126      -284.1447
   7   2.0000     -10.442081      -284.1435
   8   2.0000     -10.442024      -284.1419
   9   2.0000     -10.441966      -284.1404
  10   2.0000     -10.440476      -284.0998
  11   2.0000     -10.440455      -284.0992
  12   2.0000      -0.947913       -25.7940
  13   2.0000      -0.944169       -25.6921
  14   2.0000      -0.831233       -22.6190
  15   2.0000      -0.829438       -22.5702
  16   2.0000      -0.829231       -22.5645
  17   2.0000      -0.828057       -22.5326
  18   2.0000      -0.673550       -18.3282
  19   2.0000      -0.673470       -18.3261
  20   2.0000      -0.673072       -18.3152
  21   2.0000      -0.672607       -18.3026
  22   2.0000      -0.586951       -15.9717
  23   2.0000      -0.585793       -15.9402
  24   2.0000      -0.520564       -14.1653
  25   2.0000      -0.520201       -14.1554
  26   2.0000      -0.502684       -13.6787
  27   2.0000      -0.502324       -13.6689
  28   2.0000      -0.477115       -12.9830
  29   2.0000      -0.476262       -12.9598
  30   2.0000      -0.475655       -12.9432
  31   2.0000      -0.475319       -12.9341
  32   2.0000      -0.429120       -11.6770
  33   2.0000      -0.400956       -10.9106
  34   2.0000      -0.392808       -10.6888
  35   2.0000      -0.392535       -10.6814
  36   2.0000      -0.392458       -10.6793
  37   2.0000      -0.392395       -10.6776
  38   2.0000      -0.298407        -8.1201
  39   2.0000      -0.285319        -7.7639
  40   2.0000      -0.285288        -7.7631
  41   2.0000      -0.274935        -7.4814
  42   0.0000       0.020671         0.5625
  43   0.0000       0.022972         0.6251
  44   0.0000       0.027010         0.7350
  45   0.0000       0.028885         0.7860
  46   0.0000       0.141868         3.8604

MULLIKEN ATOMIC CHARGES
-----------------------
   0 C :   -0.198914
   1 C :   -0.213256
   2 C :   -0.213255
   3 C :   -0.222423
   4 C :   -0.227293
   5 C :   -0.222423
   6 C :   -0.198915
   7 C :   -0.213255
   8 C :   -0.213255
   9 C :   -0.222424
  10 C :   -0.227293
  11 C :   -0.222424
  12 H :    0.216711
  13 H :    0.214611
  14 H :    0.215526
  15 H :    0.214611
  16 H :    0.216711
  17 H :    0.219394
  18 H :    0.219395
  19 H :    0.216711
  20 H :    0.214611
  21 H :    0.215526
  22 H :    0.214611
  23 H :    0.216711
Sum of atomic charges:   -0.0000000

LOEWDIN ATOMIC CHARGES
----------------------
   0 C :   -0.124267
   1 C :   -0.129119
   2 C :   -0.129119
   3 C :   -0.140545
   4 C :   -0.140743
   5 C :   -0.140545
   6 C :   -0.124267
   7 C :   -0.129119
   8 C :   -0.129119
   9 C :   -0.140545
  10 C :   -0.140743
  11 C :   -0.140545
  12 H :    0.134022
  13 H :    0.132983
  14 H :    0.133328
  15 H :    0.132983
  16 H :    0.134022
  17 H :    0.136999
  18 H :    0.136999
  19 H :    0.134022
  20 H :    0.132983
  21 H :    0.133328
  22 H :    0.132983
  23 H :    0.134022

  Mayer bond orders larger than 0.100000
B(  0-C ,  1-C ) :   1.4305 B(  0-C ,  2-C ) :   1.4305 B(  0-C , 17-H ) :   0.9181
B(  1-C ,  3-C ) :   1.4254 B(  1-C , 16-H ) :   0.9201 B(  2-C ,  5-C ) :   1.4254
B(  2-C , 12-H ) :   0.9201 B(  3-C ,  4-C ) :   1.4265 B(  3-C , 15-H ) :   0.9215
B(  4-C ,  5-C ) :   1.4265 B(  4-C , 14-H ) :   0.9212 B(  5-C , 13-H ) :   0.9215
B(  6-C ,  7-C ) :   1.4305 B(  6-C ,  8-C ) :   1.4305 B(  6-C , 18-H ) :   0.9181
B(  7-C ,  9-C ) :   1.4254 B(  7-C , 23-H ) :   0.9201 B(  8-C , 11-C ) :   1.4254
B(  8-C , 19-H ) :   0.9201 B(  9-C , 10-C ) :   1.4265 B(  9-C , 22-H ) :   0.9215
B( 10-C , 11-C ) :   1.4265 B( 10-C , 21-H ) :   0.9212 B( 11-C , 20-H ) :   0.9215

Dispersion correction           -0.016150844
FINAL SINGLE POINT ENERGY      -463.455781235780

DIPOLE MOMENT
-------------
                                X             Y             Z
Electronic contribution:     -0.00000       0.00000       0.00000
Nuclear contribution   :     -0.00000      -0.00000       0.00000
                        -----------------------------------------
Total Dipole Moment    :     -0.00000       0.00000       0.00000
                        -----------------------------------------
Magnitude (a.u.)       :      0.00000
Magnitude (Debye)      :      0.00000

Rotational constants in cm-1:     0.054937     0.023072     0.021678
Rotational constants in MHz :  1646.969037   691.679505   649.881401

                             ****ORCA TERMINATED NORMALLY****
TOTAL RUN TIME: 0 days 0 hours 2 minutes 19 seconds 876 msec
