                         Program Version 5.0.3 -  RELEASE  -
|  1> ! PBEh-3c def2/J TightSCF DefGrid3
|  2>
|  3> %maxcore 60000
|  4>
|  5> %pal
|  6> nprocs 4
|  7> end
|  8>
|  9> *xyzfile 0 1 2CL_A.xyz
| 10>
| 11>                          ****END OF INPUT****

CARTESIAN COORDINATES (ANGSTROEM)
---------------------------------
  Cl     0.000000    0.000000   -0.678555
  H      0.000000    0.000000    0.678555

 Total Charge           Charge          ....    0
 Multiplicity           Mult            ....    1
 Number of Electrons    NEL             ....   18
 Basis Dimension        Dim             ....   20

ORBITAL ENERGIES
----------------

  NO   OCC          E(Eh)            E(eV)
   0   2.0000    -102.302401     -2783.7899
   1   2.0000      -9.769373      -265.8382
   2   2.0000      -7.457522      -202.9295
   3   2.0000      -7.448500      -202.6840
   4   2.0000      -7.448500      -202.6840
   5   2.0000      -0.915320       -24.9071
   6   2.0000      -0.510900       -13.9023
   7   2.0000      -0.373631       -10.1670
   8   2.0000      -0.373631       -10.1670
   9   0.0000       0.038450         1.0463
  10   0.0000       0.511744        13.9253
  11   0.0000       0.642598        17.4860
  12   0.0000       0.807882        21.9836
  13   0.0000       0.807882        21.9836

MULLIKEN ATOMIC CHARGES
-----------------------
   0 Cl:   -0.282358
   1 H :    0.282358
Sum of atomic charges:    0.0000000

LOEWDIN ATOMIC CHARGES
----------------------
   0 Cl:   -0.188324
   1 H :    0.188324

  Mayer bond orders larger than 0.100000
B(  0-Cl,  1-H ) :   0.8977

Dispersion correction           -0.000168106
FINAL SINGLE POINT ENERGY      -460.293142957512

DIPOLE MOMENT
-------------
                                X             Y             Z
Electronic contribution:      0.00000       0.00000      -0.67352
Nuclear contribution   :      0.00000       0.00000       1.28837
                        -----------------------------------------
Total Dipole Moment    :      0.00000       0.00000       0.61485
                        -----------------------------------------
Magnitude (a.u.)       :      0.61485
Magnitude (Debye)      :      1.56283

Rotational constants in cm-1:     0.000000     9.338613     9.338613
Rotational constants in MHz :     0.000000 279964.565796 279964.565796

                             ****ORCA TERMINATED NORMALLY****
TOTAL RUN TIME: 0 days 0 hours 0 minutes 16 seconds 774 msec
