                         Program Version 5.0.3 -  RELEASE  -
|  1> ! PBEh-3c def2/J TightSCF DefGrid3
|  2>
|  3> %maxcore 60000
|  4>
|  5> %pal
|  6> nprocs 4
|  7> end
|  8>
|  9> *xyzfile 0 1 F22l.xyz
| 10>
| 11>                          ****END OF INPUT****

CARTESIAN COORDINATES (ANGSTROEM)
---------------------------------
  C     -6.112898   -3.570705    0.000000
  C     -5.348345   -2.235174    0.000000
  C     -3.819402   -2.412141    0.000000
  C     -3.055733   -1.076031    0.000000
  C     -1.526553   -1.250192    0.000000
  C     -0.764602    0.086954    0.000000
  C      0.764602   -0.086954    0.000000
  C      1.526553    1.250192    0.000000
  C      3.055733    1.076031    0.000000
  C      3.819402    2.412141    0.000000
  C      5.348345    2.235174    0.000000
  C      6.112898    3.570705    0.000000
  C      7.641978    3.395079    0.000000
  C      8.404717    4.731777    0.000000
  C      9.933836    4.557861    0.000000
  C     10.695745    5.895828    0.000000
  C     12.225034    5.708597    0.000000
  C     -7.641978   -3.395079    0.000000
  C     -8.404717   -4.731777    0.000000
  C     -9.933836   -4.557861    0.000000
  C    -10.695745   -5.895828    0.000000
  C    -12.225034   -5.708597    0.000000
  H     -5.814855   -4.160027    0.883588
  H     -5.814855   -4.160027   -0.883588
  H     -5.646026   -1.645659   -0.883608
  H     -5.646026   -1.645659    0.883608
  H     -3.521602   -3.001559   -0.883614
  H     -3.521602   -3.001559    0.883614
  H     -3.354465   -0.487033   -0.883560
  H     -3.354465   -0.487033    0.883560
  H     -1.227468   -1.838954   -0.883608
  H     -1.227468   -1.838954    0.883608
  H     -1.063537    0.675827   -0.883591
  H     -1.063537    0.675827    0.883591
  H      1.063537   -0.675827   -0.883591
  H      1.063537   -0.675827    0.883591
  H      1.227468    1.838954   -0.883608
  H      1.227468    1.838954    0.883608
  H      3.354465    0.487033   -0.883560
  H      3.354465    0.487033    0.883560
  H      3.521602    3.001559   -0.883614
  H      3.521602    3.001559    0.883614
  H      5.646026    1.645659   -0.883608
  H      5.646026    1.645659    0.883608
  H      5.814855    4.160027   -0.883588
  H      5.814855    4.160027    0.883588
  H      7.940466    2.806136   -0.883641
  H      7.940466    2.806136    0.883641
  H      8.106033    5.320644   -0.883687
  H      8.106033    5.320644    0.883687
  H     10.233474    3.969222   -0.883742
  H     10.233474    3.969222    0.883742
  H     10.392961    6.481354   -0.883474
  H     10.392961    6.481354    0.883474
  H     12.547055    5.144782   -0.889200
  H     12.750442    6.675068    0.000000
  H     12.547055    5.144782    0.889200
  H     -7.940466   -2.806136   -0.883641
  H     -7.940466   -2.806136    0.883641
  H     -8.106033   -5.320644   -0.883687
  H     -8.106033   -5.320644    0.883687
  H    -10.233474   -3.969222   -0.883742
  H    -10.233474   -3.969222    0.883742
  H    -10.392961   -6.481354   -0.883474
  H    -10.392961   -6.481354    0.883474
  H    -12.547055   -5.144782   -0.889200
  H    -12.750442   -6.675068    0.000000
  H    -12.547055   -5.144782    0.889200

 Total Charge           Charge          ....    0
 Multiplicity           Mult            ....    1
 Number of Electrons    NEL             ....  178
 Basis Dimension        Dim             ....  422

ORBITAL ENERGIES
----------------

  NO   OCC          E(Eh)            E(eV)
   0   2.0000     -10.431815      -283.8641
   1   2.0000     -10.431815      -283.8641
   2   2.0000     -10.429852      -283.8107
   3   2.0000     -10.429852      -283.8107
   4   2.0000     -10.429775      -283.8086
   5   2.0000     -10.429775      -283.8086
   6   2.0000     -10.429717      -283.8070
   7   2.0000     -10.429714      -283.8069
   8   2.0000     -10.429681      -283.8061
   9   2.0000     -10.429681      -283.8060
  10   2.0000     -10.429650      -283.8052
  11   2.0000     -10.429617      -283.8043
  12   2.0000     -10.429581      -283.8033
  13   2.0000     -10.429553      -283.8026
  14   2.0000     -10.429522      -283.8017
  15   2.0000     -10.429480      -283.8006
  16   2.0000     -10.429442      -283.7996
  17   2.0000     -10.429404      -283.7985
  18   2.0000     -10.429365      -283.7974
  19   2.0000     -10.429326      -283.7964
  20   2.0000     -10.423976      -283.6508
  21   2.0000     -10.423976      -283.6508
  22   2.0000      -0.903185       -24.5769
  23   2.0000      -0.899310       -24.4715
  24   2.0000      -0.892747       -24.2929
  25   2.0000      -0.883565       -24.0430
  26   2.0000      -0.871839       -23.7240
  27   2.0000      -0.857612       -23.3368
  28   2.0000      -0.841042       -22.8859
  29   2.0000      -0.822207       -22.3734
  30   2.0000      -0.801285       -21.8041
  31   2.0000      -0.778597       -21.1867
  32   2.0000      -0.754403       -20.5283
  33   2.0000      -0.729289       -19.8450
  34   2.0000      -0.703989       -19.1565
  35   2.0000      -0.679891       -18.5008
  36   2.0000      -0.659276       -17.9398
  37   2.0000      -0.645790       -17.5728
  38   2.0000      -0.644501       -17.5378
  39   2.0000      -0.643542       -17.5117
  40   2.0000      -0.639974       -17.4146
  41   2.0000      -0.637984       -17.3604
  42   2.0000      -0.634984       -17.2788
  43   2.0000      -0.634405       -17.2631
  44   2.0000      -0.546577       -14.8731
  45   2.0000      -0.542996       -14.7757
  46   2.0000      -0.536964       -14.6115
  47   2.0000      -0.528624       -14.3846
  48   2.0000      -0.518160       -14.0999
  49   2.0000      -0.505771       -13.7627
  50   2.0000      -0.491781       -13.3821
  51   2.0000      -0.488472       -13.2920
  52   2.0000      -0.484862       -13.1938
  53   2.0000      -0.483380       -13.1535
  54   2.0000      -0.476501       -12.9663
  55   2.0000      -0.474567       -12.9136
  56   2.0000      -0.469390       -12.7728
  57   2.0000      -0.461317       -12.5531
  58   2.0000      -0.460370       -12.5273
  59   2.0000      -0.446880       -12.1602
  60   2.0000      -0.446300       -12.1445
  61   2.0000      -0.443973       -12.0811
  62   2.0000      -0.430738       -11.7210
  63   2.0000      -0.427832       -11.6419
  64   2.0000      -0.420124       -11.4322
  65   2.0000      -0.415111       -11.2958
  66   2.0000      -0.412629       -11.2282
  67   2.0000      -0.402784       -10.9603
  68   2.0000      -0.398929       -10.8554
  69   2.0000      -0.391063       -10.6414
  70   2.0000      -0.390455       -10.6248
  71   2.0000      -0.387274       -10.5383
  72   2.0000      -0.381634       -10.3848
  73   2.0000      -0.378117       -10.2891
  74   2.0000      -0.375321       -10.2130
  75   2.0000      -0.371447       -10.1076
  76   2.0000      -0.370522       -10.0824
  77   2.0000      -0.367738       -10.0067
  78   2.0000      -0.367190        -9.9917
  79   2.0000      -0.365917        -9.9571
  80   2.0000      -0.365262        -9.9393
  81   2.0000      -0.365048        -9.9335
  82   2.0000      -0.364767        -9.9258
  83   2.0000      -0.364664        -9.9230
  84   2.0000      -0.363784        -9.8991
  85   2.0000      -0.363711        -9.8971
  86   2.0000      -0.363069        -9.8796
  87   2.0000      -0.341225        -9.2852
  88   2.0000      -0.326521        -8.8851
  89   0.0000       0.126132         3.4322
  90   0.0000       0.129131         3.5138
  91   0.0000       0.133747         3.6394
  92   0.0000       0.139014         3.7828
  93   0.0000       0.143604         3.9077

MULLIKEN ATOMIC CHARGES
-----------------------
   0 C :   -0.398712
   1 C :   -0.398828
   2 C :   -0.398831
   3 C :   -0.398777
   4 C :   -0.398837
   5 C :   -0.398808
   6 C :   -0.398811
   7 C :   -0.398835
   8 C :   -0.398779
   9 C :   -0.398828
  10 C :   -0.398830
  11 C :   -0.398711
  12 C :   -0.398377
  13 C :   -0.398331
  14 C :   -0.393876
  15 C :   -0.407134
  16 C :   -0.635119
  17 C :   -0.398376
  18 C :   -0.398332
  19 C :   -0.393875
  20 C :   -0.407134
  21 C :   -0.635119
  22 H :    0.199406
  23 H :    0.199406
  24 H :    0.199428
  25 H :    0.199428
  26 H :    0.199438
  27 H :    0.199438
  28 H :    0.199404
  29 H :    0.199404
  30 H :    0.199421
  31 H :    0.199421
  32 H :    0.199421
  33 H :    0.199422
  34 H :    0.199421
  35 H :    0.199421
  36 H :    0.199421
  37 H :    0.199421
  38 H :    0.199404
  39 H :    0.199404
  40 H :    0.199438
  41 H :    0.199438
  42 H :    0.199428
  43 H :    0.199428
  44 H :    0.199406
  45 H :    0.199406
  46 H :    0.199470
  47 H :    0.199470
  48 H :    0.199220
  49 H :    0.199220
  50 H :    0.198757
  51 H :    0.198757
  52 H :    0.203185
  53 H :    0.203185
  54 H :    0.207405
  55 H :    0.216520
  56 H :    0.207405
  57 H :    0.199470
  58 H :    0.199470
  59 H :    0.199220
  60 H :    0.199220
  61 H :    0.198757
  62 H :    0.198757
  63 H :    0.203185
  64 H :    0.203185
  65 H :    0.207405
  66 H :    0.216520
  67 H :    0.207405
Sum of atomic charges:    0.0000000

LOEWDIN ATOMIC CHARGES
----------------------
   0 C :   -0.237306
   1 C :   -0.237275
   2 C :   -0.237265
   3 C :   -0.237285
   4 C :   -0.237278
   5 C :   -0.237269
   6 C :   -0.237269
   7 C :   -0.237278
   8 C :   -0.237285
   9 C :   -0.237265
  10 C :   -0.237275
  11 C :   -0.237306
  12 C :   -0.237199
  13 C :   -0.237746
  14 C :   -0.239211
  15 C :   -0.244829
  16 C :   -0.362146
  17 C :   -0.237199
  18 C :   -0.237746
  19 C :   -0.239211
  20 C :   -0.244829
  21 C :   -0.362146
  22 H :    0.118647
  23 H :    0.118647
  24 H :    0.118648
  25 H :    0.118648
  26 H :    0.118646
  27 H :    0.118646
  28 H :    0.118648
  29 H :    0.118648
  30 H :    0.118649
  31 H :    0.118649
  32 H :    0.118643
  33 H :    0.118643
  34 H :    0.118643
  35 H :    0.118643
  36 H :    0.118649
  37 H :    0.118649
  38 H :    0.118648
  39 H :    0.118648
  40 H :    0.118646
  41 H :    0.118646
  42 H :    0.118648
  43 H :    0.118648
  44 H :    0.118647
  45 H :    0.118647
  46 H :    0.118687
  47 H :    0.118687
  48 H :    0.118632
  49 H :    0.118632
  50 H :    0.118242
  51 H :    0.118242
  52 H :    0.119032
  53 H :    0.119032
  54 H :    0.123108
  55 H :    0.125647
  56 H :    0.123108
  57 H :    0.118687
  58 H :    0.118687
  59 H :    0.118632
  60 H :    0.118632
  61 H :    0.118242
  62 H :    0.118242
  63 H :    0.119032
  64 H :    0.119032
  65 H :    0.123108
  66 H :    0.125647
  67 H :    0.123108

  Mayer bond orders larger than 0.100000
B(  0-C ,  1-C ) :   0.9902 B(  0-C , 17-C ) :   0.9903 B(  0-C , 22-H ) :   0.9191
B(  0-C , 23-H ) :   0.9191 B(  1-C ,  2-C ) :   0.9901 B(  1-C , 24-H ) :   0.9191
B(  1-C , 25-H ) :   0.9191 B(  2-C ,  3-C ) :   0.9902 B(  2-C , 26-H ) :   0.9192
B(  2-C , 27-H ) :   0.9192 B(  3-C ,  4-C ) :   0.9902 B(  3-C , 28-H ) :   0.9191
B(  3-C , 29-H ) :   0.9191 B(  4-C ,  5-C ) :   0.9901 B(  4-C , 30-H ) :   0.9192
B(  4-C , 31-H ) :   0.9192 B(  5-C ,  6-C ) :   0.9901 B(  5-C , 32-H ) :   0.9191
B(  5-C , 33-H ) :   0.9191 B(  6-C ,  7-C ) :   0.9901 B(  6-C , 34-H ) :   0.9191
B(  6-C , 35-H ) :   0.9191 B(  7-C ,  8-C ) :   0.9902 B(  7-C , 36-H ) :   0.9192
B(  7-C , 37-H ) :   0.9192 B(  8-C ,  9-C ) :   0.9902 B(  8-C , 38-H ) :   0.9191
B(  8-C , 39-H ) :   0.9191 B(  9-C , 10-C ) :   0.9901 B(  9-C , 40-H ) :   0.9192
B(  9-C , 41-H ) :   0.9192 B( 10-C , 11-C ) :   0.9902 B( 10-C , 42-H ) :   0.9191
B( 10-C , 43-H ) :   0.9191 B( 11-C , 12-C ) :   0.9903 B( 11-C , 44-H ) :   0.9191
B( 11-C , 45-H ) :   0.9191 B( 12-C , 13-C ) :   0.9900 B( 12-C , 46-H ) :   0.9191
B( 12-C , 47-H ) :   0.9191 B( 13-C , 14-C ) :   0.9909 B( 13-C , 48-H ) :   0.9189
B( 13-C , 49-H ) :   0.9189 B( 14-C , 15-C ) :   0.9862 B( 14-C , 50-H ) :   0.9190
B( 14-C , 51-H ) :   0.9190 B( 15-C , 16-C ) :   0.9934 B( 15-C , 52-H ) :   0.9209
B( 15-C , 53-H ) :   0.9209 B( 16-C , 54-H ) :   0.9297 B( 16-C , 55-H ) :   0.9320
B( 16-C , 56-H ) :   0.9297 B( 17-C , 18-C ) :   0.9900 B( 17-C , 57-H ) :   0.9191
B( 17-C , 58-H ) :   0.9191 B( 18-C , 19-C ) :   0.9909 B( 18-C , 59-H ) :   0.9189
B( 18-C , 60-H ) :   0.9189 B( 19-C , 20-C ) :   0.9862 B( 19-C , 61-H ) :   0.9190
B( 19-C , 62-H ) :   0.9190 B( 20-C , 21-C ) :   0.9934 B( 20-C , 63-H ) :   0.9209
B( 20-C , 64-H ) :   0.9209 B( 21-C , 65-H ) :   0.9297 B( 21-C , 66-H ) :   0.9320
B( 21-C , 67-H ) :   0.9297

Dispersion correction           -0.035619742
FINAL SINGLE POINT ENERGY      -864.199403009542

DIPOLE MOMENT
-------------
                                X             Y             Z
Electronic contribution:      0.00000       0.00000       0.00000
Nuclear contribution   :     -0.00000       0.00000       0.00000
                        -----------------------------------------
Total Dipole Moment    :      0.00000       0.00000       0.00000
                        -----------------------------------------
Magnitude (a.u.)       :      0.00000
Magnitude (Debye)      :      0.00000

Rotational constants in cm-1:     0.125803     0.000804     0.000802
Rotational constants in MHz :  3771.479325    24.116560    24.042373

                             ****ORCA TERMINATED NORMALLY****
TOTAL RUN TIME: 0 days 0 hours 5 minutes 25 seconds 885 msec
