                         Program Version 5.0.3 -  RELEASE  -
|  1> ! PBEh-3c def2/J TightSCF DefGrid3
|  2>
|  3> %maxcore 60000
|  4>
|  5> %pal
|  6> nprocs 4
|  7> end
|  8>
|  9> *xyzfile 0 1 c4h4.xyz
| 10>
| 11>                          ****END OF INPUT****

CARTESIAN COORDINATES (ANGSTROEM)
---------------------------------
  C     -0.790143    0.667707    0.000000
  C     -0.790143   -0.667707    0.000000
  C      0.790143   -0.667707    0.000000
  C      0.790143    0.667707    0.000000
  H     -1.553442    1.436739    0.000000
  H     -1.553442   -1.436739    0.000000
  H      1.553442   -1.436739    0.000000
  H      1.553442    1.436739    0.000000

 Total Charge           Charge          ....    0
 Multiplicity           Mult            ....    1
 Number of Electrons    NEL             ....   28
 Basis Dimension        Dim             ....   68

ORBITAL ENERGIES
----------------

  NO   OCC          E(Eh)            E(eV)
   0   2.0000     -10.456815      -284.5444
   1   2.0000     -10.456771      -284.5432
   2   2.0000     -10.455928      -284.5203
   3   2.0000     -10.455885      -284.5191
   4   2.0000      -0.962272       -26.1848
   5   2.0000      -0.749999       -20.4085
   6   2.0000      -0.678887       -18.4735
   7   2.0000      -0.579152       -15.7595
   8   2.0000      -0.576678       -15.6922
   9   2.0000      -0.451802       -12.2942
  10   2.0000      -0.443036       -12.0556
  11   2.0000      -0.402106       -10.9419
  12   2.0000      -0.366671        -9.9776
  13   2.0000      -0.230907        -6.2833
  14   0.0000      -0.030021        -0.8169
  15   0.0000       0.124884         3.3983
  16   0.0000       0.135385         3.6840
  17   0.0000       0.176073         4.7912
  18   0.0000       0.199344         5.4244

MULLIKEN ATOMIC CHARGES
-----------------------
   0 C :   -0.210553
   1 C :   -0.210554
   2 C :   -0.210553
   3 C :   -0.210554
   4 H :    0.210553
   5 H :    0.210553
   6 H :    0.210553
   7 H :    0.210553
Sum of atomic charges:    0.0000000

LOEWDIN ATOMIC CHARGES
----------------------
   0 C :   -0.131472
   1 C :   -0.131472
   2 C :   -0.131472
   3 C :   -0.131472
   4 H :    0.131472
   5 H :    0.131472
   6 H :    0.131472
   7 H :    0.131472

  Mayer bond orders larger than 0.100000
B(  0-C ,  1-C ) :   1.9368 B(  0-C ,  3-C ) :   0.9534 B(  0-C ,  4-H ) :   0.9230
B(  1-C ,  2-C ) :   0.9534 B(  1-C ,  5-H ) :   0.9230 B(  2-C ,  3-C ) :   1.9368
B(  2-C ,  6-H ) :   0.9230 B(  3-C ,  7-H ) :   0.9230

Dispersion correction           -0.002676944
FINAL SINGLE POINT ENERGY      -154.321090119071

DIPOLE MOMENT
-------------
                                X             Y             Z
Electronic contribution:     -0.00000      -0.00000       0.00000
Nuclear contribution   :      0.00000       0.00000       0.00000
                        -----------------------------------------
Total Dipole Moment    :     -0.00000      -0.00000       0.00000
                        -----------------------------------------
Magnitude (a.u.)       :      0.00000
Magnitude (Debye)      :      0.00000

Rotational constants in cm-1:     0.566786     0.424358     0.242669
Rotational constants in MHz : 16991.828479 12721.923453  7275.040248

                             ****ORCA TERMINATED NORMALLY****
TOTAL RUN TIME: 0 days 0 hours 0 minutes 38 seconds 219 msec
