                         Program Version 5.0.3 -  RELEASE  -
|  1> ! PBEh-3c def2/J TightSCF DefGrid3
|  2>
|  3> %maxcore 60000
|  4>
|  5> %pal
|  6> nprocs 4
|  7> end
|  8>
|  9> *xyzfile 2 1 c4h4_2+.xyz
| 10>
| 11>                          ****END OF INPUT****

CARTESIAN COORDINATES (ANGSTROEM)
---------------------------------
  C     -0.725121    0.725121    0.000000
  C     -0.725121   -0.725121    0.000000
  C      0.725121   -0.725121    0.000000
  C      0.725121    0.725121    0.000000
  H     -1.501228    1.501228    0.000000
  H     -1.501228   -1.501228    0.000000
  H      1.501228   -1.501228    0.000000
  H      1.501228    1.501228    0.000000

 Total Charge           Charge          ....    2
 Multiplicity           Mult            ....    1
 Number of Electrons    NEL             ....   26
 Basis Dimension        Dim             ....   68

ORBITAL ENERGIES
----------------

  NO   OCC          E(Eh)            E(eV)
   0   2.0000     -11.053948      -300.7932
   1   2.0000     -11.053617      -300.7842
   2   2.0000     -11.053617      -300.7842
   3   2.0000     -11.053303      -300.7757
   4   2.0000      -1.556554       -42.3560
   5   2.0000      -1.262040       -34.3419
   6   2.0000      -1.262040       -34.3419
   7   2.0000      -1.105330       -30.0776
   8   2.0000      -1.089683       -29.6518
   9   2.0000      -1.011483       -27.5238
  10   2.0000      -0.955440       -25.9988
  11   2.0000      -0.955440       -25.9988
  12   2.0000      -0.940999       -25.6059
  13   0.0000      -0.608611       -16.5612
  14   0.0000      -0.608611       -16.5612
  15   0.0000      -0.394102       -10.7241
  16   0.0000      -0.302532        -8.2323
  17   0.0000      -0.302532        -8.2323

MULLIKEN ATOMIC CHARGES
-----------------------
   0 C :    0.065584
   1 C :    0.065584
   2 C :    0.065584
   3 C :    0.065583
   4 H :    0.434417
   5 H :    0.434416
   6 H :    0.434416
   7 H :    0.434416
Sum of atomic charges:    2.0000000

LOEWDIN ATOMIC CHARGES
----------------------
   0 C :    0.236730
   1 C :    0.236730
   2 C :    0.236730
   3 C :    0.236730
   4 H :    0.263270
   5 H :    0.263270
   6 H :    0.263270
   7 H :    0.263270

  Mayer bond orders larger than 0.100000
B(  0-C ,  1-C ) :   1.1422 B(  0-C ,  2-C ) :   0.1806 B(  0-C ,  3-C ) :   1.1422
B(  0-C ,  4-H ) :   0.8137 B(  1-C ,  2-C ) :   1.1422 B(  1-C ,  3-C ) :   0.1806
B(  1-C ,  5-H ) :   0.8137 B(  2-C ,  3-C ) :   1.1422 B(  2-C ,  6-H ) :   0.8137
B(  3-C ,  7-H ) :   0.8137

Dispersion correction           -0.002639139
FINAL SINGLE POINT ENERGY      -153.481480167329

DIPOLE MOMENT
-------------
                                X             Y             Z
Electronic contribution:     -0.00000       0.00000       0.00000
Nuclear contribution   :      0.00000       0.00000       0.00000
                        -----------------------------------------
Total Dipole Moment    :     -0.00000       0.00000       0.00000
                        -----------------------------------------
Magnitude (a.u.)       :      0.00000
Magnitude (Debye)      :      0.00000

Rotational constants in cm-1:     0.490784     0.490784     0.245392
Rotational constants in MHz : 14713.331385 14713.331385  7356.665692

                             ****ORCA TERMINATED NORMALLY****
TOTAL RUN TIME: 0 days 0 hours 0 minutes 34 seconds 796 msec
