                         Program Version 5.0.3 -  RELEASE  -
|  1> ! PBEh-3c def2/J TightSCF DefGrid3
|  2>
|  3> %maxcore 60000
|  4>
|  5> %pal
|  6> nprocs 4
|  7> end
|  8>
|  9> *xyzfile 0 1 hfNe.xyz
| 10>
| 11>                          ****END OF INPUT****

CARTESIAN COORDINATES (ANGSTROEM)
---------------------------------
  H      0.000000    0.000000   -0.488519
  F      0.000000    0.000000   -1.404260
  Ne     0.000000    0.000000    1.892779

 Total Charge           Charge          ....    0
 Multiplicity           Mult            ....    1
 Number of Electrons    NEL             ....   20
 Basis Dimension        Dim             ....   32

ORBITAL ENERGIES
----------------

  NO   OCC          E(Eh)            E(eV)
   0   2.0000     -31.436202      -855.4225
   1   2.0000     -25.062508      -681.9855
   2   2.0000      -1.602234       -43.5990
   3   2.0000      -1.300656       -35.3927
   4   2.0000      -0.664523       -18.0826
   5   2.0000      -0.661512       -18.0007
   6   2.0000      -0.661512       -18.0007
   7   2.0000      -0.597317       -16.2538
   8   2.0000      -0.462386       -12.5822
   9   2.0000      -0.462386       -12.5822
  10   0.0000       0.135624         3.6905
  11   0.0000       0.840735        22.8776
  12   0.0000       1.161214        31.5982
  13   0.0000       1.161214        31.5982
  14   0.0000       1.256505        34.1912

MULLIKEN ATOMIC CHARGES
-----------------------
   0 H :    0.502277
   1 F :   -0.511585
   2 Ne:    0.009308
Sum of atomic charges:   -0.0000000

LOEWDIN ATOMIC CHARGES
----------------------
   0 H :    0.374756
   1 F :   -0.383759
   2 Ne:    0.009004

  Mayer bond orders larger than 0.100000
B(  0-H ,  1-F ) :   0.7281

Dispersion correction           -0.000176586
FINAL SINGLE POINT ENERGY      -228.938686110340

DIPOLE MOMENT
-------------
                                X             Y             Z
Electronic contribution:      0.00000      -0.00000       0.16162
Nuclear contribution   :      0.00000       0.00000       0.59411
                        -----------------------------------------
Total Dipole Moment    :      0.00000      -0.00000       0.75573
                        -----------------------------------------
Magnitude (a.u.)       :      0.75573
Magnitude (Debye)      :      1.92092

Rotational constants in cm-1:     0.000000     0.157588     0.157588
Rotational constants in MHz :     0.000000  4724.366264  4724.366264

                             ****ORCA TERMINATED NORMALLY****
TOTAL RUN TIME: 0 days 0 hours 0 minutes 36 seconds 801 msec
