                         Program Version 5.0.3 -  RELEASE  -
|  1> ! PBEh-3c def2/J TightSCF DefGrid3
|  2>
|  3> %maxcore 60000
|  4>
|  5> %pal
|  6> nprocs 4
|  7> end
|  8>
|  9> *xyzfile 0 1 10.xyz
| 10>
| 11>                          ****END OF INPUT****

CARTESIAN COORDINATES (ANGSTROEM)
---------------------------------
  C     -4.306695    0.205097   -1.058139
  C     -3.588264    0.881914   -2.023257
  C     -2.974513    2.070456   -1.390576
  C     -4.220686    1.000026    0.191321
  C     -3.243021    2.062973    0.003170
  C     -4.063452    0.105539    1.228786
  C     -3.971512   -1.178464   -0.735455
  C     -3.915828   -1.271132    0.681966
  C     -2.934581   -1.806706   -1.458286
  C     -2.562448    0.242594   -2.799613
  C     -2.290318   -1.124852   -2.572037
  C     -1.679091    2.216690   -1.888049
  C     -1.435430    1.159341   -2.867671
  C     -0.619781    2.627714   -1.013841
  C     -2.145644    2.229288    0.934155
  C     -0.826708    2.621337    0.423487
  C     -3.094047    0.313071    2.238329
  C     -2.203228    1.448741    2.174363
  C     -2.841754   -1.867912    1.370668
  C     -2.516500   -0.998640    2.494808
  C     -1.873335   -2.506383   -0.748337
  C     -1.739447   -2.497092    0.664837
  C     -0.924343   -1.573842   -2.656725
  C     -0.679366   -2.458315   -1.551665
  C     -0.126855    0.722912   -3.113845
  C      0.126855   -0.722912   -3.113845
  C      0.679366    2.458315   -1.551665
  C      0.924343    1.573842   -2.656725
  C      1.873335    2.506383   -0.748337
  C      0.380886    2.508623    1.264446
  C      1.739447    2.497092    0.664837
  C     -1.022541    1.339946    2.950952
  C      0.224327    1.942861    2.552433
  C     -1.298269   -1.107333    3.110110
  C     -0.703276    0.089295    3.593663
  C     -0.380886   -2.508623    1.264446
  C     -0.224327   -1.942861    2.552433
  C      0.619781   -2.627714   -1.013841
  C      0.826708   -2.621337    0.423487
  C      1.435430   -1.159341   -2.867671
  C      1.679091   -2.216690   -1.888049
  C      2.290318    1.124852   -2.572037
  C      2.934581    1.806706   -1.458286
  C      2.562448   -0.242594   -2.799613
  C      3.971512    1.178464   -0.735455
  C      2.841754    1.867912    1.370668
  C      3.915828    1.271132    0.681966
  C      1.298269    1.107333    3.110110
  C      0.703276   -0.089295    3.593663
  C      1.022541   -1.339946    2.950952
  C      2.516500    0.998640    2.494808
  C      2.145644   -2.229288    0.934155
  C      4.063452   -0.105539    1.228786
  C      2.203228   -1.448741    2.174363
  C      3.094047   -0.313071    2.238329
  C      2.974513   -2.070456   -1.390576
  C      3.588264   -0.881914   -2.023257
  C      4.306695   -0.205097   -1.058139
  C      3.243021   -2.062973    0.003170
  C      4.220686   -1.000026    0.191321

 Total Charge           Charge          ....    0
 Multiplicity           Mult            ....    1
 Number of Electrons    NEL             ....  360
 Basis Dimension        Dim             ....  900

ORBITAL ENERGIES
----------------

  NO   OCC          E(Eh)            E(eV)
   0   2.0000     -10.535013      -286.6723
   1   2.0000     -10.535012      -286.6722
   2   2.0000     -10.534720      -286.6643
   3   2.0000     -10.534719      -286.6643
   4   2.0000     -10.534282      -286.6524
   5   2.0000     -10.534279      -286.6523
   6   2.0000     -10.530351      -286.5454
   7   2.0000     -10.530350      -286.5454
   8   2.0000     -10.525300      -286.4080
   9   2.0000     -10.525296      -286.4079
  10   2.0000     -10.524762      -286.3933
  11   2.0000     -10.524752      -286.3931
  12   2.0000     -10.522922      -286.3433
  13   2.0000     -10.522601      -286.3345
  14   2.0000     -10.521423      -286.3025
  15   2.0000     -10.521417      -286.3023
  16   2.0000     -10.520593      -286.2799
  17   2.0000     -10.520591      -286.2798
  18   2.0000     -10.519776      -286.2577
  19   2.0000     -10.519776      -286.2577
  20   2.0000     -10.519548      -286.2515
  21   2.0000     -10.519531      -286.2510
  22   2.0000     -10.519477      -286.2495
  23   2.0000     -10.519477      -286.2495
  24   2.0000     -10.519282      -286.2442
  25   2.0000     -10.519282      -286.2442
  26   2.0000     -10.519042      -286.2377
  27   2.0000     -10.519039      -286.2376
  28   2.0000     -10.517942      -286.2078
  29   2.0000     -10.517933      -286.2075
  30   2.0000     -10.516142      -286.1588
  31   2.0000     -10.516142      -286.1588
  32   2.0000     -10.515839      -286.1505
  33   2.0000     -10.515837      -286.1505
  34   2.0000     -10.515328      -286.1366
  35   2.0000     -10.515328      -286.1366
  36   2.0000     -10.514972      -286.1269
  37   2.0000     -10.514964      -286.1267
  38   2.0000     -10.514953      -286.1264
  39   2.0000     -10.514943      -286.1261
  40   2.0000     -10.514760      -286.1212
  41   2.0000     -10.514760      -286.1212
  42   2.0000     -10.513929      -286.0986
  43   2.0000     -10.513928      -286.0985
  44   2.0000     -10.512179      -286.0509
  45   2.0000     -10.512178      -286.0509
  46   2.0000     -10.511706      -286.0381
  47   2.0000     -10.511705      -286.0380
  48   2.0000     -10.511502      -286.0325
  49   2.0000     -10.511498      -286.0324
  50   2.0000     -10.511013      -286.0192
  51   2.0000     -10.511012      -286.0192
  52   2.0000     -10.510486      -286.0049
  53   2.0000     -10.510459      -286.0041
  54   2.0000     -10.508871      -285.9609
  55   2.0000     -10.508870      -285.9609
  56   2.0000     -10.508693      -285.9561
  57   2.0000     -10.508691      -285.9560
  58   2.0000     -10.506508      -285.8966
  59   2.0000     -10.505974      -285.8821
  60   2.0000      -1.102818       -30.0092
  61   2.0000      -1.093460       -29.7546
  62   2.0000      -1.082549       -29.4577
  63   2.0000      -1.064009       -28.9532
  64   2.0000      -1.057829       -28.7850
  65   2.0000      -1.046410       -28.4743
  66   2.0000      -1.037547       -28.2331
  67   2.0000      -1.018569       -27.7167
  68   2.0000      -1.009876       -27.4801
  69   2.0000      -1.002458       -27.2783
  70   2.0000      -0.995451       -27.0876
  71   2.0000      -0.978369       -26.6228
  72   2.0000      -0.972398       -26.4603
  73   2.0000      -0.956198       -26.0195
  74   2.0000      -0.946141       -25.7458
  75   2.0000      -0.942161       -25.6375
  76   2.0000      -0.937744       -25.5173
  77   2.0000      -0.925325       -25.1794
  78   2.0000      -0.917671       -24.9711
  79   2.0000      -0.905181       -24.6312
  80   2.0000      -0.891801       -24.2671
  81   2.0000      -0.877279       -23.8720
  82   2.0000      -0.875967       -23.8363
  83   2.0000      -0.862862       -23.4797
  84   2.0000      -0.861530       -23.4434
  85   2.0000      -0.846575       -23.0365
  86   2.0000      -0.845605       -23.0101
  87   2.0000      -0.842543       -22.9268
  88   2.0000      -0.830461       -22.5980
  89   2.0000      -0.829382       -22.5686
  90   2.0000      -0.796598       -21.6765
  91   2.0000      -0.784913       -21.3586
  92   2.0000      -0.780354       -21.2345
  93   2.0000      -0.765386       -20.8272
  94   2.0000      -0.756759       -20.5925
  95   2.0000      -0.752367       -20.4730
  96   2.0000      -0.748984       -20.3809
  97   2.0000      -0.740017       -20.1369
  98   2.0000      -0.734630       -19.9903
  99   2.0000      -0.727060       -19.7843
 100   2.0000      -0.720940       -19.6178
 101   2.0000      -0.706223       -19.2173
 102   2.0000      -0.694063       -18.8864
 103   2.0000      -0.683006       -18.5855
 104   2.0000      -0.679373       -18.4867
 105   2.0000      -0.666042       -18.1239
 106   2.0000      -0.657278       -17.8854
 107   2.0000      -0.648620       -17.6498
 108   2.0000      -0.646032       -17.5794
 109   2.0000      -0.640844       -17.4383
 110   2.0000      -0.624313       -16.9884
 111   2.0000      -0.621499       -16.9118
 112   2.0000      -0.616967       -16.7885
 113   2.0000      -0.610498       -16.6125
 114   2.0000      -0.606691       -16.5089
 115   2.0000      -0.604876       -16.4595
 116   2.0000      -0.587049       -15.9744
 117   2.0000      -0.572908       -15.5896
 118   2.0000      -0.568803       -15.4779
 119   2.0000      -0.566125       -15.4050
 120   2.0000      -0.562328       -15.3017
 121   2.0000      -0.562282       -15.3005
 122   2.0000      -0.556801       -15.1513
 123   2.0000      -0.551067       -14.9953
 124   2.0000      -0.550051       -14.9677
 125   2.0000      -0.546055       -14.8589
 126   2.0000      -0.545489       -14.8435
 127   2.0000      -0.540714       -14.7136
 128   2.0000      -0.540204       -14.6997
 129   2.0000      -0.537137       -14.6162
 130   2.0000      -0.529069       -14.3967
 131   2.0000      -0.524582       -14.2746
 132   2.0000      -0.521762       -14.1979
 133   2.0000      -0.516062       -14.0428
 134   2.0000      -0.510083       -13.8801
 135   2.0000      -0.508061       -13.8250
 136   2.0000      -0.506628       -13.7860
 137   2.0000      -0.503716       -13.7068
 138   2.0000      -0.502832       -13.6828
 139   2.0000      -0.493806       -13.4372
 140   2.0000      -0.492088       -13.3904
 141   2.0000      -0.486966       -13.2510
 142   2.0000      -0.485262       -13.2047
 143   2.0000      -0.483608       -13.1597
 144   2.0000      -0.474564       -12.9135
 145   2.0000      -0.472136       -12.8475
 146   2.0000      -0.467444       -12.7198
 147   2.0000      -0.462438       -12.5836
 148   2.0000      -0.459485       -12.5032
 149   2.0000      -0.454333       -12.3630
 150   2.0000      -0.452505       -12.3133
 151   2.0000      -0.445915       -12.1340
 152   2.0000      -0.442157       -12.0317
 153   2.0000      -0.437308       -11.8998
 154   2.0000      -0.435891       -11.8612
 155   2.0000      -0.435571       -11.8525
 156   2.0000      -0.427962       -11.6454
 157   2.0000      -0.425761       -11.5856
 158   2.0000      -0.419054       -11.4030
 159   2.0000      -0.416860       -11.3433
 160   2.0000      -0.414032       -11.2664
 161   2.0000      -0.412684       -11.2297
 162   2.0000      -0.404334       -11.0025
 163   2.0000      -0.398908       -10.8548
 164   2.0000      -0.379243       -10.3197
 165   2.0000      -0.375562       -10.2196
 166   2.0000      -0.370708       -10.0875
 167   2.0000      -0.358368        -9.7517
 168   2.0000      -0.350502        -9.5376
 169   2.0000      -0.334029        -9.0894
 170   2.0000      -0.331183        -9.0119
 171   2.0000      -0.308139        -8.3849
 172   2.0000      -0.305048        -8.3008
 173   2.0000      -0.294030        -8.0010
 174   2.0000      -0.292323        -7.9545
 175   2.0000      -0.278532        -7.5792
 176   2.0000      -0.275028        -7.4839
 177   2.0000      -0.268315        -7.3012
 178   2.0000      -0.257963        -7.0195
 179   2.0000      -0.256104        -6.9690
 180   0.0000      -0.155059        -4.2194
 181   0.0000      -0.147582        -4.0159
 182   0.0000      -0.131591        -3.5808
 183   0.0000      -0.091811        -2.4983
 184   0.0000      -0.071540        -1.9467

MULLIKEN ATOMIC CHARGES
-----------------------
   0 C :   -0.006064
   1 C :   -0.012125
   2 C :   -0.018754
   3 C :   -0.013609
   4 C :    0.007843
   5 C :    0.003661
   6 C :    0.006522
   7 C :   -0.018084
   8 C :   -0.023472
   9 C :    0.023852
  10 C :    0.009038
  11 C :    0.000146
  12 C :   -0.019887
  13 C :    0.010270
  14 C :    0.003803
  15 C :    0.033731
  16 C :    0.006230
  17 C :   -0.002965
  18 C :    0.007443
  19 C :   -0.017867
  20 C :   -0.007703
  21 C :    0.032329
  22 C :   -0.002998
  23 C :   -0.010546
  24 C :    0.010737
  25 C :    0.010735
  26 C :   -0.010555
  27 C :   -0.002999
  28 C :   -0.007698
  29 C :    0.031565
  30 C :    0.032331
  31 C :   -0.000317
  32 C :   -0.018094
  33 C :   -0.010009
  34 C :   -0.004671
  35 C :    0.031568
  36 C :   -0.018095
  37 C :    0.010263
  38 C :    0.033745
  39 C :   -0.019890
  40 C :    0.000145
  41 C :    0.009041
  42 C :   -0.023475
  43 C :    0.023851
  44 C :    0.006525
  45 C :    0.007447
  46 C :   -0.018086
  47 C :   -0.010014
  48 C :   -0.004673
  49 C :   -0.000321
  50 C :   -0.017862
  51 C :    0.003799
  52 C :    0.003662
  53 C :   -0.002970
  54 C :    0.006231
  55 C :   -0.018758
  56 C :   -0.012128
  57 C :   -0.006063
  58 C :    0.007846
  59 C :   -0.013606
Sum of atomic charges:   -0.0000000

LOEWDIN ATOMIC CHARGES
----------------------
   0 C :    0.018471
   1 C :   -0.003101
   2 C :    0.008572
   3 C :    0.003366
   4 C :   -0.013948
   5 C :    0.016356
   6 C :    0.000020
   7 C :   -0.005581
   8 C :   -0.029253
   9 C :    0.014356
  10 C :   -0.002590
  11 C :   -0.005608
  12 C :    0.006165
  13 C :   -0.005966
  14 C :    0.005032
  15 C :    0.003808
  16 C :   -0.002653
  17 C :   -0.005308
  18 C :    0.001609
  19 C :    0.007521
  20 C :    0.006787
  21 C :   -0.003842
  22 C :   -0.009300
  23 C :   -0.002313
  24 C :    0.000578
  25 C :    0.000578
  26 C :   -0.002313
  27 C :   -0.009300
  28 C :    0.006787
  29 C :    0.007324
  30 C :   -0.003842
  31 C :   -0.006505
  32 C :    0.003834
  33 C :   -0.012100
  34 C :    0.004270
  35 C :    0.007324
  36 C :    0.003834
  37 C :   -0.005966
  38 C :    0.003808
  39 C :    0.006165
  40 C :   -0.005608
  41 C :   -0.002590
  42 C :   -0.029253
  43 C :    0.014356
  44 C :    0.000021
  45 C :    0.001609
  46 C :   -0.005581
  47 C :   -0.012101
  48 C :    0.004270
  49 C :   -0.006505
  50 C :    0.007521
  51 C :    0.005031
  52 C :    0.016356
  53 C :   -0.005308
  54 C :   -0.002653
  55 C :    0.008572
  56 C :   -0.003101
  57 C :    0.018471
  58 C :   -0.013948
  59 C :    0.003366

  Mayer bond orders larger than 0.100000
B(  0-C ,  1-C ) :   1.4471 B(  0-C ,  3-C ) :   1.0794 B(  0-C ,  6-C ) :   1.1545
B(  1-C ,  2-C ) :   1.0869 B(  1-C ,  9-C ) :   1.1629 B(  2-C ,  4-C ) :   1.2890
B(  2-C , 11-C ) :   1.2973 B(  3-C ,  4-C ) :   1.1675 B(  3-C ,  5-C ) :   1.4224
B(  4-C , 14-C ) :   1.2170 B(  5-C ,  7-C ) :   1.0797 B(  5-C , 16-C ) :   1.1796
B(  6-C ,  7-C ) :   1.2413 B(  6-C ,  8-C ) :   1.3049 B(  7-C , 18-C ) :   1.3615
B(  8-C , 10-C ) :   1.1879 B(  8-C , 20-C ) :   1.2109 B(  9-C , 10-C ) :   1.3563
B(  9-C , 12-C ) :   1.1625 B( 10-C , 22-C ) :   1.1513 B( 11-C , 12-C ) :   1.1915
B( 11-C , 13-C ) :   1.1925 B( 12-C , 24-C ) :   1.3023 B( 13-C , 15-C ) :   1.2508
B( 13-C , 26-C ) :   1.2216 B( 14-C , 15-C ) :   1.2468 B( 14-C , 17-C ) :   1.1994
B( 15-C , 29-C ) :   1.1361 B( 16-C , 17-C ) :   1.2775 B( 16-C , 19-C ) :   1.2213
B( 17-C , 31-C ) :   1.2231 B( 18-C , 19-C ) :   1.1147 B( 18-C , 21-C ) :   1.1991
B( 19-C , 33-C ) :   1.3503 B( 20-C , 21-C ) :   1.3247 B( 20-C , 23-C ) :   1.1495
B( 21-C , 35-C ) :   1.1113 B( 22-C , 23-C ) :   1.2996 B( 22-C , 25-C ) :   1.2225
B( 23-C , 37-C ) :   1.2216 B( 24-C , 25-C ) :   1.1645 B( 24-C , 27-C ) :   1.2225
B( 25-C , 39-C ) :   1.3023 B( 26-C , 27-C ) :   1.2996 B( 26-C , 28-C ) :   1.1495
B( 27-C , 41-C ) :   1.1513 B( 28-C , 30-C ) :   1.3247 B( 28-C , 42-C ) :   1.2109
B( 29-C , 30-C ) :   1.1113 B( 29-C , 32-C ) :   1.3620 B( 30-C , 45-C ) :   1.1991
B( 31-C , 32-C ) :   1.1976 B( 31-C , 34-C ) :   1.2539 B( 32-C , 47-C ) :   1.1106
B( 33-C , 34-C ) :   1.2303 B( 33-C , 36-C ) :   1.1106 B( 34-C , 48-C ) :   1.1749
B( 35-C , 36-C ) :   1.3620 B( 35-C , 38-C ) :   1.1361 B( 36-C , 49-C ) :   1.1976
B( 37-C , 38-C ) :   1.2508 B( 37-C , 40-C ) :   1.1925 B( 38-C , 51-C ) :   1.2468
B( 39-C , 40-C ) :   1.1915 B( 39-C , 43-C ) :   1.1625 B( 40-C , 55-C ) :   1.2973
B( 41-C , 42-C ) :   1.1879 B( 41-C , 43-C ) :   1.3563 B( 42-C , 44-C ) :   1.3049
B( 43-C , 56-C ) :   1.1629 B( 44-C , 46-C ) :   1.2413 B( 44-C , 57-C ) :   1.1545
B( 45-C , 46-C ) :   1.3615 B( 45-C , 50-C ) :   1.1147 B( 46-C , 52-C ) :   1.0797
B( 47-C , 48-C ) :   1.2303 B( 47-C , 50-C ) :   1.3503 B( 48-C , 49-C ) :   1.2539
B( 49-C , 53-C ) :   1.2231 B( 50-C , 54-C ) :   1.2213 B( 51-C , 53-C ) :   1.1994
B( 51-C , 58-C ) :   1.2170 B( 52-C , 54-C ) :   1.1796 B( 52-C , 59-C ) :   1.4224
B( 53-C , 54-C ) :   1.2775 B( 55-C , 56-C ) :   1.0869 B( 55-C , 58-C ) :   1.2890
B( 56-C , 57-C ) :   1.4471 B( 57-C , 59-C ) :   1.0794 B( 58-C , 59-C ) :   1.1675

Dispersion correction           -0.097621210
FINAL SINGLE POINT ENERGY     -2280.943376874196

DIPOLE MOMENT
-------------
                                X             Y             Z
Electronic contribution:      0.00000       0.00000       0.00441
Nuclear contribution   :     -0.00000      -0.00000      -0.00000
                        -----------------------------------------
Total Dipole Moment    :      0.00000       0.00000       0.00441
                        -----------------------------------------
Magnitude (a.u.)       :      0.00441
Magnitude (Debye)      :      0.01122

Rotational constants in cm-1:     0.003477     0.002584     0.002302
Rotational constants in MHz :   104.226047    77.451498    69.000047

                             ****ORCA TERMINATED NORMALLY****
TOTAL RUN TIME: 0 days 1 hours 2 minutes 38 seconds 183 msec
