                         Program Version 5.0.3 -  RELEASE  -
|  1> ! PBEh-3c def2/J TightSCF DefGrid3
|  2>
|  3> %maxcore 60000
|  4>
|  5> %pal
|  6> nprocs 4
|  7> end
|  8>
|  9> *xyzfile 0 3 ch2.xyz
| 10>
| 11>                          ****END OF INPUT****

CARTESIAN COORDINATES (ANGSTROEM)
---------------------------------
  C      0.000000    0.000000    0.107279
  H      0.000000    0.984549   -0.321838
  H      0.000000   -0.984549   -0.321838

 Total Charge           Charge          ....    0
 Multiplicity           Mult            ....    3
 Number of Electrons    NEL             ....    8
 Basis Dimension        Dim             ....   19

ORBITAL ENERGIES
----------------
                 SPIN UP ORBITALS
  NO   OCC          E(Eh)            E(eV)
   0   1.0000     -10.480254      -285.1822
   1   1.0000      -0.766505       -20.8577
   2   1.0000      -0.513877       -13.9833
   3   1.0000      -0.338449        -9.2097
   4   1.0000      -0.299992        -8.1632
   5   0.0000       0.156491         4.2583
   6   0.0000       0.244224         6.6457
   7   0.0000       0.504324        13.7233
   8   0.0000       0.507402        13.8071
   9   0.0000       0.514824        14.0091

                 SPIN DOWN ORBITALS
  NO   OCC          E(Eh)            E(eV)
   0   1.0000     -10.446973      -284.2766
   1   1.0000      -0.666376       -18.1330
   2   1.0000      -0.488471       -13.2920
   3   0.0000      -0.028288        -0.7698
   4   0.0000      -0.000699        -0.0190
   5   0.0000       0.184495         5.0204
   6   0.0000       0.274756         7.4765
   7   0.0000       0.533638        14.5210

MULLIKEN ATOMIC CHARGES AND SPIN POPULATIONS
--------------------------------------------
   0 C :   -0.440564    2.142064
   1 H :    0.220282   -0.071032
   2 H :    0.220282   -0.071032
Sum of atomic charges         :   -0.0000000

LOEWDIN ATOMIC CHARGES AND SPIN POPULATIONS
-------------------------------------------
   0 C :   -0.264856    2.063575
   1 H :    0.132428   -0.031787
   2 H :    0.132428   -0.031787

  Mayer bond orders larger than 0.100000
B(  0-C ,  1-H ) :   0.9131 B(  0-C ,  2-H ) :   0.9131

Dispersion correction           -0.000283031
FINAL SINGLE POINT ENERGY       -39.063017232942

DIPOLE MOMENT
-------------
                                X             Y             Z
Electronic contribution:     -0.00000      -0.00000       0.41748
Nuclear contribution   :      0.00000       0.00000      -0.68945
                        -----------------------------------------
Total Dipole Moment    :     -0.00000      -0.00000      -0.27197
                        -----------------------------------------
Magnitude (a.u.)       :      0.27197
Magnitude (Debye)      :      0.69130

Rotational constants in cm-1:    53.032312     8.626444     7.419551
Rotational constants in MHz : 1589868.724972 258614.275106 222432.528622

                             ****ORCA TERMINATED NORMALLY****
TOTAL RUN TIME: 0 days 0 hours 1 minutes 18 seconds 439 msec
