                         Program Version 5.0.3 -  RELEASE  -
|  1> ! PBEh-3c def2/J TightSCF DefGrid3
|  2>
|  3> %maxcore 60000
|  4>
|  5> %pal
|  6> nprocs 4
|  7> end
|  8>
|  9> *xyzfile 0 1 28_CH3I-benB.xyz
| 10>
| 11>                          ****END OF INPUT****

CARTESIAN COORDINATES (ANGSTROEM)
---------------------------------
  I     -0.205324   -3.368518    1.883769
  C      0.069197   -5.471929    1.872749
  H      0.073601   -5.805636    0.839826
  H      1.018049   -5.689861    2.352917
  H     -0.752874   -5.922025    2.420413

 Total Charge           Charge          ....    0
 Multiplicity           Mult            ....    1
 Number of Electrons    NEL             ....   34
 Basis Dimension        Dim             ....   47

ORBITAL ENERGIES
----------------

  NO   OCC          E(Eh)            E(eV)
   0   2.0000     -10.487472      -285.3786
   1   2.0000      -7.087551      -192.8621
   2   2.0000      -5.070847      -137.9848
   3   2.0000      -5.054487      -137.5396
   4   2.0000      -5.054486      -137.5396
   5   2.0000      -2.024792       -55.0974
   6   2.0000      -2.019595       -54.9560
   7   2.0000      -2.019591       -54.9559
   8   2.0000      -2.005338       -54.5680
   9   2.0000      -2.005336       -54.5680
  10   2.0000      -0.842624       -22.9290
  11   2.0000      -0.713610       -19.4183
  12   2.0000      -0.501328       -13.6418
  13   2.0000      -0.501309       -13.6413
  14   2.0000      -0.406949       -11.0736
  15   2.0000      -0.298318        -8.1176
  16   2.0000      -0.298313        -8.1175
  17   0.0000       0.001111         0.0302
  18   0.0000       0.154610         4.2072
  19   0.0000       0.180898         4.9225
  20   0.0000       0.180912         4.9229
  21   0.0000       0.328080         8.9275

MULLIKEN ATOMIC CHARGES
-----------------------
   0 I :    0.002465
   1 C :   -0.813570
   2 H :    0.270376
   3 H :    0.270355
   4 H :    0.270374
Sum of atomic charges:   -0.0000000

LOEWDIN ATOMIC CHARGES
----------------------
   0 I :    0.043396
   1 C :   -0.486546
   2 H :    0.147719
   3 H :    0.147714
   4 H :    0.147717

  Mayer bond orders larger than 0.100000
B(  0-I ,  1-C ) :   1.0199 B(  1-C ,  2-H ) :   0.8950 B(  1-C ,  3-H ) :   0.8950
B(  1-C ,  4-H ) :   0.8950

Dispersion correction           -0.001320390
FINAL SINGLE POINT ENERGY      -337.561526098177

DIPOLE MOMENT
-------------
                                X             Y             Z
Electronic contribution:     -2.90131      22.22599       0.11623
Nuclear contribution   :      2.98858     -22.89394      -0.11971
                        -----------------------------------------
Total Dipole Moment    :      0.08728      -0.66796      -0.00348
                        -----------------------------------------
Magnitude (a.u.)       :      0.67364
Magnitude (Debye)      :      1.71226

Rotational constants in cm-1:     5.234756     0.254275     0.254275
Rotational constants in MHz : 156934.028701  7622.981999  7622.964648

                             ****ORCA TERMINATED NORMALLY****
TOTAL RUN TIME: 0 days 0 hours 1 minutes 21 seconds 232 msec
