                         Program Version 5.0.3 -  RELEASE  -
|  1> ! PBEh-3c def2/J TightSCF DefGrid3
|  2>
|  3> %maxcore 60000
|  4>
|  5> %pal
|  6> nprocs 4
|  7> end
|  8>
|  9> *xyzfile 0 1 B34.xyz
| 10>
| 11>                          ****END OF INPUT****

CARTESIAN COORDINATES (ANGSTROEM)
---------------------------------
  C      1.397026   -0.725223    0.111659
  H      0.816017   -1.396394   -0.520689
  O      2.120576    0.101548   -0.796525
  C      0.487796    0.067324    1.045545
  H     -0.068159   -0.637516    1.670236
  H      1.108040    0.651343    1.731495
  C     -0.482537    1.007675    0.325588
  H      0.082720    1.762783   -0.224047
  H     -1.089457    1.526992    1.069303
  H      2.689167    0.674256   -0.273955
  H      2.079080   -1.347194    0.699040
  C     -1.412829    0.307235   -0.658150
  H     -2.102844    1.033522   -1.084317
  H     -0.842544   -0.123323   -1.485431
  O     -2.236079   -0.681840   -0.038671
  H     -1.684735   -1.444210    0.152079

 Total Charge           Charge          ....    0
 Multiplicity           Mult            ....    1
 Number of Electrons    NEL             ....   50
 Basis Dimension        Dim             ....  110

ORBITAL ENERGIES
----------------

  NO   OCC          E(Eh)            E(eV)
   0   2.0000     -19.491565      -530.3924
   1   2.0000     -19.482152      -530.1363
   2   2.0000     -10.488015      -285.3934
   3   2.0000     -10.475756      -285.0598
   4   2.0000     -10.441206      -284.1197
   5   2.0000     -10.430853      -283.8379
   6   2.0000      -1.127771       -30.6882
   7   2.0000      -1.117518       -30.4092
   8   2.0000      -0.882429       -24.0121
   9   2.0000      -0.798325       -21.7235
  10   2.0000      -0.723680       -19.6923
  11   2.0000      -0.651633       -17.7318
  12   2.0000      -0.573159       -15.5964
  13   2.0000      -0.562132       -15.2964
  14   2.0000      -0.538525       -14.6540
  15   2.0000      -0.509690       -13.8694
  16   2.0000      -0.486866       -13.2483
  17   2.0000      -0.476741       -12.9728
  18   2.0000      -0.427446       -11.6314
  19   2.0000      -0.420098       -11.4315
  20   2.0000      -0.403999       -10.9934
  21   2.0000      -0.378085       -10.2882
  22   2.0000      -0.371719       -10.1150
  23   2.0000      -0.332660        -9.0521
  24   2.0000      -0.318295        -8.6612
  25   0.0000       0.099690         2.7127
  26   0.0000       0.131567         3.5801
  27   0.0000       0.166149         4.5211
  28   0.0000       0.178984         4.8704
  29   0.0000       0.190961         5.1963

MULLIKEN ATOMIC CHARGES
-----------------------
   0 C :   -0.161829
   1 H :    0.198191
   2 O :   -0.620291
   3 C :   -0.494848
   4 H :    0.213110
   5 H :    0.217798
   6 C :   -0.425296
   7 H :    0.214419
   8 H :    0.227141
   9 H :    0.410726
  10 H :    0.199464
  11 C :   -0.180669
  12 H :    0.221666
  13 H :    0.197115
  14 O :   -0.628117
  15 H :    0.411421
Sum of atomic charges:    0.0000000

LOEWDIN ATOMIC CHARGES
----------------------
   0 C :   -0.099040
   1 H :    0.111834
   2 O :   -0.411565
   3 C :   -0.275649
   4 H :    0.126095
   5 H :    0.124307
   6 C :   -0.265268
   7 H :    0.130475
   8 H :    0.130474
   9 H :    0.307049
  10 H :    0.103561
  11 C :   -0.096420
  12 H :    0.122661
  13 H :    0.103789
  14 O :   -0.415875
  15 H :    0.303570

  Mayer bond orders larger than 0.100000
B(  0-C ,  1-H ) :   0.9162 B(  0-C ,  2-O ) :   1.0165 B(  0-C ,  3-C ) :   0.9645
B(  0-C , 10-H ) :   0.9118 B(  2-O ,  9-H ) :   0.7945 B(  3-C ,  4-H ) :   0.9063
B(  3-C ,  5-H ) :   0.9235 B(  3-C ,  6-C ) :   0.9732 B(  6-C ,  7-H ) :   0.9063
B(  6-C ,  8-H ) :   0.9170 B(  6-C , 11-C ) :   0.9635 B( 11-C , 12-H ) :   0.9194
B( 11-C , 13-H ) :   0.9087 B( 11-C , 14-O ) :   1.0114 B( 14-O , 15-H ) :   0.7928

Dispersion correction           -0.006904157
FINAL SINGLE POINT ENERGY      -308.207055820727

DIPOLE MOMENT
-------------
                                X             Y             Z
Electronic contribution:     -0.27257      -0.69127      -1.22077
Nuclear contribution   :      1.02682       0.72011       1.79275
                        -----------------------------------------
Total Dipole Moment    :      0.75425       0.02885       0.57197
                        -----------------------------------------
Magnitude (a.u.)       :      0.94703
Magnitude (Debye)      :      2.40717

Rotational constants in cm-1:     0.205203     0.062738     0.062598
Rotational constants in MHz :  6151.830754  1880.833927  1876.650664

                             ****ORCA TERMINATED NORMALLY****
TOTAL RUN TIME: 0 days 0 hours 1 minutes 41 seconds 856 msec
