                         Program Version 5.0.3 -  RELEASE  -
|  1> ! PBEh-3c def2/J TightSCF DefGrid3
|  2>
|  3> %maxcore 60000
|  4>
|  5> %pal
|  6> nprocs 4
|  7> end
|  8>
|  9> *xyzfile 0 1 8a.xyz
| 10>
| 11>                          ****END OF INPUT****

CARTESIAN COORDINATES (ANGSTROEM)
---------------------------------
  P      0.067728    1.682160   -0.083681
  H      0.302005    1.468273   -1.472269
  H      1.431498    1.514275    0.260008
  N     -0.040556    3.383870    0.046680
  H     -0.976113    3.733213    0.162428
  H      0.497415    3.966068   -0.573192

 Total Charge           Charge          ....    0
 Multiplicity           Mult            ....    1
 Number of Electrons    NEL             ....   26
 Basis Dimension        Dim             ....   41

ORBITAL ENERGIES
----------------

  NO   OCC          E(Eh)            E(eV)
   0   2.0000     -77.741385     -2115.4506
   1   2.0000     -14.622987      -397.9117
   2   2.0000      -6.815396      -185.4563
   3   2.0000      -4.906462      -133.5116
   4   2.0000      -4.905524      -133.4861
   5   2.0000      -4.904055      -133.4461
   6   2.0000      -0.960067       -26.1248
   7   2.0000      -0.687062       -18.6959
   8   2.0000      -0.559626       -15.2282
   9   2.0000      -0.481195       -13.0940
  10   2.0000      -0.438464       -11.9312
  11   2.0000      -0.307426        -8.3655
  12   2.0000      -0.293339        -7.9822
  13   0.0000       0.068686         1.8691
  14   0.0000       0.098976         2.6933
  15   0.0000       0.162940         4.4338
  16   0.0000       0.190034         5.1711
  17   0.0000       0.210682         5.7330

MULLIKEN ATOMIC CHARGES
-----------------------
   0 P :    0.121167
   1 H :    0.033766
   2 H :    0.051577
   3 N :   -0.911218
   4 H :    0.354098
   5 H :    0.350609
Sum of atomic charges:   -0.0000000

LOEWDIN ATOMIC CHARGES
----------------------
   0 P :    0.152061
   1 H :   -0.011489
   2 H :    0.006617
   3 N :   -0.615081
   4 H :    0.237423
   5 H :    0.230469

  Mayer bond orders larger than 0.100000
B(  0-P ,  1-H ) :   0.9355 B(  0-P ,  2-H ) :   0.9461 B(  0-P ,  3-N ) :   1.0396
B(  3-N ,  4-H ) :   0.8409 B(  3-N ,  5-H ) :   0.8380

Dispersion correction           -0.001616300
FINAL SINGLE POINT ENERGY      -397.970063592912

DIPOLE MOMENT
-------------
                                X             Y             Z
Electronic contribution:     -0.91357      -1.59845       0.72357
Nuclear contribution   :      0.95315       2.09209      -1.23876
                        -----------------------------------------
Total Dipole Moment    :      0.03958       0.49365      -0.51519
                        -----------------------------------------
Magnitude (a.u.)       :      0.71462
Magnitude (Debye)      :      1.81642

Rotational constants in cm-1:     3.158138     0.451957     0.443730
Rotational constants in MHz : 94678.584619 13549.333707 13302.703912

                             ****ORCA TERMINATED NORMALLY****
TOTAL RUN TIME: 0 days 0 hours 0 minutes 56 seconds 906 msec
