                         Program Version 5.0.3 -  RELEASE  -
|  1> ! PBEh-3c def2/J TightSCF DefGrid3
|  2>
|  3> %maxcore 60000
|  4>
|  5> %pal
|  6> nprocs 4
|  7> end
|  8>
|  9> *xyzfile 0 2 ssh.xyz
| 10>
| 11>                          ****END OF INPUT****

CARTESIAN COORDINATES (ANGSTROEM)
---------------------------------
  S     -0.967936   -0.045996    0.000000
  H     -1.266868    1.270801   -0.000000
  S      1.007764    0.006045    0.000000

 Total Charge           Charge          ....    0
 Multiplicity           Mult            ....    2
 Number of Electrons    NEL             ....   33
 Basis Dimension        Dim             ....   38

ORBITAL ENERGIES
----------------
                 SPIN UP ORBITALS
  NO   OCC          E(Eh)            E(eV)
   0   1.0000     -89.645561     -2439.3797
   1   1.0000     -89.610252     -2438.4189
   2   1.0000      -8.285917      -225.4713
   3   1.0000      -8.249390      -224.4773
   4   1.0000      -6.175577      -168.0460
   5   1.0000      -6.172597      -167.9649
   6   1.0000      -6.171782      -167.9427
   7   1.0000      -6.144356      -167.1964
   8   1.0000      -6.139500      -167.0643
   9   1.0000      -6.128914      -166.7762
  10   1.0000      -0.919633       -25.0245
  11   1.0000      -0.728412       -19.8211
  12   1.0000      -0.507138       -13.7999
  13   1.0000      -0.428601       -11.6628
  14   1.0000      -0.421661       -11.4740
  15   1.0000      -0.305425        -8.3110
  16   1.0000      -0.293017        -7.9734
  17   0.0000       0.017208         0.4682
  18   0.0000       0.055398         1.5075
  19   0.0000       0.342066         9.3081
  20   0.0000       0.446404        12.1473
  21   0.0000       0.477955        13.0058

                 SPIN DOWN ORBITALS
  NO   OCC          E(Eh)            E(eV)
   0   1.0000     -89.643486     -2439.3233
   1   1.0000     -89.605238     -2438.2825
   2   1.0000      -8.283824      -225.4143
   3   1.0000      -8.244343      -224.3400
   4   1.0000      -6.174451      -168.0154
   5   1.0000      -6.170690      -167.9130
   6   1.0000      -6.164862      -167.7544
   7   1.0000      -6.136603      -166.9855
   8   1.0000      -6.125927      -166.6949
   9   1.0000      -6.125846      -166.6927
  10   1.0000      -0.902364       -24.5546
  11   1.0000      -0.693825       -18.8799
  12   1.0000      -0.498569       -13.5667
  13   1.0000      -0.416844       -11.3429
  14   1.0000      -0.364175        -9.9097
  15   1.0000      -0.293341        -7.9822
  16   0.0000      -0.112775        -3.0688
  17   0.0000       0.029355         0.7988
  18   0.0000       0.059353         1.6151
  19   0.0000       0.349786         9.5182
  20   0.0000       0.456501        12.4220

MULLIKEN ATOMIC CHARGES AND SPIN POPULATIONS
--------------------------------------------
   0 S :   -0.099651    0.260260
   1 H :    0.199980   -0.012165
   2 S :   -0.100329    0.751905
Sum of atomic charges         :   -0.0000000

LOEWDIN ATOMIC CHARGES AND SPIN POPULATIONS
-------------------------------------------
   0 S :    0.028854    0.270644
   1 H :    0.102055   -0.008297
   2 S :   -0.130908    0.737653

  Mayer bond orders larger than 0.100000
B(  0-S ,  1-H ) :   0.8830 B(  0-S ,  2-S ) :   1.4449

Dispersion correction           -0.000868843
FINAL SINGLE POINT ENERGY      -796.055205781443

DIPOLE MOMENT
-------------
                                X             Y             Z
Electronic contribution:      0.70552      -0.75397       0.00000
Nuclear contribution   :     -1.18970       1.19339       0.00000
                        -----------------------------------------
Total Dipole Moment    :     -0.48418       0.43942       0.00000
                        -----------------------------------------
Magnitude (a.u.)       :      0.65385
Magnitude (Debye)      :      1.66196

Rotational constants in cm-1:     9.934647     0.262520     0.255762
Rotational constants in MHz : 297833.235546  7870.164305  7667.551294

                             ****ORCA TERMINATED NORMALLY****
TOTAL RUN TIME: 0 days 0 hours 0 minutes 58 seconds 852 msec
