                         Program Version 5.0.3 -  RELEASE  -
|  1> ! PBEh-3c def2/J TightSCF DefGrid3
|  2>
|  3> %maxcore 60000
|  4>
|  5> %pal
|  6> nprocs 4
|  7> end
|  8>
|  9> *xyzfile 0 1 toluene.xyz
| 10>
| 11>                          ****END OF INPUT****

CARTESIAN COORDINATES (ANGSTROEM)
---------------------------------
  C     -0.347562   -1.810666    0.003808
  C      1.049611   -1.818024    0.012185
  C      1.742006   -0.604575    0.003214
  C      1.041156    0.603694   -0.011845
  C     -0.361554    0.627166   -0.015791
  C     -1.042872   -0.599450   -0.011023
  H     -0.899459   -2.752242    0.004513
  H      1.595108   -2.762818    0.020643
  H      2.833329   -0.597783    0.003507
  H      1.591834    1.547223   -0.023455
  H     -2.135360   -0.604389   -0.021839
  C     -1.116397    1.933435    0.000288
  H     -2.082101    1.846500   -0.516253
  H     -1.326398    2.255587    1.032970
  H     -0.541339    2.736342   -0.480922

 Total Charge           Charge          ....    0
 Multiplicity           Mult            ....    1
 Number of Electrons    NEL             ....   50
 Basis Dimension        Dim             ....  121

ORBITAL ENERGIES
----------------

  NO   OCC          E(Eh)            E(eV)
   0   2.0000     -10.458251      -284.5835
   1   2.0000     -10.447911      -284.3021
   2   2.0000     -10.447852      -284.3005
   3   2.0000     -10.445664      -284.2410
   4   2.0000     -10.445319      -284.2316
   5   2.0000     -10.445294      -284.2309
   6   2.0000     -10.437470      -284.0180
   7   2.0000      -0.951178       -25.8829
   8   2.0000      -0.860037       -23.4028
   9   2.0000      -0.830419       -22.5968
  10   2.0000      -0.765814       -20.8389
  11   2.0000      -0.677727       -18.4419
  12   2.0000      -0.655085       -17.8258
  13   2.0000      -0.574066       -15.6211
  14   2.0000      -0.520217       -14.1558
  15   2.0000      -0.514333       -13.9957
  16   2.0000      -0.475700       -12.9445
  17   2.0000      -0.474872       -12.9219
  18   2.0000      -0.464331       -12.6351
  19   2.0000      -0.438967       -11.9449
  20   2.0000      -0.405486       -11.0338
  21   2.0000      -0.393481       -10.7072
  22   2.0000      -0.389450       -10.5975
  23   2.0000      -0.289182        -7.8691
  24   2.0000      -0.279528        -7.6063
  25   0.0000       0.019910         0.5418
  26   0.0000       0.021811         0.5935
  27   0.0000       0.140044         3.8108
  28   0.0000       0.169828         4.6213
  29   0.0000       0.182663         4.9705

MULLIKEN ATOMIC CHARGES
-----------------------
   0 C :   -0.204424
   1 C :   -0.237648
   2 C :   -0.204453
   3 C :   -0.267125
   4 C :    0.122883
   5 C :   -0.266787
   6 H :    0.216900
   7 H :    0.217457
   8 H :    0.216912
   9 H :    0.209904
  10 H :    0.209965
  11 C :   -0.703105
  12 H :    0.227333
  13 H :    0.235111
  14 H :    0.227077
Sum of atomic charges:   -0.0000000

LOEWDIN ATOMIC CHARGES
----------------------
   0 C :   -0.132351
   1 C :   -0.143981
   2 C :   -0.132379
   3 C :   -0.138700
   4 C :   -0.051124
   5 C :   -0.138508
   6 H :    0.135518
   7 H :    0.135227
   8 H :    0.135512
   9 H :    0.133297
  10 H :    0.133330
  11 C :   -0.347649
  12 H :    0.135574
  13 H :    0.140933
  14 H :    0.135301

  Mayer bond orders larger than 0.100000
B(  0-C ,  1-C ) :   1.4210 B(  0-C ,  5-C ) :   1.4307 B(  0-C ,  6-H ) :   0.9203
B(  1-C ,  2-C ) :   1.4221 B(  1-C ,  7-H ) :   0.9200 B(  2-C ,  3-C ) :   1.4296
B(  2-C ,  8-H ) :   0.9203 B(  3-C ,  4-C ) :   1.4014 B(  3-C ,  9-H ) :   0.9234
B(  4-C ,  5-C ) :   1.3986 B(  4-C , 11-C ) :   0.9571 B(  5-C , 10-H ) :   0.9238
B( 11-C , 12-H ) :   0.9281 B( 11-C , 13-H ) :   0.9125 B( 11-C , 14-H ) :   0.9287

Dispersion correction           -0.007698504
FINAL SINGLE POINT ENERGY      -270.958320616767

DIPOLE MOMENT
-------------
                                X             Y             Z
Electronic contribution:      1.69450      -2.93402      -0.01959
Nuclear contribution   :     -1.76910       3.06061       0.03516
                        -----------------------------------------
Total Dipole Moment    :     -0.07461       0.12659       0.01556
                        -----------------------------------------
Magnitude (a.u.)       :      0.14776
Magnitude (Debye)      :      0.37558

Rotational constants in cm-1:     0.184012     0.083510     0.058068
Rotational constants in MHz :  5516.554615  2503.564934  1740.848937

                             ****ORCA TERMINATED NORMALLY****
TOTAL RUN TIME: 0 days 0 hours 1 minutes 28 seconds 575 msec
