                         Program Version 5.0.3 -  RELEASE  -
|  1> ! PBEh-3c def2/J TightSCF DefGrid3
|  2>
|  3> %maxcore 60000
|  4>
|  5> %pal
|  6> nprocs 4
|  7> end
|  8>
|  9> *xyzfile 0 2 EA_16n.xyz
| 10>
| 11>                          ****END OF INPUT****

CARTESIAN COORDINATES (ANGSTROEM)
---------------------------------
  Si     0.000000    0.000000   -0.341224
  H      0.707741   -1.225843    0.113741
  H      0.707741    1.225843    0.113741
  H     -1.415482    0.000000    0.113741

 Total Charge           Charge          ....    0
 Multiplicity           Mult            ....    2
 Number of Electrons    NEL             ....   17
 Basis Dimension        Dim             ....   24

ORBITAL ENERGIES
----------------
                 SPIN UP ORBITALS
  NO   OCC          E(Eh)            E(eV)
   0   1.0000     -66.742179     -1816.1470
   1   1.0000      -5.525342      -150.3522
   2   1.0000      -3.821706      -103.9939
   3   1.0000      -3.813374      -103.7672
   4   1.0000      -3.813374      -103.7672
   5   1.0000      -0.606425       -16.5017
   6   1.0000      -0.408517       -11.1163
   7   1.0000      -0.408516       -11.1163
   8   1.0000      -0.264116        -7.1870
   9   0.0000       0.078698         2.1415
  10   0.0000       0.078703         2.1416
  11   0.0000       0.123737         3.3671
  12   0.0000       0.173372         4.7177
  13   0.0000       0.404747        11.0137

                 SPIN DOWN ORBITALS
  NO   OCC          E(Eh)            E(eV)
   0   1.0000     -66.738038     -1816.0343
   1   1.0000      -5.519910      -150.2044
   2   1.0000      -3.810329      -103.6843
   3   1.0000      -3.810329      -103.6843
   4   1.0000      -3.807965      -103.6200
   5   1.0000      -0.578080       -15.7303
   6   1.0000      -0.401355       -10.9214
   7   1.0000      -0.401354       -10.9214
   8   0.0000      -0.072343        -1.9686
   9   0.0000       0.099708         2.7132
  10   0.0000       0.099709         2.7132
  11   0.0000       0.143240         3.8977
  12   0.0000       0.192191         5.2298

MULLIKEN ATOMIC CHARGES AND SPIN POPULATIONS
--------------------------------------------
   0 Si:    0.010264    1.010221
   1 H :   -0.003431   -0.003404
   2 H :   -0.003431   -0.003404
   3 H :   -0.003403   -0.003413
Sum of atomic charges         :   -0.0000000

LOEWDIN ATOMIC CHARGES AND SPIN POPULATIONS
-------------------------------------------
   0 Si:    0.029134    0.990729
   1 H :   -0.009715    0.003092
   2 H :   -0.009715    0.003092
   3 H :   -0.009704    0.003087

  Mayer bond orders larger than 0.100000
B(  0-Si,  1-H ) :   0.9628 B(  0-Si,  2-H ) :   0.9628 B(  0-Si,  3-H ) :   0.9628

Dispersion correction           -0.000712761
FINAL SINGLE POINT ENERGY      -290.860804008140

DIPOLE MOMENT
-------------
                                X             Y             Z
Electronic contribution:     -0.00003       0.00000      -1.18436
Nuclear contribution   :     -0.00000       0.00000       1.15856
                        -----------------------------------------
Total Dipole Moment    :     -0.00003       0.00000      -0.02580
                        -----------------------------------------
Magnitude (a.u.)       :      0.02580
Magnitude (Debye)      :      0.06558

Rotational constants in cm-1:     4.689806     4.689806     2.782317
Rotational constants in MHz : 140596.842568 140596.839074 83411.765425

                             ****ORCA TERMINATED NORMALLY****
TOTAL RUN TIME: 0 days 0 hours 0 minutes 36 seconds 415 msec
