                         Program Version 5.0.3 -  RELEASE  -
|  1> ! PBEh-3c def2/J TightSCF DefGrid3
|  2>
|  3> %maxcore 60000
|  4>
|  5> %pal
|  6> nprocs 4
|  7> end
|  8>
|  9> *xyzfile 0 2 ch2nh2.xyz
| 10>
| 11>                          ****END OF INPUT****

CARTESIAN COORDINATES (ANGSTROEM)
---------------------------------
  C     -0.738419    0.000000   -0.054812
  H     -1.240377    0.928854    0.170786
  H     -1.240377   -0.928854    0.170786
  N      0.653169    0.000000    0.064489
  H      1.101678   -0.828686   -0.292287
  H      1.101678    0.828686   -0.292287

 Total Charge           Charge          ....    0
 Multiplicity           Mult            ....    2
 Number of Electrons    NEL             ....   17
 Basis Dimension        Dim             ....   38

ORBITAL ENERGIES
----------------
                 SPIN UP ORBITALS
  NO   OCC          E(Eh)            E(eV)
   0   1.0000     -14.634687      -398.2301
   1   1.0000     -10.442673      -284.1596
   2   1.0000      -0.993970       -27.0473
   3   1.0000      -0.720589       -19.6082
   4   1.0000      -0.579430       -15.7671
   5   1.0000      -0.501756       -13.6535
   6   1.0000      -0.434453       -11.8221
   7   1.0000      -0.401396       -10.9225
   8   1.0000      -0.192811        -5.2467
   9   0.0000       0.138361         3.7650
  10   0.0000       0.192211         5.2303
  11   0.0000       0.201427         5.4811
  12   0.0000       0.272628         7.4186
  13   0.0000       0.295463         8.0400

                 SPIN DOWN ORBITALS
  NO   OCC          E(Eh)            E(eV)
   0   1.0000     -14.629276      -398.0828
   1   1.0000     -10.428594      -283.7765
   2   1.0000      -0.978252       -26.6196
   3   1.0000      -0.686639       -18.6844
   4   1.0000      -0.573417       -15.6035
   5   1.0000      -0.490544       -13.3484
   6   1.0000      -0.425463       -11.5774
   7   1.0000      -0.337096        -9.1729
   8   0.0000       0.037096         1.0094
   9   0.0000       0.143147         3.8952
  10   0.0000       0.194820         5.3013
  11   0.0000       0.216650         5.8953
  12   0.0000       0.281229         7.6526

MULLIKEN ATOMIC CHARGES AND SPIN POPULATIONS
--------------------------------------------
   0 C :   -0.380207    0.928148
   1 H :    0.200299   -0.044880
   2 H :    0.200299   -0.044880
   3 N :   -0.699539    0.167260
   4 H :    0.339574   -0.002824
   5 H :    0.339574   -0.002824
Sum of atomic charges         :   -0.0000000

LOEWDIN ATOMIC CHARGES AND SPIN POPULATIONS
-------------------------------------------
   0 C :   -0.304051    0.832276
   1 H :    0.115797   -0.020495
   2 H :    0.115797   -0.020495
   3 N :   -0.399005    0.208470
   4 H :    0.235731    0.000122
   5 H :    0.235731    0.000122

  Mayer bond orders larger than 0.100000
B(  0-C ,  1-H ) :   0.9296 B(  0-C ,  2-H ) :   0.9296 B(  0-C ,  3-N ) :   1.2299
B(  3-N ,  4-H ) :   0.8498 B(  3-N ,  5-H ) :   0.8498

Dispersion correction           -0.001238057
FINAL SINGLE POINT ENERGY       -94.987182683960

DIPOLE MOMENT
-------------
                                X             Y             Z
Electronic contribution:      0.63076      -0.00000      -0.05192
Nuclear contribution   :     -0.25667       0.00000      -0.22762
                        -----------------------------------------
Total Dipole Moment    :      0.37409      -0.00000      -0.27955
                        -----------------------------------------
Magnitude (a.u.)       :      0.46700
Magnitude (Debye)      :      1.18702

Rotational constants in cm-1:     4.887490     0.916236     0.795277
Rotational constants in MHz : 146523.258590 27468.055708 23841.793029

                             ****ORCA TERMINATED NORMALLY****
TOTAL RUN TIME: 0 days 0 hours 1 minutes 6 seconds 871 msec
