                         Program Version 5.0.3 -  RELEASE  -
|  1> ! PBEh-3c def2/J TightSCF DefGrid3
|  2>
|  3> %maxcore 60000
|  4>
|  5> %pal
|  6> nprocs 4
|  7> end
|  8>
|  9> *xyzfile 0 1 B4.xyz
| 10>
| 11>                          ****END OF INPUT****

CARTESIAN COORDINATES (ANGSTROEM)
---------------------------------
  C     -1.438928   -0.109815    0.532071
  H     -2.472335    0.074573    0.824884
  O     -1.472527   -1.083552   -0.502451
  C     -0.798219    1.204086    0.087042
  H     -1.457038    1.694153   -0.632207
  H     -0.730959    1.861206    0.959896
  C      0.591628    1.056143   -0.543803
  H      1.012608    2.052465   -0.699924
  H      0.503531    0.596227   -1.530477
  H     -0.586097   -1.462372   -0.503945
  H     -0.916779   -0.505724    1.408012
  C      1.580711    0.238084    0.281688
  H      2.606138    0.472048   -0.011136
  H      1.481130    0.469273    1.342522
  O      1.360717   -1.179607    0.166189
  H      1.843127   -1.477562   -0.609527

 Total Charge           Charge          ....    0
 Multiplicity           Mult            ....    1
 Number of Electrons    NEL             ....   50
 Basis Dimension        Dim             ....  110

ORBITAL ENERGIES
----------------

  NO   OCC          E(Eh)            E(eV)
   0   2.0000     -19.507419      -530.8239
   1   2.0000     -19.461139      -529.5645
   2   2.0000     -10.493334      -285.5381
   3   2.0000     -10.466240      -284.8009
   4   2.0000     -10.438104      -284.0353
   5   2.0000     -10.428890      -283.7845
   6   2.0000      -1.139565       -31.0091
   7   2.0000      -1.100202       -29.9380
   8   2.0000      -0.880790       -23.9675
   9   2.0000      -0.793862       -21.6021
  10   2.0000      -0.719336       -19.5741
  11   2.0000      -0.644731       -17.5440
  12   2.0000      -0.587364       -15.9830
  13   2.0000      -0.559321       -15.2199
  14   2.0000      -0.529529       -14.4092
  15   2.0000      -0.503943       -13.7130
  16   2.0000      -0.482741       -13.1360
  17   2.0000      -0.466948       -12.7063
  18   2.0000      -0.432385       -11.7658
  19   2.0000      -0.426013       -11.5924
  20   2.0000      -0.400809       -10.9066
  21   2.0000      -0.381270       -10.3749
  22   2.0000      -0.358695        -9.7606
  23   2.0000      -0.342251        -9.3131
  24   2.0000      -0.303714        -8.2645
  25   0.0000       0.105069         2.8591
  26   0.0000       0.155369         4.2278
  27   0.0000       0.172936         4.7058
  28   0.0000       0.180420         4.9095
  29   0.0000       0.187849         5.1116

MULLIKEN ATOMIC CHARGES
-----------------------
   0 C :   -0.159860
   1 H :    0.211925
   2 O :   -0.647338
   3 C :   -0.445749
   4 H :    0.226527
   5 H :    0.199276
   6 C :   -0.455770
   7 H :    0.219434
   8 H :    0.223464
   9 H :    0.421376
  10 H :    0.186279
  11 C :   -0.187632
  12 H :    0.205117
  13 H :    0.219692
  14 O :   -0.638317
  15 H :    0.421577
Sum of atomic charges:    0.0000000

LOEWDIN ATOMIC CHARGES
----------------------
   0 C :   -0.097489
   1 H :    0.117157
   2 O :   -0.427473
   3 C :   -0.263971
   4 H :    0.129834
   5 H :    0.121081
   6 C :   -0.269884
   7 H :    0.130278
   8 H :    0.128612
   9 H :    0.299420
  10 H :    0.100877
  11 C :   -0.095673
  12 H :    0.109170
  13 H :    0.120498
  14 O :   -0.414163
  15 H :    0.311727

  Mayer bond orders larger than 0.100000
B(  0-C ,  1-H ) :   0.9216 B(  0-C ,  2-O ) :   1.0365 B(  0-C ,  3-C ) :   0.9590
B(  0-C , 10-H ) :   0.9135 B(  2-O ,  9-H ) :   0.7478 B(  3-C ,  4-H ) :   0.9184
B(  3-C ,  5-H ) :   0.9155 B(  3-C ,  6-C ) :   0.9873 B(  6-C ,  7-H ) :   0.9155
B(  6-C ,  8-H ) :   0.9147 B(  6-C , 11-C ) :   0.9462 B( 11-C , 12-H ) :   0.9224
B( 11-C , 13-H ) :   0.9149 B( 11-C , 14-O ) :   0.9718 B( 14-O , 15-H ) :   0.7881

Dispersion correction           -0.007027666
FINAL SINGLE POINT ENERGY      -308.208577198419

DIPOLE MOMENT
-------------
                                X             Y             Z
Electronic contribution:     -0.24097      -3.35043      -0.65729
Nuclear contribution   :      1.33534       3.89549       0.56558
                        -----------------------------------------
Total Dipole Moment    :      1.09437       0.54506      -0.09171
                        -----------------------------------------
Magnitude (a.u.)       :      1.22603
Magnitude (Debye)      :      3.11632

Rotational constants in cm-1:     0.152871     0.095432     0.069227
Rotational constants in MHz :  4582.945036  2860.964435  2075.383674

                             ****ORCA TERMINATED NORMALLY****
TOTAL RUN TIME: 0 days 0 hours 1 minutes 29 seconds 129 msec
