                         Program Version 5.0.3 -  RELEASE  -
|  1> ! PBEh-3c def2/J TightSCF DefGrid3
|  2>
|  3> %maxcore 60000
|  4>
|  5> %pal
|  6> nprocs 4
|  7> end
|  8>
|  9> *xyzfile 0 1 gly.xyz
| 10>
| 11>                          ****END OF INPUT****

CARTESIAN COORDINATES (ANGSTROEM)
---------------------------------
  N      0.506022   -1.598655    0.000000
  H      1.108915   -1.530207    0.809839
  C     -0.464254   -0.537584    0.000000
  C      0.095748    0.869951    0.000000
  H     -1.120802   -0.636704   -0.870436
  H     -1.120802   -0.636704    0.870436
  O      1.266143    1.149314    0.000000
  O     -0.871953    1.777257    0.000000
  H     -0.507931    2.673537    0.000000
  H      1.108915   -1.530207   -0.809839

 Total Charge           Charge          ....    0
 Multiplicity           Mult            ....    1
 Number of Electrons    NEL             ....   40
 Basis Dimension        Dim             ....   85

ORBITAL ENERGIES
----------------

  NO   OCC          E(Eh)            E(eV)
   0   2.0000     -19.547709      -531.9202
   1   2.0000     -19.486442      -530.2530
   2   2.0000     -14.616416      -397.7329
   3   2.0000     -10.578892      -287.8663
   4   2.0000     -10.478573      -285.1365
   5   2.0000      -1.231330       -33.5062
   6   2.0000      -1.130727       -30.7686
   7   2.0000      -0.989730       -26.9319
   8   2.0000      -0.808636       -22.0041
   9   2.0000      -0.687679       -18.7127
  10   2.0000      -0.577261       -15.7081
  11   2.0000      -0.572293       -15.5729
  12   2.0000      -0.558896       -15.2083
  13   2.0000      -0.514210       -13.9924
  14   2.0000      -0.489236       -13.3128
  15   2.0000      -0.461800       -12.5662
  16   2.0000      -0.428309       -11.6549
  17   2.0000      -0.381584       -10.3834
  18   2.0000      -0.343546        -9.3483
  19   2.0000      -0.299966        -8.1625
  20   0.0000       0.048312         1.3146
  21   0.0000       0.123177         3.3518
  22   0.0000       0.135428         3.6852
  23   0.0000       0.190484         5.1833
  24   0.0000       0.196745         5.3537

MULLIKEN ATOMIC CHARGES
-----------------------
   0 N :   -0.719935
   1 H :    0.329023
   2 C :   -0.403016
   3 C :    0.484265
   4 H :    0.253629
   5 H :    0.253629
   6 O :   -0.394274
   7 O :   -0.577607
   8 H :    0.445264
   9 H :    0.329023
Sum of atomic charges:   -0.0000000

LOEWDIN ATOMIC CHARGES
----------------------
   0 N :   -0.452037
   1 H :    0.230273
   2 C :   -0.210381
   3 C :    0.094181
   4 H :    0.147125
   5 H :    0.147125
   6 O :   -0.235092
   7 O :   -0.286573
   8 H :    0.335105
   9 H :    0.230273

  Mayer bond orders larger than 0.100000
B(  0-N ,  1-H ) :   0.8559 B(  0-N ,  2-C ) :   1.0883 B(  0-N ,  9-H ) :   0.8559
B(  2-C ,  3-C ) :   0.8845 B(  2-C ,  4-H ) :   0.8956 B(  2-C ,  5-H ) :   0.8956
B(  3-C ,  6-O ) :   2.0739 B(  3-C ,  7-O ) :   1.1500 B(  7-O ,  8-H ) :   0.7546

Dispersion correction           -0.003520699
FINAL SINGLE POINT ENERGY      -283.827738384522

DIPOLE MOMENT
-------------
                                X             Y             Z
Electronic contribution:      0.68779       3.65852      -0.00000
Nuclear contribution   :     -1.02109      -3.20715       0.00000
                        -----------------------------------------
Total Dipole Moment    :     -0.33330       0.45137      -0.00000
                        -----------------------------------------
Magnitude (a.u.)       :      0.56109
Magnitude (Debye)      :      1.42618

Rotational constants in cm-1:     0.349008     0.130620     0.098203
Rotational constants in MHz : 10463.010900  3915.878488  2944.049489

                             ****ORCA TERMINATED NORMALLY****
TOTAL RUN TIME: 0 days 0 hours 1 minutes 5 seconds 506 msec
