                         Program Version 5.0.3 -  RELEASE  -
|  1> ! PBEh-3c def2/J TightSCF DefGrid3
|  2>
|  3> %maxcore 60000
|  4>
|  5> %pal
|  6> nprocs 4
|  7> end
|  8>
|  9> *xyzfile 0 3 ch2-trip.xyz
| 10>
| 11>                          ****END OF INPUT****

CARTESIAN COORDINATES (ANGSTROEM)
---------------------------------
  C      0.000000    0.060939    0.000000
  H     -0.990291   -0.363103    0.000000
  H      0.990291   -0.363103    0.000000

 Total Charge           Charge          ....    0
 Multiplicity           Mult            ....    3
 Number of Electrons    NEL             ....    8
 Basis Dimension        Dim             ....   19

ORBITAL ENERGIES
----------------
                 SPIN UP ORBITALS
  NO   OCC          E(Eh)            E(eV)
   0   1.0000     -10.480700      -285.1943
   1   1.0000      -0.765528       -20.8311
   2   1.0000      -0.513696       -13.9784
   3   1.0000      -0.337286        -9.1780
   4   1.0000      -0.299872        -8.1599
   5   0.0000       0.154059         4.1922
   6   0.0000       0.244140         6.6434
   7   0.0000       0.504738        13.7346
   8   0.0000       0.509892        13.8749
   9   0.0000       0.514788        14.0081

                 SPIN DOWN ORBITALS
  NO   OCC          E(Eh)            E(eV)
   0   1.0000     -10.447435      -284.2892
   1   1.0000      -0.665126       -18.0990
   2   1.0000      -0.488454       -13.2915
   3   0.0000      -0.027587        -0.7507
   4   0.0000      -0.000662        -0.0180
   5   0.0000       0.182294         4.9605
   6   0.0000       0.274463         7.4685
   7   0.0000       0.536279        14.5929

MULLIKEN ATOMIC CHARGES AND SPIN POPULATIONS
--------------------------------------------
   0 C :   -0.441006    2.143228
   1 H :    0.220503   -0.071614
   2 H :    0.220503   -0.071614
Sum of atomic charges         :    0.0000000

LOEWDIN ATOMIC CHARGES AND SPIN POPULATIONS
-------------------------------------------
   0 C :   -0.266600    2.064717
   1 H :    0.133300   -0.032358
   2 H :    0.133300   -0.032358

  Mayer bond orders larger than 0.100000
B(  0-C ,  1-H ) :   0.9127 B(  0-C ,  2-H ) :   0.9127

Dispersion correction           -0.000282959
FINAL SINGLE POINT ENERGY       -39.063021659087

DIPOLE MOMENT
-------------
                                X             Y             Z
Electronic contribution:     -0.00000       0.41058      -0.00000
Nuclear contribution   :      0.00000      -0.68130       0.00000
                        -----------------------------------------
Total Dipole Moment    :     -0.00000      -0.27072      -0.00000
                        -----------------------------------------
Magnitude (a.u.)       :      0.27072
Magnitude (Debye)      :      0.68811

Rotational constants in cm-1:    54.309050     8.526696     7.369639
Rotational constants in MHz : 1628144.361159 255623.925423 220936.224333

                             ****ORCA TERMINATED NORMALLY****
TOTAL RUN TIME: 0 days 0 hours 0 minutes 59 seconds 683 msec
