                         Program Version 5.0.3 -  RELEASE  -
|  1> ! PBEh-3c def2/J TightSCF DefGrid3
|  2>
|  3> %maxcore 60000
|  4>
|  5> %pal
|  6> nprocs 4
|  7> end
|  8>
|  9> *xyzfile 0 1 HIS_xam.xyz
| 10>
| 11>                          ****END OF INPUT****

CARTESIAN COORDINATES (ANGSTROEM)
---------------------------------
  N      1.987990   -0.432215    0.094116
  H      2.801794    0.149589    0.231107
  C      0.727183    0.242409   -0.034033
  H      0.262363   -0.076561   -0.969137
  C     -0.254498   -0.100952    1.122449
  C      0.991862    1.738293   -0.105532
  H     -0.318596    0.725914    1.828901
  H      0.152225   -0.960028    1.655071
  C     -1.600486   -0.420645    0.588936
  O      2.110792    2.208143    0.078199
  N     -1.783309   -1.521999   -0.207301
  C     -2.834864    0.200191    0.621665
  H     -1.030654   -2.160533   -0.445288
  C     -3.082112   -1.528996   -0.609151
  N     -3.754410   -0.496404   -0.123030
  H     -3.104581    1.091622    1.164120
  H     -3.487687   -2.298489   -1.242999
  C      2.051705   -1.761254   -0.132371
  C      3.415954   -2.390877   -0.045204
  O      1.040875   -2.422126   -0.391787
  H      3.654401   -2.834771   -1.008974
  H      3.383026   -3.192927    0.687963
  H      4.192107   -1.681147    0.227825
  N     -0.117133    2.465946   -0.361611
  C     -0.103710    3.913242   -0.412509
  H     -0.989769    1.971064   -0.472067
  H      0.919884    4.234891   -0.250200
  H     -0.440938    4.269344   -1.383486
  H     -0.739055    4.336907    0.362786

 Total Charge           Charge          ....    0
 Multiplicity           Mult            ....    1
 Number of Electrons    NEL             ....  112
 Basis Dimension        Dim             ....  253

ORBITAL ENERGIES
----------------

  NO   OCC          E(Eh)            E(eV)
   0   2.0000     -19.477994      -530.0232
   1   2.0000     -19.475175      -529.9464
   2   2.0000     -14.684281      -399.5796
   3   2.0000     -14.676279      -399.3618
   4   2.0000     -14.674545      -399.3147
   5   2.0000     -14.613742      -397.6601
   6   2.0000     -10.565485      -287.5015
   7   2.0000     -10.563918      -287.4588
   8   2.0000     -10.503111      -285.8042
   9   2.0000     -10.492088      -285.5042
  10   2.0000     -10.477036      -285.0946
  11   2.0000     -10.475882      -285.0632
  12   2.0000     -10.464631      -284.7571
  13   2.0000     -10.452708      -284.4327
  14   2.0000     -10.452316      -284.4220
  15   2.0000      -1.165751       -31.7217
  16   2.0000      -1.155264       -31.4363
  17   2.0000      -1.117492       -30.4085
  18   2.0000      -1.040662       -28.3178
  19   2.0000      -1.038418       -28.2568
  20   2.0000      -0.963327       -26.2135
  21   2.0000      -0.900808       -24.5122
  22   2.0000      -0.850028       -23.1304
  23   2.0000      -0.825270       -22.4567
  24   2.0000      -0.790324       -21.5058
  25   2.0000      -0.745144       -20.2764
  26   2.0000      -0.682904       -18.5828
  27   2.0000      -0.678159       -18.4536
  28   2.0000      -0.664597       -18.0846
  29   2.0000      -0.658914       -17.9300
  30   2.0000      -0.619432       -16.8556
  31   2.0000      -0.608962       -16.5707
  32   2.0000      -0.559898       -15.2356
  33   2.0000      -0.553912       -15.0727
  34   2.0000      -0.536921       -14.6104
  35   2.0000      -0.530936       -14.4475
  36   2.0000      -0.525364       -14.2959
  37   2.0000      -0.509653       -13.8684
  38   2.0000      -0.497694       -13.5430
  39   2.0000      -0.496941       -13.5224
  40   2.0000      -0.487460       -13.2644
  41   2.0000      -0.469397       -12.7729
  42   2.0000      -0.464923       -12.6512
  43   2.0000      -0.462252       -12.5785
  44   2.0000      -0.459250       -12.4968
  45   2.0000      -0.453529       -12.3412
  46   2.0000      -0.445606       -12.1255
  47   2.0000      -0.433721       -11.8021
  48   2.0000      -0.412169       -11.2157
  49   2.0000      -0.338176        -9.2022
  50   2.0000      -0.330537        -8.9944
  51   2.0000      -0.325283        -8.8514
  52   2.0000      -0.321529        -8.7493
  53   2.0000      -0.319229        -8.6867
  54   2.0000      -0.312502        -8.5036
  55   2.0000      -0.261864        -7.1257
  56   0.0000       0.033884         0.9220
  57   0.0000       0.051361         1.3976
  58   0.0000       0.061044         1.6611
  59   0.0000       0.093624         2.5477
  60   0.0000       0.127642         3.4733

MULLIKEN ATOMIC CHARGES
-----------------------
   0 N :   -0.641098
   1 H :    0.388459
   2 C :   -0.167559
   3 H :    0.279825
   4 C :   -0.545412
   5 C :    0.531053
   6 H :    0.258429
   7 H :    0.277474
   8 C :    0.265963
   9 O :   -0.438751
  10 N :   -0.618708
  11 C :   -0.228945
  12 H :    0.412065
  13 C :    0.110138
  14 N :   -0.378435
  15 H :    0.217961
  16 H :    0.235978
  17 C :    0.548399
  18 C :   -0.746620
  19 O :   -0.480373
  20 H :    0.260740
  21 H :    0.260453
  22 H :    0.225414
  23 N :   -0.638900
  24 C :   -0.494731
  25 H :    0.387006
  26 H :    0.265796
  27 H :    0.228792
  28 H :    0.225589
Sum of atomic charges:   -0.0000000

LOEWDIN ATOMIC CHARGES
----------------------
   0 N :   -0.213679
   1 H :    0.272343
   2 C :   -0.091867
   3 H :    0.147920
   4 C :   -0.230863
   5 C :    0.111390
   6 H :    0.146985
   7 H :    0.154819
   8 C :   -0.061803
   9 O :   -0.286646
  10 N :   -0.137223
  11 C :   -0.160965
  12 H :    0.277800
  13 C :   -0.048328
  14 N :   -0.190909
  15 H :    0.127276
  16 H :    0.130939
  17 C :    0.118083
  18 C :   -0.382835
  19 O :   -0.315246
  20 H :    0.159313
  21 H :    0.158772
  22 H :    0.134227
  23 N :   -0.236974
  24 C :   -0.254736
  25 H :    0.265416
  26 H :    0.154385
  27 H :    0.127064
  28 H :    0.125344

  Mayer bond orders larger than 0.100000
B(  0-N ,  1-H ) :   0.7747 B(  0-N ,  2-C ) :   0.9370 B(  0-N , 17-C ) :   1.1919
B(  2-C ,  3-H ) :   0.8809 B(  2-C ,  4-C ) :   0.8827 B(  2-C ,  5-C ) :   0.9245
B(  4-C ,  6-H ) :   0.9156 B(  4-C ,  7-H ) :   0.9011 B(  4-C ,  8-C ) :   0.9323
B(  5-C ,  9-O ) :   1.9707 B(  5-C , 23-N ) :   1.1612 B(  8-C , 10-N ) :   1.1338
B(  8-C , 11-C ) :   1.5174 B(  9-O , 23-N ) :   0.1001 B( 10-N , 12-H ) :   0.7388
B( 10-N , 13-C ) :   1.2027 B( 11-C , 14-N ) :   1.3666 B( 11-C , 15-H ) :   0.9282
B( 13-C , 14-N ) :   1.6130 B( 13-C , 16-H ) :   0.9112 B( 17-C , 18-C ) :   0.9347
B( 17-C , 19-O ) :   1.8610 B( 18-C , 20-H ) :   0.9071 B( 18-C , 21-H ) :   0.9082
B( 18-C , 22-H ) :   0.9192 B( 23-N , 24-C ) :   0.9474 B( 23-N , 25-H ) :   0.7886
B( 24-C , 26-H ) :   0.9001 B( 24-C , 27-H ) :   0.9192 B( 24-C , 28-H ) :   0.9194

Dispersion correction           -0.018393431
FINAL SINGLE POINT ENERGY      -719.335261824356

DIPOLE MOMENT
-------------
                                X             Y             Z
Electronic contribution:     -4.05727      -3.22892      -0.48243
Nuclear contribution   :      5.20175       3.40783       0.42035
                        -----------------------------------------
Total Dipole Moment    :      1.14448       0.17892      -0.06209
                        -----------------------------------------
Magnitude (a.u.)       :      1.16004
Magnitude (Debye)      :      2.94858

Rotational constants in cm-1:     0.021168     0.017480     0.010154
Rotational constants in MHz :   634.605987   524.050368   304.399576

                             ****ORCA TERMINATED NORMALLY****
TOTAL RUN TIME: 0 days 0 hours 3 minutes 46 seconds 637 msec
