                         Program Version 5.0.3 -  RELEASE  -
|  1> ! PBEh-3c def2/J TightSCF DefGrid3
|  2>
|  3> %maxcore 60000
|  4>
|  5> %pal
|  6> nprocs 4
|  7> end
|  8>
|  9> *xyzfile 0 1 GLY_xag.xyz
| 10>
| 11>                          ****END OF INPUT****

CARTESIAN COORDINATES (ANGSTROEM)
---------------------------------
  C      0.212149   -1.976257   -2.007268
  H      0.040079   -1.245124   -2.795152
  H     -0.181530   -2.921887   -2.375012
  N      1.629678   -2.055357   -1.744380
  H      2.237900   -1.342498   -2.115596
  C     -0.671212   -1.566558   -0.829959
  O     -1.889490   -1.602847   -0.938701
  C      2.297258   -3.144444   -1.235785
  O      3.514598   -3.148995   -1.140418
  N     -0.006037   -1.177744    0.280966
  H      0.998664   -1.166374    0.232699
  C     -0.695220   -0.731266    1.471524
  H     -0.596359    0.344376    1.609375
  H     -1.746325   -0.973460    1.348540
  H     -0.306474   -1.239648    2.350662
  C      1.431691   -4.301913   -0.804017
  H      0.608635   -3.975562   -0.170886
  H      2.056240   -5.006157   -0.266326
  H      1.006756   -4.799885   -1.675171

 Total Charge           Charge          ....    0
 Multiplicity           Mult            ....    1
 Number of Electrons    NEL             ....   70
 Basis Dimension        Dim             ....  155

ORBITAL ENERGIES
----------------

  NO   OCC          E(Eh)            E(eV)
   0   2.0000     -19.466751      -529.7172
   1   2.0000     -19.461257      -529.5677
   2   2.0000     -14.677467      -399.3942
   3   2.0000     -14.671246      -399.2249
   4   2.0000     -10.561055      -287.3809
   5   2.0000     -10.553328      -287.1706
   6   2.0000     -10.500049      -285.7209
   7   2.0000     -10.472907      -284.9823
   8   2.0000     -10.448663      -284.3226
   9   2.0000      -1.154615       -31.4187
  10   2.0000      -1.147299       -31.2196
  11   2.0000      -1.046137       -28.4668
  12   2.0000      -1.023272       -27.8447
  13   2.0000      -0.847978       -23.0747
  14   2.0000      -0.833786       -22.6885
  15   2.0000      -0.784245       -21.3404
  16   2.0000      -0.672391       -18.2967
  17   2.0000      -0.660343       -17.9688
  18   2.0000      -0.605878       -16.4868
  19   2.0000      -0.582314       -15.8456
  20   2.0000      -0.561468       -15.2783
  21   2.0000      -0.524909       -14.2835
  22   2.0000      -0.518290       -14.1034
  23   2.0000      -0.509442       -13.8626
  24   2.0000      -0.490151       -13.3377
  25   2.0000      -0.476609       -12.9692
  26   2.0000      -0.470577       -12.8050
  27   2.0000      -0.463613       -12.6156
  28   2.0000      -0.453196       -12.3321
  29   2.0000      -0.430055       -11.7024
  30   2.0000      -0.419568       -11.4170
  31   2.0000      -0.342540        -9.3210
  32   2.0000      -0.319360        -8.6902
  33   2.0000      -0.310452        -8.4478
  34   2.0000      -0.299284        -8.1439
  35   0.0000       0.048895         1.3305
  36   0.0000       0.054450         1.4817
  37   0.0000       0.112020         3.0482
  38   0.0000       0.133556         3.6342
  39   0.0000       0.147704         4.0192

MULLIKEN ATOMIC CHARGES
-----------------------
   0 C :   -0.391760
   1 H :    0.278729
   2 H :    0.267048
   3 N :   -0.642170
   4 H :    0.370544
   5 C :    0.505381
   6 O :   -0.427610
   7 C :    0.487676
   8 O :   -0.403770
   9 N :   -0.630226
  10 H :    0.376115
  11 C :   -0.492803
  12 H :    0.224251
  13 H :    0.266297
  14 H :    0.223326
  15 C :   -0.783351
  16 H :    0.247653
  17 H :    0.276613
  18 H :    0.248057
Sum of atomic charges:   -0.0000000

LOEWDIN ATOMIC CHARGES
----------------------
   0 C :   -0.182418
   1 H :    0.158192
   2 H :    0.151934
   3 N :   -0.259800
   4 H :    0.262886
   5 C :    0.085923
   6 O :   -0.280591
   7 C :    0.104720
   8 O :   -0.261994
   9 N :   -0.246003
  10 H :    0.258965
  11 C :   -0.256298
  12 H :    0.123638
  13 H :    0.154304
  14 H :    0.125395
  15 C :   -0.398157
  16 H :    0.148236
  17 H :    0.159402
  18 H :    0.151665

  Mayer bond orders larger than 0.100000
B(  0-C ,  1-H ) :   0.8997 B(  0-C ,  2-H ) :   0.8933 B(  0-C ,  3-N ) :   0.9299
B(  0-C ,  5-C ) :   0.8987 B(  3-N ,  4-H ) :   0.8186 B(  3-N ,  7-C ) :   1.1138
B(  5-C ,  6-O ) :   1.9867 B(  5-C ,  9-N ) :   1.1570 B(  6-O ,  9-N ) :   0.1024
B(  7-C ,  8-O ) :   2.0555 B(  7-C , 15-C ) :   0.9345 B(  9-N , 10-H ) :   0.7957
B(  9-N , 11-C ) :   0.9467 B( 11-C , 12-H ) :   0.9195 B( 11-C , 13-H ) :   0.8987
B( 11-C , 14-H ) :   0.9223 B( 15-C , 16-H ) :   0.8982 B( 15-C , 17-H ) :   0.9142
B( 15-C , 18-H ) :   0.9039

Dispersion correction           -0.009799817
FINAL SINGLE POINT ENERGY      -455.557770040252

DIPOLE MOMENT
-------------
                                X             Y             Z
Electronic contribution:      2.19628       0.86802      -3.33024
Nuclear contribution   :     -2.17219      -0.43034       3.47780
                        -----------------------------------------
Total Dipole Moment    :      0.02409       0.43768       0.14755
                        -----------------------------------------
Magnitude (a.u.)       :      0.46251
Magnitude (Debye)      :      1.17561

Rotational constants in cm-1:     0.092910     0.031312     0.028357
Rotational constants in MHz :  2785.385815   938.702374   850.113956

                             ****ORCA TERMINATED NORMALLY****
TOTAL RUN TIME: 0 days 0 hours 1 minutes 47 seconds 260 msec
