                         Program Version 5.0.3 -  RELEASE  -
|  1> ! PBEh-3c def2/J TightSCF DefGrid3
|  2>
|  3> %maxcore 60000
|  4>
|  5> %pal
|  6> nprocs 4
|  7> end
|  8>
|  9> *xyzfile 0 1 R49.xyz
| 10>
| 11>                          ****END OF INPUT****

CARTESIAN COORDINATES (ANGSTROEM)
---------------------------------
  C      1.190986   -0.114132    0.000000
  C      0.582650   -1.539955    0.000000
  C      0.000000    0.834268    0.000000
  C     -0.901957   -1.295746    0.000000
  C     -1.200660    0.006390    0.000000
  C      0.043814    2.167026    0.000000
  H      1.817472    0.054360    0.875613
  H      1.817472    0.054360   -0.875613
  H      0.890349   -2.120423    0.873514
  H      0.890349   -2.120423   -0.873514
  H     -1.625191   -2.099219    0.000000
  H     -2.198823    0.421106    0.000000
  H      0.981853    2.705613    0.000000
  H     -0.862477    2.757523    0.000000

 Total Charge           Charge          ....    0
 Multiplicity           Mult            ....    1
 Number of Electrons    NEL             ....   44
 Basis Dimension        Dim             ....  106

ORBITAL ENERGIES
----------------

  NO   OCC          E(Eh)            E(eV)
   0   2.0000     -10.450278      -284.3665
   1   2.0000     -10.447368      -284.2873
   2   2.0000     -10.442146      -284.1452
   3   2.0000     -10.439814      -284.0818
   4   2.0000     -10.438461      -284.0450
   5   2.0000     -10.422357      -283.6068
   6   2.0000      -0.949950       -25.8494
   7   2.0000      -0.836091       -22.7512
   8   2.0000      -0.801938       -21.8218
   9   2.0000      -0.719883       -19.5890
  10   2.0000      -0.631590       -17.1864
  11   2.0000      -0.590501       -16.0683
  12   2.0000      -0.549710       -14.9584
  13   2.0000      -0.520254       -14.1568
  14   2.0000      -0.486330       -13.2337
  15   2.0000      -0.444440       -12.0938
  16   2.0000      -0.420137       -11.4325
  17   2.0000      -0.418488       -11.3877
  18   2.0000      -0.406757       -11.0684
  19   2.0000      -0.381461       -10.3801
  20   2.0000      -0.354323        -9.6416
  21   2.0000      -0.254132        -6.9153
  22   0.0000       0.009590         0.2610
  23   0.0000       0.104039         2.8311
  24   0.0000       0.154594         4.2067
  25   0.0000       0.173126         4.7110
  26   0.0000       0.186841         5.0842

MULLIKEN ATOMIC CHARGES
-----------------------
   0 C :   -0.496123
   1 C :   -0.463762
   2 C :    0.152481
   3 C :   -0.225645
   4 C :   -0.192569
   5 C :   -0.576795
   6 H :    0.241269
   7 H :    0.241269
   8 H :    0.231080
   9 H :    0.231080
  10 H :    0.220504
  11 H :    0.214393
  12 H :    0.211294
  13 H :    0.211524
Sum of atomic charges:    0.0000000

LOEWDIN ATOMIC CHARGES
----------------------
   0 C :   -0.228137
   1 C :   -0.236468
   2 C :   -0.049834
   3 C :   -0.128422
   4 C :   -0.139098
   5 C :   -0.295238
   6 H :    0.140436
   7 H :    0.140436
   8 H :    0.132395
   9 H :    0.132395
  10 H :    0.132826
  11 H :    0.136165
  12 H :    0.130837
  13 H :    0.131706

  Mayer bond orders larger than 0.100000
B(  0-C ,  1-C ) :   0.9620 B(  0-C ,  2-C ) :   0.9671 B(  0-C ,  6-H ) :   0.9168
B(  0-C ,  7-H ) :   0.9168 B(  1-C ,  3-C ) :   1.0088 B(  1-C ,  8-H ) :   0.9128
B(  1-C ,  9-H ) :   0.9128 B(  2-C ,  4-C ) :   1.0853 B(  2-C ,  5-C ) :   1.7978
B(  3-C ,  4-C ) :   1.8003 B(  3-C ,  5-C ) :   0.1083 B(  3-C , 10-H ) :   0.9213
B(  4-C , 11-H ) :   0.9260 B(  5-C , 12-H ) :   0.9353 B(  5-C , 13-H ) :   0.9329

Dispersion correction           -0.006579830
FINAL SINGLE POINT ENERGY      -232.897018810279

DIPOLE MOMENT
-------------
                                X             Y             Z
Electronic contribution:     -1.67570       0.04699       0.00000
Nuclear contribution   :      1.76450      -0.35796       0.00000
                        -----------------------------------------
Total Dipole Moment    :      0.08880      -0.31097       0.00000
                        -----------------------------------------
Magnitude (a.u.)       :      0.32340
Magnitude (Debye)      :      0.82202

Rotational constants in cm-1:     0.245234     0.115914     0.081044
Rotational constants in MHz :  7351.928781  3475.016573  2429.645084

                             ****ORCA TERMINATED NORMALLY****
TOTAL RUN TIME: 0 days 0 hours 0 minutes 58 seconds 688 msec
