                         Program Version 5.0.3 -  RELEASE  -
|  1> ! PBEh-3c def2/J TightSCF DefGrid3
|  2>
|  3> %maxcore 60000
|  4>
|  5> %pal
|  6> nprocs 4
|  7> end
|  8>
|  9> *xyzfile 0 1 N3H5_2.xyz
| 10>
| 11>                          ****END OF INPUT****

CARTESIAN COORDINATES (ANGSTROEM)
---------------------------------
  N     -0.171841   -0.557074    0.300272
  N      1.201153   -0.583824   -0.103746
  N     -0.756715    0.762986    0.159355
  H     -1.281425    0.845930   -0.715552
  H     -1.416349    0.879590    0.927323
  H      1.340678    0.035206   -0.910802
  H      1.729957   -0.170352    0.663520
  H     -0.645458   -1.212462   -0.320370

 Total Charge           Charge          ....    0
 Multiplicity           Mult            ....    1
 Number of Electrons    NEL             ....   26
 Basis Dimension        Dim             ....   55

ORBITAL ENERGIES
----------------

  NO   OCC          E(Eh)            E(eV)
   0   2.0000     -14.666946      -399.1079
   1   2.0000     -14.637600      -398.3093
   2   2.0000     -14.628417      -398.0595
   3   2.0000      -1.081301       -29.4237
   4   2.0000      -0.936947       -25.4956
   5   2.0000      -0.778903       -21.1950
   6   2.0000      -0.579714       -15.7748
   7   2.0000      -0.543828       -14.7983
   8   2.0000      -0.525958       -14.3121
   9   2.0000      -0.502389       -13.6707
  10   2.0000      -0.319896        -8.7048
  11   2.0000      -0.300079        -8.1656
  12   2.0000      -0.292626        -7.9627
  13   0.0000       0.125228         3.4076
  14   0.0000       0.165423         4.5014
  15   0.0000       0.169651         4.6164
  16   0.0000       0.206326         5.6144
  17   0.0000       0.226405         6.1608

MULLIKEN ATOMIC CHARGES
-----------------------
   0 N :   -0.348238
   1 N :   -0.606082
   2 N :   -0.642432
   3 H :    0.304916
   4 H :    0.334411
   5 H :    0.302592
   6 H :    0.330969
   7 H :    0.323865
Sum of atomic charges:    0.0000000

LOEWDIN ATOMIC CHARGES
----------------------
   0 N :   -0.228307
   1 N :   -0.399893
   2 N :   -0.427719
   3 H :    0.203247
   4 H :    0.222346
   5 H :    0.199460
   6 H :    0.220524
   7 H :    0.210343

  Mayer bond orders larger than 0.100000
B(  0-N ,  1-N ) :   1.0367 B(  0-N ,  2-N ) :   0.9877 B(  0-N ,  7-H ) :   0.8472
B(  1-N ,  5-H ) :   0.8579 B(  1-N ,  6-H ) :   0.8579 B(  2-N ,  3-H ) :   0.8612
B(  2-N ,  4-H ) :   0.8535

Dispersion correction           -0.002164735
FINAL SINGLE POINT ENERGY      -166.818605282709

DIPOLE MOMENT
-------------
                                X             Y             Z
Electronic contribution:      0.00082      -0.47388       0.33635
Nuclear contribution   :     -0.60869       0.84385      -0.79466
                        -----------------------------------------
Total Dipole Moment    :     -0.60787       0.36997      -0.45831
                        -----------------------------------------
Magnitude (a.u.)       :      0.84642
Magnitude (Debye)      :      2.15144

Rotational constants in cm-1:     1.391956     0.322940     0.290616
Rotational constants in MHz : 41729.779362  9681.487726  8712.437423

                             ****ORCA TERMINATED NORMALLY****
TOTAL RUN TIME: 0 days 0 hours 1 minutes 8 seconds 428 msec
