                         Program Version 5.0.3 -  RELEASE  -
|  1> ! PBEh-3c def2/J TightSCF DefGrid3
|  2>
|  3> %maxcore 60000
|  4>
|  5> %pal
|  6> nprocs 4
|  7> end
|  8>
|  9> *xyzfile -1 1 13.xyz
| 10>
| 11>                          ****END OF INPUT****

CARTESIAN COORDINATES (ANGSTROEM)
---------------------------------
  N     -6.062107    1.077148    0.124027
  N     -4.948015    1.438808    0.409391
  N     -7.181696    0.757942   -0.148635
  F     -2.790193    0.082121    0.392012
  H     -3.633947    0.585342    0.390400

 Total Charge           Charge          ....   -1
 Multiplicity           Mult            ....    1
 Number of Electrons    NEL             ....   32
 Basis Dimension        Dim             ....   62

ORBITAL ENERGIES
----------------

  NO   OCC          E(Eh)            E(eV)
   0   2.0000     -24.824599      -675.5117
   1   2.0000     -14.573874      -396.5753
   2   2.0000     -14.428323      -392.6146
   3   2.0000     -14.420423      -392.3996
   4   2.0000      -1.051858       -28.6225
   5   2.0000      -0.972601       -26.4658
   6   2.0000      -0.789561       -21.4850
   7   2.0000      -0.393216       -10.7000
   8   2.0000      -0.311783        -8.4840
   9   2.0000      -0.311468        -8.4755
  10   2.0000      -0.293147        -7.9769
  11   2.0000      -0.240541        -6.5455
  12   2.0000      -0.234805        -6.3894
  13   2.0000      -0.232962        -6.3392
  14   2.0000      -0.057602        -1.5674
  15   2.0000      -0.052864        -1.4385
  16   0.0000       0.280203         7.6247
  17   0.0000       0.294550         8.0151
  18   0.0000       0.467076        12.7098
  19   0.0000       0.559185        15.2162
  20   0.0000       0.715981        19.4828

MULLIKEN ATOMIC CHARGES
-----------------------
   0 N :    0.201786
   1 N :   -0.598985
   2 N :   -0.474573
   3 F :   -0.620839
   4 H :    0.492611
Sum of atomic charges:   -1.0000000

LOEWDIN ATOMIC CHARGES
----------------------
   0 N :    0.119780
   1 N :   -0.500394
   2 N :   -0.445850
   3 F :   -0.504446
   4 H :    0.330911

  Mayer bond orders larger than 0.100000
B(  0-N ,  1-N ) :   1.9336 B(  0-N ,  2-N ) :   2.2579 B(  1-N ,  2-N ) :   0.5921
B(  1-N ,  4-H ) :   0.2214 B(  3-F ,  4-H ) :   0.5515

Dispersion correction           -0.001170529
FINAL SINGLE POINT ENERGY      -264.130796746175

DIPOLE MOMENT
-------------
                                X             Y             Z
Electronic contribution:      1.13320      -0.50013       0.04904
Nuclear contribution   :     -0.78283       0.46930      -0.00084
                        -----------------------------------------
Total Dipole Moment    :      0.35038      -0.03084       0.04821
                        -----------------------------------------
Magnitude (a.u.)       :      0.35502
Magnitude (Debye)      :      0.90239

Rotational constants in cm-1:     1.522529     0.090732     0.085629
Rotational constants in MHz : 45644.279407  2720.079256  2567.098400

                             ****ORCA TERMINATED NORMALLY****
TOTAL RUN TIME: 0 days 0 hours 0 minutes 57 seconds 403 msec
