                         Program Version 5.0.3 -  RELEASE  -
|  1> ! PBEh-3c def2/J TightSCF DefGrid3
|  2>
|  3> %maxcore 60000
|  4>
|  5> %pal
|  6> nprocs 4
|  7> end
|  8>
|  9> *xyzfile 0 1 4a.xyz
| 10>
| 11>                          ****END OF INPUT****

CARTESIAN COORDINATES (ANGSTROEM)
---------------------------------
  C     -0.667171   -1.035679    0.000000
  C     -1.412898    0.128477    0.000000
  C     -0.756196    1.359293    0.000000
  C      0.627784    1.363510    0.000000
  N      1.367527    0.243504    0.000000
  C      0.723510   -0.912502    0.000000
  O      1.467068   -2.042895    0.000000
  H     -2.492450    0.079846    0.000000
  H     -1.303816    2.289134    0.000000
  H      1.181321    2.292708    0.000000
  H     -1.121635   -2.014204    0.000000
  H      2.386956   -1.751192    0.000000

 Total Charge           Charge          ....    0
 Multiplicity           Mult            ....    1
 Number of Electrons    NEL             ....   50
 Basis Dimension        Dim             ....  115

ORBITAL ENERGIES
----------------

  NO   OCC          E(Eh)            E(eV)
   0   2.0000     -19.527427      -531.3683
   1   2.0000     -14.640515      -398.3887
   2   2.0000     -10.544697      -286.9358
   3   2.0000     -10.487840      -285.3886
   4   2.0000     -10.471548      -284.9453
   5   2.0000     -10.454534      -284.4823
   6   2.0000     -10.451197      -284.3915
   7   2.0000      -1.187994       -32.3270
   8   2.0000      -1.044743       -28.4289
   9   2.0000      -0.905129       -24.6298
  10   2.0000      -0.849424       -23.1140
  11   2.0000      -0.729396       -19.8479
  12   2.0000      -0.707828       -19.2610
  13   2.0000      -0.624324       -16.9887
  14   2.0000      -0.585992       -15.9456
  15   2.0000      -0.549229       -14.9453
  16   2.0000      -0.511141       -13.9088
  17   2.0000      -0.499380       -13.5888
  18   2.0000      -0.478979       -13.0337
  19   2.0000      -0.460532       -12.5317
  20   2.0000      -0.430016       -11.7013
  21   2.0000      -0.411465       -11.1965
  22   2.0000      -0.335368        -9.1258
  23   2.0000      -0.330745        -9.0000
  24   2.0000      -0.281048        -7.6477
  25   0.0000      -0.003967        -0.1079
  26   0.0000       0.025367         0.6903
  27   0.0000       0.143546         3.9061
  28   0.0000       0.150296         4.0898
  29   0.0000       0.192931         5.2499

MULLIKEN ATOMIC CHARGES
-----------------------
   0 C :   -0.357831
   1 C :   -0.122180
   2 C :   -0.319903
   3 C :   -0.028525
   4 N :   -0.441708
   5 C :    0.488286
   6 O :   -0.601494
   7 H :    0.235633
   8 H :    0.228555
   9 H :    0.235007
  10 H :    0.246430
  11 H :    0.437730
Sum of atomic charges:    0.0000000

LOEWDIN ATOMIC CHARGES
----------------------
   0 C :   -0.185601
   1 C :   -0.090434
   2 C :   -0.193920
   3 C :   -0.043406
   4 N :   -0.186529
   5 C :    0.103754
   6 O :   -0.302358
   7 H :    0.142308
   8 H :    0.141781
   9 H :    0.131394
  10 H :    0.151469
  11 H :    0.331543

  Mayer bond orders larger than 0.100000
B(  0-C ,  1-C ) :   1.4590 B(  0-C ,  5-C ) :   1.3135 B(  0-C , 10-H ) :   0.9045
B(  1-C ,  2-C ) :   1.3695 B(  1-C ,  7-H ) :   0.9186 B(  2-C ,  3-C ) :   1.4262
B(  2-C ,  8-H ) :   0.9150 B(  3-C ,  4-N ) :   1.4556 B(  3-C ,  9-H ) :   0.9149
B(  4-N ,  5-C ) :   1.4973 B(  5-C ,  6-O ) :   1.1102 B(  6-O , 11-H ) :   0.7616

Dispersion correction           -0.005982092
FINAL SINGLE POINT ENERGY      -322.814807091833

DIPOLE MOMENT
-------------
                                X             Y             Z
Electronic contribution:      2.02383      -1.37047      -0.00000
Nuclear contribution   :     -2.39766       1.68007       0.00000
                        -----------------------------------------
Total Dipole Moment    :     -0.37382       0.30961      -0.00000
                        -----------------------------------------
Magnitude (a.u.)       :      0.48539
Magnitude (Debye)      :      1.23375

Rotational constants in cm-1:     0.195522     0.092629     0.062853
Rotational constants in MHz :  5861.595076  2776.960646  1884.275494

                             ****ORCA TERMINATED NORMALLY****
TOTAL RUN TIME: 0 days 0 hours 1 minutes 46 seconds 991 msec
