                         Program Version 5.0.3 -  RELEASE  -
|  1> ! PBEh-3c def2/J TightSCF DefGrid3
|  2>
|  3> %maxcore 60000
|  4>
|  5> %pal
|  6> nprocs 4
|  7> end
|  8>
|  9> *xyzfile 0 1 BF3PMe3.xyz
| 10>
| 11>                          ****END OF INPUT****

CARTESIAN COORDINATES (ANGSTROEM)
---------------------------------
  B      0.000000    0.000000   -1.321669
  P      0.000000    0.000000    0.761348
  C      1.468371   -0.847765    1.457600
  C     -1.468371   -0.847765    1.457600
  C      0.000000    1.695529    1.457600
  F     -1.156656    0.667795   -1.678901
  F      0.000000   -1.335591   -1.678901
  F      1.156656    0.667795   -1.678901
  H      0.886786    2.221462    1.103199
  H     -0.886786    2.221462    1.103199
  H      0.000000    1.678873    2.554157
  H     -2.367236   -0.342752    1.103199
  H     -1.480450   -1.878711    1.103199
  H     -1.453946   -0.839436    2.554157
  H      1.453946   -0.839436    2.554157
  H      1.480450   -1.878711    1.103199
  H      2.367236   -0.342752    1.103199

 Total Charge           Charge          ....    0
 Multiplicity           Mult            ....    1
 Number of Electrons    NEL             ....   74
 Basis Dimension        Dim             ....  141

ORBITAL ENERGIES
----------------

  NO   OCC          E(Eh)            E(eV)
   0   2.0000     -77.792751     -2116.8484
   1   2.0000     -25.039782      -681.3671
   2   2.0000     -25.039654      -681.3636
   3   2.0000     -25.039644      -681.3634
   4   2.0000     -10.471707      -284.9496
   5   2.0000     -10.471707      -284.9496
   6   2.0000     -10.471687      -284.9491
   7   2.0000      -7.049982      -191.8398
   8   2.0000      -6.864882      -186.8029
   9   2.0000      -4.956135      -134.8633
  10   2.0000      -4.956135      -134.8633
  11   2.0000      -4.954061      -134.8069
  12   2.0000      -1.294641       -35.2290
  13   2.0000      -1.252437       -34.0805
  14   2.0000      -1.252436       -34.0805
  15   2.0000      -0.893474       -24.3127
  16   2.0000      -0.813404       -22.1338
  17   2.0000      -0.813402       -22.1338
  18   2.0000      -0.657716       -17.8974
  19   2.0000      -0.598371       -16.2825
  20   2.0000      -0.546894       -14.8817
  21   2.0000      -0.546452       -14.8697
  22   2.0000      -0.546451       -14.8697
  23   2.0000      -0.522391       -14.2150
  24   2.0000      -0.522388       -14.2149
  25   2.0000      -0.500702       -13.6248
  26   2.0000      -0.494241       -13.4490
  27   2.0000      -0.494238       -13.4489
  28   2.0000      -0.479815       -13.0564
  29   2.0000      -0.455675       -12.3995
  30   2.0000      -0.455675       -12.3995
  31   2.0000      -0.435461       -11.8495
  32   2.0000      -0.435461       -11.8495
  33   2.0000      -0.422221       -11.4892
  34   2.0000      -0.422221       -11.4892
  35   2.0000      -0.410450       -11.1689
  36   2.0000      -0.328062        -8.9270
  37   0.0000       0.073184         1.9914
  38   0.0000       0.073188         1.9915
  39   0.0000       0.100428         2.7328
  40   0.0000       0.117821         3.2061
  41   0.0000       0.133115         3.6222

MULLIKEN ATOMIC CHARGES
-----------------------
   0 B :    0.818900
   1 P :    0.413157
   2 C :   -0.844906
   3 C :   -0.844906
   4 C :   -0.844808
   5 F :   -0.363683
   6 F :   -0.363671
   7 F :   -0.363683
   8 H :    0.275643
   9 H :    0.275643
  10 H :    0.246552
  11 H :    0.275664
  12 H :    0.275663
  13 H :    0.246553
  14 H :    0.246553
  15 H :    0.275663
  16 H :    0.275664
Sum of atomic charges:    0.0000000

LOEWDIN ATOMIC CHARGES
----------------------
   0 B :    0.082245
   1 P :    0.690554
   2 C :   -0.506168
   3 C :   -0.506168
   4 C :   -0.506147
   5 F :   -0.218101
   6 F :   -0.218094
   7 F :   -0.218101
   8 H :    0.161503
   9 H :    0.161503
  10 H :    0.143647
  11 H :    0.161509
  12 H :    0.161508
  13 H :    0.143647
  14 H :    0.143647
  15 H :    0.161508
  16 H :    0.161509

  Mayer bond orders larger than 0.100000
B(  0-B ,  1-P ) :   0.4904 B(  0-B ,  5-F ) :   0.9823 B(  0-B ,  6-F ) :   0.9823
B(  0-B ,  7-F ) :   0.9823 B(  1-P ,  2-C ) :   0.9865 B(  1-P ,  3-C ) :   0.9865
B(  1-P ,  4-C ) :   0.9865 B(  2-C , 14-H ) :   0.9026 B(  2-C , 15-H ) :   0.8956
B(  2-C , 16-H ) :   0.8956 B(  3-C , 11-H ) :   0.8956 B(  3-C , 12-H ) :   0.8956
B(  3-C , 13-H ) :   0.9026 B(  4-C ,  8-H ) :   0.8956 B(  4-C ,  9-H ) :   0.8956
B(  4-C , 10-H ) :   0.9026

Dispersion correction           -0.008380263
FINAL SINGLE POINT ENERGY      -784.405589995884

DIPOLE MOMENT
-------------
                                X             Y             Z
Electronic contribution:      0.00000       0.00001     -16.17890
Nuclear contribution   :      0.00000       0.00000      18.92767
                        -----------------------------------------
Total Dipole Moment    :      0.00000       0.00002       2.74877
                        -----------------------------------------
Magnitude (a.u.)       :      2.74877
Magnitude (Debye)      :      6.98681

Rotational constants in cm-1:     0.067870     0.039882     0.039882
Rotational constants in MHz :  2034.701064  1195.641689  1195.641658

                             ****ORCA TERMINATED NORMALLY****
TOTAL RUN TIME: 0 days 0 hours 1 minutes 32 seconds 90 msec
