                         Program Version 5.0.3 -  RELEASE  -
|  1> ! PBEh-3c def2/J TightSCF DefGrid3
|  2>
|  3> %maxcore 60000
|  4>
|  5> %pal
|  6> nprocs 4
|  7> end
|  8>
|  9> *xyzfile 0 1 al2cl6.xyz
| 10>
| 11>                          ****END OF INPUT****

CARTESIAN COORDINATES (ANGSTROEM)
---------------------------------
  Al     0.000000    0.000000   -1.595439
  Al     0.000000    0.000000    1.595439
  Cl     0.000000    1.623079    0.000000
  Cl     0.000000   -1.623079    0.000000
  Cl     1.821228    0.000000   -2.604294
  Cl    -1.821228    0.000000   -2.604294
  Cl    -1.821228    0.000000    2.604294
  Cl     1.821228    0.000000    2.604294

 Total Charge           Charge          ....    0
 Multiplicity           Mult            ....    1
 Number of Electrons    NEL             ....  128
 Basis Dimension        Dim             ....  144

ORBITAL ENERGIES
----------------

  NO   OCC          E(Eh)            E(eV)
   0   2.0000    -102.378215     -2785.8529
   1   2.0000    -102.378161     -2785.8514
   2   2.0000    -102.311079     -2784.0260
   3   2.0000    -102.311042     -2784.0250
   4   2.0000    -102.311039     -2784.0249
   5   2.0000    -102.311010     -2784.0241
   6   2.0000     -56.731501     -1543.7426
   7   2.0000     -56.731435     -1543.7408
   8   2.0000      -9.845695      -267.9150
   9   2.0000      -9.845675      -267.9144
  10   2.0000      -9.778558      -266.0881
  11   2.0000      -9.778536      -266.0875
  12   2.0000      -9.778536      -266.0875
  13   2.0000      -9.778524      -266.0872
  14   2.0000      -7.529081      -204.8767
  15   2.0000      -7.529070      -204.8764
  16   2.0000      -7.528802      -204.8691
  17   2.0000      -7.528797      -204.8690
  18   2.0000      -7.525589      -204.7817
  19   2.0000      -7.525565      -204.7810
  20   2.0000      -7.463581      -203.0944
  21   2.0000      -7.463580      -203.0943
  22   2.0000      -7.463580      -203.0943
  23   2.0000      -7.463577      -203.0942
  24   2.0000      -7.459377      -202.9800
  25   2.0000      -7.459376      -202.9799
  26   2.0000      -7.459358      -202.9795
  27   2.0000      -7.459358      -202.9795
  28   2.0000      -7.459228      -202.9759
  29   2.0000      -7.459217      -202.9756
  30   2.0000      -7.459206      -202.9753
  31   2.0000      -7.459204      -202.9753
  32   2.0000      -4.459547      -121.3504
  33   2.0000      -4.459543      -121.3503
  34   2.0000      -2.950604       -80.2900
  35   2.0000      -2.950598       -80.2898
  36   2.0000      -2.949387       -80.2569
  37   2.0000      -2.949344       -80.2557
  38   2.0000      -2.947360       -80.2018
  39   2.0000      -2.947359       -80.2017
  40   2.0000      -1.001507       -27.2524
  41   2.0000      -0.975784       -26.5524
  42   2.0000      -0.924620       -25.1602
  43   2.0000      -0.921355       -25.0714
  44   2.0000      -0.913353       -24.8536
  45   2.0000      -0.913075       -24.8460
  46   2.0000      -0.567914       -15.4537
  47   2.0000      -0.567220       -15.4348
  48   2.0000      -0.518903       -14.1201
  49   2.0000      -0.491321       -13.3695
  50   2.0000      -0.486154       -13.2289
  51   2.0000      -0.465055       -12.6548
  52   2.0000      -0.464392       -12.6367
  53   2.0000      -0.455599       -12.3975
  54   2.0000      -0.453032       -12.3276
  55   2.0000      -0.433407       -11.7936
  56   2.0000      -0.409358       -11.1392
  57   2.0000      -0.408829       -11.1248
  58   2.0000      -0.404953       -11.0193
  59   2.0000      -0.398893       -10.8544
  60   2.0000      -0.396819       -10.7980
  61   2.0000      -0.390916       -10.6374
  62   2.0000      -0.389017       -10.5857
  63   2.0000      -0.385680       -10.4949
  64   0.0000      -0.013410        -0.3649
  65   0.0000       0.006613         0.1799
  66   0.0000       0.007459         0.2030
  67   0.0000       0.053493         1.4556
  68   0.0000       0.054490         1.4827

MULLIKEN ATOMIC CHARGES
-----------------------
   0 Al:    0.805244
   1 Al:    0.805244
   2 Cl:   -0.281873
   3 Cl:   -0.281873
   4 Cl:   -0.261686
   5 Cl:   -0.261686
   6 Cl:   -0.261686
   7 Cl:   -0.261686
Sum of atomic charges:   -0.0000000

LOEWDIN ATOMIC CHARGES
----------------------
   0 Al:   -0.047468
   1 Al:   -0.047469
   2 Cl:    0.118030
   3 Cl:    0.118030
   4 Cl:   -0.035281
   5 Cl:   -0.035281
   6 Cl:   -0.035281
   7 Cl:   -0.035281

  Mayer bond orders larger than 0.100000
B(  0-Al,  2-Cl) :   0.5708 B(  0-Al,  3-Cl) :   0.5708 B(  0-Al,  4-Cl) :   1.1535
B(  0-Al,  5-Cl) :   1.1535 B(  1-Al,  2-Cl) :   0.5708 B(  1-Al,  3-Cl) :   0.5708
B(  1-Al,  6-Cl) :   1.1535 B(  1-Al,  7-Cl) :   1.1535

Dispersion correction           -0.007085289
FINAL SINGLE POINT ENERGY     -3242.935878170465

DIPOLE MOMENT
-------------
                                X             Y             Z
Electronic contribution:      0.00000      -0.00000      -0.00000
Nuclear contribution   :      0.00000       0.00000       0.00000
                        -----------------------------------------
Total Dipole Moment    :      0.00000      -0.00000      -0.00000
                        -----------------------------------------
Magnitude (a.u.)       :      0.00000
Magnitude (Debye)      :      0.00000

Rotational constants in cm-1:     0.025652     0.013109     0.010740
Rotational constants in MHz :   769.028845   392.993813   321.989734

                             ****ORCA TERMINATED NORMALLY****
TOTAL RUN TIME: 0 days 0 hours 1 minutes 7 seconds 917 msec
