                         Program Version 5.0.3 -  RELEASE  -
|  1> ! PBEh-3c def2/J TightSCF DefGrid3
|  2>
|  3> %maxcore 60000
|  4>
|  5> %pal
|  6> nprocs 4
|  7> end
|  8>
|  9> *xyzfile 0 1 pbh4_teh2.xyz
| 10>
| 11>                          ****END OF INPUT****

CARTESIAN COORDINATES (ANGSTROEM)
---------------------------------
  Pb     0.003214   -2.151475    0.000000
  H     -0.054526   -0.429139    0.000000
  H     -0.788394   -2.752382    1.406857
  H     -0.788394   -2.752382   -1.406857
  H      1.646650   -2.667853    0.000000
  Te     0.003214    2.813221    0.000000
  H      1.143539    3.984132    0.000000
  H     -1.165303    3.955878    0.000000

 Total Charge           Charge          ....    0
 Multiplicity           Mult            ....    1
 Number of Electrons    NEL             ....   52
 Basis Dimension        Dim             ....   64

ORBITAL ENERGIES
----------------

  NO   OCC          E(Eh)            E(eV)
   0   2.0000      -6.506717      -177.0568
   1   2.0000      -5.698647      -155.0681
   2   2.0000      -4.600466      -125.1850
   3   2.0000      -4.596352      -125.0731
   4   2.0000      -4.584846      -124.7600
   5   2.0000      -3.491037       -94.9960
   6   2.0000      -3.491020       -94.9955
   7   2.0000      -3.491018       -94.9954
   8   2.0000      -1.711454       -46.5710
   9   2.0000      -1.708384       -46.4875
  10   2.0000      -1.697799       -46.1994
  11   2.0000      -1.694211       -46.1018
  12   2.0000      -1.692845       -46.0646
  13   2.0000      -0.934131       -25.4190
  14   2.0000      -0.934099       -25.4181
  15   2.0000      -0.934090       -25.4179
  16   2.0000      -0.922680       -25.1074
  17   2.0000      -0.922660       -25.1068
  18   2.0000      -0.719782       -19.5863
  19   2.0000      -0.626206       -17.0399
  20   2.0000      -0.440561       -11.9883
  21   2.0000      -0.388779       -10.5792
  22   2.0000      -0.363018        -9.8782
  23   2.0000      -0.362859        -9.8739
  24   2.0000      -0.355443        -9.6721
  25   2.0000      -0.266979        -7.2649
  26   0.0000       0.004284         0.1166
  27   0.0000       0.036627         0.9967
  28   0.0000       0.071418         1.9434
  29   0.0000       0.078547         2.1374
  30   0.0000       0.079401         2.1606

MULLIKEN ATOMIC CHARGES
-----------------------
   0 Pb:   -0.012876
   1 H :   -0.002075
   2 H :    0.006627
   3 H :    0.006627
   4 H :    0.006246
   5 Te:   -0.188817
   6 H :    0.092163
   7 H :    0.092106
Sum of atomic charges:   -0.0000000

LOEWDIN ATOMIC CHARGES
----------------------
   0 Pb:   -0.054960
   1 H :    0.011937
   2 H :    0.015268
   3 H :    0.015268
   4 H :    0.015024
   5 Te:   -0.117408
   6 H :    0.057396
   7 H :    0.057474

  Mayer bond orders larger than 0.100000
B(  0-Pb,  1-H ) :   0.9357 B(  0-Pb,  2-H ) :   0.9427 B(  0-Pb,  3-H ) :   0.9427
B(  0-Pb,  4-H ) :   0.9431 B(  5-Te,  6-H ) :   0.9704 B(  5-Te,  7-H ) :   0.9707

Dispersion correction           -0.001960679
FINAL SINGLE POINT ENERGY      -464.410738082596

DIPOLE MOMENT
-------------
                                X             Y             Z
Electronic contribution:      0.03797     -61.98088      -0.00000
Nuclear contribution   :     -0.04112      62.11527       0.00000
                        -----------------------------------------
Total Dipole Moment    :     -0.00315       0.13439      -0.00000
                        -----------------------------------------
Magnitude (a.u.)       :      0.13442
Magnitude (Debye)      :      0.34168

Rotational constants in cm-1:     1.580441     0.008408     0.008397
Rotational constants in MHz : 47380.418415   252.073086   251.735818

                             ****ORCA TERMINATED NORMALLY****
TOTAL RUN TIME: 0 days 0 hours 1 minutes 7 seconds 0 msec
