                         Program Version 5.0.3 -  RELEASE  -
|  1> ! PBEh-3c def2/J TightSCF DefGrid3
|  2>
|  3> %maxcore 60000
|  4>
|  5> %pal
|  6> nprocs 4
|  7> end
|  8>
|  9> *xyzfile 0 1 ts4.xyz
| 10>
| 11>                          ****END OF INPUT****

CARTESIAN COORDINATES (ANGSTROEM)
---------------------------------
  C     -0.285929    0.918471    1.073666
  C     -0.403402   -0.652951   -0.344586
  C      0.726615   -0.736334   -1.202995
  H     -0.137090    1.911177    0.646686
  H      0.452012    0.705213    1.845981
  H      0.477954    0.214278   -0.130169
  H     -1.295471    0.825631    1.469028
  H     -1.332051   -0.261324   -0.737620
  H     -0.517176   -1.383274    0.445510
  H      0.742953   -0.192217   -2.133620
  H      1.571586   -1.348670   -0.931880

 Total Charge           Charge          ....    0
 Multiplicity           Mult            ....    1
 Number of Electrons    NEL             ....   26
 Basis Dimension        Dim             ....   61

ORBITAL ENERGIES
----------------

  NO   OCC          E(Eh)            E(eV)
   0   2.0000     -10.505489      -285.8689
   1   2.0000     -10.412151      -283.3290
   2   2.0000     -10.412009      -283.3252
   3   2.0000      -0.905801       -24.6481
   4   2.0000      -0.745188       -20.2776
   5   2.0000      -0.663046       -18.0424
   6   2.0000      -0.543752       -14.7963
   7   2.0000      -0.537901       -14.6370
   8   2.0000      -0.443962       -12.0808
   9   2.0000      -0.438803       -11.9404
  10   2.0000      -0.436076       -11.8662
  11   2.0000      -0.416578       -11.3357
  12   2.0000      -0.200308        -5.4507
  13   0.0000       0.036362         0.9894
  14   0.0000       0.136233         3.7071
  15   0.0000       0.146683         3.9914
  16   0.0000       0.176692         4.8080
  17   0.0000       0.190366         5.1801

MULLIKEN ATOMIC CHARGES
-----------------------
   0 C :   -0.927852
   1 C :   -0.470522
   2 C :   -0.668553
   3 H :    0.226195
   4 H :    0.227632
   5 H :    0.376393
   6 H :    0.222747
   7 H :    0.278352
   8 H :    0.278309
   9 H :    0.228583
  10 H :    0.228715
Sum of atomic charges:   -0.0000000

LOEWDIN ATOMIC CHARGES
----------------------
   0 C :   -0.622567
   1 C :   -0.153950
   2 C :   -0.544050
   3 H :    0.128488
   4 H :    0.127190
   5 H :    0.353674
   6 H :    0.134133
   7 H :    0.151995
   8 H :    0.152723
   9 H :    0.136119
  10 H :    0.136244

  Mayer bond orders larger than 0.100000
B(  0-C ,  1-C ) :   0.3686 B(  0-C ,  2-C ) :   0.3452 B(  0-C ,  3-H ) :   0.9117
B(  0-C ,  4-H ) :   0.9166 B(  0-C ,  5-H ) :   0.1256 B(  0-C ,  6-H ) :   0.9190
B(  1-C ,  2-C ) :   1.0999 B(  1-C ,  5-H ) :   0.4538 B(  1-C ,  7-H ) :   0.8906
B(  1-C ,  8-H ) :   0.8901 B(  2-C ,  5-H ) :   0.2475 B(  2-C ,  9-H ) :   0.9258
B(  2-C , 10-H ) :   0.9262

Dispersion correction           -0.003516828
FINAL SINGLE POINT ENERGY      -118.675866317029

DIPOLE MOMENT
-------------
                                X             Y             Z
Electronic contribution:     -0.13022      -1.38970      -1.23726
Nuclear contribution   :     -0.10480       1.32342       1.33214
                        -----------------------------------------
Total Dipole Moment    :     -0.23502      -0.06628       0.09488
                        -----------------------------------------
Magnitude (a.u.)       :      0.26197
Magnitude (Debye)      :      0.66587

Rotational constants in cm-1:     0.959126     0.215445     0.196682
Rotational constants in MHz : 28753.868241  6458.879003  5896.384510

                             ****ORCA TERMINATED NORMALLY****
TOTAL RUN TIME: 0 days 0 hours 1 minutes 14 seconds 638 msec
