                         Program Version 5.0.3 -  RELEASE  -
|  1> ! PBEh-3c def2/J TightSCF DefGrid3
|  2>
|  3> %maxcore 60000
|  4>
|  5> %pal
|  6> nprocs 4
|  7> end
|  8>
|  9> *xyzfile 0 1 PMe3_TS.xyz
| 10>
| 11>                          ****END OF INPUT****

CARTESIAN COORDINATES (ANGSTROEM)
---------------------------------
  P      0.009203    0.065735   -0.019415
  C      0.030845    0.168661    1.803194
  C      1.563949   -0.289682   -0.913220
  C     -1.579095    0.189211   -0.918164
  H      1.399162   -1.038917   -1.687683
  H      2.034637    0.585193   -1.363451
  H      2.254809   -0.722249   -0.187844
  H     -1.801537    1.180971   -1.315323
  H     -1.595020   -0.527491   -1.739604
  H     -2.373675   -0.096233   -0.226798
  H     -0.964331   -0.097102    2.164065
  H      0.725100   -0.568536    2.206068
  H      0.295954    1.150439    2.198174

 Total Charge           Charge          ....    0
 Multiplicity           Mult            ....    1
 Number of Electrons    NEL             ....   42
 Basis Dimension        Dim             ....   81

ORBITAL ENERGIES
----------------

  NO   OCC          E(Eh)            E(eV)
   0   2.0000     -77.700245     -2114.3312
   1   2.0000     -10.443349      -284.1780
   2   2.0000     -10.443199      -284.1739
   3   2.0000     -10.442595      -284.1574
   4   2.0000      -6.775919      -184.3821
   5   2.0000      -4.867936      -132.4633
   6   2.0000      -4.867807      -132.4598
   7   2.0000      -4.865801      -132.4052
   8   2.0000      -0.832491       -22.6532
   9   2.0000      -0.777881       -21.1672
  10   2.0000      -0.777140       -21.1470
  11   2.0000      -0.583061       -15.8659
  12   2.0000      -0.483359       -13.1529
  13   2.0000      -0.479149       -13.0383
  14   2.0000      -0.477362       -12.9897
  15   2.0000      -0.455883       -12.4052
  16   2.0000      -0.455186       -12.3862
  17   2.0000      -0.445705       -12.1282
  18   2.0000      -0.394312       -10.7298
  19   2.0000      -0.391297       -10.6477
  20   2.0000      -0.178575        -4.8593
  21   0.0000       0.068690         1.8691
  22   0.0000       0.127363         3.4657
  23   0.0000       0.130654         3.5553
  24   0.0000       0.148578         4.0430
  25   0.0000       0.184645         5.0244

MULLIKEN ATOMIC CHARGES
-----------------------
   0 P :    0.272935
   1 C :   -0.810280
   2 C :   -0.811391
   3 C :   -0.810479
   4 H :    0.241020
   5 H :    0.239553
   6 H :    0.240025
   7 H :    0.238996
   8 H :    0.241466
   9 H :    0.239413
  10 H :    0.239362
  11 H :    0.240369
  12 H :    0.239013
Sum of atomic charges:    0.0000000

LOEWDIN ATOMIC CHARGES
----------------------
   0 P :    0.279193
   1 C :   -0.499969
   2 C :   -0.500941
   3 C :   -0.500240
   4 H :    0.137467
   5 H :    0.125793
   6 H :    0.144907
   7 H :    0.124834
   8 H :    0.139340
   9 H :    0.143317
  10 H :    0.143489
  11 H :    0.138451
  12 H :    0.124358

  Mayer bond orders larger than 0.100000
B(  0-P ,  1-C ) :   1.0204 B(  0-P ,  2-C ) :   1.0134 B(  0-P ,  3-C ) :   1.0163
B(  1-C , 10-H ) :   0.9064 B(  1-C , 11-H ) :   0.9036 B(  1-C , 12-H ) :   0.8951
B(  2-C ,  4-H ) :   0.9033 B(  2-C ,  5-H ) :   0.8966 B(  2-C ,  6-H ) :   0.9068
B(  3-C ,  7-H ) :   0.8956 B(  3-C ,  8-H ) :   0.9036 B(  3-C ,  9-H ) :   0.9065

Dispersion correction           -0.005043106
FINAL SINGLE POINT ENERGY      -460.368436521706

DIPOLE MOMENT
-------------
                                X             Y             Z
Electronic contribution:      0.04963       0.33242      -0.11699
Nuclear contribution   :     -0.07609      -0.45432       0.15053
                        -----------------------------------------
Total Dipole Moment    :     -0.02647      -0.12190       0.03353
                        -----------------------------------------
Magnitude (a.u.)       :      0.12917
Magnitude (Debye)      :      0.32833

Rotational constants in cm-1:     0.190245     0.186605     0.099551
Rotational constants in MHz :  5703.397121  5594.271557  2984.465044

                             ****ORCA TERMINATED NORMALLY****
TOTAL RUN TIME: 0 days 0 hours 0 minutes 49 seconds 624 msec
