                         Program Version 5.0.3 -  RELEASE  -
|  1> ! PBEh-3c def2/J TightSCF DefGrid3
|  2>
|  3> %maxcore 60000
|  4>
|  5> %pal
|  6> nprocs 4
|  7> end
|  8>
|  9> *xyzfile 0 1 51.xyz
| 10>
| 11>                          ****END OF INPUT****

CARTESIAN COORDINATES (ANGSTROEM)
---------------------------------
  Cl     0.000000    0.000000   -0.828746
  F      0.000000    0.000000    0.828746

 Total Charge           Charge          ....    0
 Multiplicity           Mult            ....    1
 Number of Electrons    NEL             ....   26
 Basis Dimension        Dim             ....   33

ORBITAL ENERGIES
----------------

  NO   OCC          E(Eh)            E(eV)
   0   2.0000    -102.387298     -2786.1000
   1   2.0000     -25.145960      -684.2564
   2   2.0000      -9.847694      -267.9694
   3   2.0000      -7.540341      -205.1831
   4   2.0000      -7.524533      -204.7530
   5   2.0000      -7.524533      -204.7530
   6   2.0000      -1.347064       -36.6555
   7   2.0000      -0.917654       -24.9706
   8   2.0000      -0.582532       -15.8515
   9   2.0000      -0.548825       -14.9343
  10   2.0000      -0.548825       -14.9343
  11   2.0000      -0.384750       -10.4696
  12   2.0000      -0.384750       -10.4696
  13   0.0000      -0.076627        -2.0851
  14   0.0000       0.434375        11.8199
  15   0.0000       0.685438        18.6517
  16   0.0000       0.685438        18.6517
  17   0.0000       0.715400        19.4670

MULLIKEN ATOMIC CHARGES
-----------------------
   0 Cl:    0.344273
   1 F :   -0.344273
Sum of atomic charges:    0.0000000

LOEWDIN ATOMIC CHARGES
----------------------
   0 Cl:    0.344852
   1 F :   -0.344852

  Mayer bond orders larger than 0.100000
B(  0-Cl,  1-F ) :   0.9185

Dispersion correction           -0.000198639
FINAL SINGLE POINT ENERGY      -559.265964437354

DIPOLE MOMENT
-------------
                                X             Y             Z
Electronic contribution:      0.00000      -0.00000      -0.19591
Nuclear contribution   :      0.00000       0.00000      -0.22371
                        -----------------------------------------
Total Dipole Moment    :      0.00000      -0.00000      -0.41962
                        -----------------------------------------
Magnitude (a.u.)       :      0.41962
Magnitude (Debye)      :      1.06658

Rotational constants in cm-1:     0.000000     0.496066     0.496066
Rotational constants in MHz :     0.000000 14871.672499 14871.672499

                             ****ORCA TERMINATED NORMALLY****
TOTAL RUN TIME: 0 days 0 hours 0 minutes 10 seconds 430 msec
