                         Program Version 5.0.3 -  RELEASE  -
|  1> ! PBEh-3c def2/J TightSCF DefGrid3
|  2>
|  3> %maxcore 60000
|  4>
|  5> %pal
|  6> nprocs 4
|  7> end
|  8>
|  9> *xyzfile 0 1 20_benBr-acetoneB.xyz
| 10>
| 11>                          ****END OF INPUT****

CARTESIAN COORDINATES (ANGSTROEM)
---------------------------------
  O     -3.785038    0.000867   -3.641620
  C     -4.942505    0.030473   -3.262526
  C     -5.268278    0.030763   -1.784860
  C     -6.074814    0.067570   -4.266102
  H     -5.949426    0.944115   -4.899332
  H     -5.998004   -0.807301   -4.909326
  H     -7.056301    0.092129   -3.803512
  H     -6.334374    0.058880   -1.583056
  H     -4.834293   -0.858956   -1.331613
  H     -4.786131    0.889882   -1.321375

 Total Charge           Charge          ....    0
 Multiplicity           Mult            ....    1
 Number of Electrons    NEL             ....   32
 Basis Dimension        Dim             ....   72

ORBITAL ENERGIES
----------------

  NO   OCC          E(Eh)            E(eV)
   0   2.0000     -19.479969      -530.0769
   1   2.0000     -10.539112      -286.7838
   2   2.0000     -10.440595      -284.1030
   3   2.0000     -10.440361      -284.0967
   4   2.0000      -1.145200       -31.1625
   5   2.0000      -0.856672       -23.3112
   6   2.0000      -0.800257       -21.7761
   7   2.0000      -0.603068       -16.4103
   8   2.0000      -0.522512       -14.2183
   9   2.0000      -0.517631       -14.0855
  10   2.0000      -0.517191       -14.0735
  11   2.0000      -0.465340       -12.6626
  12   2.0000      -0.456389       -12.4190
  13   2.0000      -0.434103       -11.8126
  14   2.0000      -0.391024       -10.6403
  15   2.0000      -0.303035        -8.2460
  16   0.0000       0.012873         0.3503
  17   0.0000       0.142711         3.8834
  18   0.0000       0.170303         4.6342
  19   0.0000       0.195144         5.3101
  20   0.0000       0.213874         5.8198

MULLIKEN ATOMIC CHARGES
-----------------------
   0 O :   -0.350514
   1 C :    0.351422
   2 C :   -0.740032
   3 C :   -0.739480
   4 H :    0.260007
   5 H :    0.260005
   6 H :    0.218984
   7 H :    0.219321
   8 H :    0.260144
   9 H :    0.260143
Sum of atomic charges:   -0.0000000

LOEWDIN ATOMIC CHARGES
----------------------
   0 O :   -0.206914
   1 C :    0.103849
   2 C :   -0.399288
   3 C :   -0.399265
   4 H :    0.159777
   5 H :    0.159778
   6 H :    0.131037
   7 H :    0.131340
   8 H :    0.159842
   9 H :    0.159845

  Mayer bond orders larger than 0.100000
B(  0-O ,  1-C ) :   2.1104 B(  1-C ,  2-C ) :   0.9321 B(  1-C ,  3-C ) :   0.9324
B(  2-C ,  7-H ) :   0.9208 B(  2-C ,  8-H ) :   0.9101 B(  2-C ,  9-H ) :   0.9101
B(  3-C ,  4-H ) :   0.9102 B(  3-C ,  5-H ) :   0.9102 B(  3-C ,  6-H ) :   0.9207

Dispersion correction           -0.003283294
FINAL SINGLE POINT ENERGY      -192.734617594162

DIPOLE MOMENT
-------------
                                X             Y             Z
Electronic contribution:      3.50630      -0.08982      -1.14224
Nuclear contribution   :     -4.53670       0.11615       1.48145
                        -----------------------------------------
Total Dipole Moment    :     -1.03041       0.02633       0.33921
                        -----------------------------------------
Magnitude (a.u.)       :      1.08512
Magnitude (Debye)      :      2.75816

Rotational constants in cm-1:     0.348587     0.276369     0.163386
Rotational constants in MHz : 10450.363324  8285.330192  4898.176341

                             ****ORCA TERMINATED NORMALLY****
TOTAL RUN TIME: 0 days 0 hours 1 minutes 15 seconds 415 msec
