                         Program Version 5.0.3 -  RELEASE  -
|  1> ! PBEh-3c def2/J TightSCF DefGrid3
|  2>
|  3> %maxcore 60000
|  4>
|  5> %pal
|  6> nprocs 4
|  7> end
|  8>
|  9> *xyzfile 0 1 reac7.xyz
| 10>
| 11>                          ****END OF INPUT****

CARTESIAN COORDINATES (ANGSTROEM)
---------------------------------
  C      0.000000    0.802178    0.000000
  H     -0.861285    1.490493    0.000000
  H      0.675286   -1.424444    0.000000
  O      1.139661    1.170496    0.000000
  S     -0.558206   -0.890193    0.000000

 Total Charge           Charge          ....    0
 Multiplicity           Mult            ....    1
 Number of Electrons    NEL             ....   32
 Basis Dimension        Dim             ....   52

ORBITAL ENERGIES
----------------

  NO   OCC          E(Eh)            E(eV)
   0   2.0000     -89.612826     -2438.4890
   1   2.0000     -19.518533      -531.1263
   2   2.0000     -10.576993      -287.8146
   3   2.0000      -8.256216      -224.6631
   4   2.0000      -6.146685      -167.2598
   5   2.0000      -6.143086      -167.1619
   6   2.0000      -6.139309      -167.0591
   7   2.0000      -1.186680       -32.2912
   8   2.0000      -0.874065       -23.7845
   9   2.0000      -0.688462       -18.7340
  10   2.0000      -0.548260       -14.9189
  11   2.0000      -0.530472       -14.4349
  12   2.0000      -0.479715       -13.0537
  13   2.0000      -0.447335       -12.1726
  14   2.0000      -0.332571        -9.0497
  15   2.0000      -0.329709        -8.9718
  16   0.0000      -0.002784        -0.0757
  17   0.0000       0.042652         1.1606
  18   0.0000       0.108739         2.9589
  19   0.0000       0.214552         5.8382
  20   0.0000       0.249225         6.7818

MULLIKEN ATOMIC CHARGES
-----------------------
   0 C :    0.036994
   1 H :    0.205320
   2 H :    0.215482
   3 O :   -0.297094
   4 S :   -0.160702
Sum of atomic charges:    0.0000000

LOEWDIN ATOMIC CHARGES
----------------------
   0 C :   -0.075982
   1 H :    0.103117
   2 H :    0.127093
   3 O :   -0.185904
   4 S :    0.031676

  Mayer bond orders larger than 0.100000
B(  0-C ,  1-H ) :   0.8424 B(  0-C ,  3-O ) :   2.0711 B(  0-C ,  4-S ) :   1.0546
B(  2-H ,  4-S ) :   0.9112 B(  3-O ,  4-S ) :   0.1350

Dispersion correction           -0.001467383
FINAL SINGLE POINT ENERGY      -512.013549299529

DIPOLE MOMENT
-------------
                                X             Y             Z
Electronic contribution:     -0.30376      -0.39307       0.00000
Nuclear contribution   :     -0.14598       0.10838       0.00000
                        -----------------------------------------
Total Dipole Moment    :     -0.44974      -0.28469       0.00000
                        -----------------------------------------
Magnitude (a.u.)       :      0.53227
Magnitude (Debye)      :      1.35293

Rotational constants in cm-1:     2.088998     0.202505     0.184609
Rotational constants in MHz : 62626.597535  6070.940180  5534.438933

                             ****ORCA TERMINATED NORMALLY****
TOTAL RUN TIME: 0 days 0 hours 0 minutes 44 seconds 368 msec
