                         Program Version 5.0.3 -  RELEASE  -
|  1> ! PBEh-3c def2/J TightSCF DefGrid3
|  2>
|  3> %maxcore 60000
|  4>
|  5> %pal
|  6> nprocs 4
|  7> end
|  8>
|  9> *xyzfile 0 1 H4P2O7_1.xyz
| 10>
| 11>                          ****END OF INPUT****

CARTESIAN COORDINATES (ANGSTROEM)
---------------------------------
  O     -2.538202   -0.087715   -1.027242
  P     -1.359417   -0.079704    0.029693
  O     -1.277384   -1.252855    0.934173
  O      0.000000    0.000000   -0.878837
  P      1.359417    0.079704    0.029693
  O      1.277384    1.252855    0.934173
  O      1.494162   -1.362833    0.649708
  O      2.538202    0.087715   -1.027242
  O     -1.494162    1.362833    0.649708
  H     -2.915454   -0.978737   -1.123341
  H      0.596404   -1.640774    0.976427
  H      2.915454    0.978737   -1.123341
  H     -0.596404    1.640774    0.976427

 Total Charge           Charge          ....    0
 Multiplicity           Mult            ....    1
 Number of Electrons    NEL             ....   90
 Basis Dimension        Dim             ....  149

ORBITAL ENERGIES
----------------

  NO   OCC          E(Eh)            E(eV)
   0   2.0000     -77.945479     -2121.0043
   1   2.0000     -77.945467     -2121.0040
   2   2.0000     -19.569051      -532.5010
   3   2.0000     -19.567402      -532.4561
   4   2.0000     -19.567369      -532.4552
   5   2.0000     -19.546993      -531.9007
   6   2.0000     -19.546955      -531.8997
   7   2.0000     -19.490726      -530.3696
   8   2.0000     -19.490704      -530.3690
   9   2.0000      -6.990107      -190.2105
  10   2.0000      -6.990102      -190.2104
  11   2.0000      -5.084630      -138.3598
  12   2.0000      -5.084577      -138.3584
  13   2.0000      -5.083993      -138.3425
  14   2.0000      -5.083990      -138.3424
  15   2.0000      -5.082342      -138.2975
  16   2.0000      -5.082340      -138.2975
  17   2.0000      -1.260462       -34.2989
  18   2.0000      -1.224752       -33.3272
  19   2.0000      -1.181745       -32.1569
  20   2.0000      -1.170535       -31.8519
  21   2.0000      -1.159370       -31.5481
  22   2.0000      -1.107293       -30.1310
  23   2.0000      -1.096146       -29.8277
  24   2.0000      -0.769741       -20.9457
  25   2.0000      -0.731334       -19.9006
  26   2.0000      -0.660094       -17.9621
  27   2.0000      -0.629243       -17.1226
  28   2.0000      -0.611899       -16.6506
  29   2.0000      -0.595166       -16.1953
  30   2.0000      -0.565034       -15.3754
  31   2.0000      -0.554791       -15.0966
  32   2.0000      -0.546240       -14.8639
  33   2.0000      -0.504839       -13.7374
  34   2.0000      -0.489071       -13.3083
  35   2.0000      -0.486288       -13.2326
  36   2.0000      -0.469428       -12.7738
  37   2.0000      -0.456935       -12.4338
  38   2.0000      -0.439906       -11.9705
  39   2.0000      -0.438283       -11.9263
  40   2.0000      -0.434699       -11.8288
  41   2.0000      -0.391523       -10.6539
  42   2.0000      -0.389953       -10.6112
  43   2.0000      -0.385314       -10.4849
  44   2.0000      -0.378119       -10.2892
  45   0.0000       0.057167         1.5556
  46   0.0000       0.091457         2.4887
  47   0.0000       0.104022         2.8306
  48   0.0000       0.112516         3.0617
  49   0.0000       0.140104         3.8124

MULLIKEN ATOMIC CHARGES
-----------------------
   0 O :   -0.675246
   1 P :    1.422466
   2 O :   -0.668183
   3 O :   -0.669959
   4 P :    1.422466
   5 O :   -0.668183
   6 O :   -0.706064
   7 O :   -0.675246
   8 O :   -0.706064
   9 H :    0.473377
  10 H :    0.488629
  11 H :    0.473377
  12 H :    0.488629
Sum of atomic charges:   -0.0000000

LOEWDIN ATOMIC CHARGES
----------------------
   0 O :   -0.422495
   1 P :    0.901570
   2 O :   -0.534750
   3 O :   -0.405759
   4 P :    0.901570
   5 O :   -0.534750
   6 O :   -0.439554
   7 O :   -0.422495
   8 O :   -0.439554
   9 H :    0.352122
  10 H :    0.345986
  11 H :    0.352122
  12 H :    0.345986

  Mayer bond orders larger than 0.100000
B(  0-O ,  1-P ) :   1.1308 B(  0-O ,  9-H ) :   0.7347 B(  1-P ,  2-O ) :   1.7588
B(  1-P ,  3-O ) :   0.9168 B(  1-P ,  8-O ) :   1.1637 B(  2-O , 10-H ) :   0.1007
B(  3-O ,  4-P ) :   0.9168 B(  4-P ,  5-O ) :   1.7588 B(  4-P ,  6-O ) :   1.1637
B(  4-P ,  7-O ) :   1.1308 B(  5-O , 12-H ) :   0.1007 B(  6-O , 10-H ) :   0.6466
B(  7-O , 11-H ) :   0.7347 B(  8-O , 12-H ) :   0.6466

Dispersion correction           -0.007626547
FINAL SINGLE POINT ENERGY     -1210.008771850835

DIPOLE MOMENT
-------------
                                X             Y             Z
Electronic contribution:      0.00000      -0.00000      -0.54405
Nuclear contribution   :     -0.00000       0.00000      -0.38681
                        -----------------------------------------
Total Dipole Moment    :      0.00000      -0.00000      -0.93086
                        -----------------------------------------
Magnitude (a.u.)       :      0.93086
Magnitude (Debye)      :      2.36605

Rotational constants in cm-1:     0.080454     0.030424     0.029076
Rotational constants in MHz :  2411.951771   912.101062   871.672183

                             ****ORCA TERMINATED NORMALLY****
TOTAL RUN TIME: 0 days 0 hours 2 minutes 1 seconds 967 msec
