                         Program Version 5.0.3 -  RELEASE  -
|  1> ! PBEh-3c def2/J TightSCF DefGrid3
|  2>
|  3> %maxcore 60000
|  4>
|  5> %pal
|  6> nprocs 4
|  7> end
|  8>
|  9> *xyzfile 0 1 acetamide_TS1.xyz
| 10>
| 11>                          ****END OF INPUT****

CARTESIAN COORDINATES (ANGSTROEM)
---------------------------------
  C     -0.011763    0.019658    1.449071
  C      0.028974    0.307602   -0.028093
  N     -1.164217    0.026494   -0.781578
  O      0.994009    0.758315   -0.566500
  H     -1.404427   -0.952330   -0.680395
  H     -1.939008    0.535669   -0.374434
  H     -0.751771    0.657759    1.926908
  H     -0.325939   -1.006859    1.631490
  H      0.958402    0.202963    1.895197

 Total Charge           Charge          ....    0
 Multiplicity           Mult            ....    1
 Number of Electrons    NEL             ....   32
 Basis Dimension        Dim             ....   70

ORBITAL ENERGIES
----------------

  NO   OCC          E(Eh)            E(eV)
   0   2.0000     -19.489430      -530.3343
   1   2.0000     -14.630200      -398.1080
   2   2.0000     -10.560777      -287.3733
   3   2.0000     -10.449203      -284.3373
   4   2.0000      -1.171082       -31.8668
   5   2.0000      -0.992761       -27.0144
   6   2.0000      -0.834239       -22.7008
   7   2.0000      -0.634294       -17.2600
   8   2.0000      -0.574877       -15.6432
   9   2.0000      -0.554326       -15.0840
  10   2.0000      -0.512742       -13.9524
  11   2.0000      -0.491104       -13.3636
  12   2.0000      -0.469657       -12.7800
  13   2.0000      -0.415041       -11.2939
  14   2.0000      -0.328509        -8.9392
  15   2.0000      -0.317821        -8.6483
  16   0.0000       0.022961         0.6248
  17   0.0000       0.111614         3.0372
  18   0.0000       0.185111         5.0371
  19   0.0000       0.192951         5.2505
  20   0.0000       0.201603         5.4859

MULLIKEN ATOMIC CHARGES
-----------------------
   0 C :   -0.748854
   1 C :    0.424173
   2 N :   -0.771644
   3 O :   -0.296416
   4 H :    0.333055
   5 H :    0.332251
   6 H :    0.236200
   7 H :    0.230536
   8 H :    0.260698
Sum of atomic charges:   -0.0000000

LOEWDIN ATOMIC CHARGES
----------------------
   0 C :   -0.407943
   1 C :    0.104863
   2 N :   -0.463849
   3 O :   -0.151670
   4 H :    0.239105
   5 H :    0.238732
   6 H :    0.146667
   7 H :    0.142220
   8 H :    0.151874

  Mayer bond orders larger than 0.100000
B(  0-C ,  1-C ) :   0.9368 B(  0-C ,  6-H ) :   0.9094 B(  0-C ,  7-H ) :   0.9130
B(  0-C ,  8-H ) :   0.9081 B(  1-C ,  2-N ) :   1.0228 B(  1-C ,  3-O ) :   2.1840
B(  2-N ,  4-H ) :   0.8482 B(  2-N ,  5-H ) :   0.8493

Dispersion correction           -0.002938066
FINAL SINGLE POINT ENERGY      -208.737219108514

DIPOLE MOMENT
-------------
                                X             Y             Z
Electronic contribution:      1.90298       1.19319      -2.85123
Nuclear contribution   :     -2.94624      -1.78216       3.99527
                        -----------------------------------------
Total Dipole Moment    :     -1.04327      -0.58897       1.14404
                        -----------------------------------------
Magnitude (a.u.)       :      1.65654
Magnitude (Debye)      :      4.21059

Rotational constants in cm-1:     0.350140     0.306635     0.172992
Rotational constants in MHz : 10496.924213  9192.693717  5186.163854

                             ****ORCA TERMINATED NORMALLY****
TOTAL RUN TIME: 0 days 0 hours 1 minutes 11 seconds 17 msec
