                         Program Version 5.0.3 -  RELEASE  -
|  1> ! PBEh-3c def2/J TightSCF DefGrid3
|  2>
|  3> %maxcore 60000
|  4>
|  5> %pal
|  6> nprocs 4
|  7> end
|  8>
|  9> *xyzfile 0 1 104.xyz
| 10>
| 11>                          ****END OF INPUT****

CARTESIAN COORDINATES (ANGSTROEM)
---------------------------------
  O      0.219237    0.951515    0.000000
  C     -0.312039   -0.285478    0.000000
  O      0.314588   -1.306084    0.000000
  H      1.184370    0.855506    0.000000
  H     -1.406157   -0.215457    0.000000

 Total Charge           Charge          ....    0
 Multiplicity           Mult            ....    1
 Number of Electrons    NEL             ....   24
 Basis Dimension        Dim             ....   49

ORBITAL ENERGIES
----------------

  NO   OCC          E(Eh)            E(eV)
   0   2.0000     -19.555175      -532.1234
   1   2.0000     -19.500782      -530.6433
   2   2.0000     -10.588616      -288.1309
   3   2.0000      -1.231075       -33.4993
   4   2.0000      -1.140873       -31.0447
   5   2.0000      -0.745884       -20.2965
   6   2.0000      -0.591658       -16.0998
   7   2.0000      -0.564002       -15.3473
   8   2.0000      -0.516169       -14.0457
   9   2.0000      -0.473417       -12.8823
  10   2.0000      -0.389947       -10.6110
  11   2.0000      -0.352614        -9.5951
  12   0.0000       0.036061         0.9813
  13   0.0000       0.124480         3.3873
  14   0.0000       0.192560         5.2398
  15   0.0000       0.300298         8.1715
  16   0.0000       0.321693         8.7537

MULLIKEN ATOMIC CHARGES
-----------------------
   0 O :   -0.566898
   1 C :    0.298347
   2 O :   -0.365820
   3 H :    0.441644
   4 H :    0.192726
Sum of atomic charges:    0.0000000

LOEWDIN ATOMIC CHARGES
----------------------
   0 O :   -0.304337
   1 C :    0.092127
   2 O :   -0.216080
   3 H :    0.331199
   4 H :    0.097091

  Mayer bond orders larger than 0.100000
B(  0-O ,  1-C ) :   1.1589 B(  0-O ,  3-H ) :   0.7591 B(  1-C ,  2-O ) :   2.0724
B(  1-C ,  4-H ) :   0.8676

Dispersion correction           -0.000999584
FINAL SINGLE POINT ENERGY      -189.358468962329

DIPOLE MOMENT
-------------
                                X             Y             Z
Electronic contribution:      0.38223      -0.35529      -0.00000
Nuclear contribution   :     -0.38939       0.94542       0.00000
                        -----------------------------------------
Total Dipole Moment    :     -0.00716       0.59013      -0.00000
                        -----------------------------------------
Magnitude (a.u.)       :      0.59018
Magnitude (Debye)      :      1.50011

Rotational constants in cm-1:     2.603391     0.401499     0.347852
Rotational constants in MHz : 78047.702113 12036.622369 10428.348356

                             ****ORCA TERMINATED NORMALLY****
TOTAL RUN TIME: 0 days 0 hours 0 minutes 12 seconds 873 msec
