                         Program Version 5.0.3 -  RELEASE  -
|  1> ! PBEh-3c def2/J TightSCF DefGrid3
|  2>
|  3> %maxcore 60000
|  4>
|  5> %pal
|  6> nprocs 4
|  7> end
|  8>
|  9> *xyzfile 0 1 07.xyz
| 10>
| 11>                          ****END OF INPUT****

CARTESIAN COORDINATES (ANGSTROEM)
---------------------------------
  N      1.281203   -0.033704   -0.593739
  N      3.199339    0.020079   -2.055808
  N      4.434771   -0.011167    1.314131
  N      5.275676    0.035517   -0.771575
  N      1.417806   -0.082260    1.724292
  N     -3.574986   -0.006688   -1.731214
  N     -1.579461   -0.016783   -0.578743
  C      5.529181    0.019673    0.572370
  C      3.910800    0.013821   -0.920835
  C      2.020152   -0.041500    0.527584
  C      1.895264   -0.004467   -1.795649
  C     -4.267497    0.011181   -0.548500
  C     -3.645552    0.016211    0.651486
  C     -2.189950    0.001741    0.661825
  C      3.420984   -0.015172    0.384609
  C     -2.193403   -0.020671   -1.811084
  C     -4.364427    0.035613    1.959017
  H      5.949726    0.059152   -1.518529
  H      0.404879   -0.048100    1.789071
  H      1.990568   -0.040463    2.547069
  H      1.225631   -0.000698   -2.646419
  H      6.534449    0.031830    0.959035
  H     -4.055531   -0.009332   -2.615341
  H     -0.537638   -0.027341   -0.593275
  H     -5.344736    0.021211   -0.637566
  H     -4.097742   -0.835981    2.554719
  H     -4.080519    0.912894    2.538179
  H     -5.442211    0.044829    1.809881
  O     -1.521286    0.005485    1.697236
  O     -1.595491   -0.034912   -2.872227

 Total Charge           Charge          ....    0
 Multiplicity           Mult            ....    1
 Number of Electrons    NEL             ....  136
 Basis Dimension        Dim             ....  307

ORBITAL ENERGIES
----------------

  NO   OCC          E(Eh)            E(eV)
   0   2.0000     -19.477203      -530.0016
   1   2.0000     -19.470069      -529.8075
   2   2.0000     -14.706337      -400.1798
   3   2.0000     -14.706062      -400.1723
   4   2.0000     -14.674587      -399.3158
   5   2.0000     -14.643943      -398.4819
   6   2.0000     -14.639049      -398.3488
   7   2.0000     -14.634794      -398.2330
   8   2.0000     -14.630999      -398.1297
   9   2.0000     -10.594937      -288.3029
  10   2.0000     -10.566941      -287.5411
  11   2.0000     -10.535967      -286.6982
  12   2.0000     -10.524061      -286.3743
  13   2.0000     -10.520856      -286.2870
  14   2.0000     -10.517691      -286.2009
  15   2.0000     -10.506760      -285.9035
  16   2.0000     -10.468234      -284.8551
  17   2.0000     -10.466516      -284.8084
  18   2.0000     -10.442729      -284.1611
  19   2.0000      -1.183359       -32.2008
  20   2.0000      -1.151684       -31.3389
  21   2.0000      -1.146515       -31.1983
  22   2.0000      -1.083853       -29.4931
  23   2.0000      -1.080820       -29.4106
  24   2.0000      -1.034140       -28.1404
  25   2.0000      -1.019606       -27.7449
  26   2.0000      -0.983865       -26.7723
  27   2.0000      -0.953942       -25.9581
  28   2.0000      -0.911623       -24.8065
  29   2.0000      -0.852535       -23.1987
  30   2.0000      -0.799625       -21.7589
  31   2.0000      -0.755626       -20.5616
  32   2.0000      -0.743428       -20.2297
  33   2.0000      -0.737265       -20.0620
  34   2.0000      -0.727438       -19.7946
  35   2.0000      -0.705779       -19.2052
  36   2.0000      -0.649783       -17.6815
  37   2.0000      -0.637869       -17.3573
  38   2.0000      -0.634909       -17.2767
  39   2.0000      -0.613699       -16.6996
  40   2.0000      -0.581158       -15.8141
  41   2.0000      -0.578414       -15.7394
  42   2.0000      -0.557718       -15.1763
  43   2.0000      -0.543288       -14.7836
  44   2.0000      -0.541916       -14.7463
  45   2.0000      -0.529968       -14.4212
  46   2.0000      -0.519580       -14.1385
  47   2.0000      -0.502923       -13.6852
  48   2.0000      -0.498797       -13.5729
  49   2.0000      -0.489572       -13.3219
  50   2.0000      -0.484852       -13.1935
  51   2.0000      -0.479077       -13.0363
  52   2.0000      -0.462071       -12.5736
  53   2.0000      -0.460760       -12.5379
  54   2.0000      -0.453249       -12.3335
  55   2.0000      -0.445485       -12.1223
  56   2.0000      -0.410223       -11.1627
  57   2.0000      -0.408597       -11.1185
  58   2.0000      -0.378486       -10.2991
  59   2.0000      -0.356973        -9.7137
  60   2.0000      -0.343524        -9.3478
  61   2.0000      -0.340663        -9.2699
  62   2.0000      -0.329485        -8.9658
  63   2.0000      -0.326802        -8.8927
  64   2.0000      -0.311805        -8.4846
  65   2.0000      -0.307960        -8.3800
  66   2.0000      -0.281883        -7.6704
  67   2.0000      -0.253945        -6.9102
  68   0.0000      -0.012458        -0.3390
  69   0.0000       0.007966         0.2168
  70   0.0000       0.032574         0.8864
  71   0.0000       0.047462         1.2915
  72   0.0000       0.074344         2.0230

MULLIKEN ATOMIC CHARGES
-----------------------
   0 N :   -0.558121
   1 N :   -0.412218
   2 N :   -0.404689
   3 N :   -0.656027
   4 N :   -0.846257
   5 N :   -0.679933
   6 N :   -0.764559
   7 C :    0.113453
   8 C :    0.468894
   9 C :    0.522641
  10 C :    0.089039
  11 C :    0.048794
  12 C :   -0.148673
  13 C :    0.590279
  14 C :    0.008692
  15 C :    0.674566
  16 C :   -0.676695
  17 H :    0.378744
  18 H :    0.431895
  19 H :    0.380522
  20 H :    0.258696
  21 H :    0.243860
  22 H :    0.387883
  23 H :    0.469173
  24 H :    0.260119
  25 H :    0.246921
  26 H :    0.246781
  27 H :    0.213517
  28 O :   -0.455641
  29 O :   -0.431658
Sum of atomic charges:   -0.0000000

LOEWDIN ATOMIC CHARGES
----------------------
   0 N :   -0.233309
   1 N :   -0.204541
   2 N :   -0.184261
   3 N :   -0.148086
   4 N :   -0.340601
   5 N :   -0.188044
   6 N :   -0.208380
   7 C :   -0.013395
   8 C :    0.053578
   9 C :    0.106261
  10 C :    0.017112
  11 C :   -0.023541
  12 C :   -0.148988
  13 C :    0.139908
  14 C :   -0.101294
  15 C :    0.145632
  16 C :   -0.334658
  17 H :    0.275396
  18 H :    0.269075
  19 H :    0.265792
  20 H :    0.138360
  21 H :    0.135147
  22 H :    0.279663
  23 H :    0.288809
  24 H :    0.145571
  25 H :    0.146995
  26 H :    0.146933
  27 H :    0.130337
  28 O :   -0.281051
  29 O :   -0.274420

  Mayer bond orders larger than 0.100000
B(  0-N ,  9-C ) :   1.3644 B(  0-N , 10-C ) :   1.3853 B(  0-N , 23-H ) :   0.1568
B(  1-N ,  8-C ) :   1.4168 B(  1-N , 10-C ) :   1.5434 B(  2-N ,  7-C ) :   1.6758
B(  2-N , 14-C ) :   1.3032 B(  3-N ,  7-C ) :   1.1628 B(  3-N ,  8-C ) :   1.0599
B(  3-N , 17-H ) :   0.8137 B(  4-N ,  9-C ) :   1.2380 B(  4-N , 18-H ) :   0.6978
B(  4-N , 19-H ) :   0.8274 B(  5-N , 11-C ) :   1.0668 B(  5-N , 15-C ) :   1.0330
B(  5-N , 22-H ) :   0.8103 B(  6-N , 13-C ) :   1.0746 B(  6-N , 15-C ) :   1.0899
B(  6-N , 23-H ) :   0.6078 B(  7-C , 21-H ) :   0.9082 B(  8-C , 14-C ) :   1.2650
B(  9-C , 14-C ) :   1.1707 B( 10-C , 20-H ) :   0.8926 B( 11-C , 12-C ) :   1.6496
B( 11-C , 24-H ) :   0.9043 B( 12-C , 13-C ) :   1.0409 B( 12-C , 16-C ) :   0.9866
B( 13-C , 28-O ) :   1.8916 B( 15-C , 29-O ) :   2.0061 B( 16-C , 25-H ) :   0.9100
B( 16-C , 26-H ) :   0.9100 B( 16-C , 27-H ) :   0.9292 B( 18-H , 28-O ) :   0.1076

Dispersion correction           -0.020062738
FINAL SINGLE POINT ENERGY      -919.510713690368

DIPOLE MOMENT
-------------
                                X             Y             Z
Electronic contribution:      9.92954      -0.08095      -6.03938
Nuclear contribution   :    -10.57725       0.15983       6.12763
                        -----------------------------------------
Total Dipole Moment    :     -0.64771       0.07888       0.08825
                        -----------------------------------------
Magnitude (a.u.)       :      0.65844
Magnitude (Debye)      :      1.67362

Rotational constants in cm-1:     0.030412     0.005974     0.004998
Rotational constants in MHz :   911.740655   179.097466   149.849215

                             ****ORCA TERMINATED NORMALLY****
TOTAL RUN TIME: 0 days 0 hours 4 minutes 4 seconds 489 msec
