                         Program Version 5.0.3 -  RELEASE  -
|  1> ! PBEh-3c def2/J TightSCF DefGrid3
|  2>
|  3> %maxcore 60000
|  4>
|  5> %pal
|  6> nprocs 4
|  7> end
|  8>
|  9> *xyzfile 0 1 TS4.xyz
| 10>
| 11>                          ****END OF INPUT****

CARTESIAN COORDINATES (ANGSTROEM)
---------------------------------
  C     -0.014521   -0.757985    1.309420
  C     -0.014521   -0.757985   -1.309420
  C     -0.014521    0.656836    1.211640
  C     -0.014521    0.656836   -1.211640
  C     -0.172842    1.334476    0.000000
  H      0.467989   -1.057175    0.000000
  H      0.485119   -1.184685    2.181681
  H      0.485119   -1.184685   -2.181681
  H     -0.927082   -1.302845    1.068700
  H     -0.927082   -1.302845   -1.068700
  H      0.375129    1.240166    2.046031
  H      0.375129    1.240166   -2.046031
  H     -0.103392    2.419726    0.000000

 Total Charge           Charge          ....    0
 Multiplicity           Mult            ....    1
 Number of Electrons    NEL             ....   38
 Basis Dimension        Dim             ....   91

ORBITAL ENERGIES
----------------

  NO   OCC          E(Eh)            E(eV)
   0   2.0000     -10.454158      -284.4721
   1   2.0000     -10.454138      -284.4715
   2   2.0000     -10.444346      -284.2051
   3   2.0000     -10.442209      -284.1470
   4   2.0000     -10.442197      -284.1466
   5   2.0000      -0.921267       -25.0689
   6   2.0000      -0.828319       -22.5397
   7   2.0000      -0.775460       -21.1013
   8   2.0000      -0.664468       -18.0811
   9   2.0000      -0.598480       -16.2855
  10   2.0000      -0.560813       -15.2605
  11   2.0000      -0.485211       -13.2033
  12   2.0000      -0.473987       -12.8978
  13   2.0000      -0.466649       -12.6982
  14   2.0000      -0.443295       -12.0627
  15   2.0000      -0.419602       -11.4180
  16   2.0000      -0.404408       -11.0045
  17   2.0000      -0.301942        -8.2163
  18   2.0000      -0.260942        -7.1006
  19   0.0000      -0.005720        -0.1557
  20   0.0000       0.054005         1.4695
  21   0.0000       0.140268         3.8169
  22   0.0000       0.173391         4.7182
  23   0.0000       0.199983         5.4418

MULLIKEN ATOMIC CHARGES
-----------------------
   0 C :   -0.673033
   1 C :   -0.673033
   2 C :   -0.153828
   3 C :   -0.153827
   4 C :   -0.230269
   5 H :    0.241577
   6 H :    0.224727
   7 H :    0.224727
   8 H :    0.260532
   9 H :    0.260532
  10 H :    0.227151
  11 H :    0.227151
  12 H :    0.217594
Sum of atomic charges:    0.0000000

LOEWDIN ATOMIC CHARGES
----------------------
   0 C :   -0.355434
   1 C :   -0.355434
   2 C :   -0.136255
   3 C :   -0.136255
   4 C :   -0.172900
   5 H :    0.201009
   6 H :    0.131422
   7 H :    0.131422
   8 H :    0.141939
   9 H :    0.141939
  10 H :    0.136997
  11 H :    0.136997
  12 H :    0.134553

  Mayer bond orders larger than 0.100000
B(  0-C ,  2-C ) :   1.3087 B(  0-C ,  3-C ) :   0.1184 B(  0-C ,  5-H ) :   0.4573
B(  0-C ,  6-H ) :   0.9270 B(  0-C ,  8-H ) :   0.8889 B(  1-C ,  2-C ) :   0.1184
B(  1-C ,  3-C ) :   1.3087 B(  1-C ,  5-H ) :   0.4573 B(  1-C ,  7-H ) :   0.9270
B(  1-C ,  9-H ) :   0.8889 B(  2-C ,  4-C ) :   1.4528 B(  2-C , 10-H ) :   0.9195
B(  3-C ,  4-C ) :   1.4528 B(  3-C , 11-H ) :   0.9195 B(  4-C , 12-H ) :   0.9191

Dispersion correction           -0.005748077
FINAL SINGLE POINT ENERGY      -194.802547153683

DIPOLE MOMENT
-------------
                                X             Y             Z
Electronic contribution:     -0.40044       2.42696      -0.00000
Nuclear contribution   :      0.49661      -2.43474       0.00000
                        -----------------------------------------
Total Dipole Moment    :      0.09617      -0.00778      -0.00000
                        -----------------------------------------
Magnitude (a.u.)       :      0.09648
Magnitude (Debye)      :      0.24524

Rotational constants in cm-1:     0.269060     0.168954     0.107744
Rotational constants in MHz :  8066.209015  5065.121320  3230.084621

                             ****ORCA TERMINATED NORMALLY****
TOTAL RUN TIME: 0 days 0 hours 1 minutes 7 seconds 857 msec
