                         Program Version 5.0.3 -  RELEASE  -
|  1> ! PBEh-3c def2/J TightSCF DefGrid3
|  2>
|  3> %maxcore 60000
|  4>
|  5> %pal
|  6> nprocs 4
|  7> end
|  8>
|  9> *xyzfile 0 1 glyoxal.xyz
| 10>
| 11>                          ****END OF INPUT****

CARTESIAN COORDINATES (ANGSTROEM)
---------------------------------
  C      0.644356    0.402295    0.000000
  C     -0.644356   -0.402295    0.000000
  H      0.513390    1.497012    0.000000
  H     -0.513390   -1.497012    0.000000
  O      1.722585   -0.141077    0.000000
  O     -1.722585    0.141077    0.000000

 Total Charge           Charge          ....    0
 Multiplicity           Mult            ....    1
 Number of Electrons    NEL             ....   30
 Basis Dimension        Dim             ....   64

ORBITAL ENERGIES
----------------

  NO   OCC          E(Eh)            E(eV)
   0   2.0000     -19.542481      -531.7779
   1   2.0000     -19.542440      -531.7768
   2   2.0000     -10.565010      -287.4885
   3   2.0000     -10.564838      -287.4839
   4   2.0000      -1.205992       -32.8167
   5   2.0000      -1.191128       -32.4122
   6   2.0000      -0.798317       -21.7233
   7   2.0000      -0.680411       -18.5149
   8   2.0000      -0.574852       -15.6425
   9   2.0000      -0.565888       -15.3986
  10   2.0000      -0.527530       -14.3548
  11   2.0000      -0.509077       -13.8527
  12   2.0000      -0.451466       -12.2850
  13   2.0000      -0.397682       -10.8215
  14   2.0000      -0.327913        -8.9230
  15   0.0000      -0.085584        -2.3289
  16   0.0000       0.059359         1.6153
  17   0.0000       0.153084         4.1656
  18   0.0000       0.204984         5.5779
  19   0.0000       0.213694         5.8149

MULLIKEN ATOMIC CHARGES
-----------------------
   0 C :    0.082304
   1 C :    0.082304
   2 H :    0.198252
   3 H :    0.198252
   4 O :   -0.280556
   5 O :   -0.280556
Sum of atomic charges:   -0.0000000

LOEWDIN ATOMIC CHARGES
----------------------
   0 C :    0.025081
   1 C :    0.025081
   2 H :    0.107855
   3 H :    0.107855
   4 O :   -0.132936
   5 O :   -0.132936

  Mayer bond orders larger than 0.100000
B(  0-C ,  1-C ) :   0.8409 B(  0-C ,  2-H ) :   0.8521 B(  0-C ,  4-O ) :   2.1123
B(  1-C ,  3-H ) :   0.8521 B(  1-C ,  5-O ) :   2.1123

Dispersion correction           -0.001669118
FINAL SINGLE POINT ENERGY      -227.329262141441

DIPOLE MOMENT
-------------
                                X             Y             Z
Electronic contribution:     -0.00000      -0.00000       0.00000
Nuclear contribution   :      0.00000       0.00000       0.00000
                        -----------------------------------------
Total Dipole Moment    :     -0.00000      -0.00000       0.00000
                        -----------------------------------------
Magnitude (a.u.)       :      0.00000
Magnitude (Debye)      :      0.00000

Rotational constants in cm-1:     1.864257     0.159860     0.147234
Rotational constants in MHz : 55889.008869  4792.473101  4413.975450

                             ****ORCA TERMINATED NORMALLY****
TOTAL RUN TIME: 0 days 0 hours 0 minutes 24 seconds 358 msec
