                         Program Version 5.0.3 -  RELEASE  -
|  1> ! PBEh-3c def2/J TightSCF DefGrid3
|  2>
|  3> %maxcore 60000
|  4>
|  5> %pal
|  6> nprocs 4
|  7> end
|  8>
|  9> *xyzfile 1 1 187A.xyz
| 10>
| 11>                          ****END OF INPUT****

CARTESIAN COORDINATES (ANGSTROEM)
---------------------------------
  C      1.567910   -0.077310   -0.383270
  N      0.098770    0.087420    0.017780
  C      0.009820   -0.068880    1.523620
  C      1.215300   -0.956210    1.849720
  C      2.315250   -0.376300    0.930380
  C     -0.603990    1.272840   -0.543470
  H     -0.362970   -0.752290   -0.347740
  H     -1.646540    1.245640   -0.212160
  H     -0.122170    2.196250   -0.203010
  H     -0.576780    1.208150   -1.635620
  H      1.578590   -0.933330   -1.068050
  H      1.914710    0.821500   -0.901980
  H      3.151130   -1.065700    0.769440
  H      2.719340    0.550010    1.361760
  H      0.978140   -1.988720    1.561890
  H      1.477860   -0.928710    2.912910
  H     -0.959010   -0.527670    1.746570
  H      0.084030    0.922450    1.989270

 Total Charge           Charge          ....    1
 Multiplicity           Mult            ....    1
 Number of Electrons    NEL             ....   48
 Basis Dimension        Dim             ....  114

ORBITAL ENERGIES
----------------

  NO   OCC          E(Eh)            E(eV)
   0   2.0000     -14.942482      -406.6056
   1   2.0000     -10.671762      -290.3934
   2   2.0000     -10.671351      -290.3822
   3   2.0000     -10.666322      -290.2454
   4   2.0000     -10.617352      -288.9128
   5   2.0000     -10.615577      -288.8645
   6   2.0000      -1.296204       -35.2715
   7   2.0000      -1.077416       -29.3180
   8   2.0000      -1.017984       -27.7008
   9   2.0000      -0.972594       -26.4656
  10   2.0000      -0.885331       -24.0911
  11   2.0000      -0.849299       -23.1106
  12   2.0000      -0.805576       -21.9208
  13   2.0000      -0.759010       -20.6537
  14   2.0000      -0.721153       -19.6236
  15   2.0000      -0.685060       -18.6414
  16   2.0000      -0.680989       -18.5306
  17   2.0000      -0.660824       -17.9819
  18   2.0000      -0.626395       -17.0451
  19   2.0000      -0.620684       -16.8897
  20   2.0000      -0.598928       -16.2977
  21   2.0000      -0.583398       -15.8751
  22   2.0000      -0.577534       -15.7155
  23   2.0000      -0.559650       -15.2288
  24   0.0000      -0.102323        -2.7844
  25   0.0000      -0.051046        -1.3890
  26   0.0000      -0.038477        -1.0470
  27   0.0000      -0.025812        -0.7024
  28   0.0000      -0.001341        -0.0365

MULLIKEN ATOMIC CHARGES
-----------------------
   0 C :   -0.304823
   1 N :   -0.528880
   2 C :   -0.319747
   3 C :   -0.469502
   4 C :   -0.474516
   5 C :   -0.531657
   6 H :    0.433076
   7 H :    0.292091
   8 H :    0.292786
   9 H :    0.293702
  10 H :    0.287440
  11 H :    0.301898
  12 H :    0.300816
  13 H :    0.269584
  14 H :    0.257793
  15 H :    0.304999
  16 H :    0.300646
  17 H :    0.294293
Sum of atomic charges:    1.0000000

LOEWDIN ATOMIC CHARGES
----------------------
   0 C :   -0.129067
   1 N :   -0.061705
   2 C :   -0.133940
   3 C :   -0.241285
   4 C :   -0.241671
   5 C :   -0.246443
   6 H :    0.296737
   7 H :    0.162713
   8 H :    0.164114
   9 H :    0.162730
  10 H :    0.155347
  11 H :    0.162570
  12 H :    0.166513
  13 H :    0.151473
  14 H :    0.144817
  15 H :    0.169852
  16 H :    0.158567
  17 H :    0.158678

  Mayer bond orders larger than 0.100000
B(  0-C ,  1-N ) :   0.8085 B(  0-C ,  4-C ) :   0.9504 B(  0-C , 10-H ) :   0.8982
B(  0-C , 11-H ) :   0.8957 B(  1-N ,  2-C ) :   0.8324 B(  1-N ,  5-C ) :   0.8698
B(  1-N ,  6-H ) :   0.7875 B(  2-C ,  3-C ) :   0.9466 B(  2-C , 16-H ) :   0.8924
B(  2-C , 17-H ) :   0.8894 B(  3-C ,  4-C ) :   0.9501 B(  3-C , 14-H ) :   0.9028
B(  3-C , 15-H ) :   0.8970 B(  4-C , 12-H ) :   0.8977 B(  4-C , 13-H ) :   0.9024
B(  5-C ,  7-H ) :   0.8937 B(  5-C ,  8-H ) :   0.8952 B(  5-C ,  9-H ) :   0.8941

Dispersion correction           -0.008768656
FINAL SINGLE POINT ENERGY      -251.719645523524

DIPOLE MOMENT
-------------
                                X             Y             Z
Electronic contribution:     -0.08955      -0.66550      -0.04747
Nuclear contribution   :     -0.61130       0.76649      -0.51823
                        -----------------------------------------
Total Dipole Moment    :     -0.70085       0.10100      -0.56571
                        -----------------------------------------
Magnitude (a.u.)       :      0.90632
Magnitude (Debye)      :      2.30368

Rotational constants in cm-1:     0.202366     0.101479     0.076821
Rotational constants in MHz :  6066.765738  3042.269580  2303.049921

                             ****ORCA TERMINATED NORMALLY****
TOTAL RUN TIME: 0 days 0 hours 1 minutes 21 seconds 124 msec
