                         Program Version 5.0.3 -  RELEASE  -
|  1> ! PBEh-3c def2/J TightSCF DefGrid3
|  2>
|  3> %maxcore 60000
|  4>
|  5> %pal
|  6> nprocs 4
|  7> end
|  8>
|  9> *xyzfile 0 1 10B.xyz
| 10>
| 11>                          ****END OF INPUT****

CARTESIAN COORDINATES (ANGSTROEM)
---------------------------------
  N     -0.229345   -0.708649   -0.535983
  H      0.066923   -0.434112   -1.463968
  H      0.394204   -1.456340   -0.260788
  C     -0.069115    0.426561    0.377693
  H     -0.339306    0.111865    1.383346
  H      0.938295    0.848338    0.414664
  H     -0.761656    1.212337    0.085035

 Total Charge           Charge          ....    0
 Multiplicity           Mult            ....    1
 Number of Electrons    NEL             ....   18
 Basis Dimension        Dim             ....   40

ORBITAL ENERGIES
----------------

  NO   OCC          E(Eh)            E(eV)
   0   2.0000     -14.603843      -397.3908
   1   2.0000     -10.445720      -284.2425
   2   2.0000      -0.964499       -26.2454
   3   2.0000      -0.734711       -19.9925
   4   2.0000      -0.545375       -14.8404
   5   2.0000      -0.493179       -13.4201
   6   2.0000      -0.452312       -12.3080
   7   2.0000      -0.416840       -11.3428
   8   2.0000      -0.283522        -7.7150
   9   0.0000       0.137844         3.7509
  10   0.0000       0.201556         5.4846
  11   0.0000       0.213104         5.7989
  12   0.0000       0.228058         6.2058
  13   0.0000       0.233958         6.3663

MULLIKEN ATOMIC CHARGES
-----------------------
   0 N :   -0.737061
   1 H :    0.312679
   2 H :    0.312730
   3 C :   -0.502413
   4 H :    0.216032
   5 H :    0.181150
   6 H :    0.216883
Sum of atomic charges:    0.0000000

LOEWDIN ATOMIC CHARGES
----------------------
   0 N :   -0.487477
   1 H :    0.217486
   2 H :    0.217455
   3 C :   -0.279435
   4 H :    0.120325
   5 H :    0.091305
   6 H :    0.120340

  Mayer bond orders larger than 0.100000
B(  0-N ,  1-H ) :   0.8683 B(  0-N ,  2-H ) :   0.8680 B(  0-N ,  3-C ) :   1.0335
B(  3-C ,  4-H ) :   0.9274 B(  3-C ,  5-H ) :   0.9179 B(  3-C ,  6-H ) :   0.9261

Dispersion correction           -0.001525874
FINAL SINGLE POINT ENERGY       -95.642643915168

DIPOLE MOMENT
-------------
                                X             Y             Z
Electronic contribution:     -0.26190      -0.80273      -0.60654
Nuclear contribution   :      0.84455       0.94397       0.57069
                        -----------------------------------------
Total Dipole Moment    :      0.58265       0.14124      -0.03585
                        -----------------------------------------
Magnitude (a.u.)       :      0.60059
Magnitude (Debye)      :      1.52658

Rotational constants in cm-1:     3.462343     0.760590     0.732479
Rotational constants in MHz : 103798.443858 22801.904856 21959.157757

                             ****ORCA TERMINATED NORMALLY****
TOTAL RUN TIME: 0 days 0 hours 0 minutes 55 seconds 780 msec
