                         Program Version 5.0.3 -  RELEASE  -
|  1> ! PBEh-3c def2/J TightSCF DefGrid3
|  2>
|  3> %maxcore 60000
|  4>
|  5> %pal
|  6> nprocs 4
|  7> end
|  8>
|  9> *xyzfile 0 1 GLU_xar.xyz
| 10>
| 11>                          ****END OF INPUT****

CARTESIAN COORDINATES (ANGSTROEM)
---------------------------------
  N      1.254174   -1.192128    0.347921
  H      1.018148   -1.626094    1.224540
  C      0.299293   -0.265334   -0.243002
  H      0.457383   -0.308271   -1.321746
  C     -1.113041   -0.691657    0.108999
  C      0.599662    1.156404    0.251441
  H     -1.255922   -0.608889    1.185702
  H     -1.235619   -1.737650   -0.177208
  C     -2.149273    0.173184   -0.602361
  O     -0.057130    1.693367    1.139050
  H     -1.979845    0.193051   -1.676811
  H     -2.079140    1.191235   -0.218017
  C     -3.557270   -0.302814   -0.388823
  O     -3.812200   -0.539728    0.921960
  O     -4.390903   -0.457540   -1.250638
  C      2.490657   -1.381406   -0.176480
  C      3.357029   -2.391791    0.529773
  O      2.877801   -0.779266   -1.177780
  H      4.293382   -1.913290    0.805383
  H      3.588375   -3.192778   -0.168517
  H      2.890612   -2.813584    1.416323
  N      1.653107    1.727735   -0.371418
  C      2.170223    3.007479    0.064778
  H      2.217731    1.119581   -0.952427
  H      2.877009    2.902485    0.888369
  H      2.664503    3.499752   -0.767695
  H      1.338537    3.616327    0.405473
  H     -4.739902   -0.817313    0.954739

 Total Charge           Charge          ....    0
 Multiplicity           Mult            ....    1
 Number of Electrons    NEL             ....  108
 Basis Dimension        Dim             ....  238

ORBITAL ENERGIES
----------------

  NO   OCC          E(Eh)            E(eV)
   0   2.0000     -19.541997      -531.7648
   1   2.0000     -19.484957      -530.2126
   2   2.0000     -19.476762      -529.9896
   3   2.0000     -19.460453      -529.5458
   4   2.0000     -14.684875      -399.5958
   5   2.0000     -14.655352      -398.7924
   6   2.0000     -10.582150      -287.9549
   7   2.0000     -10.569012      -287.5974
   8   2.0000     -10.544725      -286.9365
   9   2.0000     -10.498941      -285.6907
  10   2.0000     -10.463186      -284.7178
  11   2.0000     -10.457047      -284.5507
  12   2.0000     -10.456135      -284.5259
  13   2.0000     -10.452813      -284.4355
  14   2.0000      -1.219344       -33.1800
  15   2.0000      -1.163292       -31.6548
  16   2.0000      -1.142010       -31.0757
  17   2.0000      -1.122808       -30.5532
  18   2.0000      -1.046350       -28.4726
  19   2.0000      -1.018066       -27.7030
  20   2.0000      -0.912206       -24.8224
  21   2.0000      -0.858892       -23.3716
  22   2.0000      -0.817944       -22.2574
  23   2.0000      -0.787081       -21.4176
  24   2.0000      -0.715161       -19.4605
  25   2.0000      -0.687938       -18.7197
  26   2.0000      -0.667827       -18.1725
  27   2.0000      -0.648753       -17.6535
  28   2.0000      -0.612510       -16.6672
  29   2.0000      -0.577003       -15.7011
  30   2.0000      -0.565904       -15.3990
  31   2.0000      -0.559127       -15.2146
  32   2.0000      -0.549141       -14.9429
  33   2.0000      -0.529490       -14.4082
  34   2.0000      -0.523955       -14.2575
  35   2.0000      -0.517843       -14.0912
  36   2.0000      -0.508497       -13.8369
  37   2.0000      -0.494747       -13.4627
  38   2.0000      -0.481511       -13.1026
  39   2.0000      -0.476542       -12.9674
  40   2.0000      -0.465878       -12.6772
  41   2.0000      -0.462115       -12.5748
  42   2.0000      -0.447912       -12.1883
  43   2.0000      -0.441569       -12.0157
  44   2.0000      -0.428412       -11.6577
  45   2.0000      -0.426129       -11.5956
  46   2.0000      -0.418875       -11.3982
  47   2.0000      -0.407265       -11.0822
  48   2.0000      -0.375345       -10.2136
  49   2.0000      -0.343905        -9.3581
  50   2.0000      -0.334552        -9.1036
  51   2.0000      -0.328295        -8.9334
  52   2.0000      -0.303787        -8.2665
  53   2.0000      -0.296001        -8.0546
  54   0.0000       0.034425         0.9368
  55   0.0000       0.045718         1.2441
  56   0.0000       0.058072         1.5802
  57   0.0000       0.108542         2.9536
  58   0.0000       0.126208         3.4343

MULLIKEN ATOMIC CHARGES
-----------------------
   0 N :   -0.625183
   1 H :    0.366858
   2 C :   -0.202939
   3 H :    0.268449
   4 C :   -0.449904
   5 C :    0.561580
   6 H :    0.259391
   7 H :    0.237153
   8 C :   -0.553914
   9 O :   -0.439307
  10 H :    0.251891
  11 H :    0.294018
  12 C :    0.523572
  13 O :   -0.588410
  14 O :   -0.389260
  15 C :    0.541408
  16 C :   -0.744359
  17 O :   -0.460041
  18 H :    0.262551
  19 H :    0.265895
  20 H :    0.217584
  21 N :   -0.646144
  22 C :   -0.492798
  23 H :    0.403548
  24 H :    0.220112
  25 H :    0.223018
  26 H :    0.253266
  27 H :    0.441964
Sum of atomic charges:    0.0000000

LOEWDIN ATOMIC CHARGES
----------------------
   0 N :   -0.212786
   1 H :    0.262002
   2 C :   -0.093847
   3 H :    0.148081
   4 C :   -0.234044
   5 C :    0.099817
   6 H :    0.148817
   7 H :    0.133555
   8 C :   -0.267804
   9 O :   -0.284439
  10 H :    0.146887
  11 H :    0.171712
  12 C :    0.138067
  13 O :   -0.303423
  14 O :   -0.229407
  15 C :    0.114919
  16 C :   -0.383662
  17 O :   -0.299613
  18 H :    0.159274
  19 H :    0.161934
  20 H :    0.130117
  21 N :   -0.244650
  22 C :   -0.254526
  23 H :    0.267721
  24 H :    0.120607
  25 H :    0.126958
  26 H :    0.145713
  27 H :    0.332021

  Mayer bond orders larger than 0.100000
B(  0-N ,  1-H ) :   0.8185 B(  0-N ,  2-C ) :   0.9200 B(  0-N , 15-C ) :   1.1664
B(  2-C ,  3-H ) :   0.8776 B(  2-C ,  4-C ) :   0.9906 B(  2-C ,  5-C ) :   0.8694
B(  4-C ,  6-H ) :   0.8891 B(  4-C ,  7-H ) :   0.9122 B(  4-C ,  8-C ) :   0.9580
B(  5-C ,  9-O ) :   1.9474 B(  5-C , 21-N ) :   1.1840 B(  8-C , 10-H ) :   0.9113
B(  8-C , 11-H ) :   0.8684 B(  8-C , 12-C ) :   0.9450 B(  9-O , 21-N ) :   0.1010
B( 12-C , 13-O ) :   1.1264 B( 12-C , 14-O ) :   2.0741 B( 13-O , 27-H ) :   0.7612
B( 15-C , 16-C ) :   0.9327 B( 15-C , 17-O ) :   1.8903 B( 16-C , 18-H ) :   0.9071
B( 16-C , 19-H ) :   0.9052 B( 16-C , 20-H ) :   0.9210 B( 21-N , 22-C ) :   0.9595
B( 21-N , 23-H ) :   0.7445 B( 22-C , 24-H ) :   0.9183 B( 22-C , 25-H ) :   0.9246
B( 22-C , 26-H ) :   0.9082

Dispersion correction           -0.016198926
FINAL SINGLE POINT ENERGY      -722.201132557483

DIPOLE MOMENT
-------------
                                X             Y             Z
Electronic contribution:     -9.10350      -0.63115      -1.33615
Nuclear contribution   :     10.02728      -0.28765       2.15130
                        -----------------------------------------
Total Dipole Moment    :      0.92378      -0.91879       0.81515
                        -----------------------------------------
Magnitude (a.u.)       :      1.53688
Magnitude (Debye)      :      3.90645

Rotational constants in cm-1:     0.032145     0.011753     0.009678
Rotational constants in MHz :   963.684526   352.352813   290.134641

                             ****ORCA TERMINATED NORMALLY****
TOTAL RUN TIME: 0 days 0 hours 3 minutes 16 seconds 614 msec
