                         Program Version 5.0.3 -  RELEASE  -
|  1> ! PBEh-3c def2/J TightSCF DefGrid3
|  2>
|  3> %maxcore 60000
|  4>
|  5> %pal
|  6> nprocs 4
|  7> end
|  8>
|  9> *xyzfile 0 1 hbr.xyz
| 10>
| 11>                          ****END OF INPUT****

CARTESIAN COORDINATES (ANGSTROEM)
---------------------------------
  Br     0.000000    0.000000    0.706848
  H      0.000000    0.000000   -0.706848

 Total Charge           Charge          ....    0
 Multiplicity           Mult            ....    1
 Number of Electrons    NEL             ....   36
 Basis Dimension        Dim             ....   34

ORBITAL ENERGIES
----------------

  NO   OCC          E(Eh)            E(eV)
   0   2.0000    -484.533821    -13184.8356
   1   2.0000     -63.197979     -1719.7044
   2   2.0000     -56.901776     -1548.3760
   3   2.0000     -56.900165     -1548.3322
   4   2.0000     -56.900165     -1548.3322
   5   2.0000      -9.027604      -245.6536
   6   2.0000      -6.802333      -185.1009
   7   2.0000      -6.789430      -184.7498
   8   2.0000      -6.789430      -184.7498
   9   2.0000      -2.816220       -76.6332
  10   2.0000      -2.811738       -76.5113
  11   2.0000      -2.811738       -76.5113
  12   2.0000      -2.800957       -76.2179
  13   2.0000      -2.800955       -76.2179
  14   2.0000      -0.876035       -23.8381
  15   2.0000      -0.498858       -13.5746
  16   2.0000      -0.352730        -9.5983
  17   2.0000      -0.352730        -9.5983
  18   0.0000       0.036288         0.9875
  19   0.0000       0.342214         9.3121
  20   0.0000       0.517611        14.0849
  21   0.0000       0.537039        14.6136
  22   0.0000       0.537039        14.6136

MULLIKEN ATOMIC CHARGES
-----------------------
   0 Br:   -0.250029
   1 H :    0.250029
Sum of atomic charges:    0.0000000

LOEWDIN ATOMIC CHARGES
----------------------
   0 Br:   -0.165027
   1 H :    0.165027

  Mayer bond orders larger than 0.100000
B(  0-Br,  1-H ) :   0.9147

Dispersion correction           -0.000184816
FINAL SINGLE POINT ENERGY     -2573.605601347669

DIPOLE MOMENT
-------------
                                X             Y             Z
Electronic contribution:      0.00000      -0.00000       1.02545
Nuclear contribution   :      0.00000       0.00000      -1.47331
                        -----------------------------------------
Total Dipole Moment    :      0.00000      -0.00000      -0.44785
                        -----------------------------------------
Magnitude (a.u.)       :      0.44785
Magnitude (Debye)      :      1.13835

Rotational constants in cm-1:     0.000000     8.473611     8.473611
Rotational constants in MHz :     0.000000 254032.456825 254032.456825

                             ****ORCA TERMINATED NORMALLY****
TOTAL RUN TIME: 0 days 0 hours 0 minutes 59 seconds 974 msec
