                         Program Version 5.0.3 -  RELEASE  -
|  1> ! PBEh-3c def2/J TightSCF DefGrid3
|  2>
|  3> %maxcore 60000
|  4>
|  5> %pal
|  6> nprocs 4
|  7> end
|  8>
|  9> *xyzfile 0 1 ISO_P36.xyz
| 10>
| 11>                          ****END OF INPUT****

CARTESIAN COORDINATES (ANGSTROEM)
---------------------------------
  O     -0.017734    2.661046    0.000000
  C      0.040450    1.439466    0.000000
  C      1.239759    0.624560    0.000000
  C      1.180164   -0.735011    0.000000
  C     -0.065598   -1.425039    0.000000
  C     -1.205312   -0.685752    0.000000
  N     -1.145009    0.674989    0.000000
  H      2.180170    1.158323    0.000000
  H      2.099033   -1.310737    0.000000
  H     -0.113649   -2.503838    0.000000
  H     -2.196528   -1.119553    0.000000
  H     -1.995747    1.221546    0.000000

 Total Charge           Charge          ....    0
 Multiplicity           Mult            ....    1
 Number of Electrons    NEL             ....   50
 Basis Dimension        Dim             ....  115

ORBITAL ENERGIES
----------------

  NO   OCC          E(Eh)            E(eV)
   0   2.0000     -19.450557      -529.2766
   1   2.0000     -14.700965      -400.0336
   2   2.0000     -10.550873      -287.1039
   3   2.0000     -10.515726      -286.1475
   4   2.0000     -10.476708      -285.0857
   5   2.0000     -10.457762      -284.5702
   6   2.0000     -10.453358      -284.4503
   7   2.0000      -1.143564       -31.1180
   8   2.0000      -1.061977       -28.8979
   9   2.0000      -0.917759       -24.9735
  10   2.0000      -0.851408       -23.1680
  11   2.0000      -0.735848       -20.0234
  12   2.0000      -0.716817       -19.5056
  13   2.0000      -0.634455       -17.2644
  14   2.0000      -0.575582       -15.6624
  15   2.0000      -0.556139       -15.1333
  16   2.0000      -0.527286       -14.3482
  17   2.0000      -0.501642       -13.6504
  18   2.0000      -0.490265       -13.3408
  19   2.0000      -0.451289       -12.2802
  20   2.0000      -0.435611       -11.8536
  21   2.0000      -0.399228       -10.8635
  22   2.0000      -0.357649        -9.7321
  23   2.0000      -0.311042        -8.4639
  24   2.0000      -0.261037        -7.1032
  25   0.0000      -0.021366        -0.5814
  26   0.0000       0.039172         1.0659
  27   0.0000       0.111032         3.0213
  28   0.0000       0.164255         4.4696
  29   0.0000       0.179999         4.8980

MULLIKEN ATOMIC CHARGES
-----------------------
   0 O :   -0.424289
   1 C :    0.541452
   2 C :   -0.417877
   3 C :   -0.100549
   4 C :   -0.366129
   5 C :    0.071471
   6 N :   -0.670734
   7 H :    0.253691
   8 H :    0.238160
   9 H :    0.236571
  10 H :    0.258569
  11 H :    0.379664
Sum of atomic charges:   -0.0000000

LOEWDIN ATOMIC CHARGES
----------------------
   0 O :   -0.280486
   1 C :    0.104028
   2 C :   -0.190393
   3 C :   -0.089754
   4 C :   -0.216782
   5 C :   -0.027863
   6 N :   -0.159453
   7 H :    0.154020
   8 H :    0.143912
   9 H :    0.146146
  10 H :    0.142815
  11 H :    0.273811

  Mayer bond orders larger than 0.100000
B(  0-O ,  1-C ) :   1.9990 B(  1-C ,  2-C ) :   1.1022 B(  1-C ,  6-N ) :   0.9880
B(  2-C ,  3-C ) :   1.5822 B(  2-C ,  7-H ) :   0.9121 B(  3-C ,  4-C ) :   1.2153
B(  3-C ,  8-H ) :   0.9177 B(  4-C ,  5-C ) :   1.6010 B(  4-C ,  9-H ) :   0.9144
B(  5-C ,  6-N ) :   1.1503 B(  5-C , 10-H ) :   0.9014 B(  6-N , 11-H ) :   0.8096

Dispersion correction           -0.006047422
FINAL SINGLE POINT ENERGY      -322.815546210625

DIPOLE MOMENT
-------------
                                X             Y             Z
Electronic contribution:     -0.68390       2.76976       0.00000
Nuclear contribution   :      0.07052      -4.33800       0.00000
                        -----------------------------------------
Total Dipole Moment    :     -0.61338      -1.56824       0.00000
                        -----------------------------------------
Magnitude (a.u.)       :      1.68393
Magnitude (Debye)      :      4.28020

Rotational constants in cm-1:     0.189076     0.093102     0.062384
Rotational constants in MHz :  5668.353820  2791.114245  1870.214885

                             ****ORCA TERMINATED NORMALLY****
TOTAL RUN TIME: 0 days 0 hours 1 minutes 9 seconds 3 msec
