                         Program Version 5.0.3 -  RELEASE  -
|  1> ! PBEh-3c def2/J TightSCF DefGrid3
|  2>
|  3> %maxcore 60000
|  4>
|  5> %pal
|  6> nprocs 4
|  7> end
|  8>
|  9> *xyzfile 0 1 62.xyz
| 10>
| 11>                          ****END OF INPUT****

CARTESIAN COORDINATES (ANGSTROEM)
---------------------------------
  C      0.000000    0.000000    0.000000
  Cl     1.033446   -1.033446    1.033446
  Cl    -1.033446    1.033446    1.033446
  Cl    -1.033446   -1.033446   -1.033446
  Cl     1.033446    1.033446   -1.033446

 Total Charge           Charge          ....    0
 Multiplicity           Mult            ....    1
 Number of Electrons    NEL             ....   74
 Basis Dimension        Dim             ....   87

ORBITAL ENERGIES
----------------

  NO   OCC          E(Eh)            E(eV)
   0   2.0000    -102.340300     -2784.8211
   1   2.0000    -102.340300     -2784.8211
   2   2.0000    -102.340300     -2784.8211
   3   2.0000    -102.340179     -2784.8178
   4   2.0000     -10.696903      -291.0775
   5   2.0000      -9.808038      -266.8903
   6   2.0000      -9.808038      -266.8903
   7   2.0000      -9.808038      -266.8903
   8   2.0000      -9.807976      -266.8886
   9   2.0000      -7.496343      -203.9859
  10   2.0000      -7.496343      -203.9859
  11   2.0000      -7.496343      -203.9859
  12   2.0000      -7.496298      -203.9846
  13   2.0000      -7.486690      -203.7232
  14   2.0000      -7.486690      -203.7232
  15   2.0000      -7.486690      -203.7232
  16   2.0000      -7.486673      -203.7227
  17   2.0000      -7.486673      -203.7227
  18   2.0000      -7.486673      -203.7227
  19   2.0000      -7.486668      -203.7226
  20   2.0000      -7.486668      -203.7226
  21   2.0000      -1.078598       -29.3501
  22   2.0000      -0.944886       -25.7117
  23   2.0000      -0.944886       -25.7117
  24   2.0000      -0.944886       -25.7117
  25   2.0000      -0.702603       -19.1188
  26   2.0000      -0.561647       -15.2832
  27   2.0000      -0.561647       -15.2832
  28   2.0000      -0.561647       -15.2832
  29   2.0000      -0.432786       -11.7767
  30   2.0000      -0.432786       -11.7767
  31   2.0000      -0.403309       -10.9746
  32   2.0000      -0.403309       -10.9746
  33   2.0000      -0.403309       -10.9746
  34   2.0000      -0.372479       -10.1357
  35   2.0000      -0.372479       -10.1357
  36   2.0000      -0.372479       -10.1357
  37   0.0000      -0.033128        -0.9015
  38   0.0000       0.028150         0.7660
  39   0.0000       0.028150         0.7660
  40   0.0000       0.028150         0.7660
  41   0.0000       0.362208         9.8562

MULLIKEN ATOMIC CHARGES
-----------------------
   0 C :   -0.156801
   1 Cl:    0.039200
   2 Cl:    0.039200
   3 Cl:    0.039200
   4 Cl:    0.039200
Sum of atomic charges:    0.0000000

LOEWDIN ATOMIC CHARGES
----------------------
   0 C :   -0.321899
   1 Cl:    0.080475
   2 Cl:    0.080475
   3 Cl:    0.080475
   4 Cl:    0.080475

  Mayer bond orders larger than 0.100000
B(  0-C ,  1-Cl) :   1.0083 B(  0-C ,  2-Cl) :   1.0083 B(  0-C ,  3-Cl) :   1.0083
B(  0-C ,  4-Cl) :   1.0083

Dispersion correction           -0.003395743
FINAL SINGLE POINT ENERGY     -1876.798549919836

DIPOLE MOMENT
-------------
                                X             Y             Z
Electronic contribution:      0.00000      -0.00000      -0.00000
Nuclear contribution   :      0.00000       0.00000       0.00000
                        -----------------------------------------
Total Dipole Moment    :      0.00000      -0.00000      -0.00000
                        -----------------------------------------
Magnitude (a.u.)       :      0.00000
Magnitude (Debye)      :      0.00000

Rotational constants in cm-1:     0.055652     0.055652     0.055652
Rotational constants in MHz :  1668.396296  1668.396296  1668.396296

                             ****ORCA TERMINATED NORMALLY****
TOTAL RUN TIME: 0 days 0 hours 0 minutes 28 seconds 100 msec
