                         Program Version 5.0.3 -  RELEASE  -
|  1> ! PBEh-3c def2/J TightSCF DefGrid3
|  2>
|  3> %maxcore 60000
|  4>
|  5> %pal
|  6> nprocs 4
|  7> end
|  8>
|  9> *xyzfile 0 1 h1.xyz
| 10>
| 11>                          ****END OF INPUT****

CARTESIAN COORDINATES (ANGSTROEM)
---------------------------------
  C     -1.936737   -0.129510   -0.567435
  C     -0.564461    0.522540   -0.428813
  C     -0.544165    1.437386    0.792596
  C      0.564461   -0.522540   -0.428813
  C      0.544165   -1.437386    0.792596
  C      1.936737    0.129510   -0.567435
  H     -2.186038   -0.712916    0.318885
  H     -2.712854    0.626103   -0.688904
  H     -1.974183   -0.794284   -1.430759
  H     -0.403889    1.145056   -1.314939
  H     -0.764747    0.878613    1.702285
  H     -1.303355    2.213217    0.694478
  H      0.417527    1.931239    0.922607
  H      0.403889   -1.145056   -1.314939
  H      0.764747   -0.878613    1.702285
  H     -0.417527   -1.931239    0.922607
  H      1.303355   -2.213217    0.694478
  H      2.186038    0.712916    0.318885
  H      2.712854   -0.626103   -0.688904
  H      1.974183    0.794284   -1.430759

 Total Charge           Charge          ....    0
 Multiplicity           Mult            ....    1
 Number of Electrons    NEL             ....   50
 Basis Dimension        Dim             ....  118

ORBITAL ENERGIES
----------------

  NO   OCC          E(Eh)            E(eV)
   0   2.0000     -10.434955      -283.9496
   1   2.0000     -10.434734      -283.9435
   2   2.0000     -10.417322      -283.4697
   3   2.0000     -10.417291      -283.4689
   4   2.0000     -10.416958      -283.4598
   5   2.0000     -10.416935      -283.4592
   6   2.0000      -0.912622       -24.8337
   7   2.0000      -0.832466       -22.6525
   8   2.0000      -0.765090       -20.8192
   9   2.0000      -0.755565       -20.5600
  10   2.0000      -0.685260       -18.6469
  11   2.0000      -0.599586       -16.3156
  12   2.0000      -0.532677       -14.4949
  13   2.0000      -0.503976       -13.7139
  14   2.0000      -0.500966       -13.6320
  15   2.0000      -0.461900       -12.5689
  16   2.0000      -0.450941       -12.2707
  17   2.0000      -0.437911       -11.9162
  18   2.0000      -0.423396       -11.5212
  19   2.0000      -0.423306       -11.5187
  20   2.0000      -0.395575       -10.7641
  21   2.0000      -0.393225       -10.7002
  22   2.0000      -0.358956        -9.7677
  23   2.0000      -0.357900        -9.7390
  24   2.0000      -0.350538        -9.5386
  25   0.0000       0.124741         3.3944
  26   0.0000       0.170776         4.6470
  27   0.0000       0.171969         4.6795
  28   0.0000       0.188242         5.1223
  29   0.0000       0.189211         5.1487

MULLIKEN ATOMIC CHARGES
-----------------------
   0 C :   -0.632580
   1 C :   -0.216648
   2 C :   -0.643895
   3 C :   -0.216648
   4 C :   -0.643894
   5 C :   -0.632581
   6 H :    0.206642
   7 H :    0.217620
   8 H :    0.213929
   9 H :    0.207127
  10 H :    0.209843
  11 H :    0.218895
  12 H :    0.219066
  13 H :    0.207127
  14 H :    0.209843
  15 H :    0.219066
  16 H :    0.218895
  17 H :    0.206642
  18 H :    0.217620
  19 H :    0.213929
Sum of atomic charges:    0.0000000

LOEWDIN ATOMIC CHARGES
----------------------
   0 C :   -0.353323
   1 C :   -0.157804
   2 C :   -0.356242
   3 C :   -0.157804
   4 C :   -0.356242
   5 C :   -0.353323
   6 H :    0.122298
   7 H :    0.126155
   8 H :    0.124240
   9 H :    0.119003
  10 H :    0.123788
  11 H :    0.127248
  12 H :    0.124637
  13 H :    0.119003
  14 H :    0.123788
  15 H :    0.124637
  16 H :    0.127248
  17 H :    0.122298
  18 H :    0.126155
  19 H :    0.124240

  Mayer bond orders larger than 0.100000
B(  0-C ,  1-C ) :   0.9939 B(  0-C ,  6-H ) :   0.9241 B(  0-C ,  7-H ) :   0.9300
B(  0-C ,  8-H ) :   0.9311 B(  1-C ,  2-C ) :   0.9824 B(  1-C ,  3-C ) :   0.9670
B(  1-C ,  9-H ) :   0.9133 B(  2-C , 10-H ) :   0.9249 B(  2-C , 11-H ) :   0.9287
B(  2-C , 12-H ) :   0.9274 B(  3-C ,  4-C ) :   0.9824 B(  3-C ,  5-C ) :   0.9939
B(  3-C , 13-H ) :   0.9133 B(  4-C , 14-H ) :   0.9249 B(  4-C , 15-H ) :   0.9274
B(  4-C , 16-H ) :   0.9287 B(  5-C , 17-H ) :   0.9241 B(  5-C , 18-H ) :   0.9300
B(  5-C , 19-H ) :   0.9311

Dispersion correction           -0.009810162
FINAL SINGLE POINT ENERGY      -236.564240208886

DIPOLE MOMENT
-------------
                                X             Y             Z
Electronic contribution:     -0.00000       0.00000      -1.11000
Nuclear contribution   :     -0.00000       0.00000       1.06516
                        -----------------------------------------
Total Dipole Moment    :     -0.00000       0.00000      -0.04484
                        -----------------------------------------
Magnitude (a.u.)       :      0.04484
Magnitude (Debye)      :      0.11398

Rotational constants in cm-1:     0.143300     0.086561     0.075339
Rotational constants in MHz :  4296.024879  2595.041493  2258.595338

                             ****ORCA TERMINATED NORMALLY****
TOTAL RUN TIME: 0 days 0 hours 1 minutes 33 seconds 722 msec
