                         Program Version 5.0.3 -  RELEASE  -
|  1> ! PBEh-3c def2/J TightSCF DefGrid3
|  2>
|  3> %maxcore 60000
|  4>
|  5> %pal
|  6> nprocs 4
|  7> end
|  8>
|  9> *xyzfile 0 1 PH3.xyz
| 10>
| 11>                          ****END OF INPUT****

CARTESIAN COORDINATES (ANGSTROEM)
---------------------------------
  P      0.000000    0.000000    0.568849
  H      0.595671    1.031732   -0.189616
  H      0.595671   -1.031732   -0.189616
  H     -1.191342    0.000000   -0.189616

 Total Charge           Charge          ....    0
 Multiplicity           Mult            ....    1
 Number of Electrons    NEL             ....   18
 Basis Dimension        Dim             ....   24

ORBITAL ENERGIES
----------------

  NO   OCC          E(Eh)            E(eV)
   0   2.0000     -77.726836     -2115.0547
   1   2.0000      -6.807957      -185.2539
   2   2.0000      -4.898085      -133.2837
   3   2.0000      -4.898085      -133.2837
   4   2.0000      -4.896120      -133.2302
   5   2.0000      -0.719512       -19.5789
   6   2.0000      -0.437508       -11.9052
   7   2.0000      -0.437508       -11.9052
   8   2.0000      -0.315639        -8.5890
   9   0.0000       0.072550         1.9742
  10   0.0000       0.072552         1.9742
  11   0.0000       0.164359         4.4724
  12   0.0000       0.382531        10.4092
  13   0.0000       0.512402        13.9432

MULLIKEN ATOMIC CHARGES
-----------------------
   0 P :   -0.260094
   1 H :    0.086699
   2 H :    0.086699
   3 H :    0.086696
Sum of atomic charges:   -0.0000000

LOEWDIN ATOMIC CHARGES
----------------------
   0 P :   -0.094255
   1 H :    0.031420
   2 H :    0.031420
   3 H :    0.031415

  Mayer bond orders larger than 0.100000
B(  0-P ,  1-H ) :   0.9627 B(  0-P ,  2-H ) :   0.9627 B(  0-P ,  3-H ) :   0.9627

Dispersion correction           -0.000715557
FINAL SINGLE POINT ENERGY      -342.730784914173

DIPOLE MOMENT
-------------
                                X             Y             Z
Electronic contribution:     -0.00001      -0.00000       1.59256
Nuclear contribution   :      0.00000       0.00000      -2.00512
                        -----------------------------------------
Total Dipole Moment    :     -0.00001      -0.00000      -0.41256
                        -----------------------------------------
Magnitude (a.u.)       :      0.41256
Magnitude (Debye)      :      1.04865

Rotational constants in cm-1:     4.518436     4.518436     3.927736
Rotational constants in MHz : 135459.297626 135459.294433 117750.551850

                             ****ORCA TERMINATED NORMALLY****
TOTAL RUN TIME: 0 days 0 hours 0 minutes 31 seconds 691 msec
