                         Program Version 5.0.3 -  RELEASE  -
|  1> ! PBEh-3c def2/J TightSCF DefGrid3
|  2>
|  3> %maxcore 60000
|  4>
|  5> %pal
|  6> nprocs 4
|  7> end
|  8>
|  9> *xyzfile 1 1 E33.xyz
| 10>
| 11>                          ****END OF INPUT****

CARTESIAN COORDINATES (ANGSTROEM)
---------------------------------
  C      0.000000    0.000000   -0.971089
  P      0.000000    0.000000    0.844095
  H     -0.651677    1.128738    1.370201
  H     -0.651677   -1.128738    1.370201
  H      1.303354    0.000000    1.370201
  H     -1.030386    0.000000   -1.327870
  H      0.515193    0.892340   -1.327870
  H      0.515193   -0.892340   -1.327870

 Total Charge           Charge          ....    1
 Multiplicity           Mult            ....    1
 Number of Electrons    NEL             ....   26
 Basis Dimension        Dim             ....   45

ORBITAL ENERGIES
----------------

  NO   OCC          E(Eh)            E(eV)
   0   2.0000     -78.037152     -2123.4989
   1   2.0000     -10.675741      -290.5017
   2   2.0000      -7.117605      -193.6799
   3   2.0000      -5.208098      -141.7196
   4   2.0000      -5.208097      -141.7195
   5   2.0000      -5.207526      -141.7040
   6   2.0000      -1.077334       -29.3157
   7   2.0000      -0.946238       -25.7484
   8   2.0000      -0.743927       -20.2433
   9   2.0000      -0.743925       -20.2432
  10   2.0000      -0.678134       -18.4530
  11   2.0000      -0.674286       -18.3482
  12   2.0000      -0.674285       -18.3482
  13   0.0000      -0.162061        -4.4099
  14   0.0000      -0.156996        -4.2721
  15   0.0000      -0.156994        -4.2720
  16   0.0000      -0.104259        -2.8370
  17   0.0000      -0.018778        -0.5110

MULLIKEN ATOMIC CHARGES
-----------------------
   0 C :   -0.875332
   1 P :    0.244939
   2 H :    0.212354
   3 H :    0.212354
   4 H :    0.212325
   5 H :    0.331117
   6 H :    0.331122
   7 H :    0.331122
Sum of atomic charges:    1.0000000

LOEWDIN ATOMIC CHARGES
----------------------
   0 C :   -0.504153
   1 P :    0.575422
   2 H :    0.115524
   3 H :    0.115524
   4 H :    0.115513
   5 H :    0.194056
   6 H :    0.194058
   7 H :    0.194058

  Mayer bond orders larger than 0.100000
B(  0-C ,  1-P ) :   1.0247 B(  0-C ,  5-H ) :   0.8565 B(  0-C ,  6-H ) :   0.8565
B(  0-C ,  7-H ) :   0.8565 B(  1-P ,  2-H ) :   0.9139 B(  1-P ,  3-H ) :   0.9139
B(  1-P ,  4-H ) :   0.9139

Dispersion correction           -0.002426701
FINAL SINGLE POINT ENERGY      -382.292636901959

DIPOLE MOMENT
-------------
                                X             Y             Z
Electronic contribution:      0.00001       0.00000       2.36805
Nuclear contribution   :     -0.00000       0.00000      -2.04600
                        -----------------------------------------
Total Dipole Moment    :      0.00001       0.00000       0.32205
                        -----------------------------------------
Magnitude (a.u.)       :      0.32205
Magnitude (Debye)      :      0.81859

Rotational constants in cm-1:     2.019477     0.381172     0.381172
Rotational constants in MHz : 60542.411967 11427.246516 11427.246492

                             ****ORCA TERMINATED NORMALLY****
TOTAL RUN TIME: 0 days 0 hours 0 minutes 50 seconds 229 msec
