                         Program Version 5.0.3 -  RELEASE  -
|  1> ! PBEh-3c def2/J TightSCF DefGrid3
|  2>
|  3> %maxcore 60000
|  4>
|  5> %pal
|  6> nprocs 4
|  7> end
|  8>
|  9> *xyzfile 0 2 P32.xyz
| 10>
| 11>                          ****END OF INPUT****

CARTESIAN COORDINATES (ANGSTROEM)
---------------------------------
  C     -0.426340    0.075133    0.000000
  O      0.940114    0.187157    0.000000
  H      1.366710   -0.678777    0.000000
  H     -0.940242    0.208243   -0.945554
  H     -0.940242    0.208243    0.945554

 Total Charge           Charge          ....    0
 Multiplicity           Mult            ....    2
 Number of Electrons    NEL             ....   17
 Basis Dimension        Dim             ....   36

ORBITAL ENERGIES
----------------
                 SPIN UP ORBITALS
  NO   OCC          E(Eh)            E(eV)
   0   1.0000     -19.505833      -530.7807
   1   1.0000     -10.488558      -285.4082
   2   1.0000      -1.147131       -31.2150
   3   1.0000      -0.753100       -20.4929
   4   1.0000      -0.575462       -15.6591
   5   1.0000      -0.524850       -14.2819
   6   1.0000      -0.480462       -13.0740
   7   1.0000      -0.345962        -9.4141
   8   1.0000      -0.255510        -6.9528
   9   0.0000       0.132343         3.6012
  10   0.0000       0.178578         4.8593
  11   0.0000       0.249247         6.7824
  12   0.0000       0.268155         7.2969
  13   0.0000       0.519504        14.1364

                 SPIN DOWN ORBITALS
  NO   OCC          E(Eh)            E(eV)
   0   1.0000     -19.503755      -530.7242
   1   1.0000     -10.471956      -284.9564
   2   1.0000      -1.137687       -30.9580
   3   1.0000      -0.713795       -19.4233
   4   1.0000      -0.556872       -15.1533
   5   1.0000      -0.514031       -13.9875
   6   1.0000      -0.449485       -12.2311
   7   1.0000      -0.343056        -9.3350
   8   0.0000       0.000639         0.0174
   9   0.0000       0.140636         3.8269
  10   0.0000       0.195182         5.3112
  11   0.0000       0.265073         7.2130
  12   0.0000       0.277047         7.5388

MULLIKEN ATOMIC CHARGES AND SPIN POPULATIONS
--------------------------------------------
   0 C :   -0.219422    1.069653
   1 O :   -0.589771    0.023639
   2 H :    0.434237    0.025465
   3 H :    0.187478   -0.059378
   4 H :    0.187478   -0.059378
Sum of atomic charges         :   -0.0000000

LOEWDIN ATOMIC CHARGES AND SPIN POPULATIONS
-------------------------------------------
   0 C :   -0.158487    0.963354
   1 O :   -0.374551    0.067920
   2 H :    0.323262    0.027702
   3 H :    0.104888   -0.029488
   4 H :    0.104888   -0.029488

  Mayer bond orders larger than 0.100000
B(  0-C ,  1-O ) :   1.1166 B(  0-C ,  3-H ) :   0.9005 B(  0-C ,  4-H ) :   0.9005
B(  1-O ,  2-H ) :   0.7699

Dispersion correction           -0.000829924
FINAL SINGLE POINT ENERGY      -114.801793958491

DIPOLE MOMENT
-------------
                                X             Y             Z
Electronic contribution:      1.23486       0.01170       0.00000
Nuclear contribution   :     -1.32529      -0.57446       0.00000
                        -----------------------------------------
Total Dipole Moment    :     -0.09043      -0.56277       0.00000
                        -----------------------------------------
Magnitude (a.u.)       :      0.56999
Magnitude (Debye)      :      1.44879

Rotational constants in cm-1:     6.591813     0.942042     0.889946
Rotational constants in MHz : 197617.591358 28241.714183 26679.905156

                             ****ORCA TERMINATED NORMALLY****
TOTAL RUN TIME: 0 days 0 hours 2 minutes 29 seconds 977 msec
