                         Program Version 5.0.3 -  RELEASE  -
|  1> ! PBEh-3c def2/J TightSCF DefGrid3
|  2>
|  3> %maxcore 60000
|  4>
|  5> %pal
|  6> nprocs 4
|  7> end
|  8>
|  9> *xyzfile 0 1 23_benBr-Nm3B.xyz
| 10>
| 11>                          ****END OF INPUT****

CARTESIAN COORDINATES (ANGSTROEM)
---------------------------------
  N     -4.443847    0.003241    3.917575
  C     -5.269667   -1.075484    3.409420
  C     -4.151048   -0.203417    5.323037
  C     -5.102631    1.280426    3.720892
  H     -5.062163   -0.220700    5.941925
  H     -3.629556   -1.150341    5.453179
  H     -3.505905    0.595924    5.684173
  H     -6.064049    1.341711    4.255123
  H     -4.459570    2.083221    4.077923
  H     -5.289110    1.436927    2.659644
  H     -6.239899   -1.138942    3.927201
  H     -5.456675   -0.924672    2.347429
  H     -4.750743   -2.024429    3.534754

 Total Charge           Charge          ....    0
 Multiplicity           Mult            ....    1
 Number of Electrons    NEL             ....   34
 Basis Dimension        Dim             ....   78

ORBITAL ENERGIES
----------------

  NO   OCC          E(Eh)            E(eV)
   0   2.0000     -14.622875      -397.9087
   1   2.0000     -10.446427      -284.2617
   2   2.0000     -10.446424      -284.2617
   3   2.0000     -10.446354      -284.2597
   4   2.0000      -1.018494       -27.7146
   5   2.0000      -0.783243       -21.3131
   6   2.0000      -0.783218       -21.3124
   7   2.0000      -0.659978       -17.9589
   8   2.0000      -0.526965       -14.3394
   9   2.0000      -0.522686       -14.2230
  10   2.0000      -0.522658       -14.2222
  11   2.0000      -0.444162       -12.0863
  12   2.0000      -0.444154       -12.0860
  13   2.0000      -0.418072       -11.3763
  14   2.0000      -0.406833       -11.0705
  15   2.0000      -0.406785       -11.0692
  16   2.0000      -0.260148        -7.0790
  17   0.0000       0.125831         3.4240
  18   0.0000       0.196888         5.3576
  19   0.0000       0.196898         5.3579
  20   0.0000       0.206762         5.6263
  21   0.0000       0.212745         5.7891

MULLIKEN ATOMIC CHARGES
-----------------------
   0 N :   -0.369574
   1 C :   -0.490508
   2 C :   -0.490469
   3 C :   -0.490495
   4 H :    0.176074
   5 H :    0.218794
   6 H :    0.218791
   7 H :    0.176067
   8 H :    0.218813
   9 H :    0.218813
  10 H :    0.176078
  11 H :    0.218791
  12 H :    0.218826
Sum of atomic charges:    0.0000000

LOEWDIN ATOMIC CHARGES
----------------------
   0 N :   -0.233688
   1 C :   -0.259094
   2 C :   -0.259085
   3 C :   -0.259090
   4 H :    0.093467
   5 H :    0.121755
   6 H :    0.121752
   7 H :    0.093472
   8 H :    0.121764
   9 H :    0.121758
  10 H :    0.093473
  11 H :    0.121749
  12 H :    0.121768

  Mayer bond orders larger than 0.100000
B(  0-N ,  1-C ) :   0.9988 B(  0-N ,  2-C ) :   0.9988 B(  0-N ,  3-C ) :   0.9988
B(  1-C , 10-H ) :   0.9058 B(  1-C , 11-H ) :   0.9283 B(  1-C , 12-H ) :   0.9283
B(  2-C ,  4-H ) :   0.9058 B(  2-C ,  5-H ) :   0.9283 B(  2-C ,  6-H ) :   0.9283
B(  3-C ,  7-H ) :   0.9058 B(  3-C ,  8-H ) :   0.9283 B(  3-C ,  9-H ) :   0.9283

Dispersion correction           -0.004884554
FINAL SINGLE POINT ENERGY      -174.087109200719

DIPOLE MOMENT
-------------
                                X             Y             Z
Electronic contribution:      1.25116       0.00850      -0.73530
Nuclear contribution   :     -1.49804      -0.01012       0.88025
                        -----------------------------------------
Total Dipole Moment    :     -0.24688      -0.00162       0.14495
                        -----------------------------------------
Magnitude (a.u.)       :      0.28629
Magnitude (Debye)      :      0.72770

Rotational constants in cm-1:     0.293805     0.293733     0.167278
Rotational constants in MHz :  8808.060211  8805.894355  5014.879090

                             ****ORCA TERMINATED NORMALLY****
TOTAL RUN TIME: 0 days 0 hours 1 minutes 14 seconds 546 msec
