                         Program Version 5.0.3 -  RELEASE  -
|  1> ! PBEh-3c def2/J TightSCF DefGrid3
|  2>
|  3> %maxcore 60000
|  4>
|  5> %pal
|  6> nprocs 4
|  7> end
|  8>
|  9> *xyzfile 1 1 i23e.xyz
| 10>
| 11>                          ****END OF INPUT****

CARTESIAN COORDINATES (ANGSTROEM)
---------------------------------
  N     -0.072979    1.949233   -0.475905
  C      0.869074    1.083237    0.445402
  C      0.120826   -0.292251    0.428735
  C     -1.312398    0.074710    0.255694
  C     -1.425443    1.348582   -0.299312
  C      2.270761    0.756020   -0.134277
  C      2.226310   -0.795565   -0.236409
  C      2.132942   -1.373361    1.208252
  C      0.641258   -1.110202    1.625852
  C      0.800250   -1.056101   -0.799684
  C     -2.627316    1.941639   -0.649870
  C     -3.792119    1.200066   -0.417390
  C     -3.704190   -0.084615    0.141104
  C     -2.471466   -0.662997    0.482223
  C      0.903964    1.830765    1.775204
  C      0.386963   -2.538467   -0.884738
  C      0.530054   -0.468986   -2.202653
  Cl    -5.172275   -0.988943    0.425388
  H     -2.429895   -1.656965    0.917198
  H     -4.763500    1.618795   -0.661946
  H     -2.685974    2.938744   -1.080625
  H      0.225444    1.883876   -1.454891
  H     -0.045578    2.935456   -0.199346
  H      0.543229   -0.575557    2.573226
  H      0.075820   -2.039541    1.726059
  H      2.841846   -0.879225    1.881663
  H      2.361357   -2.442324    1.216696
  H      3.048475   -1.210580   -0.826852
  H      3.057281    1.104398    0.542452
  H      2.449611    1.227236   -1.107327
  H      1.335838    2.830980    1.631633
  H     -0.096624    1.923412    2.215388
  H      1.549832    1.299886    2.478038
  H     -0.546296   -0.326096   -2.364459
  H      1.056429    0.469976   -2.416411
  H      0.880636   -1.171268   -2.966535
  H     -0.684892   -2.615265   -1.109870
  H      0.932939   -3.019038   -1.704830
  H      0.589800   -3.109667    0.023124

 Total Charge           Charge          ....    1
 Multiplicity           Mult            ....    1
 Number of Electrons    NEL             ....  140
 Basis Dimension        Dim             ....  315

ORBITAL ENERGIES
----------------

  NO   OCC          E(Eh)            E(eV)
   0   2.0000    -102.418878     -2786.9594
   1   2.0000     -14.920297      -406.0019
   2   2.0000     -10.672194      -290.4052
   3   2.0000     -10.654269      -289.9174
   4   2.0000     -10.652499      -289.8692
   5   2.0000     -10.616874      -288.8998
   6   2.0000     -10.616263      -288.8832
   7   2.0000     -10.613798      -288.8161
   8   2.0000     -10.602741      -288.5152
   9   2.0000     -10.601505      -288.4816
  10   2.0000     -10.599351      -288.4230
  11   2.0000     -10.591056      -288.1973
  12   2.0000     -10.587101      -288.0897
  13   2.0000     -10.581929      -287.9489
  14   2.0000     -10.573682      -287.7245
  15   2.0000     -10.566054      -287.5170
  16   2.0000     -10.564944      -287.4867
  17   2.0000     -10.547842      -287.0214
  18   2.0000      -9.885873      -269.0083
  19   2.0000      -7.573809      -206.0938
  20   2.0000      -7.565134      -205.8578
  21   2.0000      -7.564780      -205.8481
  22   2.0000      -1.272281       -34.6205
  23   2.0000      -1.127669       -30.6854
  24   2.0000      -1.120175       -30.4815
  25   2.0000      -1.065551       -28.9951
  26   2.0000      -1.020398       -27.7664
  27   2.0000      -1.011744       -27.5309
  28   2.0000      -0.977548       -26.6004
  29   2.0000      -0.966709       -26.3055
  30   2.0000      -0.952715       -25.9247
  31   2.0000      -0.921242       -25.0683
  32   2.0000      -0.889010       -24.1912
  33   2.0000      -0.865211       -23.5436
  34   2.0000      -0.843986       -22.9660
  35   2.0000      -0.822105       -22.3706
  36   2.0000      -0.814731       -22.1699
  37   2.0000      -0.805024       -21.9058
  38   2.0000      -0.765750       -20.8371
  39   2.0000      -0.752984       -20.4897
  40   2.0000      -0.728677       -19.8283
  41   2.0000      -0.709001       -19.2929
  42   2.0000      -0.683596       -18.6016
  43   2.0000      -0.674528       -18.3548
  44   2.0000      -0.661753       -18.0072
  45   2.0000      -0.660142       -17.9634
  46   2.0000      -0.647887       -17.6299
  47   2.0000      -0.639571       -17.4036
  48   2.0000      -0.627765       -17.0824
  49   2.0000      -0.614030       -16.7086
  50   2.0000      -0.597603       -16.2616
  51   2.0000      -0.595553       -16.2058
  52   2.0000      -0.591712       -16.1013
  53   2.0000      -0.587222       -15.9791
  54   2.0000      -0.574975       -15.6459
  55   2.0000      -0.571434       -15.5495
  56   2.0000      -0.565825       -15.3969
  57   2.0000      -0.554871       -15.0988
  58   2.0000      -0.543400       -14.7867
  59   2.0000      -0.542209       -14.7543
  60   2.0000      -0.531078       -14.4514
  61   2.0000      -0.521849       -14.2002
  62   2.0000      -0.511527       -13.9193
  63   2.0000      -0.504444       -13.7266
  64   2.0000      -0.502608       -13.6767
  65   2.0000      -0.490831       -13.3562
  66   2.0000      -0.480687       -13.0802
  67   2.0000      -0.476291       -12.9605
  68   2.0000      -0.437087       -11.8937
  69   2.0000      -0.418841       -11.3973
  70   0.0000      -0.144750        -3.9389
  71   0.0000      -0.139130        -3.7859
  72   0.0000      -0.066583        -1.8118
  73   0.0000      -0.052887        -1.4391
  74   0.0000      -0.041588        -1.1317

MULLIKEN ATOMIC CHARGES
-----------------------
   0 N :   -0.785089
   1 C :    0.105135
   2 C :   -0.124795
   3 C :    0.240630
   4 C :    0.218634
   5 C :   -0.458737
   6 C :   -0.219152
   7 C :   -0.443017
   8 C :   -0.443917
   9 C :   -0.016400
  10 C :   -0.256244
  11 C :   -0.208181
  12 C :    0.000102
  13 C :   -0.321970
  14 C :   -0.663305
  15 C :   -0.640964
  16 C :   -0.690458
  17 Cl:   -0.039059
  18 H :    0.268487
  19 H :    0.290520
  20 H :    0.264617
  21 H :    0.433915
  22 H :    0.430610
  23 H :    0.261242
  24 H :    0.262895
  25 H :    0.245678
  26 H :    0.268046
  27 H :    0.257068
  28 H :    0.277029
  29 H :    0.247899
  30 H :    0.248923
  31 H :    0.263891
  32 H :    0.275601
  33 H :    0.249544
  34 H :    0.188812
  35 H :    0.282369
  36 H :    0.239451
  37 H :    0.250575
  38 H :    0.239617
Sum of atomic charges:    1.0000000

LOEWDIN ATOMIC CHARGES
----------------------
   0 N :   -0.109938
   1 C :    0.038839
   2 C :   -0.059161
   3 C :   -0.018139
   4 C :   -0.013166
   5 C :   -0.221923
   6 C :   -0.120916
   7 C :   -0.225215
   8 C :   -0.214244
   9 C :   -0.066440
  10 C :   -0.120412
  11 C :   -0.120967
  12 C :   -0.089108
  13 C :   -0.122831
  14 C :   -0.351922
  15 C :   -0.339680
  16 C :   -0.354874
  17 Cl:    0.136065
  18 H :    0.166685
  19 H :    0.170897
  20 H :    0.161554
  21 H :    0.292505
  22 H :    0.295224
  23 H :    0.139650
  24 H :    0.142926
  25 H :    0.135565
  26 H :    0.146285
  27 H :    0.144405
  28 H :    0.150808
  29 H :    0.137786
  30 H :    0.144770
  31 H :    0.151146
  32 H :    0.161296
  33 H :    0.142594
  34 H :    0.108846
  35 H :    0.158502
  36 H :    0.140543
  37 H :    0.145942
  38 H :    0.136106

  Mayer bond orders larger than 0.100000
B(  0-N ,  1-C ) :   0.7567 B(  0-N ,  4-C ) :   0.7247 B(  0-N , 21-H ) :   0.7586
B(  0-N , 22-H ) :   0.7889 B(  1-C ,  2-C ) :   0.9165 B(  1-C ,  5-C ) :   0.9278
B(  1-C , 14-C ) :   0.9996 B(  2-C ,  3-C ) :   0.9682 B(  2-C ,  8-C ) :   0.9876
B(  2-C ,  9-C ) :   0.8779 B(  3-C ,  4-C ) :   1.3550 B(  3-C , 13-C ) :   1.3901
B(  4-C , 10-C ) :   1.3651 B(  5-C ,  6-C ) :   0.9708 B(  5-C , 28-H ) :   0.9040
B(  5-C , 29-H ) :   0.9050 B(  6-C ,  7-C ) :   0.9593 B(  6-C ,  9-C ) :   0.9041
B(  6-C , 27-H ) :   0.9169 B(  7-C ,  8-C ) :   0.9317 B(  7-C , 25-H ) :   0.9161
B(  7-C , 26-H ) :   0.9103 B(  8-C , 23-H ) :   0.9089 B(  8-C , 24-H ) :   0.9050
B(  9-C , 15-C ) :   0.9983 B(  9-C , 16-C ) :   0.9701 B( 10-C , 11-C ) :   1.4203
B( 10-C , 20-H ) :   0.9056 B( 11-C , 12-C ) :   1.3566 B( 11-C , 19-H ) :   0.8871
B( 12-C , 13-C ) :   1.3387 B( 12-C , 17-Cl) :   1.0812 B( 13-C , 18-H ) :   0.9080
B( 14-C , 30-H ) :   0.9019 B( 14-C , 31-H ) :   0.9012 B( 14-C , 32-H ) :   0.8997
B( 15-C , 36-H ) :   0.9122 B( 15-C , 37-H ) :   0.9110 B( 15-C , 38-H ) :   0.9130
B( 16-C , 33-H ) :   0.9051 B( 16-C , 34-H ) :   0.9136 B( 16-C , 35-H ) :   0.9065

Dispersion correction           -0.032667050
FINAL SINGLE POINT ENERGY     -1135.114813984284

DIPOLE MOMENT
-------------
                                X             Y             Z
Electronic contribution:    -30.13352       0.82632       1.83897
Nuclear contribution   :     31.97645       1.29880      -2.37786
                        -----------------------------------------
Total Dipole Moment    :      1.84293       2.12512      -0.53889
                        -----------------------------------------
Magnitude (a.u.)       :      2.86407
Magnitude (Debye)      :      7.27989

Rotational constants in cm-1:     0.023756     0.009191     0.008237
Rotational constants in MHz :   712.196712   275.531480   246.924501

                             ****ORCA TERMINATED NORMALLY****
TOTAL RUN TIME: 0 days 0 hours 5 minutes 54 seconds 57 msec
