                         Program Version 5.0.3 -  RELEASE  -
|  1> ! PBEh-3c def2/J TightSCF DefGrid3
|  2>
|  3> %maxcore 60000
|  4>
|  5> %pal
|  6> nprocs 4
|  7> end
|  8>
|  9> *xyzfile 0 1 19b.xyz
| 10>
| 11>                          ****END OF INPUT****

CARTESIAN COORDINATES (ANGSTROEM)
---------------------------------
  P      0.000000    1.006189    0.000000
  F     -0.739593    2.461924    0.000000
  H     -0.775191    0.417444    1.031710
  H     -0.775191    0.417444   -1.031710

 Total Charge           Charge          ....    0
 Multiplicity           Mult            ....    1
 Number of Electrons    NEL             ....   26
 Basis Dimension        Dim             ....   37

ORBITAL ENERGIES
----------------

  NO   OCC          E(Eh)            E(eV)
   0   2.0000     -77.797772     -2116.9850
   1   2.0000     -25.084367      -682.5803
   2   2.0000      -6.867088      -186.8630
   3   2.0000      -4.958841      -134.9369
   4   2.0000      -4.956887      -134.8837
   5   2.0000      -4.955063      -134.8341
   6   2.0000      -1.303827       -35.4789
   7   2.0000      -0.723041       -19.6749
   8   2.0000      -0.541177       -14.7262
   9   2.0000      -0.525856       -14.3093
  10   2.0000      -0.500322       -13.6144
  11   2.0000      -0.418018       -11.3749
  12   2.0000      -0.318765        -8.6740
  13   0.0000       0.016609         0.4520
  14   0.0000       0.069554         1.8927
  15   0.0000       0.156846         4.2680
  16   0.0000       0.338034         9.1984
  17   0.0000       0.489177        13.3112

MULLIKEN ATOMIC CHARGES
-----------------------
   0 P :    0.368963
   1 F :   -0.462559
   2 H :    0.046798
   3 H :    0.046798
Sum of atomic charges:   -0.0000000

LOEWDIN ATOMIC CHARGES
----------------------
   0 P :    0.333775
   1 F :   -0.356151
   2 H :    0.011188
   3 H :    0.011188

  Mayer bond orders larger than 0.100000
B(  0-P ,  1-F ) :   0.8509 B(  0-P ,  2-H ) :   0.9498 B(  0-P ,  3-H ) :   0.9498

Dispersion correction           -0.000751610
FINAL SINGLE POINT ENERGY      -441.799464559561

DIPOLE MOMENT
-------------
                                X             Y             Z
Electronic contribution:      0.69197       1.84652      -0.00000
Nuclear contribution   :     -0.75236      -2.48216       0.00000
                        -----------------------------------------
Total Dipole Moment    :     -0.06039      -0.63564      -0.00000
                        -----------------------------------------
Magnitude (a.u.)       :      0.63850
Magnitude (Debye)      :      1.62293

Rotational constants in cm-1:     4.374985     0.490101     0.483930
Rotational constants in MHz : 131158.747784 14692.853670 14507.869103

                             ****ORCA TERMINATED NORMALLY****
TOTAL RUN TIME: 0 days 0 hours 0 minutes 28 seconds 826 msec
