                         Program Version 5.0.3 -  RELEASE  -
|  1> ! PBEh-3c def2/J TightSCF DefGrid3
|  2>
|  3> %maxcore 60000
|  4>
|  5> %pal
|  6> nprocs 4
|  7> end
|  8>
|  9> *xyzfile 0 1 nf3-cbh22.xyz
| 10>
| 11>                          ****END OF INPUT****

CARTESIAN COORDINATES (ANGSTROEM)
---------------------------------
  C      0.334870    0.927377    0.000000
  N      0.027628   -0.365887    0.000000
  B      0.371240    1.633256    1.370317
  B      0.371240    1.633256   -1.370317
  F      0.371240   -1.123242   -1.077324
  F     -1.572738   -0.755100    0.000000
  F      0.371240   -1.123242    1.077324
  H      0.680857    2.777604    1.364712
  H      0.097803    1.061713    2.371241
  H      0.097803    1.061713   -2.371241
  H      0.680857    2.777604   -1.364712

 Total Charge           Charge          ....    0
 Multiplicity           Mult            ....    1
 Number of Electrons    NEL             ....   54
 Basis Dimension        Dim             ....  113

ORBITAL ENERGIES
----------------

  NO   OCC          E(Eh)            E(eV)
   0   2.0000     -25.212658      -686.0713
   1   2.0000     -25.212573      -686.0690
   2   2.0000     -25.086024      -682.6254
   3   2.0000     -15.007873      -408.3850
   4   2.0000     -10.486324      -285.3474
   5   2.0000      -6.986218      -190.1047
   6   2.0000      -6.986169      -190.1033
   7   2.0000      -1.515214       -41.2311
   8   2.0000      -1.409916       -38.3658
   9   2.0000      -1.260983       -34.3131
  10   2.0000      -1.064252       -28.9598
  11   2.0000      -0.827796       -22.5255
  12   2.0000      -0.745917       -20.2974
  13   2.0000      -0.699581       -19.0366
  14   2.0000      -0.667865       -18.1735
  15   2.0000      -0.600032       -16.3277
  16   2.0000      -0.588573       -16.0159
  17   2.0000      -0.577728       -15.7208
  18   2.0000      -0.547284       -14.8924
  19   2.0000      -0.519326       -14.1316
  20   2.0000      -0.478545       -13.0219
  21   2.0000      -0.459230       -12.4963
  22   2.0000      -0.457362       -12.4455
  23   2.0000      -0.426717       -11.6116
  24   2.0000      -0.418045       -11.3756
  25   2.0000      -0.391073       -10.6416
  26   2.0000      -0.343834        -9.3562
  27   0.0000      -0.104977        -2.8566
  28   0.0000      -0.041849        -1.1388
  29   0.0000       0.008152         0.2218
  30   0.0000       0.028518         0.7760
  31   0.0000       0.088711         2.4140

MULLIKEN ATOMIC CHARGES
-----------------------
   0 C :   -0.219911
   1 N :    0.753146
   2 B :    0.011496
   3 B :    0.011496
   4 F :   -0.210719
   5 F :   -0.337732
   6 F :   -0.210719
   7 H :    0.048185
   8 H :    0.053286
   9 H :    0.053286
  10 H :    0.048185
Sum of atomic charges:    0.0000000

LOEWDIN ATOMIC CHARGES
----------------------
   0 C :   -0.239907
   1 N :    0.620119
   2 B :   -0.027361
   3 B :   -0.027361
   4 F :   -0.068224
   5 F :   -0.295728
   6 F :   -0.068224
   7 H :    0.028639
   8 H :    0.024703
   9 H :    0.024703
  10 H :    0.028639

  Mayer bond orders larger than 0.100000
B(  0-C ,  1-N ) :   1.3456 B(  0-C ,  2-B ) :   1.0336 B(  0-C ,  3-B ) :   1.0336
B(  0-C ,  5-F ) :   0.1461 B(  1-N ,  4-F ) :   0.9435 B(  1-N ,  5-F ) :   0.6225
B(  1-N ,  6-F ) :   0.9435 B(  2-B ,  7-H ) :   0.9801 B(  2-B ,  8-H ) :   0.9854
B(  3-B ,  9-H ) :   0.9854 B(  3-B , 10-H ) :   0.9801

Dispersion correction           -0.004151228
FINAL SINGLE POINT ENERGY      -443.297784060568

DIPOLE MOMENT
-------------
                                X             Y             Z
Electronic contribution:     -1.08571      -7.41526      -0.00000
Nuclear contribution   :      1.66047       7.47447       0.00000
                        -----------------------------------------
Total Dipole Moment    :      0.57477       0.05921      -0.00000
                        -----------------------------------------
Magnitude (a.u.)       :      0.57781
Magnitude (Debye)      :      1.46867

Rotational constants in cm-1:     0.112743     0.082887     0.066517
Rotational constants in MHz :  3379.961483  2484.888175  1994.139297

                             ****ORCA TERMINATED NORMALLY****
TOTAL RUN TIME: 0 days 0 hours 1 minutes 30 seconds 116 msec
