                         Program Version 5.0.3 -  RELEASE  -
|  1> ! PBEh-3c def2/J TightSCF DefGrid3
|  2>
|  3> %maxcore 60000
|  4>
|  5> %pal
|  6> nprocs 4
|  7> end
|  8>
|  9> *xyzfile 0 1 THR_xal.xyz
| 10>
| 11>                          ****END OF INPUT****

CARTESIAN COORDINATES (ANGSTROEM)
---------------------------------
  N     -1.229476   -0.277517    0.403348
  C      0.080653   -0.096844   -0.169286
  C      1.068624   -0.712455    0.813383
  O      0.805341   -0.726936    2.016275
  C      0.346706    1.399733   -0.401710
  O      1.560650    1.482701   -1.147469
  C      0.429122    2.203176    0.880170
  H     -1.252501   -0.467429    1.393451
  H      0.105595   -0.585358   -1.142616
  H     -0.492243    1.746412   -1.011136
  H      1.745137    2.415579   -1.293300
  H      0.541803    3.262059    0.645223
  H      1.278421    1.885029    1.481191
  H     -0.478519    2.085958    1.469003
  N      2.225385   -1.207047    0.324800
  H      2.805733   -1.623911    1.036176
  C      2.575039   -1.426910   -1.067665
  H      2.337605   -0.549294   -1.656781
  H      3.647674   -1.589653   -1.123644
  H      2.072080   -2.301330   -1.481743
  C     -2.342904   -0.321629   -0.373142
  O     -2.303247   -0.152269   -1.587078
  C     -3.632274   -0.593602    0.363205
  H     -4.053110   -1.524216   -0.010790
  H     -4.336469    0.202051    0.133606
  H     -3.503575   -0.664319    1.440271

 Total Charge           Charge          ....    0
 Multiplicity           Mult            ....    1
 Number of Electrons    NEL             ....   94
 Basis Dimension        Dim             ....  208

ORBITAL ENERGIES
----------------

  NO   OCC          E(Eh)            E(eV)
   0   2.0000     -19.498634      -530.5848
   1   2.0000     -19.463654      -529.6329
   2   2.0000     -19.449261      -529.2413
   3   2.0000     -14.667268      -399.1167
   4   2.0000     -14.656872      -398.8338
   5   2.0000     -10.552850      -287.1577
   6   2.0000     -10.544044      -286.9180
   7   2.0000     -10.497490      -285.6512
   8   2.0000     -10.486168      -285.3431
   9   2.0000     -10.471502      -284.9441
  10   2.0000     -10.437958      -284.0313
  11   2.0000     -10.426377      -283.7161
  12   2.0000      -1.152643       -31.3650
  13   2.0000      -1.136475       -30.9251
  14   2.0000      -1.134115       -30.8608
  15   2.0000      -1.026819       -27.9412
  16   2.0000      -1.021667       -27.8010
  17   2.0000      -0.874654       -23.8005
  18   2.0000      -0.826311       -22.4851
  19   2.0000      -0.799793       -21.7635
  20   2.0000      -0.783333       -21.3156
  21   2.0000      -0.704823       -19.1792
  22   2.0000      -0.668578       -18.1929
  23   2.0000      -0.637803       -17.3555
  24   2.0000      -0.590439       -16.0666
  25   2.0000      -0.565020       -15.3750
  26   2.0000      -0.560289       -15.2462
  27   2.0000      -0.544883       -14.8270
  28   2.0000      -0.531419       -14.4607
  29   2.0000      -0.519691       -14.1415
  30   2.0000      -0.508066       -13.8252
  31   2.0000      -0.501762       -13.6536
  32   2.0000      -0.490978       -13.3602
  33   2.0000      -0.463593       -12.6150
  34   2.0000      -0.459759       -12.5107
  35   2.0000      -0.450494       -12.2586
  36   2.0000      -0.449144       -12.2218
  37   2.0000      -0.441347       -12.0097
  38   2.0000      -0.432497       -11.7688
  39   2.0000      -0.423387       -11.5210
  40   2.0000      -0.408469       -11.1150
  41   2.0000      -0.384202       -10.4547
  42   2.0000      -0.341065        -9.2808
  43   2.0000      -0.319270        -8.6878
  44   2.0000      -0.307582        -8.3697
  45   2.0000      -0.302041        -8.2190
  46   2.0000      -0.294120        -8.0034
  47   0.0000       0.044497         1.2108
  48   0.0000       0.069463         1.8902
  49   0.0000       0.120284         3.2731
  50   0.0000       0.135969         3.6999
  51   0.0000       0.139001         3.7824

MULLIKEN ATOMIC CHARGES
-----------------------
   0 N :   -0.647883
   1 C :   -0.203301
   2 C :    0.536523
   3 O :   -0.452456
   4 C :    0.048643
   5 O :   -0.637758
   6 C :   -0.678490
   7 H :    0.382605
   8 H :    0.286462
   9 H :    0.233858
  10 H :    0.423281
  11 H :    0.207847
  12 H :    0.245247
  13 H :    0.228784
  14 N :   -0.611087
  15 H :    0.364358
  16 C :   -0.522113
  17 H :    0.277498
  18 H :    0.231285
  19 H :    0.222656
  20 C :    0.522268
  21 O :   -0.440175
  22 C :   -0.747829
  23 H :    0.256371
  24 H :    0.255791
  25 H :    0.217614
Sum of atomic charges:    0.0000000

LOEWDIN ATOMIC CHARGES
----------------------
   0 N :   -0.222209
   1 C :   -0.098776
   2 C :    0.115233
   3 O :   -0.297220
   4 C :   -0.020431
   5 O :   -0.401189
   6 C :   -0.377993
   7 H :    0.267898
   8 H :    0.155132
   9 H :    0.121814
  10 H :    0.314906
  11 H :    0.123758
  12 H :    0.140874
  13 H :    0.138598
  14 N :   -0.223758
  15 H :    0.261145
  16 C :   -0.266752
  17 H :    0.149908
  18 H :    0.132322
  19 H :    0.118676
  20 C :    0.104038
  21 O :   -0.289760
  22 C :   -0.387605
  23 H :    0.156426
  24 H :    0.155387
  25 H :    0.129577

  Mayer bond orders larger than 0.100000
B(  0-N ,  1-C ) :   0.9336 B(  0-N ,  7-H ) :   0.7790 B(  0-N , 20-C ) :   1.1479
B(  1-C ,  2-C ) :   0.9034 B(  1-C ,  4-C ) :   0.9418 B(  1-C ,  8-H ) :   0.8689
B(  2-C ,  3-O ) :   1.9348 B(  2-C , 14-N ) :   1.1924 B(  4-C ,  5-O ) :   0.9897
B(  4-C ,  6-C ) :   0.9709 B(  4-C ,  9-H ) :   0.8848 B(  5-O , 10-H ) :   0.7850
B(  6-C , 11-H ) :   0.9262 B(  6-C , 12-H ) :   0.9080 B(  6-C , 13-H ) :   0.9127
B( 14-N , 15-H ) :   0.8222 B( 14-N , 16-C ) :   0.9424 B( 16-C , 17-H ) :   0.8774
B( 16-C , 18-H ) :   0.9250 B( 16-C , 19-H ) :   0.9099 B( 20-C , 21-O ) :   1.9636
B( 20-C , 22-C ) :   0.9276 B( 22-C , 23-H ) :   0.9102 B( 22-C , 24-H ) :   0.9118
B( 22-C , 25-H ) :   0.9206

Dispersion correction           -0.015117171
FINAL SINGLE POINT ENERGY      -609.075830329714

DIPOLE MOMENT
-------------
                                X             Y             Z
Electronic contribution:      0.17483      -2.25050       0.23321
Nuclear contribution   :      0.57556       2.40858      -0.05400
                        -----------------------------------------
Total Dipole Moment    :      0.75039       0.15808       0.17921
                        -----------------------------------------
Magnitude (a.u.)       :      0.78752
Magnitude (Debye)      :      2.00172

Rotational constants in cm-1:     0.040974     0.020793     0.019446
Rotational constants in MHz :  1228.372892   623.366982   582.964228

                             ****ORCA TERMINATED NORMALLY****
TOTAL RUN TIME: 0 days 0 hours 2 minutes 55 seconds 253 msec
