                         Program Version 5.0.3 -  RELEASE  -
|  1> ! PBEh-3c def2/J TightSCF DefGrid3
|  2>
|  3> %maxcore 60000
|  4>
|  5> %pal
|  6> nprocs 4
|  7> end
|  8>
|  9> *xyzfile 0 1 h7.xyz
| 10>
| 11>                          ****END OF INPUT****

CARTESIAN COORDINATES (ANGSTROEM)
---------------------------------
  C     -1.481886    1.138289   -1.028037
  C     -1.296504   -0.080318   -0.131064
  C      0.000000    0.000000    0.673597
  C      1.296504    0.080318   -0.131064
  C      2.482312    0.219536    0.817978
  C     -2.482312   -0.219536    0.817978
  C      1.481886   -1.138289   -1.028037
  H     -1.476861    2.050490   -0.427416
  H     -0.694174    1.223658   -1.775141
  H     -2.435490    1.091732   -1.553994
  H     -1.263375   -0.973098   -0.760704
  H     -0.061765    0.874540    1.331037
  H      0.061765   -0.874540    1.331037
  H      1.263375    0.973098   -0.760704
  H      2.554022   -0.656552    1.465173
  H      2.377666    1.097663    1.455232
  H      3.420368    0.308205    0.270138
  H     -2.554022    0.656552    1.465173
  H     -2.377666   -1.097663    1.455232
  H     -3.420368   -0.308205    0.270138
  H      1.476861   -2.050490   -0.427416
  H      2.435490   -1.091732   -1.553994
  H      0.694174   -1.223658   -1.775141

 Total Charge           Charge          ....    0
 Multiplicity           Mult            ....    1
 Number of Electrons    NEL             ....   58
 Basis Dimension        Dim             ....  137

ORBITAL ENERGIES
----------------

  NO   OCC          E(Eh)            E(eV)
   0   2.0000     -10.435167      -283.9553
   1   2.0000     -10.435132      -283.9544
   2   2.0000     -10.423258      -283.6313
   3   2.0000     -10.417813      -283.4831
   4   2.0000     -10.417801      -283.4828
   5   2.0000     -10.417635      -283.4783
   6   2.0000     -10.417625      -283.4780
   7   2.0000      -0.914475       -24.8841
   8   2.0000      -0.866112       -23.5681
   9   2.0000      -0.762926       -20.7603
  10   2.0000      -0.758927       -20.6514
  11   2.0000      -0.752483       -20.4761
  12   2.0000      -0.647096       -17.6084
  13   2.0000      -0.611685       -16.6448
  14   2.0000      -0.539177       -14.6718
  15   2.0000      -0.507982       -13.8229
  16   2.0000      -0.496087       -13.4992
  17   2.0000      -0.483922       -13.1682
  18   2.0000      -0.454336       -12.3631
  19   2.0000      -0.449373       -12.2281
  20   2.0000      -0.433415       -11.7938
  21   2.0000      -0.432475       -11.7683
  22   2.0000      -0.413531       -11.2528
  23   2.0000      -0.399225       -10.8635
  24   2.0000      -0.389284       -10.5930
  25   2.0000      -0.379190       -10.3183
  26   2.0000      -0.361050        -9.8247
  27   2.0000      -0.354581        -9.6486
  28   2.0000      -0.348632        -9.4868
  29   0.0000       0.124865         3.3977
  30   0.0000       0.154837         4.2133
  31   0.0000       0.172155         4.6846
  32   0.0000       0.178487         4.8569
  33   0.0000       0.191665         5.2155

MULLIKEN ATOMIC CHARGES
-----------------------
   0 C :   -0.633752
   1 C :   -0.245756
   2 C :   -0.364613
   3 C :   -0.245755
   4 C :   -0.622076
   5 C :   -0.622076
   6 C :   -0.633753
   7 H :    0.204195
   8 H :    0.218850
   9 H :    0.217002
  10 H :    0.210400
  11 H :    0.200012
  12 H :    0.200012
  13 H :    0.210400
  14 H :    0.203879
  15 H :    0.214659
  16 H :    0.214894
  17 H :    0.203879
  18 H :    0.214659
  19 H :    0.214894
  20 H :    0.204195
  21 H :    0.217002
  22 H :    0.218850
Sum of atomic charges:    0.0000000

LOEWDIN ATOMIC CHARGES
----------------------
   0 C :   -0.354726
   1 C :   -0.164797
   2 C :   -0.225850
   3 C :   -0.164797
   4 C :   -0.350704
   5 C :   -0.350704
   6 C :   -0.354726
   7 H :    0.123304
   8 H :    0.124294
   9 H :    0.125574
  10 H :    0.118692
  11 H :    0.119773
  12 H :    0.119773
  13 H :    0.118692
  14 H :    0.122633
  15 H :    0.124614
  16 H :    0.124268
  17 H :    0.122633
  18 H :    0.124614
  19 H :    0.124268
  20 H :    0.123304
  21 H :    0.125574
  22 H :    0.124294

  Mayer bond orders larger than 0.100000
B(  0-C ,  1-C ) :   0.9852 B(  0-C ,  7-H ) :   0.9275 B(  0-C ,  8-H ) :   0.9269
B(  0-C ,  9-H ) :   0.9299 B(  1-C ,  2-C ) :   0.9800 B(  1-C ,  5-C ) :   0.9948
B(  1-C , 10-H ) :   0.9057 B(  2-C ,  3-C ) :   0.9800 B(  2-C , 11-H ) :   0.9191
B(  2-C , 12-H ) :   0.9191 B(  3-C ,  4-C ) :   0.9948 B(  3-C ,  6-C ) :   0.9852
B(  3-C , 13-H ) :   0.9057 B(  4-C , 14-H ) :   0.9274 B(  4-C , 15-H ) :   0.9312
B(  4-C , 16-H ) :   0.9314 B(  5-C , 17-H ) :   0.9274 B(  5-C , 18-H ) :   0.9312
B(  5-C , 19-H ) :   0.9314 B(  6-C , 20-H ) :   0.9275 B(  6-C , 21-H ) :   0.9299
B(  6-C , 22-H ) :   0.9269

Dispersion correction           -0.011573926
FINAL SINGLE POINT ENERGY      -275.793141673369

DIPOLE MOMENT
-------------
                                X             Y             Z
Electronic contribution:      0.00000      -0.00000      -0.04500
Nuclear contribution   :      0.00000       0.00000       0.02237
                        -----------------------------------------
Total Dipole Moment    :      0.00000      -0.00000      -0.02263
                        -----------------------------------------
Magnitude (a.u.)       :      0.02263
Magnitude (Debye)      :      0.05753

Rotational constants in cm-1:     0.138398     0.046425     0.043662
Rotational constants in MHz :  4149.081059  1391.798638  1308.943546

                             ****ORCA TERMINATED NORMALLY****
TOTAL RUN TIME: 0 days 0 hours 1 minutes 14 seconds 682 msec
