                         Program Version 5.0.3 -  RELEASE  -
|  1> ! PBEh-3c def2/J TightSCF DefGrid3
|  2>
|  3> %maxcore 60000
|  4>
|  5> %pal
|  6> nprocs 4
|  7> end
|  8>
|  9> *xyzfile 0 1 butadiene_TS.xyz
| 10>
| 11>                          ****END OF INPUT****

CARTESIAN COORDINATES (ANGSTROEM)
---------------------------------
  C      0.024005    0.737235   -0.407791
  C     -0.024005   -0.737235   -0.407791
  C      0.889653    1.458934    0.283754
  H     -0.700723    1.244023   -1.034257
  H      0.880985    2.536725    0.241432
  H      1.631106    0.996832    0.918441
  C     -0.889653   -1.458934    0.283754
  H      0.700723   -1.244023   -1.034257
  H     -1.631106   -0.996832    0.918441
  H     -0.880985   -2.536725    0.241432

 Total Charge           Charge          ....    0
 Multiplicity           Mult            ....    1
 Number of Electrons    NEL             ....   30
 Basis Dimension        Dim             ....   72

ORBITAL ENERGIES
----------------

  NO   OCC          E(Eh)            E(eV)
   0   2.0000     -10.448523      -284.3188
   1   2.0000     -10.448198      -284.3099
   2   2.0000     -10.436031      -283.9788
   3   2.0000     -10.436024      -283.9787
   4   2.0000      -0.899109       -24.4660
   5   2.0000      -0.822647       -22.3854
   6   2.0000      -0.683229       -18.5916
   7   2.0000      -0.610487       -16.6122
   8   2.0000      -0.538302       -14.6480
   9   2.0000      -0.515189       -14.0190
  10   2.0000      -0.482596       -13.1321
  11   2.0000      -0.443158       -12.0589
  12   2.0000      -0.392552       -10.6819
  13   2.0000      -0.319482        -8.6935
  14   2.0000      -0.302654        -8.2356
  15   0.0000       0.026468         0.7202
  16   0.0000       0.054055         1.4709
  17   0.0000       0.191797         5.2191
  18   0.0000       0.194191         5.2842
  19   0.0000       0.197437         5.3725

MULLIKEN ATOMIC CHARGES
-----------------------
   0 C :   -0.220448
   1 C :   -0.220447
   2 C :   -0.448942
   3 H :    0.232444
   4 H :    0.216936
   5 H :    0.220009
   6 C :   -0.448942
   7 H :    0.232444
   8 H :    0.220009
   9 H :    0.216936
Sum of atomic charges:    0.0000000

LOEWDIN ATOMIC CHARGES
----------------------
   0 C :   -0.148886
   1 C :   -0.148886
   2 C :   -0.254507
   3 H :    0.138290
   4 H :    0.132455
   5 H :    0.132648
   6 C :   -0.254507
   7 H :    0.138290
   8 H :    0.132648
   9 H :    0.132455

  Mayer bond orders larger than 0.100000
B(  0-C ,  1-C ) :   1.0415 B(  0-C ,  2-C ) :   1.9325 B(  0-C ,  3-H ) :   0.9100
B(  1-C ,  6-C ) :   1.9325 B(  1-C ,  7-H ) :   0.9100 B(  2-C ,  4-H ) :   0.9286
B(  2-C ,  5-H ) :   0.9310 B(  6-C ,  8-H ) :   0.9310 B(  6-C ,  9-H ) :   0.9286

Dispersion correction           -0.003548443
FINAL SINGLE POINT ENERGY      -155.623686721805

DIPOLE MOMENT
-------------
                                X             Y             Z
Electronic contribution:     -0.00000       0.00000      -0.54699
Nuclear contribution   :     -0.00000       0.00000       0.51942
                        -----------------------------------------
Total Dipole Moment    :     -0.00000       0.00000      -0.02757
                        -----------------------------------------
Magnitude (a.u.)       :      0.02757
Magnitude (Debye)      :      0.07007

Rotational constants in cm-1:     0.953904     0.154335     0.151751
Rotational constants in MHz : 28597.309093  4626.833188  4549.374144

                             ****ORCA TERMINATED NORMALLY****
TOTAL RUN TIME: 0 days 0 hours 1 minutes 11 seconds 240 msec
