                         Program Version 5.0.3 -  RELEASE  -
|  1> ! PBEh-3c def2/J TightSCF DefGrid3
|  2>
|  3> %maxcore 60000
|  4>
|  5> %pal
|  6> nprocs 4
|  7> end
|  8>
|  9> *xyzfile 0 2 C2H5.xyz
| 10>
| 11>                          ****END OF INPUT****

CARTESIAN COORDINATES (ANGSTROEM)
---------------------------------
  C      0.865488    0.000132   -0.038720
  C     -0.624490    0.000296   -0.016786
  H     -1.032517    0.889720   -0.497381
  H      1.419357   -0.923924    0.032160
  H     -1.015160   -0.013201    1.008320
  H     -1.032946   -0.876594   -0.519900
  H      1.420267    0.923572    0.032308

 Total Charge           Charge          ....    0
 Multiplicity           Mult            ....    2
 Number of Electrons    NEL             ....   17
 Basis Dimension        Dim             ....   40

ORBITAL ENERGIES
----------------
                 SPIN UP ORBITALS
  NO   OCC          E(Eh)            E(eV)
   0   1.0000     -10.441937      -284.1396
   1   1.0000     -10.429277      -283.7950
   2   1.0000      -0.844567       -22.9818
   3   1.0000      -0.685134       -18.6434
   4   1.0000      -0.510176       -13.8826
   5   1.0000      -0.470938       -12.8149
   6   1.0000      -0.444918       -12.1068
   7   1.0000      -0.409237       -11.1359
   8   1.0000      -0.252089        -6.8597
   9   0.0000       0.165257         4.4969
  10   0.0000       0.185538         5.0487
  11   0.0000       0.199906         5.4397
  12   0.0000       0.223918         6.0931
  13   0.0000       0.274229         7.4622

                 SPIN DOWN ORBITALS
  NO   OCC          E(Eh)            E(eV)
   0   1.0000     -10.430555      -283.8298
   1   1.0000     -10.425890      -283.7029
   2   1.0000      -0.822734       -22.3877
   3   1.0000      -0.653443       -17.7811
   4   1.0000      -0.502070       -13.6620
   5   1.0000      -0.451101       -12.2751
   6   1.0000      -0.435030       -11.8378
   7   1.0000      -0.404075       -10.9955
   8   0.0000      -0.000555        -0.0151
   9   0.0000       0.170686         4.6446
  10   0.0000       0.201701         5.4886
  11   0.0000       0.202468         5.5094
  12   0.0000       0.233231         6.3465

MULLIKEN ATOMIC CHARGES AND SPIN POPULATIONS
--------------------------------------------
   0 C :   -0.433540    1.130203
   1 C :   -0.664825   -0.102096
   2 H :    0.223468    0.014852
   3 H :    0.212887   -0.061241
   4 H :    0.225259    0.063455
   5 H :    0.223595    0.016096
   6 H :    0.213155   -0.061267
Sum of atomic charges         :   -0.0000000

LOEWDIN ATOMIC CHARGES AND SPIN POPULATIONS
-------------------------------------------
   0 C :   -0.266089    1.004368
   1 C :   -0.381853   -0.029472
   2 H :    0.132481    0.013116
   3 H :    0.124573   -0.029647
   4 H :    0.133645    0.057067
   5 H :    0.132561    0.014236
   6 H :    0.124682   -0.029669

  Mayer bond orders larger than 0.100000
B(  0-C ,  1-C ) :   1.0126 B(  0-C ,  3-H ) :   0.9261 B(  0-C ,  6-H ) :   0.9261
B(  1-C ,  2-H ) :   0.9257 B(  1-C ,  4-H ) :   0.9066 B(  1-C ,  5-H ) :   0.9252

Dispersion correction           -0.001575283
FINAL SINGLE POINT ENERGY       -78.979944308717

DIPOLE MOMENT
-------------
                                X             Y             Z
Electronic contribution:      0.56642       0.00091      -0.08983
Nuclear contribution   :     -0.65411      -0.00116       0.15065
                        -----------------------------------------
Total Dipole Moment    :     -0.08769      -0.00025       0.06083
                        -----------------------------------------
Magnitude (a.u.)       :      0.10672
Magnitude (Debye)      :      0.27127

Rotational constants in cm-1:     3.475996     0.757664     0.702822
Rotational constants in MHz : 104207.736300 22714.196561 21070.065579

                             ****ORCA TERMINATED NORMALLY****
TOTAL RUN TIME: 0 days 0 hours 1 minutes 4 seconds 871 msec
