                         Program Version 5.0.3 -  RELEASE  -
|  1> ! PBEh-3c def2/J TightSCF DefGrid3
|  2>
|  3> %maxcore 60000
|  4>
|  5> %pal
|  6> nprocs 4
|  7> end
|  8>
|  9> *xyzfile 0 1 CYS_xal.xyz
| 10>
| 11>                          ****END OF INPUT****

CARTESIAN COORDINATES (ANGSTROEM)
---------------------------------
  N      1.043001   -0.673803   -0.329994
  C     -0.042598   -0.356371    0.550505
  C     -1.337825   -0.634930   -0.197512
  O     -1.377871   -0.665600   -1.423441
  C     -0.013195    1.103549    1.034909
  S      0.034023    2.334909   -0.295198
  H      0.828106   -0.667508   -1.314897
  H      0.028201   -0.987145    1.440248
  H     -0.855337    1.293595    1.698908
  H      0.908696    1.250015    1.594979
  C      2.320602   -0.719183    0.127296
  O      2.589002   -0.600420    1.319160
  N     -2.427119   -0.768263    0.595675
  C     -3.754213   -0.988578    0.058404
  H     -4.462922   -0.287367    0.492563
  H     -3.699253   -0.829239   -1.013534
  H     -4.094378   -2.005582    0.245859
  H     -2.284451   -0.815838    1.589325
  C      3.377671   -0.918374   -0.929317
  H      3.876358    0.033568   -1.102950
  H      2.970076   -1.278847   -1.870402
  H      4.116057   -1.620828   -0.554125
  H     -1.083447    1.939756   -0.917992

 Total Charge           Charge          ....    0
 Multiplicity           Mult            ....    1
 Number of Electrons    NEL             ....   94
 Basis Dimension        Dim             ....  192

ORBITAL ENERGIES
----------------

  NO   OCC          E(Eh)            E(eV)
   0   2.0000     -89.575527     -2437.4740
   1   2.0000     -19.480765      -530.0986
   2   2.0000     -19.453247      -529.3498
   3   2.0000     -14.684884      -399.5960
   4   2.0000     -14.658850      -398.8876
   5   2.0000     -10.566898      -287.5399
   6   2.0000     -10.546459      -286.9837
   7   2.0000     -10.503636      -285.8185
   8   2.0000     -10.482142      -285.2336
   9   2.0000     -10.479153      -285.1523
  10   2.0000     -10.437503      -284.0189
  11   2.0000      -8.216557      -223.5839
  12   2.0000      -6.107686      -166.1986
  13   2.0000      -6.104483      -166.1114
  14   2.0000      -6.098662      -165.9530
  15   2.0000      -1.166879       -31.7524
  16   2.0000      -1.139129       -30.9973
  17   2.0000      -1.044189       -28.4138
  18   2.0000      -1.028516       -27.9873
  19   2.0000      -0.901461       -24.5300
  20   2.0000      -0.839758       -22.8510
  21   2.0000      -0.821432       -22.3523
  22   2.0000      -0.775224       -21.0949
  23   2.0000      -0.714053       -19.4304
  24   2.0000      -0.679259       -18.4836
  25   2.0000      -0.648454       -17.6453
  26   2.0000      -0.616691       -16.7810
  27   2.0000      -0.559790       -15.2326
  28   2.0000      -0.545226       -14.8364
  29   2.0000      -0.540979       -14.7208
  30   2.0000      -0.529904       -14.4194
  31   2.0000      -0.517956       -14.0943
  32   2.0000      -0.504150       -13.7186
  33   2.0000      -0.491993       -13.3878
  34   2.0000      -0.480152       -13.0656
  35   2.0000      -0.464508       -12.6399
  36   2.0000      -0.456106       -12.4113
  37   2.0000      -0.449362       -12.2277
  38   2.0000      -0.439119       -11.9490
  39   2.0000      -0.432762       -11.7761
  40   2.0000      -0.407455       -11.0874
  41   2.0000      -0.378527       -10.3003
  42   2.0000      -0.334430        -9.1003
  43   2.0000      -0.325392        -8.8544
  44   2.0000      -0.307929        -8.3792
  45   2.0000      -0.300384        -8.1739
  46   2.0000      -0.282680        -7.6921
  47   0.0000       0.035815         0.9746
  48   0.0000       0.064633         1.7588
  49   0.0000       0.079640         2.1671
  50   0.0000       0.105910         2.8820
  51   0.0000       0.118583         3.2268

MULLIKEN ATOMIC CHARGES
-----------------------
   0 N :   -0.628453
   1 C :   -0.163650
   2 C :    0.532224
   3 O :   -0.434124
   4 C :   -0.570334
   5 S :   -0.167600
   6 H :    0.386181
   7 H :    0.266677
   8 H :    0.242954
   9 H :    0.309837
  10 C :    0.533243
  11 O :   -0.445453
  12 N :   -0.631818
  13 C :   -0.497398
  14 H :    0.226904
  15 H :    0.269316
  16 H :    0.228707
  17 H :    0.363031
  18 C :   -0.749264
  19 H :    0.257753
  20 H :    0.221699
  21 H :    0.258421
  22 H :    0.191147
Sum of atomic charges:    0.0000000

LOEWDIN ATOMIC CHARGES
----------------------
   0 N :   -0.223184
   1 C :   -0.109316
   2 C :    0.105462
   3 O :   -0.281473
   4 C :   -0.344929
   5 S :   -0.011294
   6 H :    0.270267
   7 H :    0.147385
   8 H :    0.127816
   9 H :    0.163470
  10 C :    0.111208
  11 O :   -0.291732
  12 N :   -0.237387
  13 C :   -0.256408
  14 H :    0.126778
  15 H :    0.156285
  16 H :    0.126089
  17 H :    0.256541
  18 C :   -0.386739
  19 H :    0.158016
  20 H :    0.132741
  21 H :    0.155733
  22 H :    0.104672

  Mayer bond orders larger than 0.100000
B(  0-N ,  1-C ) :   0.9674 B(  0-N ,  6-H ) :   0.7809 B(  0-N , 10-C ) :   1.1460
B(  1-C ,  2-C ) :   0.9089 B(  1-C ,  4-C ) :   0.9089 B(  1-C ,  7-H ) :   0.8757
B(  2-C ,  3-O ) :   1.9574 B(  2-C , 12-N ) :   1.1412 B(  4-C ,  5-S ) :   1.0561
B(  4-C ,  8-H ) :   0.8893 B(  4-C ,  9-H ) :   0.8632 B(  5-S , 22-H ) :   0.9115
B( 10-C , 11-O ) :   1.9556 B( 10-C , 18-C ) :   0.9324 B( 12-N , 13-C ) :   0.9446
B( 12-N , 17-H ) :   0.8232 B( 13-C , 14-H ) :   0.9203 B( 13-C , 15-H ) :   0.8983
B( 13-C , 16-H ) :   0.9180 B( 18-C , 19-H ) :   0.9071 B( 18-C , 20-H ) :   0.9199
B( 18-C , 21-H ) :   0.9129

Dispersion correction           -0.013754143
FINAL SINGLE POINT ENERGY      -892.530736955561

DIPOLE MOMENT
-------------
                                X             Y             Z
Electronic contribution:      2.37541       3.28037       0.01426
Nuclear contribution   :     -3.76101      -3.83679       0.23914
                        -----------------------------------------
Total Dipole Moment    :     -1.38560      -0.55643       0.25340
                        -----------------------------------------
Magnitude (a.u.)       :      1.51450
Magnitude (Debye)      :      3.84954

Rotational constants in cm-1:     0.043726     0.019956     0.016887
Rotational constants in MHz :  1310.866108   598.262223   506.244787

                             ****ORCA TERMINATED NORMALLY****
TOTAL RUN TIME: 0 days 0 hours 2 minutes 38 seconds 711 msec
