                         Program Version 5.0.3 -  RELEASE  -
|  1> ! PBEh-3c def2/J TightSCF DefGrid3
|  2>
|  3> %maxcore 60000
|  4>
|  5> %pal
|  6> nprocs 4
|  7> end
|  8>
|  9> *xyzfile 0 1 nh-bh.xyz
| 10>
| 11>                          ****END OF INPUT****

CARTESIAN COORDINATES (ANGSTROEM)
---------------------------------
  N      0.000000    0.000000    0.541176
  H      0.000000    0.000000    1.532185
  B      0.000000    0.000000   -0.691587
  H      0.000000    0.000000   -1.862483

 Total Charge           Charge          ....    0
 Multiplicity           Mult            ....    1
 Number of Electrons    NEL             ....   14
 Basis Dimension        Dim             ....   34

ORBITAL ENERGIES
----------------

  NO   OCC          E(Eh)            E(eV)
   0   2.0000     -14.614003      -397.6672
   1   2.0000      -6.970284      -189.6711
   2   2.0000      -0.915079       -24.9006
   3   2.0000      -0.613489       -16.6939
   4   2.0000      -0.499065       -13.5802
   5   2.0000      -0.346190        -9.4203
   6   2.0000      -0.346190        -9.4203
   7   0.0000       0.070553         1.9199
   8   0.0000       0.070553         1.9199
   9   0.0000       0.131912         3.5895
  10   0.0000       0.190559         5.1854
  11   0.0000       0.271147         7.3783

MULLIKEN ATOMIC CHARGES
-----------------------
   0 N :   -0.443136
   1 H :    0.351379
   2 B :    0.018606
   3 H :    0.073151
Sum of atomic charges:   -0.0000000

LOEWDIN ATOMIC CHARGES
----------------------
   0 N :   -0.256586
   1 H :    0.259961
   2 B :   -0.045656
   3 H :    0.042281

  Mayer bond orders larger than 0.100000
B(  0-N ,  1-H ) :   0.8065 B(  0-N ,  2-B ) :   2.5227 B(  2-B ,  3-H ) :   0.9744

Dispersion correction           -0.000711199
FINAL SINGLE POINT ENERGY       -80.610923181372

DIPOLE MOMENT
-------------
                                X             Y             Z
Electronic contribution:     -0.00000       0.00000      -0.14708
Nuclear contribution   :      0.00000       0.00000       0.22553
                        -----------------------------------------
Total Dipole Moment    :     -0.00000       0.00000       0.07844
                        -----------------------------------------
Magnitude (a.u.)       :      0.07844
Magnitude (Debye)      :      0.19939

Rotational constants in cm-1:     0.000000     1.113921     1.113921
Rotational constants in MHz :     0.000000 33394.513771 33394.513771

                             ****ORCA TERMINATED NORMALLY****
TOTAL RUN TIME: 0 days 0 hours 0 minutes 30 seconds 709 msec
