                         Program Version 5.0.3 -  RELEASE  -
|  1> ! PBEh-3c def2/J TightSCF DefGrid3
|  2>
|  3> %maxcore 60000
|  4>
|  5> %pal
|  6> nprocs 4
|  7> end
|  8>
|  9> *xyzfile 0 1 SER_ab.xyz
| 10>
| 11>                          ****END OF INPUT****

CARTESIAN COORDINATES (ANGSTROEM)
---------------------------------
  H      7.062977   -1.636984    0.550585
  C      6.839749   -0.854951   -0.179100
  H      6.639523   -1.316420   -1.150386
  H      7.727688   -0.222412   -0.262455
  C      5.688394   -0.011112    0.348230
  O      5.739477    0.547269    1.440282
  N      4.607142    0.084456   -0.478153
  H      4.562343   -0.419287   -1.353354
  C      3.405691    0.814985   -0.109168
  H      3.410727    0.893340    0.982395
  C      3.370455    2.225269   -0.722274
  H      3.380452    2.163878   -1.814281
  H      2.468271    2.763866   -0.412822
  H      4.243496    2.789777   -0.386992
  C      2.211224   -0.010317   -0.603171
  O      2.213098   -0.508490   -1.727805
  N      1.185622   -0.152447    0.275640
  H      1.201469    0.303948    1.179017
  C     -0.070683   -0.792555   -0.076953
  H     -0.154541   -0.791692   -1.166781
  C     -0.105207   -2.246352    0.412432
  H      0.734147   -2.783128   -0.051756
  H      0.032638   -2.255308    1.503141
  O     -1.364443   -2.782055    0.030616
  H     -1.399940   -3.704207    0.310590
  C     -1.191380    0.023069    0.583847
  O     -1.058283    0.421678    1.742886
  N     -2.265945    0.298845   -0.187412
  H     -2.374771   -0.132482   -1.096822
  C     -3.434677    1.000412    0.327051
  H     -3.413051    0.894643    1.416459
  C     -3.413435    2.491775   -0.044036
  H     -3.421025    2.607574   -1.130734
  H     -4.287117    3.007496    0.367775
  H     -2.511237    2.957675    0.360213
  C     -4.667457    0.317742   -0.282822
  O     -4.695485    0.042150   -1.479070
  N     -5.686392    0.063217    0.579351
  H     -5.557660    0.286874    1.555110
  C     -6.938998   -0.542383    0.156984
  H     -7.101369   -1.501480    0.661490
  H     -7.787455    0.116995    0.366538
  H     -6.872136   -0.711531   -0.917023

 Total Charge           Charge          ....    0
 Multiplicity           Mult            ....    1
 Number of Electrons    NEL             ....  162
 Basis Dimension        Dim             ....  359

ORBITAL ENERGIES
----------------

  NO   OCC          E(Eh)            E(eV)
   0   2.0000     -19.502716      -530.6959
   1   2.0000     -19.470990      -529.8326
   2   2.0000     -19.470000      -529.8056
   3   2.0000     -19.468274      -529.7587
   4   2.0000     -19.448294      -529.2150
   5   2.0000     -14.680508      -399.4769
   6   2.0000     -14.674084      -399.3021
   7   2.0000     -14.672155      -399.2496
   8   2.0000     -14.657907      -398.8619
   9   2.0000     -10.560876      -287.3761
  10   2.0000     -10.559205      -287.3306
  11   2.0000     -10.557064      -287.2723
  12   2.0000     -10.545301      -286.9522
  13   2.0000     -10.501864      -285.7702
  14   2.0000     -10.498085      -285.6674
  15   2.0000     -10.497494      -285.6513
  16   2.0000     -10.491957      -285.5007
  17   2.0000     -10.479641      -285.1655
  18   2.0000     -10.442327      -284.1502
  19   2.0000     -10.439835      -284.0823
  20   2.0000     -10.434921      -283.9486
  21   2.0000      -1.159593       -31.5541
  22   2.0000      -1.154079       -31.4041
  23   2.0000      -1.147777       -31.2326
  24   2.0000      -1.137517       -30.9534
  25   2.0000      -1.131767       -30.7970
  26   2.0000      -1.034573       -28.1522
  27   2.0000      -1.033738       -28.1294
  28   2.0000      -1.032567       -28.0976
  29   2.0000      -1.018400       -27.7121
  30   2.0000      -0.885220       -24.0881
  31   2.0000      -0.868413       -23.6307
  32   2.0000      -0.842297       -22.9201
  33   2.0000      -0.808872       -22.0105
  34   2.0000      -0.803484       -21.8639
  35   2.0000      -0.750955       -20.4345
  36   2.0000      -0.738554       -20.0971
  37   2.0000      -0.707475       -19.2514
  38   2.0000      -0.676866       -18.4184
  39   2.0000      -0.665472       -18.1084
  40   2.0000      -0.660316       -17.9681
  41   2.0000      -0.652495       -17.7553
  42   2.0000      -0.632570       -17.2131
  43   2.0000      -0.595179       -16.1956
  44   2.0000      -0.589580       -16.0433
  45   2.0000      -0.561157       -15.2699
  46   2.0000      -0.547842       -14.9075
  47   2.0000      -0.543370       -14.7858
  48   2.0000      -0.535563       -14.5734
  49   2.0000      -0.528912       -14.3924
  50   2.0000      -0.524873       -14.2825
  51   2.0000      -0.523757       -14.2522
  52   2.0000      -0.514249       -13.9934
  53   2.0000      -0.508667       -13.8415
  54   2.0000      -0.501912       -13.6577
  55   2.0000      -0.495401       -13.4805
  56   2.0000      -0.490629       -13.3507
  57   2.0000      -0.479502       -13.0479
  58   2.0000      -0.475511       -12.9393
  59   2.0000      -0.464853       -12.6493
  60   2.0000      -0.457490       -12.4489
  61   2.0000      -0.453741       -12.3469
  62   2.0000      -0.452594       -12.3157
  63   2.0000      -0.447628       -12.1806
  64   2.0000      -0.440563       -11.9883
  65   2.0000      -0.434051       -11.8111
  66   2.0000      -0.428847       -11.6695
  67   2.0000      -0.428410       -11.6576
  68   2.0000      -0.420924       -11.4539
  69   2.0000      -0.417087       -11.3495
  70   2.0000      -0.401230       -10.9180
  71   2.0000      -0.397452       -10.8152
  72   2.0000      -0.344339        -9.3700
  73   2.0000      -0.333269        -9.0687
  74   2.0000      -0.328747        -8.9457
  75   2.0000      -0.323802        -8.8111
  76   2.0000      -0.316738        -8.6189
  77   2.0000      -0.308480        -8.3942
  78   2.0000      -0.305698        -8.3185
  79   2.0000      -0.301303        -8.1989
  80   2.0000      -0.294744        -8.0204
  81   0.0000       0.035174         0.9571
  82   0.0000       0.045747         1.2448
  83   0.0000       0.057459         1.5635
  84   0.0000       0.073070         1.9883
  85   0.0000       0.108356         2.9485

MULLIKEN ATOMIC CHARGES
-----------------------
   0 H :    0.255411
   1 C :   -0.746626
   2 H :    0.214575
   3 H :    0.255657
   4 C :    0.525687
   5 O :   -0.437137
   6 N :   -0.635745
   7 H :    0.374459
   8 C :   -0.191944
   9 H :    0.264403
  10 C :   -0.627793
  11 H :    0.231021
  12 H :    0.216712
  13 H :    0.248282
  14 C :    0.556811
  15 O :   -0.446543
  16 N :   -0.651080
  17 H :    0.384874
  18 C :   -0.216464
  19 H :    0.277130
  20 C :   -0.136858
  21 H :    0.215437
  22 H :    0.198467
  23 O :   -0.630924
  24 H :    0.427572
  25 C :    0.567038
  26 O :   -0.457490
  27 N :   -0.630997
  28 H :    0.391188
  29 C :   -0.191837
  30 H :    0.255014
  31 C :   -0.625368
  32 H :    0.239278
  33 H :    0.215421
  34 H :    0.245921
  35 C :    0.555790
  36 O :   -0.438718
  37 N :   -0.636758
  38 H :    0.362023
  39 C :   -0.495099
  40 H :    0.224756
  41 H :    0.223465
  42 H :    0.270986
Sum of atomic charges:   -0.0000000

LOEWDIN ATOMIC CHARGES
----------------------
   0 H :    0.155231
   1 C :   -0.389624
   2 H :    0.128046
   3 H :    0.155668
   4 C :    0.110095
   5 O :   -0.289583
   6 N :   -0.228293
   7 H :    0.264541
   8 C :   -0.092698
   9 H :    0.146459
  10 C :   -0.352388
  11 H :    0.137319
  12 H :    0.130830
  13 H :    0.142929
  14 C :    0.116899
  15 O :   -0.292537
  16 N :   -0.212760
  17 H :    0.271057
  18 C :   -0.096611
  19 H :    0.152399
  20 C :   -0.087491
  21 H :    0.114865
  22 H :    0.110240
  23 O :   -0.411743
  24 H :    0.316900
  25 C :    0.118884
  26 O :   -0.300369
  27 N :   -0.203376
  28 H :    0.275172
  29 C :   -0.090911
  30 H :    0.141175
  31 C :   -0.350789
  32 H :    0.141477
  33 H :    0.130508
  34 H :    0.141912
  35 C :    0.116149
  36 O :   -0.287155
  37 N :   -0.240461
  38 H :    0.256921
  39 C :   -0.256460
  40 H :    0.125668
  41 H :    0.124679
  42 H :    0.157226

  Mayer bond orders larger than 0.100000
B(  0-H ,  1-C ) :   0.9115 B(  1-C ,  2-H ) :   0.9205 B(  1-C ,  3-H ) :   0.9109
B(  1-C ,  4-C ) :   0.9233 B(  4-C ,  5-O ) :   1.9752 B(  4-C ,  6-N ) :   1.1387
B(  6-N ,  7-H ) :   0.7969 B(  6-N ,  8-C ) :   0.9281 B(  8-C ,  9-H ) :   0.8810
B(  8-C , 10-C ) :   0.9764 B(  8-C , 14-C ) :   0.8899 B( 10-C , 11-H ) :   0.9183
B( 10-C , 12-H ) :   0.9199 B( 10-C , 13-H ) :   0.9172 B( 14-C , 15-O ) :   1.9470
B( 14-C , 16-N ) :   1.1436 B( 16-N , 17-H ) :   0.7880 B( 16-N , 18-C ) :   0.9189
B( 18-C , 19-H ) :   0.8730 B( 18-C , 20-C ) :   0.9647 B( 18-C , 25-C ) :   0.8860
B( 20-C , 21-H ) :   0.8962 B( 20-C , 22-H ) :   0.8931 B( 20-C , 23-O ) :   1.0214
B( 23-O , 24-H ) :   0.7844 B( 25-C , 26-O ) :   1.9268 B( 25-C , 27-N ) :   1.1658
B( 27-N , 28-H ) :   0.7860 B( 27-N , 29-C ) :   0.9235 B( 29-C , 30-H ) :   0.8859
B( 29-C , 31-C ) :   0.9765 B( 29-C , 35-C ) :   0.8916 B( 31-C , 32-H ) :   0.9152
B( 31-C , 33-H ) :   0.9202 B( 31-C , 34-H ) :   0.9176 B( 35-C , 36-O ) :   1.9620
B( 35-C , 37-N ) :   1.1394 B( 36-O , 37-N ) :   0.1009 B( 37-N , 38-H ) :   0.8244
B( 37-N , 39-C ) :   0.9435 B( 39-C , 40-H ) :   0.9190 B( 39-C , 41-H ) :   0.9198
B( 39-C , 42-H ) :   0.8970

Dispersion correction           -0.025797333
FINAL SINGLE POINT ENERGY     -1063.449371948188

DIPOLE MOMENT
-------------
                                X             Y             Z
Electronic contribution:      1.56094      -3.72783       0.83584
Nuclear contribution   :     -3.20481       3.07425      -0.45865
                        -----------------------------------------
Total Dipole Moment    :     -1.64387      -0.65359       0.37719
                        -----------------------------------------
Magnitude (a.u.)       :      1.80880
Magnitude (Debye)      :      4.59760

Rotational constants in cm-1:     0.025078     0.003398     0.003243
Rotational constants in MHz :   751.804727   101.866218    97.213660

                             ****ORCA TERMINATED NORMALLY****
TOTAL RUN TIME: 0 days 0 hours 5 minutes 31 seconds 204 msec
