                         Program Version 5.0.3 -  RELEASE  -
|  1> ! PBEh-3c def2/J TightSCF DefGrid3
|  2>
|  3> %maxcore 60000
|  4>
|  5> %pal
|  6> nprocs 4
|  7> end
|  8>
|  9> *xyzfile 0 1 E30.xyz
| 10>
| 11>                          ****END OF INPUT****

CARTESIAN COORDINATES (ANGSTROEM)
---------------------------------
  C     -1.029669    0.124578    0.000000
  O      0.261895    0.756257    0.000000
  C      1.334218   -0.058442    0.000000
  O      2.456669    0.349786    0.000000
  H     -1.755655    0.932935    0.000000
  H     -1.169205   -0.486277   -0.894505
  H     -1.169205   -0.486277    0.894505
  H      1.070952   -1.132561    0.000000

 Total Charge           Charge          ....    0
 Multiplicity           Mult            ....    1
 Number of Electrons    NEL             ....   32
 Basis Dimension        Dim             ....   68

ORBITAL ENERGIES
----------------

  NO   OCC          E(Eh)            E(eV)
   0   2.0000     -19.550025      -531.9832
   1   2.0000     -19.491777      -530.3982
   2   2.0000     -10.580844      -287.9194
   3   2.0000     -10.512793      -286.0676
   4   2.0000      -1.220701       -33.2169
   5   2.0000      -1.140127       -31.0244
   6   2.0000      -0.821790       -22.3620
   7   2.0000      -0.694430       -18.8964
   8   2.0000      -0.608205       -16.5501
   9   2.0000      -0.557370       -15.1668
  10   2.0000      -0.544475       -14.8159
  11   2.0000      -0.487772       -13.2730
  12   2.0000      -0.468956       -12.7609
  13   2.0000      -0.428815       -11.6686
  14   2.0000      -0.362461        -9.8631
  15   2.0000      -0.342102        -9.3091
  16   0.0000       0.035058         0.9540
  17   0.0000       0.130349         3.5470
  18   0.0000       0.158354         4.3090
  19   0.0000       0.165830         4.5125
  20   0.0000       0.207602         5.6491

MULLIKEN ATOMIC CHARGES
-----------------------
   0 C :   -0.399016
   1 O :   -0.415137
   2 C :    0.321922
   3 O :   -0.338144
   4 H :    0.250153
   5 H :    0.218424
   6 H :    0.218424
   7 H :    0.143373
Sum of atomic charges:    0.0000000

LOEWDIN ATOMIC CHARGES
----------------------
   0 C :   -0.184878
   1 O :   -0.187772
   2 C :    0.100879
   3 O :   -0.184320
   4 H :    0.140616
   5 H :    0.120331
   6 H :    0.120331
   7 H :    0.074812

  Mayer bond orders larger than 0.100000
B(  0-C ,  1-O ) :   0.9095 B(  0-C ,  4-H ) :   0.9206 B(  0-C ,  5-H ) :   0.9119
B(  0-C ,  6-H ) :   0.9119 B(  1-O ,  2-C ) :   1.0918 B(  2-C ,  3-O ) :   2.1088
B(  2-C ,  7-H ) :   0.8724

Dispersion correction           -0.002224684
FINAL SINGLE POINT ENERGY      -228.563394128621

DIPOLE MOMENT
-------------
                                X             Y             Z
Electronic contribution:      4.07682       1.35975       0.00000
Nuclear contribution   :     -5.57389      -2.17349       0.00000
                        -----------------------------------------
Total Dipole Moment    :     -1.49707      -0.81374       0.00000
                        -----------------------------------------
Magnitude (a.u.)       :      1.70393
Magnitude (Debye)      :      4.33105

Rotational constants in cm-1:     1.589364     0.156075     0.146093
Rotational constants in MHz : 47647.942534  4679.014541  4379.744243

                             ****ORCA TERMINATED NORMALLY****
TOTAL RUN TIME: 0 days 0 hours 1 minutes 13 seconds 427 msec
