                         Program Version 5.0.3 -  RELEASE  -
|  1> ! PBEh-3c def2/J TightSCF DefGrid3
|  2>
|  3> %maxcore 60000
|  4>
|  5> %pal
|  6> nprocs 4
|  7> end
|  8>
|  9> *xyzfile 0 1 GLY_xab.xyz
| 10>
| 11>                          ****END OF INPUT****

CARTESIAN COORDINATES (ANGSTROEM)
---------------------------------
  C      0.284156   -0.344489   -0.036208
  H      0.352466   -0.978494   -0.923955
  H      0.390081   -1.010232    0.823521
  N     -0.966142    0.353910    0.005109
  H     -0.909311    1.360227   -0.010744
  C      1.398049    0.685639   -0.046368
  O      1.164341    1.889658   -0.055266
  C     -2.138545   -0.325419    0.025072
  O     -2.176927   -1.551382    0.024210
  N      2.656172    0.183777   -0.060120
  H      3.382506    0.879624   -0.015661
  C      3.007510   -1.215852    0.066706
  H      4.066261   -1.325187   -0.146861
  H      2.817481   -1.603572    1.067777
  H      2.460337   -1.821614   -0.651817
  C     -3.384422    0.526168    0.042154
  H     -3.942755    0.341907   -0.872943
  H     -3.173619    1.589376    0.124971
  H     -4.006363    0.213475    0.876795

 Total Charge           Charge          ....    0
 Multiplicity           Mult            ....    1
 Number of Electrons    NEL             ....   70
 Basis Dimension        Dim             ....  155

ORBITAL ENERGIES
----------------

  NO   OCC          E(Eh)            E(eV)
   0   2.0000     -19.472973      -529.8865
   1   2.0000     -19.445439      -529.1373
   2   2.0000     -14.676889      -399.3784
   3   2.0000     -14.654431      -398.7673
   4   2.0000     -10.562496      -287.4201
   5   2.0000     -10.539907      -286.8054
   6   2.0000     -10.492494      -285.5153
   7   2.0000     -10.486483      -285.3517
   8   2.0000     -10.435110      -283.9538
   9   2.0000      -1.159744       -31.5582
  10   2.0000      -1.131955       -30.8021
  11   2.0000      -1.040153       -28.3040
  12   2.0000      -1.018288       -27.7090
  13   2.0000      -0.850998       -23.1568
  14   2.0000      -0.812943       -22.1213
  15   2.0000      -0.791859       -21.5476
  16   2.0000      -0.674232       -18.3468
  17   2.0000      -0.658132       -17.9087
  18   2.0000      -0.579872       -15.7791
  19   2.0000      -0.563765       -15.3408
  20   2.0000      -0.556118       -15.1327
  21   2.0000      -0.542266       -14.7558
  22   2.0000      -0.521311       -14.1856
  23   2.0000      -0.517230       -14.0745
  24   2.0000      -0.488083       -13.2814
  25   2.0000      -0.478830       -13.0296
  26   2.0000      -0.465549       -12.6682
  27   2.0000      -0.449214       -12.2237
  28   2.0000      -0.446572       -12.1518
  29   2.0000      -0.440505       -11.9867
  30   2.0000      -0.398553       -10.8452
  31   2.0000      -0.330323        -8.9886
  32   2.0000      -0.317694        -8.6449
  33   2.0000      -0.299172        -8.1409
  34   2.0000      -0.297980        -8.1085
  35   0.0000       0.048585         1.3221
  36   0.0000       0.070928         1.9301
  37   0.0000       0.114600         3.1184
  38   0.0000       0.131296         3.5727
  39   0.0000       0.145235         3.9520

MULLIKEN ATOMIC CHARGES
-----------------------
   0 C :   -0.348486
   1 H :    0.255606
   2 H :    0.255587
   3 N :   -0.648424
   4 H :    0.384253
   5 C :    0.511060
   6 O :   -0.434603
   7 C :    0.525682
   8 O :   -0.440290
   9 N :   -0.623762
  10 H :    0.371111
  11 C :   -0.503234
  12 H :    0.245325
  13 H :    0.232517
  14 H :    0.237893
  15 C :   -0.748473
  16 H :    0.254585
  17 H :    0.217319
  18 H :    0.256332
Sum of atomic charges:   -0.0000000

LOEWDIN ATOMIC CHARGES
----------------------
   0 C :   -0.173878
   1 H :    0.144962
   2 H :    0.145685
   3 N :   -0.238907
   4 H :    0.268048
   5 C :    0.108755
   6 O :   -0.283711
   7 C :    0.104950
   8 O :   -0.289284
   9 N :   -0.241503
  10 H :    0.264180
  11 C :   -0.256109
  12 H :    0.138515
  13 H :    0.124018
  14 H :    0.132312
  15 C :   -0.388472
  16 H :    0.155430
  17 H :    0.129543
  18 H :    0.155466

  Mayer bond orders larger than 0.100000
B(  0-C ,  1-H ) :   0.8849 B(  0-C ,  2-H ) :   0.8836 B(  0-C ,  3-N ) :   0.9717
B(  0-C ,  5-C ) :   0.9130 B(  3-N ,  4-H ) :   0.7744 B(  3-N ,  7-C ) :   1.1436
B(  5-C ,  6-O ) :   1.9795 B(  5-C ,  9-N ) :   1.1702 B(  7-C ,  8-O ) :   1.9729
B(  7-C , 15-C ) :   0.9311 B(  9-N , 10-H ) :   0.8186 B(  9-N , 11-C ) :   0.9520
B( 11-C , 12-H ) :   0.9219 B( 11-C , 13-H ) :   0.9070 B( 11-C , 14-H ) :   0.9074
B( 15-C , 16-H ) :   0.9110 B( 15-C , 17-H ) :   0.9210 B( 15-C , 18-H ) :   0.9122

Dispersion correction           -0.009170760
FINAL SINGLE POINT ENERGY      -455.559078715426

DIPOLE MOMENT
-------------
                                X             Y             Z
Electronic contribution:     -0.11896       2.40755      -0.23224
Nuclear contribution   :      1.42132      -2.38017       0.28088
                        -----------------------------------------
Total Dipole Moment    :      1.30236       0.02738       0.04864
                        -----------------------------------------
Magnitude (a.u.)       :      1.30356
Magnitude (Debye)      :      3.31338

Rotational constants in cm-1:     0.115462     0.026910     0.022099
Rotational constants in MHz :  3461.465823   806.735530   662.506501

                             ****ORCA TERMINATED NORMALLY****
TOTAL RUN TIME: 0 days 0 hours 1 minutes 53 seconds 626 msec
