                         Program Version 5.0.3 -  RELEASE  -
|  1> ! PBEh-3c def2/J TightSCF DefGrid3
|  2>
|  3> %maxcore 60000
|  4>
|  5> %pal
|  6> nprocs 4
|  7> end
|  8>
|  9> *xyzfile -1 1 3a.xyz
| 10>
| 11>                          ****END OF INPUT****

CARTESIAN COORDINATES (ANGSTROEM)
---------------------------------
  H     -1.084997    4.728124   -2.109458
  O     -1.336793    4.064156   -1.447900
  C     -0.151875    3.687131   -0.731201
  H      0.335209    4.567252   -0.293881
  H      0.565867    3.182308   -1.392045
  C     -0.523438    2.721938    0.370388
  H      0.398930    2.396603    0.869475
  O     -1.378256    3.377788    1.349611
  C     -2.321108    2.460496    1.877988
  H     -2.240155    2.411269    2.965206
  N     -3.697546    2.964622    1.586104
  C     -3.952073    3.811862    0.537254
  H     -3.082259    4.082126   -0.053500
  C     -5.195219    4.289138    0.271355
  H     -5.363495    4.962513   -0.558809
  C     -6.311076    3.913227    1.102540
  O     -7.486690    4.278005    0.976988
  N     -5.959222    3.042123    2.146489
  H     -6.706338    2.743266    2.768536
  C     -4.711365    2.537015    2.441975
  O     -4.502016    1.777085    3.387610
  C     -1.312088    1.482253   -0.057274
  H     -2.013809    1.728911   -0.858850
  C     -2.048228    1.091868    1.234452
  H     -2.970328    0.528570    1.059779
  O     -1.160710    0.362186    2.085681
  H     -0.567524   -0.120307    1.473168
  O     -0.404669    0.464294   -0.476698
  P     -0.848484   -0.532610   -1.727971
  O     -1.167513    0.315529   -2.923720
  O     -1.808417   -1.567980   -1.227798
  O      0.586093   -1.285817   -1.905548
  C      1.696054   -0.542287   -2.459729
  H      1.741358    0.454503   -2.011320
  H      1.565332   -0.442410   -3.541919
  C      2.980398   -1.291501   -2.183277
  H      3.785703   -0.822115   -2.764579
  O      3.307476   -1.208213   -0.770598
  C      3.923430   -2.415299   -0.333170
  H      4.911075   -2.213668    0.082084
  N      3.128462   -2.973676    0.783594
  C      1.756341   -3.011275    0.710189
  H      1.333424   -2.580977   -0.192293
  C      0.982488   -3.508562    1.704945
  H     -0.095452   -3.525412    1.614415
  C      1.596715   -4.005846    2.911081
  O      1.016295   -4.480061    3.894605
  N      2.995774   -3.896092    2.915997
  H      3.478023   -4.225235    3.748691
  C      3.813092   -3.402023    1.921568
  O      5.036699   -3.346137    2.034846
  C      2.948832   -2.791439   -2.494020
  H      1.967485   -3.214505   -2.262674
  C      4.021748   -3.353293   -1.544450
  H      3.849495   -4.398762   -1.264905
  O      5.314558   -3.187827   -2.128990
  H      5.163636   -3.226427   -3.096456
  O      3.270694   -2.993245   -3.872178
  H      2.930455   -3.863157   -4.141399

 Total Charge           Charge          ....   -1
 Multiplicity           Mult            ....    1
 Number of Electrons    NEL             ....  286
 Basis Dimension        Dim             ....  602

ORBITAL ENERGIES
----------------

  NO   OCC          E(Eh)            E(eV)
   0   2.0000     -77.723512     -2114.9643
   1   2.0000     -19.461898      -529.5852
   2   2.0000     -19.444958      -529.1242
   3   2.0000     -19.437766      -528.9285
   4   2.0000     -19.432903      -528.7962
   5   2.0000     -19.430265      -528.7244
   6   2.0000     -19.404617      -528.0265
   7   2.0000     -19.400899      -527.9253
   8   2.0000     -19.400384      -527.9113
   9   2.0000     -19.395950      -527.7906
  10   2.0000     -19.391494      -527.6694
  11   2.0000     -19.390263      -527.6359
  12   2.0000     -19.388194      -527.5796
  13   2.0000     -19.281218      -524.6686
  14   2.0000     -19.275975      -524.5260
  15   2.0000     -14.636285      -398.2736
  16   2.0000     -14.629802      -398.0971
  17   2.0000     -14.619694      -397.8221
  18   2.0000     -14.615075      -397.6964
  19   2.0000     -10.529662      -286.5267
  20   2.0000     -10.520997      -286.2909
  21   2.0000     -10.488466      -285.4057
  22   2.0000     -10.487015      -285.3662
  23   2.0000     -10.473041      -284.9859
  24   2.0000     -10.459567      -284.6193
  25   2.0000     -10.442843      -284.1642
  26   2.0000     -10.439988      -284.0865
  27   2.0000     -10.436565      -283.9934
  28   2.0000     -10.436012      -283.9783
  29   2.0000     -10.431989      -283.8689
  30   2.0000     -10.421263      -283.5770
  31   2.0000     -10.420013      -283.5430
  32   2.0000     -10.408468      -283.2288
  33   2.0000     -10.406865      -283.1852
  34   2.0000     -10.404435      -283.1191
  35   2.0000     -10.373153      -282.2678
  36   2.0000     -10.373083      -282.2659
  37   2.0000      -6.768045      -184.1679
  38   2.0000      -4.863190      -132.3341
  39   2.0000      -4.861988      -132.3014
  40   2.0000      -4.859252      -132.2270
  41   2.0000      -1.118563       -30.4376
  42   2.0000      -1.108782       -30.1715
  43   2.0000      -1.105057       -30.0701
  44   2.0000      -1.089772       -29.6542
  45   2.0000      -1.085683       -29.5429
  46   2.0000      -1.064773       -28.9739
  47   2.0000      -1.061790       -28.8928
  48   2.0000      -1.060257       -28.8511
  49   2.0000      -1.057562       -28.7777
  50   2.0000      -1.056523       -28.7495
  51   2.0000      -1.029373       -28.0107
  52   2.0000      -1.007925       -27.4270
  53   2.0000      -1.002986       -27.2926
  54   2.0000      -0.995055       -27.0768
  55   2.0000      -0.953061       -25.9341
  56   2.0000      -0.947509       -25.7830
  57   2.0000      -0.911554       -24.8046
  58   2.0000      -0.867169       -23.5969
  59   2.0000      -0.816153       -22.2087
  60   2.0000      -0.811502       -22.0821
  61   2.0000      -0.803909       -21.8755
  62   2.0000      -0.786383       -21.3986
  63   2.0000      -0.777521       -21.1574
  64   2.0000      -0.760096       -20.6833
  65   2.0000      -0.698923       -19.0187
  66   2.0000      -0.693028       -18.8582
  67   2.0000      -0.691247       -18.8098
  68   2.0000      -0.686760       -18.6877
  69   2.0000      -0.653012       -17.7694
  70   2.0000      -0.642360       -17.4795
  71   2.0000      -0.621101       -16.9010
  72   2.0000      -0.602165       -16.3857
  73   2.0000      -0.594630       -16.1807
  74   2.0000      -0.584148       -15.8955
  75   2.0000      -0.564594       -15.3634
  76   2.0000      -0.555015       -15.1027
  77   2.0000      -0.553984       -15.0747
  78   2.0000      -0.547301       -14.8928
  79   2.0000      -0.540396       -14.7049
  80   2.0000      -0.531662       -14.4673
  81   2.0000      -0.517563       -14.0836
  82   2.0000      -0.510924       -13.9030
  83   2.0000      -0.503982       -13.7141
  84   2.0000      -0.499444       -13.5906
  85   2.0000      -0.488391       -13.2898
  86   2.0000      -0.482816       -13.1381
  87   2.0000      -0.479274       -13.0417
  88   2.0000      -0.469739       -12.7822
  89   2.0000      -0.463842       -12.6218
  90   2.0000      -0.462685       -12.5903
  91   2.0000      -0.459246       -12.4967
  92   2.0000      -0.452440       -12.3115
  93   2.0000      -0.447478       -12.1765
  94   2.0000      -0.440495       -11.9865
  95   2.0000      -0.438404       -11.9296
  96   2.0000      -0.432089       -11.7577
  97   2.0000      -0.430145       -11.7048
  98   2.0000      -0.418635       -11.3916
  99   2.0000      -0.412580       -11.2269
 100   2.0000      -0.408152       -11.1064
 101   2.0000      -0.404692       -11.0122
 102   2.0000      -0.398817       -10.8524
 103   2.0000      -0.397100       -10.8056
 104   2.0000      -0.395770       -10.7694
 105   2.0000      -0.392904       -10.6915
 106   2.0000      -0.386225       -10.5097
 107   2.0000      -0.383746       -10.4423
 108   2.0000      -0.379594       -10.3293
 109   2.0000      -0.375530       -10.2187
 110   2.0000      -0.369877       -10.0649
 111   2.0000      -0.365584        -9.9480
 112   2.0000      -0.351853        -9.5744
 113   2.0000      -0.348761        -9.4903
 114   2.0000      -0.344339        -9.3699
 115   2.0000      -0.336276        -9.1505
 116   2.0000      -0.334622        -9.1055
 117   2.0000      -0.328959        -8.9514
 118   2.0000      -0.327501        -8.9118
 119   2.0000      -0.314851        -8.5675
 120   2.0000      -0.304834        -8.2949
 121   2.0000      -0.291057        -7.9201
 122   2.0000      -0.286953        -7.8084
 123   2.0000      -0.283024        -7.7015
 124   2.0000      -0.275552        -7.4981
 125   2.0000      -0.274992        -7.4829
 126   2.0000      -0.272375        -7.4117
 127   2.0000      -0.266006        -7.2384
 128   2.0000      -0.261150        -7.1063
 129   2.0000      -0.259141        -7.0516
 130   2.0000      -0.258618        -7.0373
 131   2.0000      -0.254631        -6.9289
 132   2.0000      -0.252705        -6.8765
 133   2.0000      -0.243592        -6.6285
 134   2.0000      -0.241608        -6.5745
 135   2.0000      -0.238851        -6.4995
 136   2.0000      -0.231184        -6.2908
 137   2.0000      -0.207177        -5.6376
 138   2.0000      -0.205416        -5.5896
 139   2.0000      -0.199757        -5.4357
 140   2.0000      -0.197492        -5.3740
 141   2.0000      -0.170684        -4.6445
 142   2.0000      -0.154311        -4.1990
 143   0.0000       0.064278         1.7491
 144   0.0000       0.068463         1.8630
 145   0.0000       0.115722         3.1490
 146   0.0000       0.121714         3.3120
 147   0.0000       0.149343         4.0638

MULLIKEN ATOMIC CHARGES
-----------------------
   0 H :    0.423045
   1 O :   -0.628734
   2 C :   -0.172837
   3 H :    0.193350
   4 H :    0.213051
   5 C :    0.037938
   6 H :    0.232534
   7 O :   -0.504524
   8 C :    0.191163
   9 H :    0.276545
  10 N :   -0.575051
  11 C :    0.079022
  12 H :    0.330882
  13 C :   -0.484446
  14 H :    0.243055
  15 C :    0.560386
  16 O :   -0.435630
  17 N :   -0.732292
  18 H :    0.387308
  19 C :    0.718742
  20 O :   -0.442683
  21 C :   -0.038407
  22 H :    0.274881
  23 C :   -0.006764
  24 H :    0.254731
  25 O :   -0.650970
  26 H :    0.439584
  27 O :   -0.649555
  28 P :    1.360952
  29 O :   -0.742219
  30 O :   -0.717604
  31 O :   -0.615657
  32 C :   -0.147546
  33 H :    0.222601
  34 H :    0.220854
  35 C :    0.023280
  36 H :    0.221678
  37 O :   -0.479206
  38 C :    0.166005
  39 H :    0.289777
  40 N :   -0.572545
  41 C :    0.060876
  42 H :    0.348898
  43 C :   -0.487949
  44 H :    0.290291
  45 C :    0.561422
  46 O :   -0.423785
  47 N :   -0.733162
  48 H :    0.386949
  49 C :    0.718825
  50 O :   -0.451913
  51 C :   -0.075210
  52 H :    0.264888
  53 C :   -0.016150
  54 H :    0.221400
  55 O :   -0.640141
  56 H :    0.422293
  57 O :   -0.639600
  58 H :    0.427374
Sum of atomic charges:   -1.0000000

LOEWDIN ATOMIC CHARGES
----------------------
   0 H :    0.313650
   1 O :   -0.409799
   2 C :   -0.092069
   3 H :    0.107452
   4 H :    0.121102
   5 C :   -0.015630
   6 H :    0.129222
   7 O :   -0.241635
   8 C :    0.081746
   9 H :    0.146591
  10 N :   -0.092608
  11 C :    0.000566
  12 H :    0.170192
  13 C :   -0.262039
  14 H :    0.155095
  15 C :    0.126031
  16 O :   -0.287895
  17 N :   -0.200991
  18 H :    0.281805
  19 C :    0.160034
  20 O :   -0.282175
  21 C :   -0.034129
  22 H :    0.147226
  23 C :   -0.029217
  24 H :    0.131120
  25 O :   -0.403430
  26 H :    0.319543
  27 O :   -0.355526
  28 P :    0.803083
  29 O :   -0.611210
  30 O :   -0.602189
  31 O :   -0.356024
  32 C :   -0.081185
  33 H :    0.127357
  34 H :    0.128541
  35 C :   -0.017304
  36 H :    0.123662
  37 O :   -0.234472
  38 C :    0.076735
  39 H :    0.154587
  40 N :   -0.096720
  41 C :   -0.006909
  42 H :    0.173720
  43 C :   -0.241316
  44 H :    0.174979
  45 C :    0.126533
  46 O :   -0.275230
  47 N :   -0.201687
  48 H :    0.281495
  49 C :    0.161398
  50 O :   -0.292560
  51 C :   -0.046486
  52 H :    0.137843
  53 C :   -0.043326
  54 H :    0.113664
  55 O :   -0.401448
  56 H :    0.310335
  57 O :   -0.391134
  58 H :    0.321036

  Mayer bond orders larger than 0.100000
B(  0-H ,  1-O ) :   0.7873 B(  1-O ,  2-C ) :   0.9936 B(  2-C ,  3-H ) :   0.9021
B(  2-C ,  4-H ) :   0.8901 B(  2-C ,  5-C ) :   0.9760 B(  5-C ,  6-H ) :   0.8897
B(  5-C ,  7-O ) :   0.9105 B(  5-C , 21-C ) :   0.9177 B(  7-O ,  8-C ) :   0.9999
B(  8-C ,  9-H ) :   0.8763 B(  8-C , 10-N ) :   0.8374 B(  8-C , 23-C ) :   0.9158
B( 10-N , 11-C ) :   1.0923 B( 10-N , 19-C ) :   1.0304 B( 11-C , 12-H ) :   0.8235
B( 11-C , 13-C ) :   1.5831 B( 13-C , 14-H ) :   0.9202 B( 13-C , 15-C ) :   1.0839
B( 15-C , 16-O ) :   1.9959 B( 15-C , 17-N ) :   0.9842 B( 17-N , 18-H ) :   0.8049
B( 17-N , 19-C ) :   1.0631 B( 19-C , 20-O ) :   1.9669 B( 21-C , 22-H ) :   0.8490
B( 21-C , 23-C ) :   0.9402 B( 21-C , 27-O ) :   0.9336 B( 23-C , 24-H ) :   0.8964
B( 23-C , 25-O ) :   1.0126 B( 25-O , 26-H ) :   0.7360 B( 27-O , 28-P ) :   0.7967
B( 28-P , 29-O ) :   1.7121 B( 28-P , 30-O ) :   1.7864 B( 28-P , 31-O ) :   0.8529
B( 31-O , 32-C ) :   0.9275 B( 32-C , 33-H ) :   0.8935 B( 32-C , 34-H ) :   0.8942
B( 32-C , 35-C ) :   0.9617 B( 35-C , 36-H ) :   0.8910 B( 35-C , 37-O ) :   0.9252
B( 35-C , 51-C ) :   0.9182 B( 37-O , 38-C ) :   1.0084 B( 38-C , 39-H ) :   0.8641
B( 38-C , 40-N ) :   0.8701 B( 38-C , 53-C ) :   0.9231 B( 40-N , 41-C ) :   1.0484
B( 40-N , 49-C ) :   1.0306 B( 41-C , 42-H ) :   0.8115 B( 41-C , 43-C ) :   1.6236
B( 43-C , 44-H ) :   0.8986 B( 43-C , 45-C ) :   1.0700 B( 45-C , 46-O ) :   2.0024
B( 45-C , 47-N ) :   0.9782 B( 47-N , 48-H ) :   0.8052 B( 47-N , 49-C ) :   1.0689
B( 49-C , 50-O ) :   1.9635 B( 51-C , 52-H ) :   0.8644 B( 51-C , 53-C ) :   0.9377
B( 51-C , 57-O ) :   0.9853 B( 53-C , 54-H ) :   0.9054 B( 53-C , 55-O ) :   1.0145
B( 55-O , 56-H ) :   0.7487 B( 57-O , 58-H ) :   0.7838

Dispersion correction           -0.046209823
FINAL SINGLE POINT ENERGY     -2308.303496873077

DIPOLE MOMENT
-------------
                                X             Y             Z
Electronic contribution:     -8.69815      -4.68902       9.55621
Nuclear contribution   :     12.24740       5.56651     -10.95977
                        -----------------------------------------
Total Dipole Moment    :      3.54925       0.87750      -1.40356
                        -----------------------------------------
Magnitude (a.u.)       :      3.91627
Magnitude (Debye)      :      9.95437

Rotational constants in cm-1:     0.005749     0.001617     0.001410
Rotational constants in MHz :   172.361827    48.477927    42.277679

                             ****ORCA TERMINATED NORMALLY****
TOTAL RUN TIME: 0 days 0 hours 14 minutes 27 seconds 790 msec
