                         Program Version 5.0.3 -  RELEASE  -
|  1> ! PBEh-3c def2/J TightSCF DefGrid3
|  2>
|  3> %maxcore 60000
|  4>
|  5> %pal
|  6> nprocs 4
|  7> end
|  8>
|  9> *xyzfile 0 1 nh3.xyz
| 10>
| 11>                          ****END OF INPUT****

CARTESIAN COORDINATES (ANGSTROEM)
---------------------------------
  N      0.000000    0.000000    0.281237
  H     -0.470840    0.815518   -0.093745
  H     -0.470840   -0.815518   -0.093745
  H      0.941679    0.000000   -0.093745

 Total Charge           Charge          ....    0
 Multiplicity           Mult            ....    1
 Number of Electrons    NEL             ....   10
 Basis Dimension        Dim             ....   21

ORBITAL ENERGIES
----------------

  NO   OCC          E(Eh)            E(eV)
   0   2.0000     -14.596204      -397.1829
   1   2.0000      -0.933633       -25.4055
   2   2.0000      -0.510827       -13.9003
   3   2.0000      -0.510826       -13.9003
   4   2.0000      -0.305046        -8.3007
   5   0.0000       0.141746         3.8571
   6   0.0000       0.225633         6.1398
   7   0.0000       0.225634         6.1398
   8   0.0000       0.763771        20.7833
   9   0.0000       0.763772        20.7833

MULLIKEN ATOMIC CHARGES
-----------------------
   0 N :   -0.943992
   1 H :    0.314663
   2 H :    0.314663
   3 H :    0.314666
Sum of atomic charges:   -0.0000000

LOEWDIN ATOMIC CHARGES
----------------------
   0 N :   -0.649745
   1 H :    0.216581
   2 H :    0.216581
   3 H :    0.216582

  Mayer bond orders larger than 0.100000
B(  0-N ,  1-H ) :   0.8799 B(  0-N ,  2-H ) :   0.8799 B(  0-N ,  3-H ) :   0.8799

Dispersion correction           -0.000444485
FINAL SINGLE POINT ENERGY       -56.428092785974

DIPOLE MOMENT
-------------
                                X             Y             Z
Electronic contribution:      0.00001      -0.00000       0.12523
Nuclear contribution   :     -0.00000       0.00000      -0.86764
                        -----------------------------------------
Total Dipole Moment    :      0.00001      -0.00000      -0.74241
                        -----------------------------------------
Magnitude (a.u.)       :      0.74241
Magnitude (Debye)      :      1.88705

Rotational constants in cm-1:     9.972038     9.972038     6.286499
Rotational constants in MHz : 298954.173255 298954.172145 188464.498493

                             ****ORCA TERMINATED NORMALLY****
TOTAL RUN TIME: 0 days 0 hours 0 minutes 17 seconds 284 msec
