                         Program Version 5.0.3 -  RELEASE  -
|  1> ! PBEh-3c def2/J TightSCF DefGrid3
|  2>
|  3> %maxcore 60000
|  4>
|  5> %pal
|  6> nprocs 4
|  7> end
|  8>
|  9> *xyzfile 0 1 44B.xyz
| 10>
| 11>                          ****END OF INPUT****

CARTESIAN COORDINATES (ANGSTROEM)
---------------------------------
  C      0.000777   -0.300839   -2.532690
  H      0.873839   -0.953292   -2.562262
  H     -0.883952   -0.936380   -2.568744
  H      0.010613    0.310341   -3.433862
  C      0.002991    0.552586   -1.271254
  H     -0.867966    1.212026   -1.271581
  H      0.881731    1.201094   -1.262945
  C     -0.007189   -0.285341    0.000000
  H     -0.888688   -0.933491    0.000000
  H      0.860686   -0.952135    0.000000
  C      0.002991    0.552586    1.271254
  H     -0.867966    1.212026    1.271581
  H      0.881731    1.201094    1.262945
  C      0.000777   -0.300839    2.532690
  H      0.873839   -0.953292    2.562262
  H      0.010613    0.310341    3.433862
  H     -0.883952   -0.936380    2.568744

 Total Charge           Charge          ....    0
 Multiplicity           Mult            ....    1
 Number of Electrons    NEL             ....   42
 Basis Dimension        Dim             ....   99

ORBITAL ENERGIES
----------------

  NO   OCC          E(Eh)            E(eV)
   0   2.0000     -10.426710      -283.7252
   1   2.0000     -10.426684      -283.7245
   2   2.0000     -10.424623      -283.6684
   3   2.0000     -10.418822      -283.5106
   4   2.0000     -10.418813      -283.5103
   5   2.0000      -0.893213       -24.3056
   6   2.0000      -0.836869       -22.7724
   7   2.0000      -0.754585       -20.5333
   8   2.0000      -0.670612       -18.2483
   9   2.0000      -0.644240       -17.5307
  10   2.0000      -0.536129       -14.5888
  11   2.0000      -0.494878       -13.4663
  12   2.0000      -0.488055       -13.2807
  13   2.0000      -0.457834       -12.4583
  14   2.0000      -0.447170       -12.1681
  15   2.0000      -0.427664       -11.6373
  16   2.0000      -0.402330       -10.9480
  17   2.0000      -0.382273       -10.4022
  18   2.0000      -0.373205       -10.1554
  19   2.0000      -0.366285        -9.9671
  20   2.0000      -0.361422        -9.8348
  21   0.0000       0.137454         3.7403
  22   0.0000       0.155211         4.2235
  23   0.0000       0.185297         5.0422
  24   0.0000       0.186575         5.0770
  25   0.0000       0.202855         5.5200

MULLIKEN ATOMIC CHARGES
-----------------------
   0 C :   -0.638969
   1 H :    0.208729
   2 H :    0.208886
   3 H :    0.218442
   4 C :   -0.409769
   5 H :    0.204515
   6 H :    0.204477
   7 C :   -0.391202
   8 H :    0.199440
   9 H :    0.199139
  10 C :   -0.409769
  11 H :    0.204515
  12 H :    0.204477
  13 C :   -0.638969
  14 H :    0.208729
  15 H :    0.218442
  16 H :    0.208886
Sum of atomic charges:   -0.0000000

LOEWDIN ATOMIC CHARGES
----------------------
   0 C :   -0.362010
   1 H :    0.123225
   2 H :    0.123353
   3 H :    0.125742
   4 C :   -0.246180
   5 H :    0.119368
   6 H :    0.119299
   7 C :   -0.241600
   8 H :    0.118061
   9 H :    0.117948
  10 C :   -0.246180
  11 H :    0.119368
  12 H :    0.119298
  13 C :   -0.362010
  14 H :    0.123225
  15 H :    0.125742
  16 H :    0.123353

  Mayer bond orders larger than 0.100000
B(  0-C ,  1-H ) :   0.9296 B(  0-C ,  2-H ) :   0.9296 B(  0-C ,  3-H ) :   0.9324
B(  0-C ,  4-C ) :   0.9986 B(  4-C ,  5-H ) :   0.9204 B(  4-C ,  6-H ) :   0.9204
B(  4-C ,  7-C ) :   0.9923 B(  7-C ,  8-H ) :   0.9182 B(  7-C ,  9-H ) :   0.9182
B(  7-C , 10-C ) :   0.9923 B( 10-C , 11-H ) :   0.9204 B( 10-C , 12-H ) :   0.9204
B( 10-C , 13-C ) :   0.9986 B( 13-C , 14-H ) :   0.9296 B( 13-C , 15-H ) :   0.9324
B( 13-C , 16-H ) :   0.9296

Dispersion correction           -0.006817038
FINAL SINGLE POINT ENERGY      -197.333887507060

DIPOLE MOMENT
-------------
                                X             Y             Z
Electronic contribution:     -0.00026       0.59808       0.00000
Nuclear contribution   :     -0.00024      -0.57912      -0.00000
                        -----------------------------------------
Total Dipole Moment    :     -0.00050       0.01896       0.00000
                        -----------------------------------------
Magnitude (a.u.)       :      0.01896
Magnitude (Debye)      :      0.04820

Rotational constants in cm-1:     0.569364     0.065482     0.062077
Rotational constants in MHz : 17069.091230  1963.095642  1861.026426

                             ****ORCA TERMINATED NORMALLY****
TOTAL RUN TIME: 0 days 0 hours 1 minutes 13 seconds 958 msec
