                         Program Version 5.0.3 -  RELEASE  -
|  1> ! PBEh-3c def2/J TightSCF DefGrid3
|  2>
|  3> %maxcore 60000
|  4>
|  5> %pal
|  6> nprocs 4
|  7> end
|  8>
|  9> *xyzfile 0 1 LEU_xaq.xyz
| 10>
| 11>                          ****END OF INPUT****

CARTESIAN COORDINATES (ANGSTROEM)
---------------------------------
  N      1.362505   -0.806250   -0.919777
  C     -0.000957   -0.280361   -0.825039
  C     -0.063224    1.229536   -0.574847
  O     -0.654585    1.971476   -1.357344
  C     -0.848016   -1.062722    0.179870
  C     -2.276596   -0.538420    0.317619
  C     -3.022470   -0.543169   -1.012716
  C     -3.019853   -1.375717    1.352352
  H      1.673232   -1.088621   -1.832574
  H     -0.424389   -0.400819   -1.819389
  H     -0.355318   -1.043219    1.151212
  H     -0.878913   -2.106480   -0.148632
  H     -2.226814    0.491978    0.680694
  H     -3.007318   -1.543365   -1.452177
  H     -4.065297   -0.262797   -0.865614
  H     -2.588961    0.160126   -1.721361
  H     -3.105694   -2.409495    1.012441
  H     -4.027158   -0.993340    1.514705
  H     -2.498200   -1.379163    2.309306
  N      0.513791    1.656511    0.564549
  H      1.046328    0.984245    1.106623
  C      0.510943    3.065022    0.895385
  H      0.926280    3.190499    1.890604
  H      1.100326    3.642670    0.183981
  H     -0.505415    3.451988    0.876333
  C      2.244177   -0.959569    0.096792
  O      2.024491   -0.594934    1.253181
  C      3.546378   -1.627474   -0.271878
  H      4.364635   -0.990739    0.054163
  H      3.646534   -1.830964   -1.334900
  H      3.616879   -2.563048    0.278648

 Total Charge           Charge          ....    0
 Multiplicity           Mult            ....    1
 Number of Electrons    NEL             ....  102
 Basis Dimension        Dim             ....  231

ORBITAL ENERGIES
----------------

  NO   OCC          E(Eh)            E(eV)
   0   2.0000     -19.475007      -529.9419
   1   2.0000     -19.447343      -529.1891
   2   2.0000     -14.682330      -399.5265
   3   2.0000     -14.642896      -398.4534
   4   2.0000     -10.567873      -287.5665
   5   2.0000     -10.533429      -286.6292
   6   2.0000     -10.491960      -285.5008
   7   2.0000     -10.455997      -284.5222
   8   2.0000     -10.455166      -284.4995
   9   2.0000     -10.438399      -284.0433
  10   2.0000     -10.435789      -283.9723
  11   2.0000     -10.418905      -283.5128
  12   2.0000     -10.413914      -283.3770
  13   2.0000      -1.159908       -31.5627
  14   2.0000      -1.129669       -30.7399
  15   2.0000      -1.041696       -28.3460
  16   2.0000      -1.006124       -27.3780
  17   2.0000      -0.911163       -24.7940
  18   2.0000      -0.862222       -23.4623
  19   2.0000      -0.818817       -22.2811
  20   2.0000      -0.778867       -21.1940
  21   2.0000      -0.760541       -20.6954
  22   2.0000      -0.732431       -19.9305
  23   2.0000      -0.670853       -18.2548
  24   2.0000      -0.644784       -17.5455
  25   2.0000      -0.627840       -17.0844
  26   2.0000      -0.598485       -16.2856
  27   2.0000      -0.578115       -15.7313
  28   2.0000      -0.542020       -14.7491
  29   2.0000      -0.534210       -14.5366
  30   2.0000      -0.517725       -14.0880
  31   2.0000      -0.506634       -13.7862
  32   2.0000      -0.498486       -13.5645
  33   2.0000      -0.490983       -13.3603
  34   2.0000      -0.479317       -13.0429
  35   2.0000      -0.476632       -12.9698
  36   2.0000      -0.465637       -12.6706
  37   2.0000      -0.457190       -12.4408
  38   2.0000      -0.443726       -12.0744
  39   2.0000      -0.437472       -11.9042
  40   2.0000      -0.434384       -11.8202
  41   2.0000      -0.425088       -11.5672
  42   2.0000      -0.411806       -11.2058
  43   2.0000      -0.406285       -11.0556
  44   2.0000      -0.376486       -10.2447
  45   2.0000      -0.373243       -10.1564
  46   2.0000      -0.368771       -10.0348
  47   2.0000      -0.334078        -9.0907
  48   2.0000      -0.323887        -8.8134
  49   2.0000      -0.290306        -7.8996
  50   2.0000      -0.287676        -7.8280
  51   0.0000       0.039273         1.0687
  52   0.0000       0.067193         1.8284
  53   0.0000       0.100180         2.7260
  54   0.0000       0.137525         3.7422
  55   0.0000       0.160372         4.3639

MULLIKEN ATOMIC CHARGES
-----------------------
   0 N :   -0.635467
   1 C :   -0.200368
   2 C :    0.540438
   3 O :   -0.442023
   4 C :   -0.411868
   5 C :   -0.254140
   6 C :   -0.651106
   7 C :   -0.624737
   8 H :    0.363927
   9 H :    0.266521
  10 H :    0.254970
  11 H :    0.210816
  12 H :    0.234123
  13 H :    0.194203
  14 H :    0.221137
  15 H :    0.250549
  16 H :    0.202775
  17 H :    0.219349
  18 H :    0.218196
  19 N :   -0.646333
  20 H :    0.413982
  21 C :   -0.486340
  22 H :    0.216522
  23 H :    0.226148
  24 H :    0.237030
  25 C :    0.547671
  26 O :   -0.468720
  27 C :   -0.739907
  28 H :    0.263592
  29 H :    0.215465
  30 H :    0.263595
Sum of atomic charges:   -0.0000000

LOEWDIN ATOMIC CHARGES
----------------------
   0 N :   -0.212937
   1 C :   -0.086721
   2 C :    0.096878
   3 O :   -0.286017
   4 C :   -0.233692
   5 C :   -0.164748
   6 C :   -0.360662
   7 C :   -0.349698
   8 H :    0.260900
   9 H :    0.147325
  10 H :    0.142929
  11 H :    0.125222
  12 H :    0.129806
  13 H :    0.117879
  14 H :    0.128517
  15 H :    0.138284
  16 H :    0.122268
  17 H :    0.126791
  18 H :    0.126321
  19 N :   -0.250445
  20 H :    0.268001
  21 C :   -0.251824
  22 H :    0.125874
  23 H :    0.124776
  24 H :    0.133286
  25 C :    0.117561
  26 O :   -0.301857
  27 C :   -0.382551
  28 H :    0.159291
  29 H :    0.128546
  30 H :    0.160699

  Mayer bond orders larger than 0.100000
B(  0-N ,  1-C ) :   0.8963 B(  0-N ,  8-H ) :   0.8287 B(  0-N , 25-C ) :   1.1805
B(  1-C ,  2-C ) :   0.9046 B(  1-C ,  4-C ) :   0.9681 B(  1-C ,  9-H ) :   0.9028
B(  2-C ,  3-O ) :   1.9457 B(  2-C , 19-N ) :   1.1882 B(  4-C ,  5-C ) :   0.9712
B(  4-C , 10-H ) :   0.8931 B(  4-C , 11-H ) :   0.9120 B(  5-C ,  6-C ) :   0.9803
B(  5-C ,  7-C ) :   0.9940 B(  5-C , 12-H ) :   0.8947 B(  6-C , 13-H ) :   0.9280
B(  6-C , 14-H ) :   0.9303 B(  6-C , 15-H ) :   0.9068 B(  7-C , 16-H ) :   0.9280
B(  7-C , 17-H ) :   0.9304 B(  7-C , 18-H ) :   0.9299 B( 19-N , 20-H ) :   0.7157
B( 19-N , 21-C ) :   0.9639 B( 20-H , 26-O ) :   0.1017 B( 21-C , 22-H ) :   0.9276
B( 21-C , 23-H ) :   0.9167 B( 21-C , 24-H ) :   0.9147 B( 25-C , 26-O ) :   1.8536
B( 25-C , 27-C ) :   0.9338 B( 27-C , 28-H ) :   0.9069 B( 27-C , 29-H ) :   0.9217
B( 27-C , 30-H ) :   0.9054

Dispersion correction           -0.018675321
FINAL SINGLE POINT ENERGY      -612.477345201024

DIPOLE MOMENT
-------------
                                X             Y             Z
Electronic contribution:      8.26870       3.71062      -2.28357
Nuclear contribution   :     -7.33965      -4.74517       2.02319
                        -----------------------------------------
Total Dipole Moment    :      0.92905      -1.03455      -0.26038
                        -----------------------------------------
Magnitude (a.u.)       :      1.41465
Magnitude (Debye)      :      3.59575

Rotational constants in cm-1:     0.030192     0.018922     0.014920
Rotational constants in MHz :   905.134947   567.276254   447.293733

                             ****ORCA TERMINATED NORMALLY****
TOTAL RUN TIME: 0 days 0 hours 3 minutes 27 seconds 414 msec
