                         Program Version 5.0.3 -  RELEASE  -
|  1> ! PBEh-3c def2/J TightSCF DefGrid3
|  2>
|  3> %maxcore 60000
|  4>
|  5> %pal
|  6> nprocs 4
|  7> end
|  8>
|  9> *xyzfile 0 1 pf3-cbh22.xyz
| 10>
| 11>                          ****END OF INPUT****

CARTESIAN COORDINATES (ANGSTROEM)
---------------------------------
  C      0.296458   -1.227121    0.000000
  P     -0.072747    0.387825    0.000000
  B     -0.923960   -2.135438    0.000000
  B      1.752272   -1.656814    0.000000
  F     -0.923960    0.932513    1.173739
  F     -0.923960    0.932513   -1.173739
  F      1.107056    1.379315    0.000000
  H     -0.761515   -3.313491    0.000000
  H     -2.035184   -1.691082    0.000000
  H      2.644666   -0.865229    0.000000
  H      1.990716   -2.822652    0.000000

 Total Charge           Charge          ....    0
 Multiplicity           Mult            ....    1
 Number of Electrons    NEL             ....   62
 Basis Dimension        Dim             ....  116

ORBITAL ENERGIES
----------------

  NO   OCC          E(Eh)            E(eV)
   0   2.0000     -78.004605     -2122.6132
   1   2.0000     -25.188493      -685.4137
   2   2.0000     -25.181031      -685.2107
   3   2.0000     -25.181000      -685.2098
   4   2.0000     -10.437290      -284.0131
   5   2.0000      -7.045805      -191.7261
   6   2.0000      -6.965226      -189.5334
   7   2.0000      -6.961435      -189.4303
   8   2.0000      -5.140690      -139.8853
   9   2.0000      -5.139622      -139.8562
  10   2.0000      -5.135823      -139.7529
  11   2.0000      -1.459313       -39.7099
  12   2.0000      -1.406603       -38.2756
  13   2.0000      -1.399157       -38.0730
  14   2.0000      -0.868118       -23.6227
  15   2.0000      -0.756709       -20.5911
  16   2.0000      -0.688663       -18.7395
  17   2.0000      -0.682392       -18.5688
  18   2.0000      -0.638264       -17.3680
  19   2.0000      -0.609220       -16.5777
  20   2.0000      -0.606605       -16.5066
  21   2.0000      -0.588106       -16.0032
  22   2.0000      -0.565665       -15.3925
  23   2.0000      -0.557554       -15.1718
  24   2.0000      -0.550846       -14.9893
  25   2.0000      -0.545974       -14.8567
  26   2.0000      -0.457409       -12.4467
  27   2.0000      -0.414458       -11.2780
  28   2.0000      -0.374212       -10.1828
  29   2.0000      -0.366892        -9.9836
  30   2.0000      -0.334402        -9.0995
  31   0.0000      -0.028018        -0.7624
  32   0.0000       0.005930         0.1614
  33   0.0000       0.052110         1.4180
  34   0.0000       0.072729         1.9791
  35   0.0000       0.128842         3.5060

MULLIKEN ATOMIC CHARGES
-----------------------
   0 C :   -0.696592
   1 P :    1.675572
   2 B :   -0.000644
   3 B :   -0.009503
   4 F :   -0.372583
   5 F :   -0.372583
   6 F :   -0.367718
   7 H :    0.054691
   8 H :    0.015472
   9 H :    0.026935
  10 H :    0.046954
Sum of atomic charges:    0.0000000

LOEWDIN ATOMIC CHARGES
----------------------
   0 C :   -0.512111
   1 P :    1.216156
   2 B :   -0.060076
   3 B :   -0.066322
   4 F :   -0.217035
   5 F :   -0.217035
   6 F :   -0.203507
   7 H :    0.026416
   8 H :    0.003526
   9 H :    0.006996
  10 H :    0.022993

  Mayer bond orders larger than 0.100000
B(  0-C ,  1-P ) :   1.3562 B(  0-C ,  2-B ) :   1.1247 B(  0-C ,  3-B ) :   1.1451
B(  1-P ,  4-F ) :   0.9663 B(  1-P ,  5-F ) :   0.9663 B(  1-P ,  6-F ) :   0.9703
B(  2-B ,  7-H ) :   0.9848 B(  2-B ,  8-H ) :   0.9806 B(  3-B ,  9-H ) :   0.9844
B(  3-B , 10-H ) :   0.9845

Dispersion correction           -0.004869105
FINAL SINGLE POINT ENERGY      -729.971934902642

DIPOLE MOMENT
-------------
                                X             Y             Z
Electronic contribution:     -1.98672       9.33274      -0.00000
Nuclear contribution   :      1.82791      -8.53632       0.00000
                        -----------------------------------------
Total Dipole Moment    :     -0.15881       0.79642      -0.00000
                        -----------------------------------------
Magnitude (a.u.)       :      0.81210
Magnitude (Debye)      :      2.06419

Rotational constants in cm-1:     0.103899     0.067285     0.054715
Rotational constants in MHz :  3114.806306  2017.148057  1640.305031

                             ****ORCA TERMINATED NORMALLY****
TOTAL RUN TIME: 0 days 0 hours 1 minutes 10 seconds 615 msec
