                         Program Version 5.0.3 -  RELEASE  -
|  1> ! PBEh-3c def2/J TightSCF DefGrid3
|  2>
|  3> %maxcore 60000
|  4>
|  5> %pal
|  6> nprocs 4
|  7> end
|  8>
|  9> *xyzfile 0 1 ALA_xag.xyz
| 10>
| 11>                          ****END OF INPUT****

CARTESIAN COORDINATES (ANGSTROEM)
---------------------------------
  N     -1.049322   -0.364605    0.199123
  H     -0.815120   -1.233745    0.653486
  C      0.051293    0.526120   -0.063445
  H     -0.052399    0.913296   -1.078863
  C      0.074835    1.698432    0.918271
  C      1.326890   -0.294192    0.065764
  H      0.894804    2.380764    0.697426
  H     -0.864352    2.240688    0.842062
  H      0.194630    1.323807    1.933724
  O      1.355909   -1.342582    0.703128
  C     -2.308056   -0.068596   -0.209357
  C     -3.355516   -1.106382    0.112877
  H     -3.829179   -1.419187   -0.814481
  H     -4.120298   -0.645367    0.733399
  H     -2.952728   -1.976500    0.624902
  O     -2.575596    0.973253   -0.799919
  N      2.412868    0.254975   -0.526338
  H      2.280171    1.081280   -1.082212
  C      3.725116   -0.352043   -0.454296
  H      4.468545    0.380652   -0.149186
  H      4.018506   -0.782443   -1.410434
  H      3.675181   -1.144231    0.285519

 Total Charge           Charge          ....    0
 Multiplicity           Mult            ....    1
 Number of Electrons    NEL             ....   78
 Basis Dimension        Dim             ....  174

ORBITAL ENERGIES
----------------

  NO   OCC          E(Eh)            E(eV)
   0   2.0000     -19.471603      -529.8493
   1   2.0000     -19.446801      -529.1744
   2   2.0000     -14.676466      -399.3669
   3   2.0000     -14.653950      -398.7542
   4   2.0000     -10.557640      -287.2880
   5   2.0000     -10.541649      -286.8529
   6   2.0000     -10.491909      -285.4993
   7   2.0000     -10.475941      -285.0649
   8   2.0000     -10.435987      -283.9776
   9   2.0000     -10.434399      -283.9344
  10   2.0000      -1.157919       -31.5086
  11   2.0000      -1.132958       -30.8294
  12   2.0000      -1.035968       -28.1901
  13   2.0000      -1.020757       -27.7762
  14   2.0000      -0.875790       -23.8315
  15   2.0000      -0.818014       -22.2593
  16   2.0000      -0.798161       -21.7191
  17   2.0000      -0.728870       -19.8336
  18   2.0000      -0.672077       -18.2881
  19   2.0000      -0.650389       -17.6980
  20   2.0000      -0.608075       -16.5466
  21   2.0000      -0.553543       -15.0627
  22   2.0000      -0.536905       -14.6099
  23   2.0000      -0.529197       -14.4002
  24   2.0000      -0.521398       -14.1880
  25   2.0000      -0.508543       -13.8382
  26   2.0000      -0.492458       -13.4005
  27   2.0000      -0.476599       -12.9689
  28   2.0000      -0.464051       -12.6275
  29   2.0000      -0.457934       -12.4610
  30   2.0000      -0.452308       -12.3079
  31   2.0000      -0.439267       -11.9531
  32   2.0000      -0.427784       -11.6406
  33   2.0000      -0.423417       -11.5218
  34   2.0000      -0.395363       -10.7584
  35   2.0000      -0.326051        -8.8723
  36   2.0000      -0.317324        -8.6348
  37   2.0000      -0.300647        -8.1810
  38   2.0000      -0.295998        -8.0545
  39   0.0000       0.048825         1.3286
  40   0.0000       0.071243         1.9386
  41   0.0000       0.111472         3.0333
  42   0.0000       0.142191         3.8692
  43   0.0000       0.169671         4.6170

MULLIKEN ATOMIC CHARGES
-----------------------
   0 N :   -0.641477
   1 H :    0.381639
   2 C :   -0.183325
   3 H :    0.254069
   4 C :   -0.630590
   5 C :    0.548652
   6 H :    0.203914
   7 H :    0.266875
   8 H :    0.227709
   9 O :   -0.441772
  10 C :    0.527609
  11 C :   -0.746321
  12 H :    0.255647
  13 H :    0.255126
  14 H :    0.217165
  15 O :   -0.445163
  16 N :   -0.634227
  17 H :    0.361987
  18 C :   -0.495147
  19 H :    0.223380
  20 H :    0.225671
  21 H :    0.268578
Sum of atomic charges:    0.0000000

LOEWDIN ATOMIC CHARGES
----------------------
   0 N :   -0.226556
   1 H :    0.267463
   2 C :   -0.098282
   3 H :    0.140953
   4 C :   -0.352682
   5 C :    0.115077
   6 H :    0.123979
   7 H :    0.150419
   8 H :    0.135632
   9 O :   -0.287578
  10 C :    0.105674
  11 C :   -0.387464
  12 H :    0.155636
  13 H :    0.155418
  14 H :    0.129357
  15 O :   -0.294010
  16 N :   -0.238407
  17 H :    0.256266
  18 C :   -0.256109
  19 H :    0.125177
  20 H :    0.124213
  21 H :    0.155824

  Mayer bond orders larger than 0.100000
B(  0-N ,  1-H ) :   0.7799 B(  0-N ,  2-C ) :   0.9443 B(  0-N , 10-C ) :   1.1516
B(  2-C ,  3-H ) :   0.8852 B(  2-C ,  4-C ) :   0.9683 B(  2-C ,  5-C ) :   0.9073
B(  4-C ,  6-H ) :   0.9224 B(  4-C ,  7-H ) :   0.9046 B(  4-C ,  8-H ) :   0.9206
B(  5-C ,  9-O ) :   1.9608 B(  5-C , 16-N ) :   1.1394 B( 10-C , 11-C ) :   0.9292
B( 10-C , 15-O ) :   1.9588 B( 11-C , 12-H ) :   0.9112 B( 11-C , 13-H ) :   0.9113
B( 11-C , 14-H ) :   0.9210 B( 16-N , 17-H ) :   0.8246 B( 16-N , 18-C ) :   0.9466
B( 18-C , 19-H ) :   0.9218 B( 18-C , 20-H ) :   0.9187 B( 18-C , 21-H ) :   0.8988

Dispersion correction           -0.011351889
FINAL SINGLE POINT ENERGY      -494.793966303788

DIPOLE MOMENT
-------------
                                X             Y             Z
Electronic contribution:     -1.83524      -1.10226      -1.29422
Nuclear contribution   :      2.96860       1.15912       1.19059
                        -----------------------------------------
Total Dipole Moment    :      1.13336       0.05687      -0.10363
                        -----------------------------------------
Magnitude (a.u.)       :      1.13951
Magnitude (Debye)      :      2.89640

Rotational constants in cm-1:     0.097090     0.022044     0.019944
Rotational constants in MHz :  2910.693233   660.859616   597.900866

                             ****ORCA TERMINATED NORMALLY****
TOTAL RUN TIME: 0 days 0 hours 2 minutes 24 seconds 735 msec
