                         Program Version 5.0.3 -  RELEASE  -
|  1> ! PBEh-3c def2/J TightSCF DefGrid3
|  2>
|  3> %maxcore 60000
|  4>
|  5> %pal
|  6> nprocs 4
|  7> end
|  8>
|  9> *xyzfile 0 2 13.xyz
| 10>
| 11>                          ****END OF INPUT****

CARTESIAN COORDINATES (ANGSTROEM)
---------------------------------
  S      1.363023   -2.128789   -2.171064
  H     -0.743671    2.802626    0.630429
  H     -2.169786   -1.838598   -0.448874
  H      1.532805    1.289232    2.912651
  Mg     1.297670   -1.062445   -0.081487
  N     -0.802830    1.217393   -0.927328
  O     -0.128536    2.550686    1.394250
  S     -1.590138   -2.055748   -1.650750
  N      0.059127    0.696868   -0.032843
  N      0.002778   -2.522649   -1.009281
  C      1.363170    0.703323    1.989634
  H     -1.079752    0.560013   -1.667291
  C      0.369109    1.366009    1.071638
  H     -0.009147   -3.537230   -0.906508
  O     -1.396610    2.355183   -0.815929
  N      1.932788   -0.395874    1.712753

 Total Charge           Charge          ....    0
 Multiplicity           Mult            ....    2
 Number of Electrons    NEL             ....  105
 Basis Dimension        Dim             ....  184

ORBITAL ENERGIES
----------------
                 SPIN UP ORBITALS
  NO   OCC          E(Eh)            E(eV)
   0   1.0000     -89.644328     -2439.3462
   1   1.0000     -89.575702     -2437.4788
   2   1.0000     -47.359497     -1288.7174
   3   1.0000     -19.571323      -532.5628
   4   1.0000     -19.558761      -532.2209
   5   1.0000     -14.815429      -403.1483
   6   1.0000     -14.726710      -400.7342
   7   1.0000     -14.725292      -400.6956
   8   1.0000     -14.607081      -397.4789
   9   1.0000     -10.596599      -288.3481
  10   1.0000     -10.494595      -285.5724
  11   1.0000      -8.281685      -225.3561
  12   1.0000      -8.211285      -223.4404
  13   1.0000      -6.173802      -167.9977
  14   1.0000      -6.169279      -167.8746
  15   1.0000      -6.163019      -167.7043
  16   1.0000      -6.105887      -166.1496
  17   1.0000      -6.095455      -165.8658
  18   1.0000      -6.093939      -165.8245
  19   1.0000      -3.309574       -90.0581
  20   1.0000      -1.994206       -54.2651
  21   1.0000      -1.993552       -54.2473
  22   1.0000      -1.991831       -54.2005
  23   1.0000      -1.289685       -35.0941
  24   1.0000      -1.221442       -33.2371
  25   1.0000      -1.094199       -29.7747
  26   1.0000      -1.032135       -28.0858
  27   1.0000      -0.978219       -26.6187
  28   1.0000      -0.898566       -24.4512
  29   1.0000      -0.823968       -22.4213
  30   1.0000      -0.778317       -21.1791
  31   1.0000      -0.721069       -19.6213
  32   1.0000      -0.679608       -18.4931
  33   1.0000      -0.648225       -17.6391
  34   1.0000      -0.615968       -16.7613
  35   1.0000      -0.602146       -16.3852
  36   1.0000      -0.567926       -15.4540
  37   1.0000      -0.561867       -15.2892
  38   1.0000      -0.521977       -14.2037
  39   1.0000      -0.521787       -14.1985
  40   1.0000      -0.517187       -14.0734
  41   1.0000      -0.466295       -12.6885
  42   1.0000      -0.445128       -12.1125
  43   1.0000      -0.431696       -11.7471
  44   1.0000      -0.418384       -11.3848
  45   1.0000      -0.399383       -10.8678
  46   1.0000      -0.389481       -10.5983
  47   1.0000      -0.374338       -10.1863
  48   1.0000      -0.337861        -9.1937
  49   1.0000      -0.289605        -7.8806
  50   1.0000      -0.282160        -7.6780
  51   1.0000      -0.276555        -7.5254
  52   1.0000      -0.269935        -7.3453
  53   0.0000      -0.048424        -1.3177
  54   0.0000      -0.026631        -0.7247
  55   0.0000       0.015304         0.4164
  56   0.0000       0.041162         1.1201
  57   0.0000       0.058570         1.5938

                 SPIN DOWN ORBITALS
  NO   OCC          E(Eh)            E(eV)
   0   1.0000     -89.644325     -2439.3461
   1   1.0000     -89.575706     -2437.4789
   2   1.0000     -47.359511     -1288.7178
   3   1.0000     -19.568927      -532.4976
   4   1.0000     -19.544424      -531.8308
   5   1.0000     -14.802357      -402.7926
   6   1.0000     -14.728051      -400.7707
   7   1.0000     -14.726722      -400.7345
   8   1.0000     -14.604904      -397.4196
   9   1.0000     -10.593478      -288.2632
  10   1.0000     -10.495871      -285.6072
  11   1.0000      -8.281681      -225.3560
  12   1.0000      -8.211290      -223.4406
  13   1.0000      -6.173799      -167.9976
  14   1.0000      -6.169279      -167.8746
  15   1.0000      -6.163008      -167.7040
  16   1.0000      -6.105890      -166.1497
  17   1.0000      -6.095470      -165.8662
  18   1.0000      -6.093944      -165.8246
  19   1.0000      -3.309600       -90.0588
  20   1.0000      -1.994218       -54.2654
  21   1.0000      -1.993558       -54.2475
  22   1.0000      -1.991870       -54.2015
  23   1.0000      -1.268280       -34.5116
  24   1.0000      -1.211212       -32.9588
  25   1.0000      -1.083254       -29.4768
  26   1.0000      -1.032145       -28.0861
  27   1.0000      -0.972349       -26.4590
  28   1.0000      -0.877197       -23.8697
  29   1.0000      -0.823895       -22.4193
  30   1.0000      -0.772328       -21.0161
  31   1.0000      -0.721044       -19.6206
  32   1.0000      -0.674101       -18.3432
  33   1.0000      -0.643412       -17.5081
  34   1.0000      -0.602610       -16.3978
  35   1.0000      -0.567645       -15.4464
  36   1.0000      -0.561571       -15.2811
  37   1.0000      -0.552502       -15.0343
  38   1.0000      -0.521593       -14.1933
  39   1.0000      -0.516847       -14.0641
  40   1.0000      -0.474877       -12.9221
  41   1.0000      -0.466263       -12.6877
  42   1.0000      -0.443861       -12.0781
  43   1.0000      -0.429398       -11.6845
  44   1.0000      -0.399045       -10.8586
  45   1.0000      -0.386078       -10.5057
  46   1.0000      -0.378303       -10.2942
  47   1.0000      -0.348224        -9.4757
  48   1.0000      -0.337010        -9.1705
  49   1.0000      -0.289214        -7.8699
  50   1.0000      -0.281642        -7.6639
  51   1.0000      -0.267293        -7.2734
  52   0.0000      -0.083878        -2.2824
  53   0.0000      -0.030651        -0.8340
  54   0.0000      -0.014076        -0.3830
  55   0.0000       0.015770         0.4291
  56   0.0000       0.041580         1.1315

MULLIKEN ATOMIC CHARGES AND SPIN POPULATIONS
--------------------------------------------
   0 S :   -0.157582   -0.000673
   1 H :    0.473214   -0.006405
   2 H :    0.196623    0.000061
   3 H :    0.211031    0.002913
   4 Mg:    0.766895   -0.001883
   5 N :   -0.010488    0.455226
   6 O :   -0.560038    0.061541
   7 S :    0.014463    0.000236
   8 N :   -0.482733   -0.116031
   9 N :   -0.830748   -0.000272
  10 C :   -0.056960   -0.087002
  11 H :    0.416789   -0.024251
  12 C :    0.499718    0.177961
  13 H :    0.421811   -0.000012
  14 O :   -0.404481    0.429801
  15 N :   -0.497515    0.108791
Sum of atomic charges         :   -0.0000000

LOEWDIN ATOMIC CHARGES AND SPIN POPULATIONS
-------------------------------------------
   0 S :    0.145710   -0.000556
   1 H :    0.341353   -0.003771
   2 H :    0.108778    0.000067
   3 H :    0.119857    0.001128
   4 Mg:   -0.354126   -0.000270
   5 N :    0.069036    0.430534
   6 O :   -0.261900    0.064925
   7 S :    0.133599    0.000188
   8 N :   -0.077593   -0.077470
   9 N :   -0.402895   -0.000305
  10 C :   -0.044482   -0.059874
  11 H :    0.266425   -0.015619
  12 C :    0.160096    0.143288
  13 H :    0.273040   -0.000009
  14 O :   -0.289421    0.422615
  15 N :   -0.187476    0.095127

  Mayer bond orders larger than 0.100000
B(  0-S ,  4-Mg) :   0.7719 B(  0-S ,  9-N ) :   0.8358 B(  1-H ,  6-O ) :   0.6099
B(  1-H , 14-O ) :   0.1701 B(  2-H ,  7-S ) :   0.9096 B(  3-H , 10-C ) :   0.8827
B(  4-Mg,  8-N ) :   0.2688 B(  4-Mg,  9-N ) :   0.2716 B(  4-Mg, 15-N ) :   0.7367
B(  5-N ,  8-N ) :   1.0977 B(  5-N , 11-H ) :   0.7318 B(  5-N , 14-O ) :   1.4846
B(  6-O , 12-C ) :   1.3098 B(  7-S ,  9-N ) :   0.9359 B(  8-N , 12-C ) :   1.3789
B(  9-N , 13-H ) :   0.7809 B( 10-C , 12-C ) :   0.9178 B( 10-C , 15-N ) :   1.9397

Dispersion correction           -0.010519172
FINAL SINGLE POINT ENERGY     -1442.922910447233

DIPOLE MOMENT
-------------
                                X             Y             Z
Electronic contribution:      2.25581      -1.65756      -2.32176
Nuclear contribution   :     -3.42247       1.32820       2.38083
                        -----------------------------------------
Total Dipole Moment    :     -1.16666      -0.32936       0.05907
                        -----------------------------------------
Magnitude (a.u.)       :      1.21370
Magnitude (Debye)      :      3.08499

Rotational constants in cm-1:     0.034785     0.017755     0.013524
Rotational constants in MHz :  1042.841771   532.271340   405.450931

                             ****ORCA TERMINATED NORMALLY****
TOTAL RUN TIME: 0 days 0 hours 5 minutes 32 seconds 997 msec
