                         Program Version 5.0.3 -  RELEASE  -
|  1> ! PBEh-3c def2/J TightSCF DefGrid3
|  2>
|  3> %maxcore 60000
|  4>
|  5> %pal
|  6> nprocs 4
|  7> end
|  8>
|  9> *xyzfile 0 2 PH2.xyz
| 10>
| 11>                          ****END OF INPUT****

CARTESIAN COORDINATES (ANGSTROEM)
---------------------------------
  P      0.000000    0.000000    0.655389
  H     -1.020132    0.000000   -0.327695
  H      1.020132    0.000000   -0.327695

 Total Charge           Charge          ....    0
 Multiplicity           Mult            ....    2
 Number of Electrons    NEL             ....   17
 Basis Dimension        Dim             ....   22

ORBITAL ENERGIES
----------------
                 SPIN UP ORBITALS
  NO   OCC          E(Eh)            E(eV)
   0   1.0000     -77.744179     -2115.5267
   1   1.0000      -6.822960      -185.6622
   2   1.0000      -4.919375      -133.8630
   3   1.0000      -4.911478      -133.6481
   4   1.0000      -4.909966      -133.6070
   5   1.0000      -0.712333       -19.3836
   6   1.0000      -0.440762       -11.9937
   7   1.0000      -0.353150        -9.6097
   8   1.0000      -0.294775        -8.0212
   9   0.0000       0.067285         1.8309
  10   0.0000       0.120954         3.2913
  11   0.0000       0.278610         7.5814
  12   0.0000       0.507437        13.8081
  13   0.0000       0.537603        14.6289

                 SPIN DOWN ORBITALS
  NO   OCC          E(Eh)            E(eV)
   0   1.0000     -77.739241     -2115.3923
   1   1.0000      -6.817631      -185.5172
   2   1.0000      -4.908175      -133.5582
   3   1.0000      -4.907088      -133.5287
   4   1.0000      -4.900532      -133.3503
   5   1.0000      -0.672022       -18.2867
   6   1.0000      -0.434135       -11.8134
   7   1.0000      -0.335335        -9.1249
   8   0.0000      -0.083338        -2.2677
   9   0.0000       0.074677         2.0321
  10   0.0000       0.145106         3.9485
  11   0.0000       0.307744         8.3741
  12   0.0000       0.514569        14.0021

MULLIKEN ATOMIC CHARGES AND SPIN POPULATIONS
--------------------------------------------
   0 P :   -0.128728    1.082026
   1 H :    0.064364   -0.041013
   2 H :    0.064364   -0.041013
Sum of atomic charges         :   -0.0000000

LOEWDIN ATOMIC CHARGES AND SPIN POPULATIONS
-------------------------------------------
   0 P :   -0.053185    1.044076
   1 H :    0.026592   -0.022038
   2 H :    0.026592   -0.022038

  Mayer bond orders larger than 0.100000
B(  0-P ,  1-H ) :   0.9627 B(  0-P ,  2-H ) :   0.9627

Dispersion correction           -0.000450812
FINAL SINGLE POINT ENERGY      -342.095147588253

DIPOLE MOMENT
-------------
                                X             Y             Z
Electronic contribution:     -0.00000      -0.00000       1.40735
Nuclear contribution   :      0.00000       0.00000      -1.78557
                        -----------------------------------------
Total Dipole Moment    :     -0.00000      -0.00000      -0.37822
                        -----------------------------------------
Magnitude (a.u.)       :      0.37822
Magnitude (Debye)      :      0.96135

Rotational constants in cm-1:     9.215308     8.035143     4.292428
Rotational constants in MHz : 276267.995669 240887.538759 128683.757756

                             ****ORCA TERMINATED NORMALLY****
TOTAL RUN TIME: 0 days 0 hours 0 minutes 39 seconds 509 msec
