                         Program Version 5.0.3 -  RELEASE  -
|  1> ! PBEh-3c def2/J TightSCF DefGrid3
|  2>
|  3> %maxcore 60000
|  4>
|  5> %pal
|  6> nprocs 4
|  7> end
|  8>
|  9> *xyzfile 0 1 40A.xyz
| 10>
| 11>                          ****END OF INPUT****

CARTESIAN COORDINATES (ANGSTROEM)
---------------------------------
  C      1.207100    0.696920    0.000000
  H      2.143864    1.237760    0.000000
  C      1.207100   -0.696920    0.000000
  H      2.143864   -1.237760    0.000000
  C      0.000000   -1.393839    0.000000
  H      0.000000   -2.475521    0.000000
  C     -1.207100   -0.696920    0.000000
  H     -2.143864   -1.237760    0.000000
  C     -1.207100    0.696920    0.000000
  H     -2.143864    1.237760    0.000000
  C      0.000000    1.393839    0.000000
  H      0.000000    2.475521    0.000000

 Total Charge           Charge          ....    0
 Multiplicity           Mult            ....    1
 Number of Electrons    NEL             ....   42
 Basis Dimension        Dim             ....  102

ORBITAL ENERGIES
----------------

  NO   OCC          E(Eh)            E(eV)
   0   2.0000     -10.448762      -284.3253
   1   2.0000     -10.448543      -284.3193
   2   2.0000     -10.448541      -284.3193
   3   2.0000     -10.447930      -284.3026
   4   2.0000     -10.447928      -284.3026
   5   2.0000     -10.447700      -284.2964
   6   2.0000      -0.952111       -25.9083
   7   2.0000      -0.835470       -22.7343
   8   2.0000      -0.835470       -22.7343
   9   2.0000      -0.678970       -18.4757
  10   2.0000      -0.678969       -18.4757
  11   2.0000      -0.591977       -16.1085
  12   2.0000      -0.525882       -14.3100
  13   2.0000      -0.508465       -13.8360
  14   2.0000      -0.481762       -13.1094
  15   2.0000      -0.481760       -13.1094
  16   2.0000      -0.420880       -11.4527
  17   2.0000      -0.398301       -10.8383
  18   2.0000      -0.398300       -10.8383
  19   2.0000      -0.292480        -7.9588
  20   2.0000      -0.292477        -7.9587
  21   0.0000       0.019182         0.5220
  22   0.0000       0.019184         0.5220
  23   0.0000       0.140712         3.8290
  24   0.0000       0.196249         5.3402
  25   0.0000       0.201738         5.4896

MULLIKEN ATOMIC CHARGES
-----------------------
   0 C :   -0.219845
   1 H :    0.219844
   2 C :   -0.219845
   3 H :    0.219845
   4 C :   -0.219857
   5 H :    0.219857
   6 C :   -0.219844
   7 H :    0.219845
   8 C :   -0.219845
   9 H :    0.219844
  10 C :   -0.219857
  11 H :    0.219857
Sum of atomic charges:   -0.0000000

LOEWDIN ATOMIC CHARGES
----------------------
   0 C :   -0.135683
   1 H :    0.135686
   2 C :   -0.135683
   3 H :    0.135686
   4 C :   -0.135689
   5 H :    0.135685
   6 C :   -0.135683
   7 H :    0.135686
   8 C :   -0.135683
   9 H :    0.135686
  10 C :   -0.135689
  11 H :    0.135685

  Mayer bond orders larger than 0.100000
B(  0-C ,  1-H ) :   0.9200 B(  0-C ,  2-C ) :   1.4265 B(  0-C , 10-C ) :   1.4265
B(  2-C ,  3-H ) :   0.9200 B(  2-C ,  4-C ) :   1.4265 B(  4-C ,  5-H ) :   0.9200
B(  4-C ,  6-C ) :   1.4265 B(  6-C ,  7-H ) :   0.9200 B(  6-C ,  8-C ) :   1.4265
B(  8-C ,  9-H ) :   0.9200 B(  8-C , 10-C ) :   1.4265 B( 10-C , 11-H ) :   0.9200

Dispersion correction           -0.005880504
FINAL SINGLE POINT ENERGY      -231.725800940874

DIPOLE MOMENT
-------------
                                X             Y             Z
Electronic contribution:     -0.00000      -0.00000       0.00000
Nuclear contribution   :      0.00000      -0.00000       0.00000
                        -----------------------------------------
Total Dipole Moment    :     -0.00000      -0.00000       0.00000
                        -----------------------------------------
Magnitude (a.u.)       :      0.00000
Magnitude (Debye)      :      0.00000

Rotational constants in cm-1:     0.190404     0.190404     0.095202
Rotational constants in MHz :  5708.171602  5708.171187  2854.085697

                             ****ORCA TERMINATED NORMALLY****
TOTAL RUN TIME: 0 days 0 hours 1 minutes 4 seconds 722 msec
