                         Program Version 5.0.3 -  RELEASE  -
|  1> ! PBEh-3c def2/J TightSCF DefGrid3
|  2>
|  3> %maxcore 60000
|  4>
|  5> %pal
|  6> nprocs 4
|  7> end
|  8>
|  9> *xyzfile 0 1 7.xyz
| 10>
| 11>                          ****END OF INPUT****

CARTESIAN COORDINATES (ANGSTROEM)
---------------------------------
  N      0.444232    3.034583    0.427378
  C      1.533475    2.467234   -0.193801
  C      1.189058    1.238421   -0.717499
  C     -0.201215    1.043323   -0.406496
  C     -1.112640   -0.005573   -0.660271
  C     -2.410597    0.119477   -0.188281
  C     -2.824563    1.278000    0.515934
  C     -1.950324    2.316541    0.769581
  C     -0.633513    2.185641    0.306644
  H      0.426984    3.942590    0.854060
  H      2.479577    2.983559   -0.226490
  H     -0.790872   -0.887614   -1.190177
  H     -3.849399    1.319715    0.857752
  H     -2.277350    3.193548    1.313209
  O     -3.385355   -0.825082   -0.340506
  C     -2.979145   -2.055665   -0.928293
  H     -2.673866   -1.911142   -1.967810
  H     -2.164650   -2.511207   -0.363513
  H     -3.853937   -2.698383   -0.900660
  C      2.127111    0.309510   -1.425581
  C      2.656177   -0.836611   -0.545392
  N      1.658984   -1.841319   -0.229450
  C      0.897952   -1.971697    0.899895
  C      1.229325   -1.065197    2.065182
  H      1.645407   -0.122041   -2.307724
  H      2.988522    0.878566   -1.785913
  H      3.482219   -1.331179   -1.061859
  H      3.054508   -0.430629    0.382201
  H      1.377416   -2.466201   -0.969095
  O      0.002421   -2.805924    0.955327
  H      2.252242   -1.228343    2.406376
  H      1.121852   -0.017852    1.785323
  H      0.539970   -1.299052    2.869954

 Total Charge           Charge          ....    0
 Multiplicity           Mult            ....    1
 Number of Electrons    NEL             ....  124
 Basis Dimension        Dim             ....  287

ORBITAL ENERGIES
----------------

  NO   OCC          E(Eh)            E(eV)
   0   2.0000     -19.508644      -530.8572
   1   2.0000     -19.445589      -529.1414
   2   2.0000     -14.684823      -399.5943
   3   2.0000     -14.653710      -398.7477
   4   2.0000     -10.540968      -286.8343
   5   2.0000     -10.493483      -285.5422
   6   2.0000     -10.484171      -285.2888
   7   2.0000     -10.479122      -285.1514
   8   2.0000     -10.473624      -285.0018
   9   2.0000     -10.468925      -284.8739
  10   2.0000     -10.451532      -284.4006
  11   2.0000     -10.448346      -284.3140
  12   2.0000     -10.443766      -284.1893
  13   2.0000     -10.442822      -284.1636
  14   2.0000     -10.435739      -283.9709
  15   2.0000     -10.434449      -283.9358
  16   2.0000     -10.427897      -283.7575
  17   2.0000      -1.156804       -31.4782
  18   2.0000      -1.131057       -30.7776
  19   2.0000      -1.086554       -29.5666
  20   2.0000      -1.017088       -27.6764
  21   2.0000      -0.932734       -25.3810
  22   2.0000      -0.897934       -24.4340
  23   2.0000      -0.844165       -22.9709
  24   2.0000      -0.825737       -22.4695
  25   2.0000      -0.816862       -22.2279
  26   2.0000      -0.801842       -21.8192
  27   2.0000      -0.767412       -20.8823
  28   2.0000      -0.731855       -19.9148
  29   2.0000      -0.686106       -18.6699
  30   2.0000      -0.665559       -18.1108
  31   2.0000      -0.645494       -17.5648
  32   2.0000      -0.632319       -17.2063
  33   2.0000      -0.609131       -16.5753
  34   2.0000      -0.568470       -15.4689
  35   2.0000      -0.559976       -15.2377
  36   2.0000      -0.552938       -15.0462
  37   2.0000      -0.539406       -14.6780
  38   2.0000      -0.519978       -14.1493
  39   2.0000      -0.517924       -14.0934
  40   2.0000      -0.513600       -13.9758
  41   2.0000      -0.497322       -13.5328
  42   2.0000      -0.489138       -13.3101
  43   2.0000      -0.484644       -13.1878
  44   2.0000      -0.478194       -13.0123
  45   2.0000      -0.463500       -12.6125
  46   2.0000      -0.452481       -12.3126
  47   2.0000      -0.449628       -12.2350
  48   2.0000      -0.446179       -12.1412
  49   2.0000      -0.442699       -12.0465
  50   2.0000      -0.429232       -11.6800
  51   2.0000      -0.413063       -11.2400
  52   2.0000      -0.406103       -11.0506
  53   2.0000      -0.404515       -11.0074
  54   2.0000      -0.398216       -10.8360
  55   2.0000      -0.370575       -10.0839
  56   2.0000      -0.342939        -9.3318
  57   2.0000      -0.319916        -8.7053
  58   2.0000      -0.298633        -8.1262
  59   2.0000      -0.293338        -7.9821
  60   2.0000      -0.241571        -6.5735
  61   2.0000      -0.233127        -6.3437
  62   0.0000       0.009979         0.2715
  63   0.0000       0.058266         1.5855
  64   0.0000       0.073805         2.0083
  65   0.0000       0.086179         2.3450
  66   0.0000       0.124473         3.3871

MULLIKEN ATOMIC CHARGES
-----------------------
   0 N :   -0.694666
   1 C :   -0.062097
   2 C :    0.017068
   3 C :    0.073409
   4 C :   -0.471180
   5 C :    0.397922
   6 C :   -0.317776
   7 C :   -0.255310
   8 C :    0.340977
   9 H :    0.357565
  10 H :    0.235862
  11 H :    0.222558
  12 H :    0.233945
  13 H :    0.211526
  14 O :   -0.469095
  15 C :   -0.429712
  16 H :    0.191366
  17 H :    0.253765
  18 H :    0.233910
  19 C :   -0.525680
  20 C :   -0.278694
  21 N :   -0.607532
  22 C :    0.517442
  23 C :   -0.779220
  24 H :    0.227374
  25 H :    0.225225
  26 H :    0.231347
  27 H :    0.235996
  28 H :    0.353569
  29 O :   -0.435308
  30 H :    0.227707
  31 H :    0.267843
  32 H :    0.269891
Sum of atomic charges:   -0.0000000

LOEWDIN ATOMIC CHARGES
----------------------
   0 N :   -0.156354
   1 C :   -0.090886
   2 C :   -0.114871
   3 C :   -0.057004
   4 C :   -0.188835
   5 C :    0.063248
   6 C :   -0.153878
   7 C :   -0.150692
   8 C :   -0.001020
   9 H :    0.261448
  10 H :    0.133423
  11 H :    0.142034
  12 H :    0.146121
  13 H :    0.136442
  14 O :   -0.190712
  15 C :   -0.186804
  16 H :    0.106794
  17 H :    0.134249
  18 H :    0.127412
  19 C :   -0.235156
  20 C :   -0.143691
  21 N :   -0.244203
  22 C :    0.114275
  23 C :   -0.396554
  24 H :    0.132693
  25 H :    0.135169
  26 H :    0.123181
  27 H :    0.133395
  28 H :    0.253972
  29 O :   -0.285957
  30 H :    0.139925
  31 H :    0.156560
  32 H :    0.156276

  Mayer bond orders larger than 0.100000
B(  0-N ,  1-C ) :   1.1484 B(  0-N ,  8-C ) :   1.0022 B(  0-N ,  9-H ) :   0.8342
B(  1-C ,  2-C ) :   1.5436 B(  1-C , 10-H ) :   0.9119 B(  2-C ,  3-C ) :   1.2514
B(  2-C , 19-C ) :   0.9504 B(  3-C ,  4-C ) :   1.2571 B(  3-C ,  8-C ) :   1.2579
B(  4-C ,  5-C ) :   1.4280 B(  4-C , 11-H ) :   0.9068 B(  5-C ,  6-C ) :   1.2964
B(  5-C , 14-O ) :   1.0395 B(  6-C ,  7-C ) :   1.5297 B(  6-C , 12-H ) :   0.9085
B(  7-C ,  8-C ) :   1.2714 B(  7-C , 13-H ) :   0.9210 B( 14-O , 15-C ) :   0.9411
B( 15-C , 16-H ) :   0.9110 B( 15-C , 17-H ) :   0.8782 B( 15-C , 18-H ) :   0.9257
B( 19-C , 20-C ) :   0.9522 B( 19-C , 24-H ) :   0.9192 B( 19-C , 25-H ) :   0.9220
B( 20-C , 21-N ) :   0.9612 B( 20-C , 26-H ) :   0.9132 B( 20-C , 27-H ) :   0.9066
B( 21-N , 22-C ) :   1.1462 B( 21-N , 28-H ) :   0.8245 B( 22-C , 23-C ) :   0.9345
B( 22-C , 29-O ) :   1.9912 B( 23-C , 30-H ) :   0.9109 B( 23-C , 31-H ) :   0.8920
B( 23-C , 32-H ) :   0.9166

Dispersion correction           -0.023554098
FINAL SINGLE POINT ENERGY      -763.327675363508

DIPOLE MOMENT
-------------
                                X             Y             Z
Electronic contribution:     -5.16439       4.83591       0.38193
Nuclear contribution   :      6.76976      -3.53247      -0.67685
                        -----------------------------------------
Total Dipole Moment    :      1.60536       1.30344      -0.29492
                        -----------------------------------------
Magnitude (a.u.)       :      2.08881
Magnitude (Debye)      :      5.30934

Rotational constants in cm-1:     0.018168     0.016172     0.010496
Rotational constants in MHz :   544.651253   484.833457   314.652711

                             ****ORCA TERMINATED NORMALLY****
TOTAL RUN TIME: 0 days 0 hours 4 minutes 15 seconds 768 msec
