                         Program Version 5.0.3 -  RELEASE  -
|  1> ! PBEh-3c def2/J TightSCF DefGrid3
|  2>
|  3> %maxcore 60000
|  4>
|  5> %pal
|  6> nprocs 4
|  7> end
|  8>
|  9> *xyzfile 0 1 teh2_h2o.xyz
| 10>
| 11>                          ****END OF INPUT****

CARTESIAN COORDINATES (ANGSTROEM)
---------------------------------
  Te     0.000000    0.000000    1.620224
  H     -1.147292    0.000000    2.786764
  H      1.147292    0.000000    2.786764
  O      0.000000    0.000000   -2.005278
  H     -0.756102    0.000000   -2.594237
  H      0.756102    0.000000   -2.594237

 Total Charge           Charge          ....    0
 Multiplicity           Mult            ....    1
 Number of Electrons    NEL             ....   36
 Basis Dimension        Dim             ....   49

ORBITAL ENERGIES
----------------

  NO   OCC          E(Eh)            E(eV)
   0   2.0000     -19.480505      -530.0915
   1   2.0000      -6.490668      -176.6200
   2   2.0000      -4.584433      -124.7488
   3   2.0000      -4.580284      -124.6359
   4   2.0000      -4.568736      -124.3216
   5   2.0000      -1.695408       -46.1344
   6   2.0000      -1.692353       -46.0513
   7   2.0000      -1.681758       -45.7630
   8   2.0000      -1.678116       -45.6639
   9   2.0000      -1.676750       -45.6267
  10   2.0000      -1.109324       -30.1862
  11   2.0000      -0.704175       -19.1616
  12   2.0000      -0.587703       -15.9922
  13   2.0000      -0.443933       -12.0800
  14   2.0000      -0.424901       -11.5621
  15   2.0000      -0.362447        -9.8627
  16   2.0000      -0.361380        -9.8337
  17   2.0000      -0.251848        -6.8531
  18   0.0000       0.019409         0.5282
  19   0.0000       0.083148         2.2626
  20   0.0000       0.132128         3.5954
  21   0.0000       0.206180         5.6104
  22   0.0000       0.274160         7.4603

MULLIKEN ATOMIC CHARGES
-----------------------
   0 Te:   -0.166551
   1 H :    0.076896
   2 H :    0.076896
   3 O :   -0.811695
   4 H :    0.412227
   5 H :    0.412227
Sum of atomic charges:    0.0000000

LOEWDIN ATOMIC CHARGES
----------------------
   0 Te:   -0.106650
   1 H :    0.048101
   2 H :    0.048101
   3 O :   -0.590808
   4 H :    0.300628
   5 H :    0.300628

  Mayer bond orders larger than 0.100000
B(  0-Te,  1-H ) :   0.9721 B(  0-Te,  2-H ) :   0.9721 B(  3-O ,  4-H ) :   0.8119
B(  3-O ,  5-H ) :   0.8119

Dispersion correction           -0.001075070
FINAL SINGLE POINT ENERGY      -345.486297316733

DIPOLE MOMENT
-------------
                                X             Y             Z
Electronic contribution:      0.00000      -0.00000      35.90249
Nuclear contribution   :      0.00000       0.00000     -36.76848
                        -----------------------------------------
Total Dipole Moment    :      0.00000      -0.00000      -0.86599
                        -----------------------------------------
Magnitude (a.u.)       :      0.86599
Magnitude (Debye)      :      2.20116

Rotational constants in cm-1:     4.429060     0.076289     0.074997
Rotational constants in MHz : 132779.878272  2287.076544  2248.349684

                             ****ORCA TERMINATED NORMALLY****
TOTAL RUN TIME: 0 days 0 hours 1 minutes 19 seconds 236 msec
