                         Program Version 5.0.3 -  RELEASE  -
|  1> ! PBEh-3c def2/J TightSCF DefGrid3
|  2>
|  3> %maxcore 60000
|  4>
|  5> %pal
|  6> nprocs 4
|  7> end
|  8>
|  9> *xyzfile 0 1 11_benF3-benA.xyz
| 10>
| 11>                          ****END OF INPUT****

CARTESIAN COORDINATES (ANGSTROEM)
---------------------------------
  F     -1.914074   -1.171208   -0.110673
  H     -2.180665    1.398938   -0.409375
  C      0.373447   -0.776856    0.213048
  C     -0.901106   -0.295713   -0.038342
  C     -1.178591    1.051076   -0.215317
  C     -0.111215    1.930588   -0.127725
  C      1.187439    1.517318    0.123482
  C      1.394210    0.156585    0.290367
  F     -0.346665    3.242328   -0.288420
  H      2.000412    2.222856    0.189255
  H      0.559539   -1.828334    0.360286
  F      2.639006   -0.274021    0.541292

 Total Charge           Charge          ....    0
 Multiplicity           Mult            ....    1
 Number of Electrons    NEL             ....   66
 Basis Dimension        Dim             ....  141

ORBITAL ENERGIES
----------------

  NO   OCC          E(Eh)            E(eV)
   0   2.0000     -25.128523      -683.7819
   1   2.0000     -25.128494      -683.7811
   2   2.0000     -25.128194      -683.7729
   3   2.0000     -10.567043      -287.5439
   4   2.0000     -10.567033      -287.5436
   5   2.0000     -10.566974      -287.5420
   6   2.0000     -10.472958      -284.9837
   7   2.0000     -10.472932      -284.9830
   8   2.0000     -10.472865      -284.9811
   9   2.0000      -1.371159       -37.3111
  10   2.0000      -1.370430       -37.2913
  11   2.0000      -1.369693       -37.2712
  12   2.0000      -0.995931       -27.1007
  13   2.0000      -0.873374       -23.7657
  14   2.0000      -0.872963       -23.7545
  15   2.0000      -0.733975       -19.9725
  16   2.0000      -0.733834       -19.9686
  17   2.0000      -0.661525       -18.0010
  18   2.0000      -0.630508       -17.1570
  19   2.0000      -0.595614       -16.2075
  20   2.0000      -0.587594       -15.9892
  21   2.0000      -0.587532       -15.9876
  22   2.0000      -0.572007       -15.5651
  23   2.0000      -0.553647       -15.0655
  24   2.0000      -0.553245       -15.0546
  25   2.0000      -0.522125       -14.2077
  26   2.0000      -0.521813       -14.1992
  27   2.0000      -0.463027       -12.5996
  28   2.0000      -0.462916       -12.5966
  29   2.0000      -0.452039       -12.3006
  30   2.0000      -0.423408       -11.5215
  31   2.0000      -0.312433        -8.5017
  32   2.0000      -0.312064        -8.4917
  33   0.0000       0.001262         0.0343
  34   0.0000       0.001417         0.0386
  35   0.0000       0.098528         2.6811
  36   0.0000       0.166905         4.5417
  37   0.0000       0.167312         4.5528

MULLIKEN ATOMIC CHARGES
-----------------------
   0 F :   -0.296901
   1 H :    0.277428
   2 C :   -0.548385
   3 C :    0.568140
   4 C :   -0.548234
   5 C :    0.567919
   6 C :   -0.548218
   7 C :    0.568078
   8 F :   -0.297759
   9 H :    0.277421
  10 H :    0.277438
  11 F :   -0.296926
Sum of atomic charges:   -0.0000000

LOEWDIN ATOMIC CHARGES
----------------------
   0 F :   -0.142871
   1 H :    0.169323
   2 C :   -0.202709
   3 C :    0.176458
   4 C :   -0.202646
   5 C :    0.176769
   6 C :   -0.202637
   7 C :    0.176471
   8 F :   -0.143936
   9 H :    0.169332
  10 H :    0.169341
  11 F :   -0.142895

  Mayer bond orders larger than 0.100000
B(  0-F ,  3-C ) :   0.9694 B(  1-H ,  4-C ) :   0.8934 B(  2-C ,  3-C ) :   1.3617
B(  2-C ,  7-C ) :   1.3617 B(  2-C , 10-H ) :   0.8933 B(  3-C ,  4-C ) :   1.3614
B(  4-C ,  5-C ) :   1.3617 B(  5-C ,  6-C ) :   1.3617 B(  5-C ,  8-F ) :   0.9686
B(  6-C ,  7-C ) :   1.3613 B(  6-C ,  9-H ) :   0.8934 B(  7-C , 11-F ) :   0.9693

Dispersion correction           -0.006119475
FINAL SINGLE POINT ENERGY      -528.884004406609

DIPOLE MOMENT
-------------
                                X             Y             Z
Electronic contribution:     -0.00054      -0.00128       0.00524
Nuclear contribution   :      0.00093      -0.00338      -0.00178
                        -----------------------------------------
Total Dipole Moment    :      0.00040      -0.00466       0.00346
                        -----------------------------------------
Magnitude (a.u.)       :      0.00582
Magnitude (Debye)      :      0.01479

Rotational constants in cm-1:     0.058723     0.058688     0.029353
Rotational constants in MHz :  1760.477470  1759.419320   879.979028

                             ****ORCA TERMINATED NORMALLY****
TOTAL RUN TIME: 0 days 0 hours 1 minutes 34 seconds 108 msec
