                         Program Version 5.0.3 -  RELEASE  -
|  1> ! PBEh-3c def2/J TightSCF DefGrid3
|  2>
|  3> %maxcore 60000
|  4>
|  5> %pal
|  6> nprocs 4
|  7> end
|  8>
|  9> *xyzfile 0 1 B46.xyz
| 10>
| 11>                          ****END OF INPUT****

CARTESIAN COORDINATES (ANGSTROEM)
---------------------------------
  C      1.713945   -0.017509    0.565133
  H      1.245828   -0.492341    1.426064
  O      1.935092   -1.072198   -0.368228
  C      0.825403    1.093353    0.012831
  H      0.646749    1.815052    0.815600
  H      1.372917    1.630690   -0.766944
  C     -0.506418    0.605750   -0.560704
  H     -0.330470   -0.036710   -1.423150
  H     -1.087304    1.462139   -0.907114
  H      2.374048   -0.692225   -1.134517
  H      2.664251    0.405114    0.905313
  C     -1.349956   -0.157471    0.444213
  H     -0.872784   -1.109152    0.691332
  H     -1.449949    0.425779    1.367376
  O     -2.626893   -0.377564   -0.153237
  H     -3.126728   -0.954983    0.428915

 Total Charge           Charge          ....    0
 Multiplicity           Mult            ....    1
 Number of Electrons    NEL             ....   50
 Basis Dimension        Dim             ....  110

ORBITAL ENERGIES
----------------

  NO   OCC          E(Eh)            E(eV)
   0   2.0000     -19.486605      -530.2575
   1   2.0000     -19.479185      -530.0556
   2   2.0000     -10.481886      -285.2266
   3   2.0000     -10.475507      -285.0530
   4   2.0000     -10.437485      -284.0184
   5   2.0000     -10.426372      -283.7160
   6   2.0000      -1.122601       -30.5475
   7   2.0000      -1.115362       -30.3506
   8   2.0000      -0.881907       -23.9979
   9   2.0000      -0.792186       -21.5565
  10   2.0000      -0.716067       -19.4852
  11   2.0000      -0.646124       -17.5819
  12   2.0000      -0.578524       -15.7424
  13   2.0000      -0.546801       -14.8792
  14   2.0000      -0.539637       -14.6843
  15   2.0000      -0.515678       -14.0323
  16   2.0000      -0.490973       -13.3601
  17   2.0000      -0.457067       -12.4374
  18   2.0000      -0.423666       -11.5285
  19   2.0000      -0.412382       -11.2215
  20   2.0000      -0.401610       -10.9284
  21   2.0000      -0.378520       -10.3000
  22   2.0000      -0.362129        -9.8540
  23   2.0000      -0.325440        -8.8557
  24   2.0000      -0.320226        -8.7138
  25   0.0000       0.116553         3.1716
  26   0.0000       0.131140         3.5685
  27   0.0000       0.171359         4.6629
  28   0.0000       0.180473         4.9109
  29   0.0000       0.191673         5.2157

MULLIKEN ATOMIC CHARGES
-----------------------
   0 C :   -0.163972
   1 H :    0.207657
   2 O :   -0.621397
   3 C :   -0.485760
   4 H :    0.212639
   5 H :    0.213370
   6 C :   -0.429255
   7 H :    0.228591
   8 H :    0.230570
   9 H :    0.409996
  10 H :    0.196262
  11 C :   -0.143415
  12 H :    0.193225
  13 H :    0.168236
  14 O :   -0.630774
  15 H :    0.414028
Sum of atomic charges:   -0.0000000

LOEWDIN ATOMIC CHARGES
----------------------
   0 C :   -0.098967
   1 H :    0.116184
   2 O :   -0.412317
   3 C :   -0.269325
   4 H :    0.127408
   5 H :    0.121923
   6 C :   -0.253523
   7 H :    0.132980
   8 H :    0.132772
   9 H :    0.306499
  10 H :    0.101737
  11 C :   -0.092100
  12 H :    0.103936
  13 H :    0.092112
  14 O :   -0.416710
  15 H :    0.307391

  Mayer bond orders larger than 0.100000
B(  0-C ,  1-H ) :   0.9147 B(  0-C ,  2-O ) :   1.0144 B(  0-C ,  3-C ) :   0.9664
B(  0-C , 10-H ) :   0.9129 B(  2-O ,  9-H ) :   0.7951 B(  3-C ,  4-H ) :   0.9100
B(  3-C ,  5-H ) :   0.9239 B(  3-C ,  6-C ) :   0.9659 B(  6-C ,  7-H ) :   0.9089
B(  6-C ,  8-H ) :   0.9144 B(  6-C , 11-C ) :   0.9868 B( 11-C , 12-H ) :   0.9020
B( 11-C , 13-H ) :   0.9058 B( 11-C , 14-O ) :   1.0170 B( 14-O , 15-H ) :   0.7949

Dispersion correction           -0.006679249
FINAL SINGLE POINT ENERGY      -308.205960812426

DIPOLE MOMENT
-------------
                                X             Y             Z
Electronic contribution:     -1.14028      -2.17703      -1.06178
Nuclear contribution   :      1.48548       2.53250       1.45318
                        -----------------------------------------
Total Dipole Moment    :      0.34519       0.35547       0.39139
                        -----------------------------------------
Magnitude (a.u.)       :      0.63143
Magnitude (Debye)      :      1.60497

Rotational constants in cm-1:     0.226721     0.057558     0.052579
Rotational constants in MHz :  6796.925344  1725.537191  1576.275925

                             ****ORCA TERMINATED NORMALLY****
TOTAL RUN TIME: 0 days 0 hours 1 minutes 33 seconds 711 msec
