                         Program Version 5.0.3 -  RELEASE  -
|  1> ! PBEh-3c def2/J TightSCF DefGrid3
|  2>
|  3> %maxcore 60000
|  4>
|  5> %pal
|  6> nprocs 4
|  7> end
|  8>
|  9> *xyzfile -1 1 152B.xyz
| 10>
| 11>                          ****END OF INPUT****

CARTESIAN COORDINATES (ANGSTROEM)
---------------------------------
  O     -2.116220   -0.991480    3.111860
  Cl    -3.049850    0.185360    2.890800
  O     -2.516830    0.956040    1.714730
  O     -4.392020   -0.321440    2.591700
  O     -3.042390    1.040170    4.081080

 Total Charge           Charge          ....   -1
 Multiplicity           Mult            ....    1
 Number of Electrons    NEL             ....   50
 Basis Dimension        Dim             ....   78

ORBITAL ENERGIES
----------------

  NO   OCC          E(Eh)            E(eV)
   0   2.0000    -102.486562     -2788.8011
   1   2.0000     -19.309812      -525.4467
   2   2.0000     -19.309606      -525.4411
   3   2.0000     -19.295459      -525.0561
   4   2.0000     -19.290579      -524.9233
   5   2.0000      -9.896999      -269.3110
   6   2.0000      -7.584698      -206.3901
   7   2.0000      -7.584340      -206.3804
   8   2.0000      -7.583958      -206.3700
   9   2.0000      -1.183560       -32.2063
  10   2.0000      -0.952190       -25.9104
  11   2.0000      -0.930771       -25.3276
  12   2.0000      -0.909736       -24.7552
  13   2.0000      -0.531988       -14.4761
  14   2.0000      -0.408192       -11.1075
  15   2.0000      -0.407581       -11.0908
  16   2.0000      -0.407460       -11.0875
  17   2.0000      -0.238171        -6.4810
  18   2.0000      -0.237207        -6.4547
  19   2.0000      -0.213994        -5.8231
  20   2.0000      -0.206853        -5.6288
  21   2.0000      -0.204695        -5.5700
  22   2.0000      -0.141616        -3.8536
  23   2.0000      -0.135195        -3.6788
  24   2.0000      -0.130290        -3.5454
  25   0.0000       0.305876         8.3233
  26   0.0000       0.321639         8.7522
  27   0.0000       0.336522         9.1572
  28   0.0000       0.351036         9.5522
  29   0.0000       0.643717        17.5164

MULLIKEN ATOMIC CHARGES
-----------------------
   0 O :   -0.687455
   1 Cl:    1.685840
   2 O :   -0.680537
   3 O :   -0.658831
   4 O :   -0.659016
Sum of atomic charges:   -1.0000000

LOEWDIN ATOMIC CHARGES
----------------------
   0 O :   -0.691129
   1 Cl:    1.675865
   2 O :   -0.681032
   3 O :   -0.651772
   4 O :   -0.651932

  Mayer bond orders larger than 0.100000
B(  0-O ,  1-Cl) :   1.3775 B(  1-Cl,  2-O ) :   1.3977 B(  1-Cl,  3-O ) :   1.4506
B(  1-Cl,  4-O ) :   1.4507

Dispersion correction           -0.001800937
FINAL SINGLE POINT ENERGY      -759.683363091832

DIPOLE MOMENT
-------------
                                X             Y             Z
Electronic contribution:     -0.20333       0.09094       0.09833
Nuclear contribution   :      0.02919      -0.01286      -0.01412
                        -----------------------------------------
Total Dipole Moment    :     -0.17414       0.07807       0.08421
                        -----------------------------------------
Magnitude (a.u.)       :      0.20860
Magnitude (Debye)      :      0.53021

Rotational constants in cm-1:     0.178835     0.178593     0.177858
Rotational constants in MHz :  5361.343501  5354.094409  5332.059072

                             ****ORCA TERMINATED NORMALLY****
TOTAL RUN TIME: 0 days 0 hours 0 minutes 50 seconds 347 msec
