                         Program Version 5.0.3 -  RELEASE  -
|  1> ! PBEh-3c def2/J TightSCF DefGrid3
|  2>
|  3> %maxcore 60000
|  4>
|  5> %pal
|  6> nprocs 4
|  7> end
|  8>
|  9> *xyzfile 0 2 h2cn.xyz
| 10>
| 11>                          ****END OF INPUT****

CARTESIAN COORDINATES (ANGSTROEM)
---------------------------------
  C      0.583503    0.000000    0.000000
  H      1.149914   -0.936731    0.000000
  H      1.149914    0.936731    0.000000
  N     -0.665857    0.000000    0.000000

 Total Charge           Charge          ....    0
 Multiplicity           Mult            ....    2
 Number of Electrons    NEL             ....   15
 Basis Dimension        Dim             ....   34

ORBITAL ENERGIES
----------------
                 SPIN UP ORBITALS
  NO   OCC          E(Eh)            E(eV)
   0   1.0000     -14.678210      -399.4144
   1   1.0000     -10.490111      -285.4504
   2   1.0000      -1.021545       -27.7976
   3   1.0000      -0.681501       -18.5446
   4   1.0000      -0.562251       -15.2996
   5   1.0000      -0.447407       -12.1746
   6   1.0000      -0.401506       -10.9255
   7   1.0000      -0.326754        -8.8914
   8   0.0000       0.017707         0.4818
   9   0.0000       0.156894         4.2693
  10   0.0000       0.251559         6.8453
  11   0.0000       0.253396         6.8953
  12   0.0000       0.527992        14.3674

                 SPIN DOWN ORBITALS
  NO   OCC          E(Eh)            E(eV)
   0   1.0000     -14.654863      -398.7791
   1   1.0000     -10.494247      -285.5630
   2   1.0000      -0.974008       -26.5041
   3   1.0000      -0.657723       -17.8976
   4   1.0000      -0.524530       -14.2732
   5   1.0000      -0.414663       -11.2835
   6   1.0000      -0.384638       -10.4665
   7   0.0000      -0.044046        -1.1986
   8   0.0000       0.030956         0.8424
   9   0.0000       0.164163         4.4671
  10   0.0000       0.259080         7.0499
  11   0.0000       0.277193         7.5428

MULLIKEN ATOMIC CHARGES AND SPIN POPULATIONS
--------------------------------------------
   0 C :   -0.312806   -0.279368
   1 H :    0.231441    0.116416
   2 H :    0.231441    0.116416
   3 N :   -0.150075    1.046535
Sum of atomic charges         :   -0.0000000

LOEWDIN ATOMIC CHARGES AND SPIN POPULATIONS
-------------------------------------------
   0 C :   -0.215900   -0.151352
   1 H :    0.136123    0.083507
   2 H :    0.136123    0.083507
   3 N :   -0.056345    0.984337

  Mayer bond orders larger than 0.100000
B(  0-C ,  1-H ) :   0.8638 B(  0-C ,  2-H ) :   0.8638 B(  0-C ,  3-N ) :   2.1393

Dispersion correction           -0.000695787
FINAL SINGLE POINT ENERGY       -93.766153780890

DIPOLE MOMENT
-------------
                                X             Y             Z
Electronic contribution:     -1.20483      -0.00000       0.00000
Nuclear contribution   :      2.15398       0.00000       0.00000
                        -----------------------------------------
Total Dipole Moment    :      0.94915      -0.00000       0.00000
                        -----------------------------------------
Magnitude (a.u.)       :      0.94915
Magnitude (Debye)      :      2.41254

Rotational constants in cm-1:     9.529644     1.300199     1.144101
Rotational constants in MHz : 285691.541944 38978.984280 34299.282574

                             ****ORCA TERMINATED NORMALLY****
TOTAL RUN TIME: 0 days 0 hours 0 minutes 51 seconds 51 msec
