                         Program Version 5.0.3 -  RELEASE  -
|  1> ! PBEh-3c def2/J TightSCF DefGrid3
|  2>
|  3> %maxcore 60000
|  4>
|  5> %pal
|  6> nprocs 4
|  7> end
|  8>
|  9> *xyzfile 0 1 P17.xyz
| 10>
| 11>                          ****END OF INPUT****

CARTESIAN COORDINATES (ANGSTROEM)
---------------------------------
  C      0.128383    1.817067   -0.186149
  N     -0.486924    0.519268    0.046418
  N      0.486924   -0.519268    0.046418
  C     -0.128383   -1.817067   -0.186149
  H     -0.649799    2.582884   -0.148956
  H      0.579280    1.824615   -1.178700
  H      0.908890    2.081037    0.545743
  H     -1.011728    0.530122    0.921644
  H      1.011728   -0.530122    0.921644
  H     -0.579280   -1.824615   -1.178700
  H      0.649799   -2.582884   -0.148956
  H     -0.908890   -2.081037    0.545743

 Total Charge           Charge          ....    0
 Multiplicity           Mult            ....    1
 Number of Electrons    NEL             ....   34
 Basis Dimension        Dim             ....   76

ORBITAL ENERGIES
----------------

  NO   OCC          E(Eh)            E(eV)
   0   2.0000     -14.638181      -398.3252
   1   2.0000     -14.638065      -398.3220
   2   2.0000     -10.445859      -284.2463
   3   2.0000     -10.445855      -284.2462
   4   2.0000      -1.060775       -28.8652
   5   2.0000      -0.890906       -24.2428
   6   2.0000      -0.744843       -20.2682
   7   2.0000      -0.702198       -19.1078
   8   2.0000      -0.581307       -15.8182
   9   2.0000      -0.523525       -14.2459
  10   2.0000      -0.506062       -13.7707
  11   2.0000      -0.468416       -12.7462
  12   2.0000      -0.439173       -11.9505
  13   2.0000      -0.430816       -11.7231
  14   2.0000      -0.414186       -11.2706
  15   2.0000      -0.292119        -7.9490
  16   2.0000      -0.264748        -7.2042
  17   0.0000       0.127196         3.4612
  18   0.0000       0.175783         4.7833
  19   0.0000       0.189281         5.1506
  20   0.0000       0.209532         5.7017
  21   0.0000       0.211190         5.7468

MULLIKEN ATOMIC CHARGES
-----------------------
   0 C :   -0.471155
   1 N :   -0.441769
   2 N :   -0.441769
   3 C :   -0.471155
   4 H :    0.206070
   5 H :    0.232788
   6 H :    0.173673
   7 H :    0.300392
   8 H :    0.300392
   9 H :    0.232788
  10 H :    0.206070
  11 H :    0.173673
Sum of atomic charges:   -0.0000000

LOEWDIN ATOMIC CHARGES
----------------------
   0 C :   -0.272175
   1 N :   -0.270704
   2 N :   -0.270704
   3 C :   -0.272175
   4 H :    0.119021
   5 H :    0.129104
   6 H :    0.090402
   7 H :    0.204353
   8 H :    0.204353
   9 H :    0.129104
  10 H :    0.119021
  11 H :    0.090402

  Mayer bond orders larger than 0.100000
B(  0-C ,  1-N ) :   0.9996 B(  0-C ,  4-H ) :   0.9268 B(  0-C ,  5-H ) :   0.9174
B(  0-C ,  6-H ) :   0.9163 B(  1-N ,  2-N ) :   0.9901 B(  1-N ,  7-H ) :   0.8481
B(  2-N ,  3-C ) :   0.9996 B(  2-N ,  8-H ) :   0.8481 B(  3-C ,  9-H ) :   0.9174
B(  3-C , 10-H ) :   0.9268 B(  3-C , 11-H ) :   0.9163

Dispersion correction           -0.004013651
FINAL SINGLE POINT ENERGY      -190.061080679920

DIPOLE MOMENT
-------------
                                X             Y             Z
Electronic contribution:     -0.00000       0.00000       0.09766
Nuclear contribution   :      0.00000      -0.00000       0.62409
                        -----------------------------------------
Total Dipole Moment    :     -0.00000       0.00000       0.72175
                        -----------------------------------------
Magnitude (a.u.)       :      0.72175
Magnitude (Debye)      :      1.83455

Rotational constants in cm-1:     0.925891     0.137908     0.131065
Rotational constants in MHz : 27757.517101  4134.372236  3929.221318

                             ****ORCA TERMINATED NORMALLY****
TOTAL RUN TIME: 0 days 0 hours 0 minutes 56 seconds 552 msec
