                         Program Version 5.0.3 -  RELEASE  -
|  1> ! PBEh-3c def2/J TightSCF DefGrid3
|  2>
|  3> %maxcore 60000
|  4>
|  5> %pal
|  6> nprocs 4
|  7> end
|  8>
|  9> *xyzfile 0 1 i7e.xyz
| 10>
| 11>                          ****END OF INPUT****

CARTESIAN COORDINATES (ANGSTROEM)
---------------------------------
  C     -2.757567    1.357573   -0.555035
  C     -4.251620    1.260015   -0.214005
  C     -4.797372   -0.120951   -0.584743
  C     -4.027794   -1.197402    0.196212
  C     -2.530614   -1.110312    0.023132
  C     -1.875434    0.270997    0.116725
  C     -0.479963    0.265611   -0.602124
  C      0.336197   -0.994497   -0.318621
  C     -0.307261   -2.151090   -0.054665
  C     -1.758412   -2.217054   -0.004076
  C      0.289689    1.600061   -0.379984
  C      1.797364   -0.915664   -0.634323
  C      1.781913    1.562352   -0.764626
  C      2.481913    0.368759   -0.106725
  C     -1.745909    0.561118    1.637549
  C      2.750035   -2.054286   -0.228982
  C      3.936178    0.119017   -0.575394
  C      2.399155    0.456562    1.430678
  C      4.164486   -1.393397   -0.273757
  O     -6.214888   -0.227570   -0.372447
  C      5.002697    1.040315    0.016708
  H     -2.375469    2.347730   -0.277849
  H     -2.647680    1.263411   -1.646023
  H     -4.409270    1.422231    0.864189
  H     -4.815128    2.034077   -0.750276
  H     -4.665003   -0.285033   -1.662561
  H     -4.278154   -1.043853    1.263116
  H     -4.387055   -2.196901   -0.078166
  H     -0.702813    0.207092   -1.685955
  H      0.260503   -3.074640    0.046950
  H     -2.232104   -3.199040    0.029903
  H     -0.215761    2.393301   -0.942966
  H      0.230891    1.881128    0.675506
  H      1.856802   -0.824965   -1.736491
  H      1.894067    1.469280   -1.856171
  H      2.254079    2.509335   -0.464883
  H     -2.705078    0.389578    2.138871
  H     -1.001196   -0.109168    2.082679
  H     -1.454302    1.600743    1.829973
  H      2.666981   -2.918750   -0.897661
  H      2.511306   -2.398057    0.785153
  H      3.932814    0.252748   -1.668635
  H      1.366735    0.333719    1.775026
  H      3.003677   -0.325709    1.903885
  H      2.768051    1.429588    1.779264
  H      4.811405   -1.851582   -1.031405
  H      4.672368   -1.507186    0.692876
  H     -6.367496   -0.102023    0.575750
  H      5.069448    0.910475    1.104645
  H      4.774639    2.095020   -0.190147
  H      5.989951    0.817293   -0.410089

 Total Charge           Charge          ....    0
 Multiplicity           Mult            ....    1
 Number of Electrons    NEL             ....  158
 Basis Dimension        Dim             ....  375

ORBITAL ENERGIES
----------------

  NO   OCC          E(Eh)            E(eV)
   0   2.0000     -19.484061      -530.1883
   1   2.0000     -10.487231      -285.3721
   2   2.0000     -10.461681      -284.6768
   3   2.0000     -10.450066      -284.3608
   4   2.0000     -10.447970      -284.3037
   5   2.0000     -10.446717      -284.2696
   6   2.0000     -10.445629      -284.2400
   7   2.0000     -10.439817      -284.0819
   8   2.0000     -10.439472      -284.0725
   9   2.0000     -10.438960      -284.0585
  10   2.0000     -10.438567      -284.0478
  11   2.0000     -10.435852      -283.9740
  12   2.0000     -10.435243      -283.9574
  13   2.0000     -10.434475      -283.9365
  14   2.0000     -10.433594      -283.9125
  15   2.0000     -10.432525      -283.8834
  16   2.0000     -10.432116      -283.8723
  17   2.0000     -10.431509      -283.8558
  18   2.0000     -10.426999      -283.7331
  19   2.0000     -10.424687      -283.6702
  20   2.0000     -10.422302      -283.6053
  21   2.0000      -1.116814       -30.3901
  22   2.0000      -0.967652       -26.3312
  23   2.0000      -0.945492       -25.7281
  24   2.0000      -0.894380       -24.3373
  25   2.0000      -0.879897       -23.9432
  26   2.0000      -0.849945       -23.1282
  27   2.0000      -0.846067       -23.0226
  28   2.0000      -0.816336       -22.2136
  29   2.0000      -0.805246       -21.9118
  30   2.0000      -0.782388       -21.2899
  31   2.0000      -0.760648       -20.6983
  32   2.0000      -0.750979       -20.4352
  33   2.0000      -0.721702       -19.6385
  34   2.0000      -0.706091       -19.2137
  35   2.0000      -0.682876       -18.5820
  36   2.0000      -0.674234       -18.3469
  37   2.0000      -0.641845       -17.4655
  38   2.0000      -0.635284       -17.2870
  39   2.0000      -0.601812       -16.3761
  40   2.0000      -0.584365       -15.9014
  41   2.0000      -0.555357       -15.1120
  42   2.0000      -0.547827       -14.9071
  43   2.0000      -0.542239       -14.7551
  44   2.0000      -0.535120       -14.5614
  45   2.0000      -0.525784       -14.3073
  46   2.0000      -0.518507       -14.1093
  47   2.0000      -0.504870       -13.7382
  48   2.0000      -0.501089       -13.6353
  49   2.0000      -0.490384       -13.3440
  50   2.0000      -0.484525       -13.1846
  51   2.0000      -0.474427       -12.9098
  52   2.0000      -0.468237       -12.7414
  53   2.0000      -0.465256       -12.6603
  54   2.0000      -0.453973       -12.3532
  55   2.0000      -0.446460       -12.1488
  56   2.0000      -0.444002       -12.0819
  57   2.0000      -0.441095       -12.0028
  58   2.0000      -0.432821       -11.7777
  59   2.0000      -0.429073       -11.6757
  60   2.0000      -0.427240       -11.6258
  61   2.0000      -0.419996       -11.4287
  62   2.0000      -0.417583       -11.3630
  63   2.0000      -0.410436       -11.1685
  64   2.0000      -0.402671       -10.9572
  65   2.0000      -0.392560       -10.6821
  66   2.0000      -0.381888       -10.3917
  67   2.0000      -0.373198       -10.1552
  68   2.0000      -0.372392       -10.1333
  69   2.0000      -0.371210       -10.1011
  70   2.0000      -0.364043        -9.9061
  71   2.0000      -0.360321        -9.8048
  72   2.0000      -0.353665        -9.6237
  73   2.0000      -0.347582        -9.4582
  74   2.0000      -0.336971        -9.1694
  75   2.0000      -0.335107        -9.1187
  76   2.0000      -0.324743        -8.8367
  77   2.0000      -0.315575        -8.5872
  78   2.0000      -0.234317        -6.3761
  79   0.0000       0.001079         0.0294
  80   0.0000       0.099648         2.7116
  81   0.0000       0.120397         3.2762
  82   0.0000       0.121858         3.3159
  83   0.0000       0.130239         3.5440

MULLIKEN ATOMIC CHARGES
-----------------------
   0 C :   -0.416270
   1 C :   -0.459381
   2 C :    0.071178
   3 C :   -0.530097
   4 C :    0.173813
   5 C :   -0.143653
   6 C :   -0.244416
   7 C :    0.150019
   8 C :   -0.295994
   9 C :   -0.270964
  10 C :   -0.443397
  11 C :   -0.254408
  12 C :   -0.396436
  13 C :   -0.049929
  14 C :   -0.641796
  15 C :   -0.441821
  16 C :   -0.195492
  17 C :   -0.664795
  18 C :   -0.420473
  19 O :   -0.626131
  20 C :   -0.646260
  21 H :    0.225958
  22 H :    0.214197
  23 H :    0.192779
  24 H :    0.239915
  25 H :    0.218239
  26 H :    0.200516
  27 H :    0.244767
  28 H :    0.225174
  29 H :    0.207773
  30 H :    0.203074
  31 H :    0.229261
  32 H :    0.221933
  33 H :    0.221533
  34 H :    0.203005
  35 H :    0.214616
  36 H :    0.218820
  37 H :    0.243883
  38 H :    0.211404
  39 H :    0.224802
  40 H :    0.218494
  41 H :    0.205651
  42 H :    0.238902
  43 H :    0.223599
  44 H :    0.219248
  45 H :    0.221908
  46 H :    0.210784
  47 H :    0.400637
  48 H :    0.211243
  49 H :    0.214454
  50 H :    0.220136
Sum of atomic charges:   -0.0000000

LOEWDIN ATOMIC CHARGES
----------------------
   0 C :   -0.220447
   1 C :   -0.251954
   2 C :   -0.019125
   3 C :   -0.237066
   4 C :   -0.038450
   5 C :   -0.067941
   6 C :   -0.115310
   7 C :   -0.031444
   8 C :   -0.165838
   9 C :   -0.151779
  10 C :   -0.228303
  11 C :   -0.124667
  12 C :   -0.218419
  13 C :   -0.085555
  14 C :   -0.341200
  15 C :   -0.232137
  16 C :   -0.139333
  17 C :   -0.344887
  18 C :   -0.230682
  19 O :   -0.399322
  20 C :   -0.352869
  21 H :    0.127637
  22 H :    0.124490
  23 H :    0.115888
  24 H :    0.135168
  25 H :    0.121017
  26 H :    0.122188
  27 H :    0.140521
  28 H :    0.136097
  29 H :    0.133306
  30 H :    0.131337
  31 H :    0.127613
  32 H :    0.126204
  33 H :    0.133020
  34 H :    0.119581
  35 H :    0.123642
  36 H :    0.124982
  37 H :    0.137592
  38 H :    0.122218
  39 H :    0.127333
  40 H :    0.126207
  41 H :    0.119632
  42 H :    0.131706
  43 H :    0.128613
  44 H :    0.128052
  45 H :    0.127215
  46 H :    0.122416
  47 H :    0.304212
  48 H :    0.124822
  49 H :    0.125341
  50 H :    0.128682

  Mayer bond orders larger than 0.100000
B(  0-C ,  1-C ) :   0.9703 B(  0-C ,  5-C ) :   0.9587 B(  0-C , 21-H ) :   0.9149
B(  0-C , 22-H ) :   0.9159 B(  1-C ,  2-C ) :   0.9690 B(  1-C , 23-H ) :   0.9155
B(  1-C , 24-H ) :   0.9164 B(  2-C ,  3-C ) :   0.9608 B(  2-C , 19-O ) :   0.9960
B(  2-C , 25-H ) :   0.8989 B(  3-C ,  4-C ) :   0.9418 B(  3-C , 26-H ) :   0.9043
B(  3-C , 27-H ) :   0.9192 B(  4-C ,  5-C ) :   0.9552 B(  4-C ,  9-C ) :   1.7794
B(  5-C ,  6-C ) :   0.9711 B(  5-C , 14-C ) :   0.9574 B(  6-C ,  7-C ) :   0.9806
B(  6-C , 10-C ) :   0.9653 B(  6-C , 28-H ) :   0.8871 B(  7-C ,  8-C ) :   1.7711
B(  7-C , 11-C ) :   0.9913 B(  8-C ,  9-C ) :   1.1108 B(  8-C , 29-H ) :   0.9173
B(  9-C , 30-H ) :   0.9208 B( 10-C , 12-C ) :   0.9898 B( 10-C , 31-H ) :   0.9166
B( 10-C , 32-H ) :   0.9038 B( 11-C , 13-C ) :   0.9354 B( 11-C , 15-C ) :   0.9824
B( 11-C , 33-H ) :   0.8909 B( 12-C , 13-C ) :   0.9758 B( 12-C , 34-H ) :   0.9200
B( 12-C , 35-H ) :   0.9215 B( 13-C , 16-C ) :   0.9570 B( 13-C , 17-C ) :   0.9584
B( 14-C , 36-H ) :   0.9197 B( 14-C , 37-H ) :   0.9127 B( 14-C , 38-H ) :   0.9196
B( 15-C , 18-C ) :   0.9676 B( 15-C , 39-H ) :   0.9270 B( 15-C , 40-H ) :   0.9212
B( 16-C , 18-C ) :   0.9655 B( 16-C , 20-C ) :   0.9974 B( 16-C , 41-H ) :   0.9126
B( 17-C , 42-H ) :   0.9092 B( 17-C , 43-H ) :   0.9240 B( 17-C , 44-H ) :   0.9257
B( 18-C , 45-H ) :   0.9283 B( 18-C , 46-H ) :   0.9269 B( 19-O , 47-H ) :   0.7963
B( 20-C , 48-H ) :   0.9234 B( 20-C , 49-H ) :   0.9284 B( 20-C , 50-H ) :   0.9285

Dispersion correction           -0.040421541
FINAL SINGLE POINT ENERGY      -853.569018353392

DIPOLE MOMENT
-------------
                                X             Y             Z
Electronic contribution:    -13.47346      -6.86551      -4.31640
Nuclear contribution   :     14.07404       7.19529       4.68207
                        -----------------------------------------
Total Dipole Moment    :      0.60058       0.32977       0.36567
                        -----------------------------------------
Magnitude (a.u.)       :      0.77664
Magnitude (Debye)      :      1.97405

Rotational constants in cm-1:     0.028519     0.005476     0.004973
Rotational constants in MHz :   854.964111   164.180254   149.099074

                             ****ORCA TERMINATED NORMALLY****
TOTAL RUN TIME: 0 days 0 hours 7 minutes 49 seconds 763 msec
