                         Program Version 5.0.3 -  RELEASE  -
|  1> ! PBEh-3c def2/J TightSCF DefGrid3
|  2>
|  3> %maxcore 60000
|  4>
|  5> %pal
|  6> nprocs 4
|  7> end
|  8>
|  9> *xyzfile 0 1 b2h6.xyz
| 10>
| 11>                          ****END OF INPUT****

CARTESIAN COORDINATES (ANGSTROEM)
---------------------------------
  B      0.878894    0.000000    0.000000
  B     -0.878894    0.000000    0.000000
  H      0.000000    0.000000    0.975221
  H      0.000000    0.000000   -0.975221
  H      1.452345   -1.039659    0.000000
  H      1.452345    1.039659    0.000000
  H     -1.452345    1.039659    0.000000
  H     -1.452345   -1.039659    0.000000

 Total Charge           Charge          ....    0
 Multiplicity           Mult            ....    1
 Number of Electrons    NEL             ....   16
 Basis Dimension        Dim             ....   42

ORBITAL ENERGIES
----------------

  NO   OCC          E(Eh)            E(eV)
   0   2.0000      -6.978204      -189.8866
   1   2.0000      -6.977953      -189.8798
   2   2.0000      -0.747264       -20.3341
   3   2.0000      -0.522139       -14.2081
   4   2.0000      -0.477769       -13.0008
   5   2.0000      -0.444374       -12.0920
   6   2.0000      -0.425616       -11.5816
   7   2.0000      -0.379001       -10.3131
   8   0.0000      -0.009589        -0.2609
   9   0.0000       0.115563         3.1446
  10   0.0000       0.144678         3.9369
  11   0.0000       0.163343         4.4448
  12   0.0000       0.188080         5.1179

MULLIKEN ATOMIC CHARGES
-----------------------
   0 B :   -0.317124
   1 B :   -0.317124
   2 H :    0.119357
   3 H :    0.119357
   4 H :    0.098883
   5 H :    0.098883
   6 H :    0.098883
   7 H :    0.098883
Sum of atomic charges:   -0.0000000

LOEWDIN ATOMIC CHARGES
----------------------
   0 B :   -0.242072
   1 B :   -0.242072
   2 H :    0.159530
   3 H :    0.159530
   4 H :    0.041271
   5 H :    0.041271
   6 H :    0.041271
   7 H :    0.041271

  Mayer bond orders larger than 0.100000
B(  0-B ,  1-B ) :   0.5419 B(  0-B ,  2-H ) :   0.4556 B(  0-B ,  3-H ) :   0.4556
B(  0-B ,  4-H ) :   0.9902 B(  0-B ,  5-H ) :   0.9902 B(  1-B ,  2-H ) :   0.4556
B(  1-B ,  3-H ) :   0.4556 B(  1-B ,  6-H ) :   0.9902 B(  1-B ,  7-H ) :   0.9902

Dispersion correction           -0.001934941
FINAL SINGLE POINT ENERGY       -53.146561937629

DIPOLE MOMENT
-------------
                                X             Y             Z
Electronic contribution:     -0.00000      -0.00000       0.00000
Nuclear contribution   :      0.00000       0.00000       0.00000
                        -----------------------------------------
Total Dipole Moment    :     -0.00000      -0.00000       0.00000
                        -----------------------------------------
Magnitude (a.u.)       :      0.00000
Magnitude (Debye)      :      0.00000

Rotational constants in cm-1:     2.686272     0.621537     0.570221
Rotational constants in MHz : 80532.408490 18633.208504 17094.804575

                             ****ORCA TERMINATED NORMALLY****
TOTAL RUN TIME: 0 days 0 hours 0 minutes 13 seconds 363 msec
