                         Program Version 5.0.3 -  RELEASE  -
|  1> ! PBEh-3c def2/J TightSCF DefGrid3
|  2>
|  3> %maxcore 60000
|  4>
|  5> %pal
|  6> nprocs 4
|  7> end
|  8>
|  9> *xyzfile 0 1 i21e.xyz
| 10>
| 11>                          ****END OF INPUT****

CARTESIAN COORDINATES (ANGSTROEM)
---------------------------------
  C     -0.082878    3.828489   -0.104839
  C      0.185411    2.862208   -1.313863
  C      0.270613    1.504979   -0.564566
  C      0.020047    1.976653    0.925880
  C      1.209107    2.758725    1.439006
  C      1.165191    3.919729    0.772872
  C     -0.980234   -2.405641    0.357917
  C     -1.330465   -3.145552   -0.777396
  C     -0.502851   -4.177099   -1.237707
  C      0.685564   -4.471198   -0.563452
  C      1.042383   -3.733740    0.573487
  C      0.214759   -2.706260    1.030695
  O     -0.965942    3.032628    0.700436
  Cl    -0.832206    5.401572   -0.552169
  C     -0.596566    0.764494    1.617485
  N     -1.165326    0.026824    0.613688
  C     -0.932193    0.544405   -0.740051
  C     -1.836608   -1.249650    0.836770
  O     -0.566482    0.492880    2.810004
  C      1.587155    0.753018   -0.765269
  H     -0.662638    2.908222   -2.003880
  H      1.106122    3.116957   -1.847619
  H      1.966953    2.381497    2.116201
  H      1.871602    4.741741    0.753435
  H     -2.257640   -2.914248   -1.301249
  H     -0.785509   -4.747068   -2.120828
  H      1.330592   -5.272522   -0.918605
  H      1.963586   -3.965159    1.105131
  H      0.484872   -2.129173    1.913611
  H     -0.701887   -0.290044   -1.414650
  H     -1.823858    1.073277   -1.104252
  H     -2.801534   -1.243535    0.311416
  H     -2.023119   -1.321053    1.914433
  H      2.441129    1.392670   -0.514389
  H      1.684538    0.437308   -1.812047
  H      1.618315   -0.146338   -0.135636

 Total Charge           Charge          ....    0
 Multiplicity           Mult            ....    1
 Number of Electrons    NEL             ....  152
 Basis Dimension        Dim             ....  335

ORBITAL ENERGIES
----------------

  NO   OCC          E(Eh)            E(eV)
   0   2.0000    -102.297882     -2783.6669
   1   2.0000     -19.522936      -531.2461
   2   2.0000     -19.471771      -529.8538
   3   2.0000     -14.680730      -399.4830
   4   2.0000     -10.576051      -287.7890
   5   2.0000     -10.557582      -287.2864
   6   2.0000     -10.526327      -286.4359
   7   2.0000     -10.491287      -285.4824
   8   2.0000     -10.490802      -285.4692
   9   2.0000     -10.485298      -285.3195
  10   2.0000     -10.470752      -284.9237
  11   2.0000     -10.469573      -284.8916
  12   2.0000     -10.469266      -284.8832
  13   2.0000     -10.465407      -284.7782
  14   2.0000     -10.461940      -284.6839
  15   2.0000     -10.461302      -284.6665
  16   2.0000     -10.460658      -284.6490
  17   2.0000     -10.459942      -284.6295
  18   2.0000     -10.458062      -284.5783
  19   2.0000     -10.445017      -284.2234
  20   2.0000      -9.765029      -265.7200
  21   2.0000      -7.452758      -202.7998
  22   2.0000      -7.444426      -202.5731
  23   2.0000      -7.444190      -202.5667
  24   2.0000      -1.191463       -32.4214
  25   2.0000      -1.148363       -31.2485
  26   2.0000      -1.058561       -28.8049
  27   2.0000      -0.965125       -26.2624
  28   2.0000      -0.945898       -25.7392
  29   2.0000      -0.934016       -25.4159
  30   2.0000      -0.895141       -24.3580
  31   2.0000      -0.871256       -23.7081
  32   2.0000      -0.844577       -22.9821
  33   2.0000      -0.833209       -22.6728
  34   2.0000      -0.797648       -21.7051
  35   2.0000      -0.793883       -21.6027
  36   2.0000      -0.763059       -20.7639
  37   2.0000      -0.693055       -18.8590
  38   2.0000      -0.689484       -18.7618
  39   2.0000      -0.668213       -18.1830
  40   2.0000      -0.652460       -17.7543
  41   2.0000      -0.643142       -17.5008
  42   2.0000      -0.623736       -16.9727
  43   2.0000      -0.590132       -16.0583
  44   2.0000      -0.587086       -15.9754
  45   2.0000      -0.570186       -15.5155
  46   2.0000      -0.546510       -14.8713
  47   2.0000      -0.541049       -14.7227
  48   2.0000      -0.530689       -14.4408
  49   2.0000      -0.525017       -14.2864
  50   2.0000      -0.517169       -14.0729
  51   2.0000      -0.511809       -13.9270
  52   2.0000      -0.498417       -13.5626
  53   2.0000      -0.489275       -13.3138
  54   2.0000      -0.488317       -13.2878
  55   2.0000      -0.480185       -13.0665
  56   2.0000      -0.473187       -12.8761
  57   2.0000      -0.457063       -12.4373
  58   2.0000      -0.455596       -12.3974
  59   2.0000      -0.445420       -12.1205
  60   2.0000      -0.444339       -12.0911
  61   2.0000      -0.430279       -11.7085
  62   2.0000      -0.422467       -11.4959
  63   2.0000      -0.411494       -11.1973
  64   2.0000      -0.409495       -11.1429
  65   2.0000      -0.408438       -11.1142
  66   2.0000      -0.403797       -10.9879
  67   2.0000      -0.392098       -10.6695
  68   2.0000      -0.363304        -9.8860
  69   2.0000      -0.354053        -9.6343
  70   2.0000      -0.339371        -9.2348
  71   2.0000      -0.325466        -8.8564
  72   2.0000      -0.307733        -8.3738
  73   2.0000      -0.304557        -8.2874
  74   2.0000      -0.301641        -8.2081
  75   2.0000      -0.289740        -7.8842
  76   0.0000       0.000037         0.0010
  77   0.0000       0.005924         0.1612
  78   0.0000       0.008225         0.2238
  79   0.0000       0.033445         0.9101
  80   0.0000       0.071465         1.9447

MULLIKEN ATOMIC CHARGES
-----------------------
   0 C :    0.118982
   1 C :   -0.395575
   2 C :   -0.097017
   3 C :    0.016005
   4 C :   -0.128149
   5 C :   -0.178253
   6 C :    0.125727
   7 C :   -0.280217
   8 C :   -0.210422
   9 C :   -0.229528
  10 C :   -0.212099
  11 C :   -0.275511
  12 O :   -0.431705
  13 Cl:   -0.104186
  14 C :    0.567529
  15 N :   -0.474254
  16 C :   -0.216384
  17 C :   -0.379920
  18 O :   -0.406477
  19 C :   -0.644119
  20 H :    0.256895
  21 H :    0.243914
  22 H :    0.241516
  23 H :    0.245240
  24 H :    0.216914
  25 H :    0.223045
  26 H :    0.224172
  27 H :    0.225261
  28 H :    0.251028
  29 H :    0.242449
  30 H :    0.242971
  31 H :    0.239088
  32 H :    0.282706
  33 H :    0.229884
  34 H :    0.230721
  35 H :    0.239769
Sum of atomic charges:   -0.0000000

LOEWDIN ATOMIC CHARGES
----------------------
   0 C :    0.004360
   1 C :   -0.222377
   2 C :   -0.081177
   3 C :    0.042705
   4 C :   -0.109513
   5 C :   -0.141250
   6 C :   -0.064322
   7 C :   -0.141272
   8 C :   -0.132418
   9 C :   -0.135115
  10 C :   -0.130620
  11 C :   -0.129050
  12 O :   -0.224053
  13 Cl:    0.043056
  14 C :    0.120312
  15 N :   -0.113765
  16 C :   -0.110820
  17 C :   -0.122560
  18 O :   -0.253620
  19 C :   -0.345426
  20 H :    0.144972
  21 H :    0.138081
  22 H :    0.152686
  23 H :    0.149463
  24 H :    0.135210
  25 H :    0.138143
  26 H :    0.138132
  27 H :    0.138937
  28 H :    0.149168
  29 H :    0.133089
  30 H :    0.128654
  31 H :    0.131276
  32 H :    0.160243
  33 H :    0.134377
  34 H :    0.135651
  35 H :    0.138846

  Mayer bond orders larger than 0.100000
B(  0-C ,  1-C ) :   0.9095 B(  0-C ,  5-C ) :   0.9397 B(  0-C , 12-O ) :   0.9592
B(  0-C , 13-Cl) :   1.0727 B(  1-C ,  2-C ) :   0.9330 B(  1-C , 20-H ) :   0.9078
B(  1-C , 21-H ) :   0.9139 B(  2-C ,  3-C ) :   0.9130 B(  2-C , 16-C ) :   0.9327
B(  2-C , 19-C ) :   0.9856 B(  3-C ,  4-C ) :   0.9705 B(  3-C , 12-O ) :   0.9181
B(  3-C , 14-C ) :   0.8932 B(  4-C ,  5-C ) :   1.8405 B(  4-C , 22-H ) :   0.9173
B(  5-C , 23-H ) :   0.9125 B(  6-C ,  7-C ) :   1.4078 B(  6-C , 11-C ) :   1.3825
B(  6-C , 17-C ) :   0.9212 B(  7-C ,  8-C ) :   1.4151 B(  7-C , 24-H ) :   0.9199
B(  8-C ,  9-C ) :   1.4349 B(  8-C , 25-H ) :   0.9186 B(  9-C , 10-C ) :   1.4070
B(  9-C , 26-H ) :   0.9183 B( 10-C , 11-C ) :   1.4330 B( 10-C , 27-H ) :   0.9186
B( 11-C , 28-H ) :   0.9040 B( 14-C , 15-N ) :   1.1414 B( 14-C , 18-O ) :   2.0284
B( 15-N , 16-C ) :   0.9288 B( 15-N , 17-C ) :   0.9414 B( 15-N , 18-O ) :   0.1034
B( 16-C , 29-H ) :   0.9018 B( 16-C , 30-H ) :   0.8990 B( 17-C , 31-H ) :   0.9170
B( 17-C , 32-H ) :   0.8920 B( 19-C , 33-H ) :   0.9177 B( 19-C , 34-H ) :   0.9216
B( 19-C , 35-H ) :   0.9115

Dispersion correction           -0.028458412
FINAL SINGLE POINT ENERGY     -1282.433492300569

DIPOLE MOMENT
-------------
                                X             Y             Z
Electronic contribution:     -6.46796      21.60587       5.06868
Nuclear contribution   :      7.38540     -22.57199      -6.69009
                        -----------------------------------------
Total Dipole Moment    :      0.91744      -0.96612      -1.62141
                        -----------------------------------------
Magnitude (a.u.)       :      2.09858
Magnitude (Debye)      :      5.33418

Rotational constants in cm-1:     0.027414     0.005622     0.005495
Rotational constants in MHz :   821.852903   168.551052   164.744640

                             ****ORCA TERMINATED NORMALLY****
TOTAL RUN TIME: 0 days 0 hours 5 minutes 32 seconds 994 msec
