                         Program Version 5.0.3 -  RELEASE  -
|  1> ! PBEh-3c def2/J TightSCF DefGrid3
|  2>
|  3> %maxcore 60000
|  4>
|  5> %pal
|  6> nprocs 4
|  7> end
|  8>
|  9> *xyzfile 0 1 li_na_h2.xyz
| 10>
| 11>                          ****END OF INPUT****

CARTESIAN COORDINATES (ANGSTROEM)
---------------------------------
  Na    -0.000000   -1.429987   -0.003511
  Li     0.000000    1.138561    0.002803
  H     -1.439750    0.145713    0.000354
  H      1.439750    0.145713    0.000354

 Total Charge           Charge          ....    0
 Multiplicity           Mult            ....    1
 Number of Electrons    NEL             ....   16
 Basis Dimension        Dim             ....   28

ORBITAL ENERGIES
----------------

  NO   OCC          E(Eh)            E(eV)
   0   2.0000     -38.934854     -1059.4712
   1   2.0000      -2.379916       -64.7608
   2   2.0000      -2.055036       -55.9204
   3   2.0000      -1.254955       -34.1491
   4   2.0000      -1.253894       -34.1202
   5   2.0000      -1.251965       -34.0677
   6   2.0000      -0.268065        -7.2944
   7   2.0000      -0.226680        -6.1683
   8   0.0000      -0.015962        -0.4344
   9   0.0000       0.014184         0.3860
  10   0.0000       0.027267         0.7420
  11   0.0000       0.075232         2.0472
  12   0.0000       0.087954         2.3934

MULLIKEN ATOMIC CHARGES
-----------------------
   0 Na:    0.245589
   1 Li:    0.309119
   2 H :   -0.277354
   3 H :   -0.277354
Sum of atomic charges:    0.0000000

LOEWDIN ATOMIC CHARGES
----------------------
   0 Na:    0.099734
   1 Li:    0.060242
   2 H :   -0.079988
   3 H :   -0.079988

  Mayer bond orders larger than 0.100000
B(  0-Na,  1-Li) :   0.2629 B(  0-Na,  2-H ) :   0.4746 B(  0-Na,  3-H ) :   0.4746
B(  1-Li,  2-H ) :   0.4416 B(  1-Li,  3-H ) :   0.4416

Dispersion correction           -0.000648323
FINAL SINGLE POINT ENERGY      -170.687186375098

DIPOLE MOMENT
-------------
                                X             Y             Z
Electronic contribution:      0.00000      -1.59020      -0.00387
Nuclear contribution   :      0.00000       0.63716       0.00155
                        -----------------------------------------
Total Dipole Moment    :      0.00000      -0.95305      -0.00232
                        -----------------------------------------
Magnitude (a.u.)       :      0.95305
Magnitude (Debye)      :      2.42246

Rotational constants in cm-1:     4.033966     0.455761     0.409496
Rotational constants in MHz : 120935.265416 13663.376222 12276.379685

                             ****ORCA TERMINATED NORMALLY****
TOTAL RUN TIME: 0 days 0 hours 0 minutes 54 seconds 812 msec
