                         Program Version 5.0.3 -  RELEASE  -
|  1> ! PBEh-3c def2/J TightSCF DefGrid3
|  2>
|  3> %maxcore 60000
|  4>
|  5> %pal
|  6> nprocs 4
|  7> end
|  8>
|  9> *xyzfile 0 1 10a.xyz
| 10>
| 11>                          ****END OF INPUT****

CARTESIAN COORDINATES (ANGSTROEM)
---------------------------------
  C     -0.735861   -0.992701    0.000000
  C     -1.471094    0.181200    0.000000
  C     -0.795819    1.398235    0.000000
  C      0.591526    1.380181    0.000000
  N      1.320522    0.256202    0.000000
  C      0.659298   -0.902595    0.000000
  S      1.601752   -2.393158    0.000000
  H     -2.551304    0.146879    0.000000
  H     -1.328257    2.337345    0.000000
  H      1.156167    2.303193    0.000000
  H     -1.220946   -1.958272    0.000000
  H      2.774017   -1.756509    0.000000

 Total Charge           Charge          ....    0
 Multiplicity           Mult            ....    1
 Number of Electrons    NEL             ....   58
 Basis Dimension        Dim             ....  118

ORBITAL ENERGIES
----------------

  NO   OCC          E(Eh)            E(eV)
   0   2.0000     -89.591660     -2437.9130
   1   2.0000     -14.647703      -398.5843
   2   2.0000     -10.524583      -286.3885
   3   2.0000     -10.490657      -285.4653
   4   2.0000     -10.476076      -285.0685
   5   2.0000     -10.464913      -284.7648
   6   2.0000     -10.459160      -284.6082
   7   2.0000      -8.234186      -224.0636
   8   2.0000      -6.125165      -166.6742
   9   2.0000      -6.121542      -166.5756
  10   2.0000      -6.116766      -166.4457
  11   2.0000      -1.062609       -28.9151
  12   2.0000      -0.909543       -24.7499
  13   2.0000      -0.894847       -24.3500
  14   2.0000      -0.809309       -22.0224
  15   2.0000      -0.722676       -19.6650
  16   2.0000      -0.693909       -18.8822
  17   2.0000      -0.594110       -16.1666
  18   2.0000      -0.566551       -15.4166
  19   2.0000      -0.535035       -14.5590
  20   2.0000      -0.496915       -13.5217
  21   2.0000      -0.474292       -12.9061
  22   2.0000      -0.469204       -12.7677
  23   2.0000      -0.443714       -12.0741
  24   2.0000      -0.404566       -11.0088
  25   2.0000      -0.358300        -9.7498
  26   2.0000      -0.336239        -9.1495
  27   2.0000      -0.323792        -8.8108
  28   2.0000      -0.269666        -7.3380
  29   0.0000      -0.009218        -0.2508
  30   0.0000       0.005261         0.1432
  31   0.0000       0.058457         1.5907
  32   0.0000       0.129726         3.5300
  33   0.0000       0.160801         4.3756

MULLIKEN ATOMIC CHARGES
-----------------------
   0 C :   -0.274063
   1 C :   -0.122243
   2 C :   -0.308566
   3 C :   -0.036190
   4 N :   -0.385954
   5 C :    0.076370
   6 S :   -0.119691
   7 H :    0.237262
   8 H :    0.232855
   9 H :    0.237693
  10 H :    0.242797
  11 H :    0.219731
Sum of atomic charges:   -0.0000000

LOEWDIN ATOMIC CHARGES
----------------------
   0 C :   -0.175945
   1 C :   -0.093811
   2 C :   -0.178281
   3 C :   -0.046445
   4 N :   -0.168740
   5 C :   -0.096072
   6 S :    0.065227
   7 H :    0.143616
   8 H :    0.143323
   9 H :    0.132700
  10 H :    0.146721
  11 H :    0.127706

  Mayer bond orders larger than 0.100000
B(  0-C ,  1-C ) :   1.4582 B(  0-C ,  5-C ) :   1.2899 B(  0-C , 10-H ) :   0.9073
B(  1-C ,  2-C ) :   1.3866 B(  1-C ,  7-H ) :   0.9162 B(  2-C ,  3-C ) :   1.3996
B(  2-C ,  8-H ) :   0.9130 B(  3-C ,  4-N ) :   1.4834 B(  3-C ,  9-H ) :   0.9154
B(  4-N ,  5-C ) :   1.4786 B(  5-C ,  6-S ) :   1.0650 B(  6-S , 11-H ) :   0.9102

Dispersion correction           -0.006817947
FINAL SINGLE POINT ENERGY      -645.476129751661

DIPOLE MOMENT
-------------
                                X             Y             Z
Electronic contribution:      2.50697      -3.15378       0.00000
Nuclear contribution   :     -3.13679       3.56568       0.00000
                        -----------------------------------------
Total Dipole Moment    :     -0.62982       0.41190       0.00000
                        -----------------------------------------
Magnitude (a.u.)       :      0.75255
Magnitude (Debye)      :      1.91282

Rotational constants in cm-1:     0.193130     0.054979     0.042796
Rotational constants in MHz :  5789.879126  1648.227254  1282.992752

                             ****ORCA TERMINATED NORMALLY****
TOTAL RUN TIME: 0 days 0 hours 1 minutes 46 seconds 711 msec
