                         Program Version 5.0.3 -  RELEASE  -
|  1> ! PBEh-3c def2/J TightSCF DefGrid3
|  2>
|  3> %maxcore 60000
|  4>
|  5> %pal
|  6> nprocs 4
|  7> end
|  8>
|  9> *xyzfile 0 2 P7.xyz
| 10>
| 11>                          ****END OF INPUT****

CARTESIAN COORDINATES (ANGSTROEM)
---------------------------------
  C     -0.564447    0.007006    0.041281
  C      0.911860   -0.010488   -0.011763
  F     -1.121404   -0.012269   -1.201457
  F     -1.057301   -1.066177    0.700038
  F     -1.033099    1.115845    0.656381
  H      1.420486   -0.958771   -0.092533
  H      1.443906    0.924854   -0.091947

 Total Charge           Charge          ....    0
 Multiplicity           Mult            ....    2
 Number of Electrons    NEL             ....   41
 Basis Dimension        Dim             ....   79

ORBITAL ENERGIES
----------------
                 SPIN UP ORBITALS
  NO   OCC          E(Eh)            E(eV)
   0   1.0000     -25.129024      -683.7955
   1   1.0000     -25.128797      -683.7893
   2   1.0000     -25.124558      -683.6740
   3   1.0000     -10.704277      -291.2782
   4   1.0000     -10.494641      -285.5737
   5   1.0000      -1.434201       -39.0266
   6   1.0000      -1.345587       -36.6153
   7   1.0000      -1.340716       -36.4827
   8   1.0000      -0.888279       -24.1713
   9   1.0000      -0.748650       -20.3718
  10   1.0000      -0.665530       -18.1100
  11   1.0000      -0.662396       -18.0247
  12   1.0000      -0.627151       -17.0656
  13   1.0000      -0.549114       -14.9422
  14   1.0000      -0.540287       -14.7020
  15   1.0000      -0.523634       -14.2488
  16   1.0000      -0.499225       -13.5846
  17   1.0000      -0.488123       -13.2825
  18   1.0000      -0.478803       -13.0289
  19   1.0000      -0.464645       -12.6436
  20   1.0000      -0.330496        -8.9933
  21   0.0000       0.148929         4.0526
  22   0.0000       0.153565         4.1787
  23   0.0000       0.222852         6.0641
  24   0.0000       0.234818         6.3897
  25   0.0000       0.257278         7.0009

                 SPIN DOWN ORBITALS
  NO   OCC          E(Eh)            E(eV)
   0   1.0000     -25.128537      -683.7822
   1   1.0000     -25.128258      -683.7747
   2   1.0000     -25.122685      -683.6230
   3   1.0000     -10.705426      -291.3094
   4   1.0000     -10.478219      -285.1268
   5   1.0000      -1.432252       -38.9736
   6   1.0000      -1.344392       -36.5828
   7   1.0000      -1.337007       -36.3818
   8   1.0000      -0.855778       -23.2869
   9   1.0000      -0.735198       -20.0057
  10   1.0000      -0.664135       -18.0720
  11   1.0000      -0.656042       -17.8518
  12   1.0000      -0.615192       -16.7402
  13   1.0000      -0.544082       -14.8052
  14   1.0000      -0.535691       -14.5769
  15   1.0000      -0.517560       -14.0835
  16   1.0000      -0.495419       -13.4810
  17   1.0000      -0.484553       -13.1854
  18   1.0000      -0.476874       -12.9764
  19   1.0000      -0.454154       -12.3582
  20   0.0000      -0.069554        -1.8927
  21   0.0000       0.151389         4.1195
  22   0.0000       0.171079         4.6553
  23   0.0000       0.240010         6.5310
  24   0.0000       0.246861         6.7174

MULLIKEN ATOMIC CHARGES AND SPIN POPULATIONS
--------------------------------------------
   0 C :    0.979464   -0.041367
   1 C :   -0.573367    1.115224
   2 F :   -0.314998    0.031120
   3 F :   -0.308429    0.008630
   4 F :   -0.308179    0.007739
   5 H :    0.262646   -0.060613
   6 H :    0.262863   -0.060733
Sum of atomic charges         :    0.0000000

LOEWDIN ATOMIC CHARGES AND SPIN POPULATIONS
-------------------------------------------
   0 C :    0.338546    0.013278
   1 C :   -0.226038    0.986614
   2 F :   -0.148303    0.037386
   3 F :   -0.139010    0.011433
   4 F :   -0.138650    0.010414
   5 H :    0.156670   -0.029537
   6 H :    0.156784   -0.029587

  Mayer bond orders larger than 0.100000
B(  0-C ,  1-C ) :   1.0047 B(  0-C ,  2-F ) :   1.0036 B(  0-C ,  3-F ) :   1.0105
B(  0-C ,  4-F ) :   1.0108 B(  1-C ,  5-H ) :   0.8962 B(  1-C ,  6-H ) :   0.8964

Dispersion correction           -0.001824881
FINAL SINGLE POINT ENERGY      -376.152837886356

DIPOLE MOMENT
-------------
                                X             Y             Z
Electronic contribution:     -4.19774       0.05058       0.22949
Nuclear contribution   :      5.07618      -0.05957      -0.28279
                        -----------------------------------------
Total Dipole Moment    :      0.87844      -0.00899      -0.05331
                        -----------------------------------------
Magnitude (a.u.)       :      0.88010
Magnitude (Debye)      :      2.23704

Rotational constants in cm-1:     0.183474     0.181009     0.176836
Rotational constants in MHz :  5500.414490  5426.527842  5301.422039

                             ****ORCA TERMINATED NORMALLY****
TOTAL RUN TIME: 0 days 0 hours 2 minutes 22 seconds 118 msec
