                         Program Version 5.0.3 -  RELEASE  -
|  1> ! PBEh-3c def2/J TightSCF DefGrid3
|  2>
|  3> %maxcore 60000
|  4>
|  5> %pal
|  6> nprocs 4
|  7> end
|  8>
|  9> *xyzfile 0 1 13-Butadiene.xyz
| 10>
| 11>                          ****END OF INPUT****

CARTESIAN COORDINATES (ANGSTROEM)
---------------------------------
  C     -0.109085   -0.000122    1.848679
  C      0.400562   -0.000085    0.608786
  C     -0.400562   -0.000078   -0.608786
  H      1.482678   -0.000043    0.474076
  H     -1.482677   -0.000112   -0.474076
  C      0.109084   -0.000032   -1.848680
  H      1.183013    0.000229   -2.022594
  H      0.526435    0.000000    2.729086
  H     -1.183013    0.000442    2.022594
  H     -0.526435   -0.000202   -2.729086

 Total Charge           Charge          ....    0
 Multiplicity           Mult            ....    1
 Number of Electrons    NEL             ....   30
 Basis Dimension        Dim             ....   72

ORBITAL ENERGIES
----------------

  NO   OCC          E(Eh)            E(eV)
   0   2.0000     -10.453374      -284.4508
   1   2.0000     -10.453055      -284.4421
   2   2.0000     -10.443255      -284.1754
   3   2.0000     -10.443238      -284.1750
   4   2.0000      -0.899833       -24.4857
   5   2.0000      -0.821763       -22.3613
   6   2.0000      -0.681453       -18.5433
   7   2.0000      -0.622485       -16.9387
   8   2.0000      -0.530558       -14.4372
   9   2.0000      -0.524609       -14.2753
  10   2.0000      -0.452545       -12.3144
  11   2.0000      -0.442849       -12.0505
  12   2.0000      -0.398707       -10.8494
  13   2.0000      -0.374562       -10.1923
  14   2.0000      -0.273934        -7.4541
  15   0.0000      -0.004699        -0.1279
  16   0.0000       0.106743         2.9046
  17   0.0000       0.168794         4.5931
  18   0.0000       0.173719         4.7271
  19   0.0000       0.173903         4.7321

MULLIKEN ATOMIC CHARGES
-----------------------
   0 C :   -0.493979
   1 C :   -0.160898
   2 C :   -0.160898
   3 H :    0.216205
   4 H :    0.216205
   5 C :   -0.493979
   6 H :    0.216808
   7 H :    0.221864
   8 H :    0.216809
   9 H :    0.221864
Sum of atomic charges:    0.0000000

LOEWDIN ATOMIC CHARGES
----------------------
   0 C :   -0.259652
   1 C :   -0.140285
   2 C :   -0.140285
   3 H :    0.133317
   4 H :    0.133317
   5 C :   -0.259652
   6 H :    0.131303
   7 H :    0.135317
   8 H :    0.131303
   9 H :    0.135317

  Mayer bond orders larger than 0.100000
B(  0-C ,  1-C ) :   1.8409 B(  0-C ,  5-C ) :   0.1180 B(  0-C ,  7-H ) :   0.9281
B(  0-C ,  8-H ) :   0.9293 B(  1-C ,  2-C ) :   1.0958 B(  1-C ,  3-H ) :   0.9199
B(  2-C ,  4-H ) :   0.9199 B(  2-C ,  5-C ) :   1.8409 B(  5-C ,  6-H ) :   0.9293
B(  5-C ,  9-H ) :   0.9281

Dispersion correction           -0.003513270
FINAL SINGLE POINT ENERGY      -155.633939300196

DIPOLE MOMENT
-------------
                                X             Y             Z
Electronic contribution:     -0.00000      -0.00041      -0.00000
Nuclear contribution   :      0.00000       0.00066       0.00000
                        -----------------------------------------
Total Dipole Moment    :     -0.00000       0.00024       0.00000
                        -----------------------------------------
Magnitude (a.u.)       :      0.00024
Magnitude (Debye)      :      0.00062

Rotational constants in cm-1:     1.410718     0.146948     0.133085
Rotational constants in MHz : 42292.275566  4405.376742  3989.781053

                             ****ORCA TERMINATED NORMALLY****
TOTAL RUN TIME: 0 days 0 hours 0 minutes 59 seconds 439 msec
