                         Program Version 5.0.3 -  RELEASE  -
|  1> ! PBEh-3c def2/J TightSCF DefGrid3
|  2>
|  3> %maxcore 60000
|  4>
|  5> %pal
|  6> nprocs 4
|  7> end
|  8>
|  9> *xyzfile -1 1 8.xyz
| 10>
| 11>                          ****END OF INPUT****

CARTESIAN COORDINATES (ANGSTROEM)
---------------------------------
  Cl    -1.084325   -0.377375    0.801547
  H     -0.918925    0.276741   -0.594448
  Cl    -0.754890    0.933209   -1.998314

 Total Charge           Charge          ....   -1
 Multiplicity           Mult            ....    1
 Number of Electrons    NEL             ....   36
 Basis Dimension        Dim             ....   38

ORBITAL ENERGIES
----------------

  NO   OCC          E(Eh)            E(eV)
   0   2.0000    -102.019479     -2776.0912
   1   2.0000    -102.017914     -2776.0486
   2   2.0000      -9.486368      -258.1372
   3   2.0000      -9.484725      -258.0925
   4   2.0000      -7.171582      -195.1487
   5   2.0000      -7.169914      -195.1033
   6   2.0000      -7.167545      -195.0388
   7   2.0000      -7.167544      -195.0388
   8   2.0000      -7.165928      -194.9948
   9   2.0000      -7.165927      -194.9948
  10   2.0000      -0.651856       -17.7379
  11   2.0000      -0.610805       -16.6208
  12   2.0000      -0.273883        -7.4527
  13   2.0000      -0.126999        -3.4558
  14   2.0000      -0.126999        -3.4558
  15   2.0000      -0.111891        -3.0447
  16   2.0000      -0.111891        -3.0447
  17   2.0000      -0.102220        -2.7815
  18   0.0000       0.361862         9.8468
  19   0.0000       0.738170        20.0866
  20   0.0000       0.777707        21.1625
  21   0.0000       1.051875        28.6230
  22   0.0000       1.077628        29.3238

MULLIKEN ATOMIC CHARGES
-----------------------
   0 Cl:   -0.640877
   1 H :    0.285394
   2 Cl:   -0.644516
Sum of atomic charges:   -1.0000000

LOEWDIN ATOMIC CHARGES
----------------------
   0 Cl:   -0.591142
   1 H :    0.187957
   2 Cl:   -0.596815

  Mayer bond orders larger than 0.100000
B(  0-Cl,  1-H ) :   0.4531 B(  0-Cl,  2-Cl) :   0.1027 B(  1-H ,  2-Cl) :   0.4495

Dispersion correction           -0.000708448
FINAL SINGLE POINT ENERGY      -920.087703976094

DIPOLE MOMENT
-------------
                                X             Y             Z
Electronic contribution:     -0.00185      -0.00539       0.01079
Nuclear contribution   :      0.00066      -0.00113       0.00379
                        -----------------------------------------
Total Dipole Moment    :     -0.00120      -0.00652       0.01458
                        -----------------------------------------
Magnitude (a.u.)       :      0.01602
Magnitude (Debye)      :      0.04071

Rotational constants in cm-1: 10635611.988005     0.098391     0.098391
Rotational constants in MHz : 318847626021.836731  2949.683634  2949.683606

                             ****ORCA TERMINATED NORMALLY****
TOTAL RUN TIME: 0 days 0 hours 0 minutes 7 seconds 630 msec
