                         Program Version 5.0.3 -  RELEASE  -
|  1> ! PBEh-3c def2/J TightSCF DefGrid3
|  2>
|  3> %maxcore 60000
|  4>
|  5> %pal
|  6> nprocs 4
|  7> end
|  8>
|  9> *xyzfile 0 1 7B.xyz
| 10>
| 11>                          ****END OF INPUT****

CARTESIAN COORDINATES (ANGSTROEM)
---------------------------------
  S     -0.451378   -0.507379    0.084185
  H      0.842822   -0.175780    0.073336
  H     -0.857718    0.838382    0.065331

 Total Charge           Charge          ....    0
 Multiplicity           Mult            ....    1
 Number of Electrons    NEL             ....   18
 Basis Dimension        Dim             ....   22

ORBITAL ENERGIES
----------------

  NO   OCC          E(Eh)            E(eV)
   0   2.0000     -89.586677     -2437.7774
   1   2.0000      -8.228330      -223.9043
   2   2.0000      -6.119089      -166.5089
   3   2.0000      -6.116473      -166.4377
   4   2.0000      -6.110360      -166.2713
   5   2.0000      -0.816095       -22.2071
   6   2.0000      -0.492386       -13.3985
   7   2.0000      -0.411361       -11.1937
   8   2.0000      -0.302948        -8.2436
   9   0.0000       0.055361         1.5065
  10   0.0000       0.096996         2.6394
  11   0.0000       0.434007        11.8099
  12   0.0000       0.562797        15.3145
  13   0.0000       0.637240        17.3402

MULLIKEN ATOMIC CHARGES
-----------------------
   0 S :   -0.368882
   1 H :    0.188766
   2 H :    0.180115
Sum of atomic charges:    0.0000000

LOEWDIN ATOMIC CHARGES
----------------------
   0 S :   -0.211498
   1 H :    0.104902
   2 H :    0.106596

  Mayer bond orders larger than 0.100000
B(  0-S ,  1-H ) :   0.9325 B(  0-S ,  2-H ) :   0.9415

Dispersion correction           -0.000417390
FINAL SINGLE POINT ENERGY      -398.929490060761

DIPOLE MOMENT
-------------
                                X             Y             Z
Electronic contribution:     -0.49133      -0.97756       0.01719
Nuclear contribution   :      0.78445       1.48200      -0.02624
                        -----------------------------------------
Total Dipole Moment    :      0.29312       0.50443      -0.00905
                        -----------------------------------------
Magnitude (a.u.)       :      0.58348
Magnitude (Debye)      :      1.48310

Rotational constants in cm-1:    10.041256     8.406119     4.575610
Rotational constants in MHz : 301029.290235 252009.094264 137173.333543

                             ****ORCA TERMINATED NORMALLY****
TOTAL RUN TIME: 0 days 0 hours 0 minutes 6 seconds 877 msec
