                         Program Version 5.0.3 -  RELEASE  -
|  1> ! PBEh-3c def2/J TightSCF DefGrid3
|  2>
|  3> %maxcore 60000
|  4>
|  5> %pal
|  6> nprocs 4
|  7> end
|  8>
|  9> *xyzfile 0 1 BrBr.xyz
| 10>
| 11>                          ****END OF INPUT****

CARTESIAN COORDINATES (ANGSTROEM)
---------------------------------
  Br     0.000000    0.000000    1.137930
  Br     0.000000    0.000000   -1.137930

 Total Charge           Charge          ....    0
 Multiplicity           Mult            ....    1
 Number of Electrons    NEL             ....   70
 Basis Dimension        Dim             ....   64

ORBITAL ENERGIES
----------------

  NO   OCC          E(Eh)            E(eV)
   0   2.0000    -484.572657    -13185.8924
   1   2.0000    -484.572645    -13185.8920
   2   2.0000     -63.235386     -1720.7223
   3   2.0000     -63.235377     -1720.7221
   4   2.0000     -56.940465     -1549.4288
   5   2.0000     -56.940465     -1549.4288
   6   2.0000     -56.936856     -1549.3306
   7   2.0000     -56.936856     -1549.3306
   8   2.0000     -56.936845     -1549.3303
   9   2.0000     -56.936845     -1549.3303
  10   2.0000      -9.064142      -246.6478
  11   2.0000      -9.064126      -246.6474
  12   2.0000      -6.842234      -186.1867
  13   2.0000      -6.842106      -186.1832
  14   2.0000      -6.823816      -185.6855
  15   2.0000      -6.823816      -185.6855
  16   2.0000      -6.823806      -185.6852
  17   2.0000      -6.823806      -185.6852
  18   2.0000      -2.856176       -77.7205
  19   2.0000      -2.853998       -77.6612
  20   2.0000      -2.850048       -77.5537
  21   2.0000      -2.850048       -77.5537
  22   2.0000      -2.849379       -77.5356
  23   2.0000      -2.849379       -77.5356
  24   2.0000      -2.834031       -77.1179
  25   2.0000      -2.834008       -77.1173
  26   2.0000      -2.833979       -77.1165
  27   2.0000      -2.833955       -77.1158
  28   2.0000      -0.946530       -25.7564
  29   2.0000      -0.809434       -22.0258
  30   2.0000      -0.478109       -13.0100
  31   2.0000      -0.420411       -11.4400
  32   2.0000      -0.420411       -11.4400
  33   2.0000      -0.332038        -9.0352
  34   2.0000      -0.332038        -9.0352
  35   0.0000      -0.109153        -2.9702
  36   0.0000       0.293617         7.9897
  37   0.0000       0.398399        10.8410
  38   0.0000       0.398399        10.8410
  39   0.0000       0.399453        10.8697

MULLIKEN ATOMIC CHARGES
-----------------------
   0 Br:    0.000000
   1 Br:   -0.000000
Sum of atomic charges:   -0.0000000

LOEWDIN ATOMIC CHARGES
----------------------
   0 Br:   -0.000000
   1 Br:    0.000000

  Mayer bond orders larger than 0.100000
B(  0-Br,  1-Br) :   1.0581

Dispersion correction           -0.000485067
FINAL SINGLE POINT ENERGY     -5146.009275141568

DIPOLE MOMENT
-------------
                                X             Y             Z
Electronic contribution:     -0.00000      -0.00000      -0.00000
Nuclear contribution   :      0.00000       0.00000       0.00000
                        -----------------------------------------
Total Dipole Moment    :     -0.00000      -0.00000      -0.00000
                        -----------------------------------------
Magnitude (a.u.)       :      0.00000
Magnitude (Debye)      :      0.00000

Rotational constants in cm-1:     0.000000     0.081468     0.081468
Rotational constants in MHz :     0.000000  2442.360744  2442.360744

                             ****ORCA TERMINATED NORMALLY****
TOTAL RUN TIME: 0 days 0 hours 0 minutes 59 seconds 796 msec
