                         Program Version 5.0.3 -  RELEASE  -
|  1> ! PBEh-3c def2/J TightSCF DefGrid3
|  2>
|  3> %maxcore 60000
|  4>
|  5> %pal
|  6> nprocs 4
|  7> end
|  8>
|  9> *xyzfile 0 1 methylpyridine.xyz
| 10>
| 11>                          ****END OF INPUT****

CARTESIAN COORDINATES (ANGSTROEM)
---------------------------------
  C      0.509280   -1.135569   -1.326002
  C      1.125719   -1.689169   -0.201728
  C      0.942743   -1.051383    1.024737
  C      0.158877    0.100906    1.072016
  C     -0.421450    0.588188   -0.109337
  N     -0.243937   -0.027496   -1.295913
  H      1.405103   -1.442990    1.932227
  H      0.626406   -1.604839   -2.307700
  H      1.730644   -2.591764   -0.289832
  H     -0.002448    0.625223    2.015490
  C     -1.284398    1.822117   -0.117150
  H     -1.208829    2.378925    0.825605
  H     -0.998151    2.478981   -0.949569
  H     -2.339558    1.548871   -0.272844

 Total Charge           Charge          ....    0
 Multiplicity           Mult            ....    1
 Number of Electrons    NEL             ....   50
 Basis Dimension        Dim             ....  119

ORBITAL ENERGIES
----------------

  NO   OCC          E(Eh)            E(eV)
   0   2.0000     -14.634119      -398.2146
   1   2.0000     -10.492029      -285.5026
   2   2.0000     -10.481866      -285.2261
   3   2.0000     -10.468730      -284.8686
   4   2.0000     -10.455509      -284.5089
   5   2.0000     -10.455286      -284.5028
   6   2.0000     -10.435189      -283.9559
   7   2.0000      -1.042029       -28.3551
   8   2.0000      -0.895344       -24.3636
   9   2.0000      -0.871541       -23.7158
  10   2.0000      -0.783292       -21.3145
  11   2.0000      -0.706217       -19.2171
  12   2.0000      -0.677834       -18.4448
  13   2.0000      -0.580374       -15.7928
  14   2.0000      -0.551061       -14.9951
  15   2.0000      -0.522768       -14.2252
  16   2.0000      -0.485465       -13.2102
  17   2.0000      -0.478145       -13.0110
  18   2.0000      -0.464645       -12.6436
  19   2.0000      -0.436342       -11.8735
  20   2.0000      -0.428643       -11.6640
  21   2.0000      -0.413661       -11.2563
  22   2.0000      -0.327458        -8.9106
  23   2.0000      -0.308763        -8.4019
  24   2.0000      -0.293212        -7.9787
  25   0.0000      -0.002259        -0.0615
  26   0.0000       0.013792         0.3753
  27   0.0000       0.142038         3.8650
  28   0.0000       0.173717         4.7271
  29   0.0000       0.175626         4.7790

MULLIKEN ATOMIC CHARGES
-----------------------
   0 C :   -0.048042
   1 C :   -0.302117
   2 C :   -0.127321
   3 C :   -0.312208
   4 C :    0.247967
   5 N :   -0.386051
   6 H :    0.230651
   7 H :    0.228593
   8 H :    0.228118
   9 H :    0.223951
  10 C :   -0.687365
  11 H :    0.216285
  12 H :    0.246342
  13 H :    0.241199
Sum of atomic charges:    0.0000000

LOEWDIN ATOMIC CHARGES
----------------------
   0 C :   -0.052675
   1 C :   -0.174437
   2 C :   -0.101059
   3 C :   -0.165980
   4 C :    0.019172
   5 N :   -0.147893
   6 H :    0.140234
   7 H :    0.129151
   8 H :    0.141365
   9 H :    0.139541
  10 C :   -0.353724
  11 H :    0.130223
  12 H :    0.148817
  13 H :    0.147266

  Mayer bond orders larger than 0.100000
B(  0-C ,  1-C ) :   1.3776 B(  0-C ,  5-N ) :   1.5205 B(  0-C ,  7-H ) :   0.9172
B(  1-C ,  2-C ) :   1.4114 B(  1-C ,  8-H ) :   0.9137 B(  2-C ,  3-C ) :   1.4263
B(  2-C ,  6-H ) :   0.9184 B(  3-C ,  4-C ) :   1.3625 B(  3-C ,  9-H ) :   0.9145
B(  4-C ,  5-N ) :   1.4511 B(  4-C , 10-C ) :   0.9729 B( 10-C , 11-H ) :   0.9300
B( 10-C , 12-H ) :   0.9157 B( 10-C , 13-H ) :   0.9119

Dispersion correction           -0.007058682
FINAL SINGLE POINT ENERGY      -286.965231615166

DIPOLE MOMENT
-------------
                                X             Y             Z
Electronic contribution:      1.54775      -2.55145      -1.15487
Nuclear contribution   :     -1.31619       2.39133       1.81021
                        -----------------------------------------
Total Dipole Moment    :      0.23157      -0.16012       0.65534
                        -----------------------------------------
Magnitude (a.u.)       :      0.71326
Magnitude (Debye)      :      1.81295

Rotational constants in cm-1:     0.189349     0.087271     0.060412
Rotational constants in MHz :  5676.554662  2616.330666  1811.092175

                             ****ORCA TERMINATED NORMALLY****
TOTAL RUN TIME: 0 days 0 hours 1 minutes 44 seconds 568 msec
