                         Program Version 5.0.3 -  RELEASE  -
|  1> ! PBEh-3c def2/J TightSCF DefGrid3
|  2>
|  3> %maxcore 60000
|  4>
|  5> %pal
|  6> nprocs 4
|  7> end
|  8>
|  9> *xyzfile 0 1 br2.xyz
| 10>
| 11>                          ****END OF INPUT****

CARTESIAN COORDINATES (ANGSTROEM)
---------------------------------
  Br     0.000000    0.000000   -1.140784
  Br     0.000000    0.000000    1.140784

 Total Charge           Charge          ....    0
 Multiplicity           Mult            ....    1
 Number of Electrons    NEL             ....   70
 Basis Dimension        Dim             ....   64

ORBITAL ENERGIES
----------------

  NO   OCC          E(Eh)            E(eV)
   0   2.0000    -484.572830    -13185.8971
   1   2.0000    -484.572817    -13185.8967
   2   2.0000     -63.235524     -1720.7261
   3   2.0000     -63.235515     -1720.7259
   4   2.0000     -56.940608     -1549.4327
   5   2.0000     -56.940607     -1549.4327
   6   2.0000     -56.936996     -1549.3344
   7   2.0000     -56.936996     -1549.3344
   8   2.0000     -56.936985     -1549.3341
   9   2.0000     -56.936985     -1549.3341
  10   2.0000      -9.064236      -246.6504
  11   2.0000      -9.064220      -246.6500
  12   2.0000      -6.842334      -186.1894
  13   2.0000      -6.842211      -186.1860
  14   2.0000      -6.823902      -185.6878
  15   2.0000      -6.823902      -185.6878
  16   2.0000      -6.823892      -185.6875
  17   2.0000      -6.823892      -185.6875
  18   2.0000      -2.856241       -77.7223
  19   2.0000      -2.854118       -77.6645
  20   2.0000      -2.850135       -77.5561
  21   2.0000      -2.850135       -77.5561
  22   2.0000      -2.849484       -77.5384
  23   2.0000      -2.849484       -77.5384
  24   2.0000      -2.834111       -77.1201
  25   2.0000      -2.834088       -77.1195
  26   2.0000      -2.834060       -77.1187
  27   2.0000      -2.834037       -77.1181
  28   2.0000      -0.945400       -25.7256
  29   2.0000      -0.809894       -22.0383
  30   2.0000      -0.477559       -12.9951
  31   2.0000      -0.419886       -11.4257
  32   2.0000      -0.419886       -11.4257
  33   2.0000      -0.332412        -9.0454
  34   2.0000      -0.332412        -9.0454
  35   0.0000      -0.110604        -3.0097
  36   0.0000       0.294157         8.0044
  37   0.0000       0.398959        10.8562
  38   0.0000       0.398959        10.8562
  39   0.0000       0.399170        10.8620

MULLIKEN ATOMIC CHARGES
-----------------------
   0 Br:    0.000000
   1 Br:   -0.000000
Sum of atomic charges:    0.0000000

LOEWDIN ATOMIC CHARGES
----------------------
   0 Br:    0.000000
   1 Br:   -0.000000

  Mayer bond orders larger than 0.100000
B(  0-Br,  1-Br) :   1.0574

Dispersion correction           -0.000484933
FINAL SINGLE POINT ENERGY     -5146.009285979735

DIPOLE MOMENT
-------------
                                X             Y             Z
Electronic contribution:      0.00000       0.00000       0.00000
Nuclear contribution   :      0.00000       0.00000       0.00000
                        -----------------------------------------
Total Dipole Moment    :      0.00000       0.00000       0.00000
                        -----------------------------------------
Magnitude (a.u.)       :      0.00000
Magnitude (Debye)      :      0.00000

Rotational constants in cm-1:     0.000000     0.081061     0.081061
Rotational constants in MHz :     0.000000  2430.153361  2430.153361

                             ****ORCA TERMINATED NORMALLY****
TOTAL RUN TIME: 0 days 0 hours 1 minutes 21 seconds 531 msec
