                         Program Version 5.0.3 -  RELEASE  -
|  1> ! PBEh-3c def2/J TightSCF DefGrid3
|  2>
|  3> %maxcore 60000
|  4>
|  5> %pal
|  6> nprocs 4
|  7> end
|  8>
|  9> *xyzfile 0 1 cpdiene.xyz
| 10>
| 11>                          ****END OF INPUT****

CARTESIAN COORDINATES (ANGSTROEM)
---------------------------------
  C      0.000000   -1.171627    0.190641
  C      0.000000   -0.729927   -1.076777
  C      0.000000    0.729927   -1.076777
  C      0.000000    1.171627    0.190641
  C      0.000000    0.000000    1.115790
  H      0.000000   -2.202394    0.517287
  H      0.000000   -1.345514   -1.967122
  H      0.000000    1.345514   -1.967122
  H      0.000000    2.202394    0.517287
  H     -0.875804    0.000000    1.778075
  H      0.875804    0.000000    1.778075

 Total Charge           Charge          ....    0
 Multiplicity           Mult            ....    1
 Number of Electrons    NEL             ....   36
 Basis Dimension        Dim             ....   87

ORBITAL ENERGIES
----------------

  NO   OCC          E(Eh)            E(eV)
   0   2.0000     -10.442523      -284.1555
   1   2.0000     -10.438203      -284.0380
   2   2.0000     -10.438037      -284.0334
   3   2.0000     -10.437261      -284.0123
   4   2.0000     -10.437134      -284.0089
   5   2.0000      -0.956570       -26.0296
   6   2.0000      -0.790096       -21.4996
   7   2.0000      -0.788017       -21.4430
   8   2.0000      -0.619874       -16.8676
   9   2.0000      -0.597066       -16.2470
  10   2.0000      -0.579767       -15.7763
  11   2.0000      -0.493974       -13.4417
  12   2.0000      -0.453746       -12.3470
  13   2.0000      -0.429320       -11.6824
  14   2.0000      -0.412540       -11.2258
  15   2.0000      -0.412021       -11.2117
  16   2.0000      -0.345728        -9.4077
  17   2.0000      -0.258009        -7.0208
  18   0.0000       0.009870         0.2686
  19   0.0000       0.114577         3.1178
  20   0.0000       0.168106         4.5744
  21   0.0000       0.194212         5.2848
  22   0.0000       0.221005         6.0138

MULLIKEN ATOMIC CHARGES
-----------------------
   0 C :   -0.231418
   1 C :   -0.203911
   2 C :   -0.203911
   3 C :   -0.231418
   4 C :   -0.495114
   5 H :    0.219750
   6 H :    0.215038
   7 H :    0.215038
   8 H :    0.219750
   9 H :    0.248098
  10 H :    0.248098
Sum of atomic charges:   -0.0000000

LOEWDIN ATOMIC CHARGES
----------------------
   0 C :   -0.152849
   1 C :   -0.149009
   2 C :   -0.149009
   3 C :   -0.152849
   4 C :   -0.237613
   5 H :    0.132843
   6 H :    0.132054
   7 H :    0.132054
   8 H :    0.132843
   9 H :    0.155766
  10 H :    0.155766

  Mayer bond orders larger than 0.100000
B(  0-C ,  1-C ) :   1.7940 B(  0-C ,  4-C ) :   1.0241 B(  0-C ,  5-H ) :   0.9237
B(  1-C ,  2-C ) :   1.1239 B(  1-C ,  6-H ) :   0.9218 B(  2-C ,  3-C ) :   1.7940
B(  2-C ,  7-H ) :   0.9218 B(  3-C ,  4-C ) :   1.0241 B(  3-C ,  8-H ) :   0.9237
B(  4-C ,  9-H ) :   0.8849 B(  4-C , 10-H ) :   0.8849

Dispersion correction           -0.004693505
FINAL SINGLE POINT ENERGY      -193.666016232032

DIPOLE MOMENT
-------------
                                X             Y             Z
Electronic contribution:      0.00000      -0.00000      -1.03497
Nuclear contribution   :      0.00000      -0.00000       1.23100
                        -----------------------------------------
Total Dipole Moment    :      0.00000      -0.00000       0.19602
                        -----------------------------------------
Magnitude (a.u.)       :      0.19602
Magnitude (Debye)      :      0.49826

Rotational constants in cm-1:     0.284998     0.277497     0.144321
Rotational constants in MHz :  8544.018564  8319.163012  4326.647473

                             ****ORCA TERMINATED NORMALLY****
TOTAL RUN TIME: 0 days 0 hours 0 minutes 46 seconds 125 msec
