                         Program Version 5.0.3 -  RELEASE  -
|  1> ! PBEh-3c def2/J TightSCF DefGrid3
|  2>
|  3> %maxcore 60000
|  4>
|  5> %pal
|  6> nprocs 4
|  7> end
|  8>
|  9> *xyzfile 0 1 THR_xah.xyz
| 10>
| 11>                          ****END OF INPUT****

CARTESIAN COORDINATES (ANGSTROEM)
---------------------------------
  N      0.999879   -0.208981   -0.438758
  C      0.126179    0.474374    0.480311
  C     -1.321604   -0.030963    0.505390
  O     -2.116170    0.441453    1.310514
  C      0.109081    1.964360    0.148201
  O     -0.247421    2.022402   -1.235947
  C      1.443231    2.634434    0.407831
  H      1.091366    0.188571   -1.363355
  H      0.492002    0.370103    1.501254
  H     -0.674061    2.412595    0.762059
  H     -0.270659    2.948089   -1.496340
  H      1.401747    3.684070    0.116765
  H      2.235545    2.149957   -0.159288
  H      1.691413    2.593200    1.467829
  N     -1.614378   -1.009358   -0.376651
  H     -0.906493   -1.243502   -1.051816
  C     -2.958634   -1.524959   -0.516708
  H     -2.930081   -2.596710   -0.694512
  H     -3.488043   -1.322907    0.409188
  H     -3.490794   -1.039825   -1.334411
  C      1.703108   -1.363007   -0.213001
  O      2.384607   -1.872607   -1.091079
  C      1.576864   -1.951937    1.171092
  H      0.533146   -2.106529    1.441306
  H      2.021239   -1.289130    1.913091
  H      2.102482   -2.900028    1.181886

 Total Charge           Charge          ....    0
 Multiplicity           Mult            ....    1
 Number of Electrons    NEL             ....   94
 Basis Dimension        Dim             ....  208

ORBITAL ENERGIES
----------------

  NO   OCC          E(Eh)            E(eV)
   0   2.0000     -19.510179      -530.8990
   1   2.0000     -19.458206      -529.4847
   2   2.0000     -19.457765      -529.4727
   3   2.0000     -14.665542      -399.0697
   4   2.0000     -14.665492      -399.0683
   5   2.0000     -10.553603      -287.1781
   6   2.0000     -10.546767      -286.9921
   7   2.0000     -10.510608      -286.0082
   8   2.0000     -10.499253      -285.6992
   9   2.0000     -10.467896      -284.8459
  10   2.0000     -10.443547      -284.1834
  11   2.0000     -10.442120      -284.1445
  12   2.0000      -1.155115       -31.4323
  13   2.0000      -1.142578       -31.0911
  14   2.0000      -1.140483       -31.0341
  15   2.0000      -1.039907       -28.2973
  16   2.0000      -1.017595       -27.6902
  17   2.0000      -0.882052       -24.0018
  18   2.0000      -0.833366       -22.6771
  19   2.0000      -0.820904       -22.3379
  20   2.0000      -0.780066       -21.2267
  21   2.0000      -0.694671       -18.9029
  22   2.0000      -0.672159       -18.2904
  23   2.0000      -0.655377       -17.8337
  24   2.0000      -0.608203       -16.5500
  25   2.0000      -0.592358       -16.1189
  26   2.0000      -0.562374       -15.3030
  27   2.0000      -0.545716       -14.8497
  28   2.0000      -0.523363       -14.2414
  29   2.0000      -0.521358       -14.1869
  30   2.0000      -0.511807       -13.9270
  31   2.0000      -0.504367       -13.7245
  32   2.0000      -0.488624       -13.2961
  33   2.0000      -0.471967       -12.8429
  34   2.0000      -0.465199       -12.6587
  35   2.0000      -0.457484       -12.4488
  36   2.0000      -0.451244       -12.2790
  37   2.0000      -0.448162       -12.1951
  38   2.0000      -0.444410       -12.0930
  39   2.0000      -0.422855       -11.5065
  40   2.0000      -0.417154       -11.3513
  41   2.0000      -0.400001       -10.8846
  42   2.0000      -0.350273        -9.5314
  43   2.0000      -0.338376        -9.2077
  44   2.0000      -0.310162        -8.4399
  45   2.0000      -0.305429        -8.3112
  46   2.0000      -0.289965        -7.8904
  47   0.0000       0.053545         1.4570
  48   0.0000       0.058232         1.5846
  49   0.0000       0.102142         2.7794
  50   0.0000       0.137145         3.7319
  51   0.0000       0.146218         3.9788

MULLIKEN ATOMIC CHARGES
-----------------------
   0 N :   -0.648643
   1 C :   -0.178250
   2 C :    0.546941
   3 O :   -0.438563
   4 C :    0.007564
   5 O :   -0.644802
   6 C :   -0.663931
   7 H :    0.381350
   8 H :    0.268431
   9 H :    0.250430
  10 H :    0.426924
  11 H :    0.217711
  12 H :    0.236498
  13 H :    0.222630
  14 N :   -0.630205
  15 H :    0.378953
  16 C :   -0.493214
  17 H :    0.222012
  18 H :    0.261351
  19 H :    0.226135
  20 C :    0.485330
  21 O :   -0.409826
  22 C :   -0.788822
  23 H :    0.247085
  24 H :    0.241672
  25 H :    0.275237
Sum of atomic charges:    0.0000000

LOEWDIN ATOMIC CHARGES
----------------------
   0 N :   -0.238910
   1 C :   -0.101772
   2 C :    0.099945
   3 O :   -0.285971
   4 C :   -0.022859
   5 O :   -0.404915
   6 C :   -0.373948
   7 H :    0.267400
   8 H :    0.152109
   9 H :    0.130514
  10 H :    0.316429
  11 H :    0.128864
  12 H :    0.137944
  13 H :    0.135826
  14 N :   -0.236465
  15 H :    0.261854
  16 C :   -0.254766
  17 H :    0.125720
  18 H :    0.151324
  19 H :    0.124108
  20 C :    0.102085
  21 O :   -0.268585
  22 C :   -0.399110
  23 H :    0.148196
  24 H :    0.147275
  25 H :    0.157707

  Mayer bond orders larger than 0.100000
B(  0-N ,  1-C ) :   0.9092 B(  0-N ,  7-H ) :   0.7913 B(  0-N , 20-C ) :   1.1352
B(  1-C ,  2-C ) :   0.8997 B(  1-C ,  4-C ) :   0.9445 B(  1-C ,  8-H ) :   0.8872
B(  2-C ,  3-O ) :   1.9605 B(  2-C , 14-N ) :   1.1640 B(  4-C ,  5-O ) :   0.9890
B(  4-C ,  6-C ) :   0.9776 B(  4-C ,  9-H ) :   0.8758 B(  5-O , 10-H ) :   0.7846
B(  6-C , 11-H ) :   0.9284 B(  6-C , 12-H ) :   0.9130 B(  6-C , 13-H ) :   0.9171
B( 14-N , 15-H ) :   0.7963 B( 14-N , 16-C ) :   0.9531 B( 16-C , 17-H ) :   0.9236
B( 16-C , 18-H ) :   0.9024 B( 16-C , 19-H ) :   0.9173 B( 20-C , 21-O ) :   2.0493
B( 20-C , 22-C ) :   0.9327 B( 22-C , 23-H ) :   0.9002 B( 22-C , 24-H ) :   0.9066
B( 22-C , 25-H ) :   0.9148

Dispersion correction           -0.015184194
FINAL SINGLE POINT ENERGY      -609.078717461281

DIPOLE MOMENT
-------------
                                X             Y             Z
Electronic contribution:     -0.00479      -1.18393      -2.60994
Nuclear contribution   :     -0.15839       1.98661       2.59469
                        -----------------------------------------
Total Dipole Moment    :     -0.16319       0.80269      -0.01525
                        -----------------------------------------
Magnitude (a.u.)       :      0.81925
Magnitude (Debye)      :      2.08237

Rotational constants in cm-1:     0.030615     0.027474     0.018303
Rotational constants in MHz :   917.810352   823.657377   548.700101

                             ****ORCA TERMINATED NORMALLY****
TOTAL RUN TIME: 0 days 0 hours 2 minutes 57 seconds 590 msec
