                         Program Version 5.0.3 -  RELEASE  -
|  1> ! PBEh-3c def2/J TightSCF DefGrid3
|  2>
|  3> %maxcore 60000
|  4>
|  5> %pal
|  6> nprocs 4
|  7> end
|  8>
|  9> *xyzfile 0 1 THR_xaq.xyz
| 10>
| 11>                          ****END OF INPUT****

CARTESIAN COORDINATES (ANGSTROEM)
---------------------------------
  N     -1.089140   -0.614237   -0.190835
  C      0.097836    0.206531   -0.331629
  C      1.266159   -0.730698   -0.066914
  O      1.168525   -1.643369    0.749632
  C      0.092264    1.403106    0.644360
  O     -0.766989    2.419065    0.170694
  C      1.452703    2.042966    0.838024
  H     -0.947141   -1.475246    0.316946
  H      0.137744    0.610944   -1.346227
  H     -0.256465    1.006368    1.605994
  H     -1.487495    1.995324   -0.331562
  H      1.323956    2.928137    1.456912
  H      1.863027    2.367434   -0.118333
  H      2.155516    1.371708    1.327783
  N      2.384821   -0.479030   -0.780281
  H      2.385030    0.318302   -1.391423
  C      3.621259   -1.194596   -0.543548
  H      3.371835   -2.131402   -0.056287
  H      4.119287   -1.398116   -1.487504
  H      4.293876   -0.631248    0.102635
  C     -2.304690   -0.274752   -0.667535
  O     -2.526704    0.809257   -1.213063
  C     -3.381465   -1.316643   -0.513345
  H     -4.252986   -0.850342   -0.062099
  H     -3.068837   -2.167634    0.085579
  H     -3.667815   -1.662785   -1.504266

 Total Charge           Charge          ....    0
 Multiplicity           Mult            ....    1
 Number of Electrons    NEL             ....   94
 Basis Dimension        Dim             ....  208

ORBITAL ENERGIES
----------------

  NO   OCC          E(Eh)            E(eV)
   0   2.0000     -19.478612      -530.0400
   1   2.0000     -19.470422      -529.8171
   2   2.0000     -19.462563      -529.6033
   3   2.0000     -14.683217      -399.5506
   4   2.0000     -14.672902      -399.2700
   5   2.0000     -10.565770      -287.5092
   6   2.0000     -10.562539      -287.4213
   7   2.0000     -10.498248      -285.6718
   8   2.0000     -10.492882      -285.5258
   9   2.0000     -10.480636      -285.1926
  10   2.0000     -10.448772      -284.3255
  11   2.0000     -10.426656      -283.7237
  12   2.0000      -1.167105       -31.7585
  13   2.0000      -1.154561       -31.4172
  14   2.0000      -1.108052       -30.1516
  15   2.0000      -1.042850       -28.3774
  16   2.0000      -1.035961       -28.1899
  17   2.0000      -0.883416       -24.0390
  18   2.0000      -0.838436       -22.8150
  19   2.0000      -0.817654       -22.2495
  20   2.0000      -0.775874       -21.1126
  21   2.0000      -0.687772       -18.7152
  22   2.0000      -0.679758       -18.4972
  23   2.0000      -0.658686       -17.9238
  24   2.0000      -0.615412       -16.7462
  25   2.0000      -0.586357       -15.9556
  26   2.0000      -0.565849       -15.3975
  27   2.0000      -0.553370       -15.0580
  28   2.0000      -0.532469       -14.4892
  29   2.0000      -0.529243       -14.4014
  30   2.0000      -0.518682       -14.1141
  31   2.0000      -0.497289       -13.5319
  32   2.0000      -0.486282       -13.2324
  33   2.0000      -0.469976       -12.7887
  34   2.0000      -0.467280       -12.7153
  35   2.0000      -0.462552       -12.5867
  36   2.0000      -0.452145       -12.3035
  37   2.0000      -0.444288       -12.0897
  38   2.0000      -0.439031       -11.9467
  39   2.0000      -0.424539       -11.5523
  40   2.0000      -0.412434       -11.2229
  41   2.0000      -0.391915       -10.6645
  42   2.0000      -0.338905        -9.2221
  43   2.0000      -0.324533        -8.8310
  44   2.0000      -0.320906        -8.7323
  45   2.0000      -0.315411        -8.5828
  46   2.0000      -0.301321        -8.1994
  47   0.0000       0.033719         0.9175
  48   0.0000       0.055372         1.5067
  49   0.0000       0.101252         2.7552
  50   0.0000       0.129485         3.5235
  51   0.0000       0.157976         4.2987

MULLIKEN ATOMIC CHARGES
-----------------------
   0 N :   -0.640534
   1 C :   -0.236780
   2 C :    0.534210
   3 O :   -0.438514
   4 C :    0.111217
   5 O :   -0.657901
   6 C :   -0.677341
   7 H :    0.388600
   8 H :    0.259335
   9 H :    0.191829
  10 H :    0.454048
  11 H :    0.255006
  12 H :    0.199792
  13 H :    0.216468
  14 N :   -0.624473
  15 H :    0.366437
  16 C :   -0.498522
  17 H :    0.267692
  18 H :    0.226518
  19 H :    0.228610
  20 C :    0.542738
  21 O :   -0.473788
  22 C :   -0.742310
  23 H :    0.262893
  24 H :    0.223844
  25 H :    0.260925
Sum of atomic charges:    0.0000000

LOEWDIN ATOMIC CHARGES
----------------------
   0 N :   -0.212836
   1 C :   -0.107912
   2 C :    0.111747
   3 O :   -0.287043
   4 C :   -0.015364
   5 O :   -0.414300
   6 C :   -0.368632
   7 H :    0.271505
   8 H :    0.142124
   9 H :    0.107328
  10 H :    0.310161
  11 H :    0.146712
  12 H :    0.121496
  13 H :    0.128068
  14 N :   -0.229135
  15 H :    0.258079
  16 C :   -0.255981
  17 H :    0.154696
  18 H :    0.128446
  19 H :    0.125143
  20 C :    0.116653
  21 O :   -0.301134
  22 C :   -0.381871
  23 H :    0.158795
  24 H :    0.133173
  25 H :    0.160083

  Mayer bond orders larger than 0.100000
B(  0-N ,  1-C ) :   0.9259 B(  0-N ,  7-H ) :   0.7751 B(  0-N , 20-C ) :   1.1912
B(  1-C ,  2-C ) :   0.8958 B(  1-C ,  4-C ) :   0.9349 B(  1-C ,  8-H ) :   0.8799
B(  2-C ,  3-O ) :   1.9578 B(  2-C , 14-N ) :   1.1380 B(  4-C ,  5-O ) :   1.0545
B(  4-C ,  6-C ) :   0.9715 B(  4-C ,  9-H ) :   0.8869 B(  5-O , 10-H ) :   0.6823
B(  6-C , 11-H ) :   0.9150 B(  6-C , 12-H ) :   0.9253 B(  6-C , 13-H ) :   0.9165
B( 10-H , 21-O ) :   0.1069 B( 14-N , 15-H ) :   0.8195 B( 14-N , 16-C ) :   0.9482
B( 16-C , 17-H ) :   0.9000 B( 16-C , 18-H ) :   0.9220 B( 16-C , 19-H ) :   0.9157
B( 20-C , 21-O ) :   1.8524 B( 20-C , 22-C ) :   0.9352 B( 22-C , 23-H ) :   0.9080
B( 22-C , 24-H ) :   0.9198 B( 22-C , 25-H ) :   0.9057

Dispersion correction           -0.014906508
FINAL SINGLE POINT ENERGY      -609.080945265524

DIPOLE MOMENT
-------------
                                X             Y             Z
Electronic contribution:     -4.50965      -0.38461      -1.19747
Nuclear contribution   :      5.55321      -0.62414       0.74925
                        -----------------------------------------
Total Dipole Moment    :      1.04355      -1.00875      -0.44822
                        -----------------------------------------
Magnitude (a.u.)       :      1.51904
Magnitude (Debye)      :      3.86109

Rotational constants in cm-1:     0.044260     0.020615     0.015770
Rotational constants in MHz :  1326.887951   618.028678   472.775453

                             ****ORCA TERMINATED NORMALLY****
TOTAL RUN TIME: 0 days 0 hours 2 minutes 52 seconds 731 msec
