                         Program Version 5.0.3 -  RELEASE  -
|  1> ! PBEh-3c def2/J TightSCF DefGrid3
|  2>
|  3> %maxcore 60000
|  4>
|  5> %pal
|  6> nprocs 4
|  7> end
|  8>
|  9> *xyzfile 0 1 i9e.xyz
| 10>
| 11>                          ****END OF INPUT****

CARTESIAN COORDINATES (ANGSTROEM)
---------------------------------
  C      0.000000   -1.260948   -1.288315
  C      0.000000    0.000000   -2.179178
  C      0.000000    1.260948   -1.288315
  C     -1.258224    1.255735   -0.395432
  C     -1.279197    0.000000    0.507873
  C     -1.258224   -1.255735   -0.395432
  C      1.258224   -1.255735   -0.395432
  C      1.258224    1.255735   -0.395432
  C      1.279197    0.000000    0.507873
  C      0.000000    0.000000    1.375859
  C     -2.525216    0.000000    1.395968
  H      0.000000   -2.160554   -1.919376
  H      0.888366    0.000000   -2.827595
  H     -0.888366    0.000000   -2.827595
  H      0.000000    2.160554   -1.919376
  H     -1.276621    2.156709    0.236344
  H     -2.164412    1.268412   -1.019612
  H     -1.276621   -2.156709    0.236344
  H     -2.164412   -1.268412   -1.019612
  H      1.276621   -2.156709    0.236344
  H      2.164412   -1.268412   -1.019612
  H      1.276621    2.156709    0.236344
  H      2.164412    1.268412   -1.019612
  C      2.525216    0.000000    1.395968
  H      0.000000    0.887782    2.027063
  H      0.000000   -0.887782    2.027063
  H     -3.438283    0.000000    0.783683
  H     -2.542230   -0.890844    2.039878
  H     -2.542230    0.890844    2.039878
  H      3.438283    0.000000    0.783683
  H      2.542230    0.890844    2.039878
  H      2.542230   -0.890844    2.039878

 Total Charge           Charge          ....    0
 Multiplicity           Mult            ....    1
 Number of Electrons    NEL             ....   92
 Basis Dimension        Dim             ....  220

ORBITAL ENERGIES
----------------

  NO   OCC          E(Eh)            E(eV)
   0   2.0000     -10.443868      -284.1921
   1   2.0000     -10.443824      -284.1909
   2   2.0000     -10.435599      -283.9671
   3   2.0000     -10.435545      -283.9656
   4   2.0000     -10.426238      -283.7124
   5   2.0000     -10.425542      -283.6934
   6   2.0000     -10.425469      -283.6914
   7   2.0000     -10.425469      -283.6914
   8   2.0000     -10.425427      -283.6903
   9   2.0000     -10.424672      -283.6697
  10   2.0000     -10.419873      -283.5392
  11   2.0000     -10.419864      -283.5389
  12   2.0000      -0.963298       -26.2127
  13   2.0000      -0.877921       -23.8894
  14   2.0000      -0.863873       -23.5072
  15   2.0000      -0.848676       -23.0937
  16   2.0000      -0.755696       -20.5635
  17   2.0000      -0.750955       -20.4345
  18   2.0000      -0.740278       -20.1440
  19   2.0000      -0.740278       -20.1440
  20   2.0000      -0.651895       -17.7390
  21   2.0000      -0.634943       -17.2777
  22   2.0000      -0.612313       -16.6619
  23   2.0000      -0.571900       -15.5622
  24   2.0000      -0.504138       -13.7183
  25   2.0000      -0.503781       -13.7086
  26   2.0000      -0.503056       -13.6888
  27   2.0000      -0.492884       -13.4121
  28   2.0000      -0.491897       -13.3852
  29   2.0000      -0.485202       -13.2030
  30   2.0000      -0.473461       -12.8835
  31   2.0000      -0.441114       -12.0033
  32   2.0000      -0.440423       -11.9845
  33   2.0000      -0.422379       -11.4935
  34   2.0000      -0.420865       -11.4523
  35   2.0000      -0.418057       -11.3759
  36   2.0000      -0.417780       -11.3684
  37   2.0000      -0.411830       -11.2065
  38   2.0000      -0.369005       -10.0411
  39   2.0000      -0.367002        -9.9866
  40   2.0000      -0.364103        -9.9077
  41   2.0000      -0.358220        -9.7477
  42   2.0000      -0.356120        -9.6905
  43   2.0000      -0.320713        -8.7270
  44   2.0000      -0.318689        -8.6720
  45   2.0000      -0.316297        -8.6069
  46   0.0000       0.109429         2.9777
  47   0.0000       0.149664         4.0726
  48   0.0000       0.159722         4.3462
  49   0.0000       0.170366         4.6359
  50   0.0000       0.171200         4.6586

MULLIKEN ATOMIC CHARGES
-----------------------
   0 C :   -0.236607
   1 C :   -0.405901
   2 C :   -0.236607
   3 C :   -0.382107
   4 C :   -0.093161
   5 C :   -0.382106
   6 C :   -0.382106
   7 C :   -0.382106
   8 C :   -0.093160
   9 C :   -0.356559
  10 C :   -0.612373
  11 H :    0.213536
  12 H :    0.211376
  13 H :    0.211376
  14 H :    0.213536
  15 H :    0.207350
  16 H :    0.207701
  17 H :    0.207350
  18 H :    0.207701
  19 H :    0.207350
  20 H :    0.207701
  21 H :    0.207350
  22 H :    0.207701
  23 C :   -0.612374
  24 H :    0.203756
  25 H :    0.203756
  26 H :    0.209706
  27 H :    0.209554
  28 H :    0.209554
  29 H :    0.209706
  30 H :    0.209554
  31 H :    0.209554
Sum of atomic charges:   -0.0000000

LOEWDIN ATOMIC CHARGES
----------------------
   0 C :   -0.142642
   1 C :   -0.222879
   2 C :   -0.142642
   3 C :   -0.214324
   4 C :   -0.093310
   5 C :   -0.214324
   6 C :   -0.214324
   7 C :   -0.214324
   8 C :   -0.093310
   9 C :   -0.205311
  10 C :   -0.338956
  11 H :    0.121564
  12 H :    0.120758
  13 H :    0.120758
  14 H :    0.121564
  15 H :    0.120453
  16 H :    0.120482
  17 H :    0.120453
  18 H :    0.120482
  19 H :    0.120453
  20 H :    0.120482
  21 H :    0.120453
  22 H :    0.120482
  23 C :   -0.338956
  24 H :    0.120188
  25 H :    0.120188
  26 H :    0.124356
  27 H :    0.124458
  28 H :    0.124458
  29 H :    0.124356
  30 H :    0.124458
  31 H :    0.124458

  Mayer bond orders larger than 0.100000
B(  0-C ,  1-C ) :   0.9722 B(  0-C ,  5-C ) :   0.9751 B(  0-C ,  6-C ) :   0.9751
B(  0-C , 11-H ) :   0.9203 B(  1-C ,  2-C ) :   0.9722 B(  1-C , 12-H ) :   0.9239
B(  1-C , 13-H ) :   0.9239 B(  2-C ,  3-C ) :   0.9751 B(  2-C ,  7-C ) :   0.9751
B(  2-C , 14-H ) :   0.9203 B(  3-C ,  4-C ) :   0.9603 B(  3-C , 15-H ) :   0.9231
B(  3-C , 16-H ) :   0.9227 B(  4-C ,  5-C ) :   0.9603 B(  4-C ,  9-C ) :   0.9616
B(  4-C , 10-C ) :   0.9964 B(  5-C , 17-H ) :   0.9231 B(  5-C , 18-H ) :   0.9227
B(  6-C ,  8-C ) :   0.9603 B(  6-C , 19-H ) :   0.9231 B(  6-C , 20-H ) :   0.9227
B(  7-C ,  8-C ) :   0.9603 B(  7-C , 21-H ) :   0.9231 B(  7-C , 22-H ) :   0.9227
B(  8-C ,  9-C ) :   0.9616 B(  8-C , 23-C ) :   0.9964 B(  9-C , 24-H ) :   0.9221
B(  9-C , 25-H ) :   0.9221 B( 10-C , 26-H ) :   0.9289 B( 10-C , 27-H ) :   0.9290
B( 10-C , 28-H ) :   0.9290 B( 23-C , 29-H ) :   0.9289 B( 23-C , 30-H ) :   0.9290
B( 23-C , 31-H ) :   0.9290

Dispersion correction           -0.022728840
FINAL SINGLE POINT ENERGY      -468.354527435506

DIPOLE MOMENT
-------------
                                X             Y             Z
Electronic contribution:     -0.00000       0.00000      -2.57757
Nuclear contribution   :     -0.00000       0.00000       2.53280
                        -----------------------------------------
Total Dipole Moment    :     -0.00000       0.00000      -0.04477
                        -----------------------------------------
Magnitude (a.u.)       :      0.04477
Magnitude (Debye)      :      0.11379

Rotational constants in cm-1:     0.043578     0.033791     0.029118
Rotational constants in MHz :  1306.425580  1013.015485   872.941733

                             ****ORCA TERMINATED NORMALLY****
TOTAL RUN TIME: 0 days 0 hours 3 minutes 10 seconds 743 msec
