                         Program Version 5.0.3 -  RELEASE  -
|  1> ! PBEh-3c def2/J TightSCF DefGrid3
|  2>
|  3> %maxcore 60000
|  4>
|  5> %pal
|  6> nprocs 4
|  7> end
|  8>
|  9> *xyzfile 0 2 EA_21n.xyz
| 10>
| 11>                          ****END OF INPUT****

CARTESIAN COORDINATES (ANGSTROEM)
---------------------------------
  N      0.000000    0.000000    0.572984
  O      0.000000    0.000000   -0.572984

 Total Charge           Charge          ....    0
 Multiplicity           Mult            ....    2
 Number of Electrons    NEL             ....   15
 Basis Dimension        Dim             ....   30

ORBITAL ENERGIES
----------------
                 SPIN UP ORBITALS
  NO   OCC          E(Eh)            E(eV)
   0   1.0000     -19.632159      -534.2182
   1   1.0000     -14.777664      -402.1207
   2   1.0000      -1.366698       -37.1898
   3   1.0000      -0.770094       -20.9553
   4   1.0000      -0.615634       -16.7522
   5   1.0000      -0.564575       -15.3629
   6   1.0000      -0.549141       -14.9429
   7   1.0000      -0.272955        -7.4275
   8   0.0000      -0.054994        -1.4965
   9   0.0000       0.373461        10.1624
  10   0.0000       0.707299        19.2466
  11   0.0000       0.728701        19.8290
  12   0.0000       0.733880        19.9699

                 SPIN DOWN ORBITALS
  NO   OCC          E(Eh)            E(eV)
   0   1.0000     -19.620508      -533.9012
   1   1.0000     -14.759492      -401.6262
   2   1.0000      -1.339694       -36.4549
   3   1.0000      -0.722865       -19.6701
   4   1.0000      -0.553774       -15.0690
   5   1.0000      -0.519095       -14.1253
   6   1.0000      -0.515737       -14.0339
   7   0.0000      -0.036230        -0.9859
   8   0.0000       0.008616         0.2345
   9   0.0000       0.390437        10.6243
  10   0.0000       0.741374        20.1738
  11   0.0000       0.750053        20.4100

MULLIKEN ATOMIC CHARGES AND SPIN POPULATIONS
--------------------------------------------
   0 N :    0.114187    0.711419
   1 O :   -0.114187    0.288581
Sum of atomic charges         :   -0.0000000

LOEWDIN ATOMIC CHARGES AND SPIN POPULATIONS
-------------------------------------------
   0 N :    0.002059    0.676302
   1 O :   -0.002059    0.323698

  Mayer bond orders larger than 0.100000
B(  0-N ,  1-O ) :   2.2817

Dispersion correction           -0.000178912
FINAL SINGLE POINT ENERGY      -129.613375262113

DIPOLE MOMENT
-------------
                                X             Y             Z
Electronic contribution:      0.00000      -0.00000       0.01252
Nuclear contribution   :      0.00000       0.00000      -0.00455
                        -----------------------------------------
Total Dipole Moment    :      0.00000      -0.00000       0.00797
                        -----------------------------------------
Magnitude (a.u.)       :      0.00797
Magnitude (Debye)      :      0.02026

Rotational constants in cm-1:     0.000000     1.718789     1.718789
Rotational constants in MHz :     0.000000 51528.009600 51528.009600

                             ****ORCA TERMINATED NORMALLY****
TOTAL RUN TIME: 0 days 0 hours 0 minutes 28 seconds 366 msec
