                         Program Version 5.0.3 -  RELEASE  -
|  1> ! PBEh-3c def2/J TightSCF DefGrid3
|  2>
|  3> %maxcore 60000
|  4>
|  5> %pal
|  6> nprocs 4
|  7> end
|  8>
|  9> *xyzfile 0 1 PCH_NBS.xyz
| 10>
| 11>                          ****END OF INPUT****

CARTESIAN COORDINATES (ANGSTROEM)
---------------------------------
  P      0.000000    0.000000    3.888092
  C      0.000000    0.000000    5.411997
  H      0.000000    0.000000    6.483542
  N      0.000000    0.000000   -1.344490
  O      0.000000    2.284307   -1.732604
  O      0.000000   -2.284307   -1.732604
  C      0.000000   -1.155928   -2.129421
  C      0.000000   -0.661882   -3.546052
  C      0.000000    0.661882   -3.546052
  H      0.000000    1.347964   -4.378647
  H      0.000000   -1.347964   -4.378647
  C      0.000000    1.155928   -2.129421
  Br     0.000000    0.000000    0.477690

 Total Charge           Charge          ....    0
 Multiplicity           Mult            ....    1
 Number of Electrons    NEL             ....  106
 Basis Dimension        Dim             ....  176

ORBITAL ENERGIES
----------------

  NO   OCC          E(Eh)            E(eV)
   0   2.0000    -484.576854    -13186.0065
   1   2.0000     -77.753039     -2115.7678
   2   2.0000     -63.237867     -1720.7898
   3   2.0000     -56.943008     -1549.4980
   4   2.0000     -56.939445     -1549.4011
   5   2.0000     -56.939404     -1549.3999
   6   2.0000     -19.518146      -531.1158
   7   2.0000     -19.518132      -531.1154
   8   2.0000     -14.734743      -400.9528
   9   2.0000     -10.596907      -288.3565
  10   2.0000     -10.596865      -288.3553
  11   2.0000     -10.504854      -285.8516
  12   2.0000     -10.503846      -285.8242
  13   2.0000     -10.492262      -285.5090
  14   2.0000      -9.066407      -246.7095
  15   2.0000      -6.845006      -186.2621
  16   2.0000      -6.831031      -185.8818
  17   2.0000      -6.825909      -185.7424
  18   2.0000      -6.825657      -185.7356
  19   2.0000      -4.920517      -133.8941
  20   2.0000      -4.920502      -133.8937
  21   2.0000      -4.920296      -133.8881
  22   2.0000      -2.858270       -77.7775
  23   2.0000      -2.852275       -77.6143
  24   2.0000      -2.852174       -77.6116
  25   2.0000      -2.835720       -77.1639
  26   2.0000      -2.835717       -77.1638
  27   2.0000      -1.213603       -33.0238
  28   2.0000      -1.194157       -32.4947
  29   2.0000      -1.094891       -29.7935
  30   2.0000      -0.958927       -26.0937
  31   2.0000      -0.860055       -23.4033
  32   2.0000      -0.811180       -22.0733
  33   2.0000      -0.783646       -21.3241
  34   2.0000      -0.703851       -19.1528
  35   2.0000      -0.660170       -17.9641
  36   2.0000      -0.615001       -16.7350
  37   2.0000      -0.588222       -16.0063
  38   2.0000      -0.563095       -15.3226
  39   2.0000      -0.546974       -14.8839
  40   2.0000      -0.532931       -14.5018
  41   2.0000      -0.527143       -14.3443
  42   2.0000      -0.508583       -13.8393
  43   2.0000      -0.477923       -13.0049
  44   2.0000      -0.419104       -11.4044
  45   2.0000      -0.414348       -11.2750
  46   2.0000      -0.378831       -10.3085
  47   2.0000      -0.371885       -10.1195
  48   2.0000      -0.368636       -10.0311
  49   2.0000      -0.345350        -9.3974
  50   2.0000      -0.336843        -9.1660
  51   2.0000      -0.335869        -9.1395
  52   2.0000      -0.320306        -8.7160
  53   0.0000      -0.084603        -2.3022
  54   0.0000      -0.035784        -0.9737
  55   0.0000      -0.028390        -0.7725
  56   0.0000      -0.028379        -0.7722
  57   0.0000       0.082878         2.2552

MULLIKEN ATOMIC CHARGES
-----------------------
   0 P :    0.151967
   1 C :   -0.399312
   2 H :    0.255866
   3 N :   -0.709705
   4 O :   -0.322298
   5 O :   -0.322298
   6 C :    0.577401
   7 C :   -0.289767
   8 C :   -0.289767
   9 H :    0.271475
  10 H :    0.271475
  11 C :    0.577401
  12 Br:    0.227561
Sum of atomic charges:   -0.0000000

LOEWDIN ATOMIC CHARGES
----------------------
   0 P :    0.228298
   1 C :   -0.371077
   2 H :    0.155548
   3 N :   -0.227951
   4 O :   -0.160616
   5 O :   -0.160616
   6 C :    0.121872
   7 C :   -0.124814
   8 C :   -0.124814
   9 H :    0.162647
  10 H :    0.162647
  11 C :    0.121872
  12 Br:    0.217002

  Mayer bond orders larger than 0.100000
B(  0-P ,  1-C ) :   2.9133 B(  1-C ,  2-H ) :   0.8916 B(  3-N ,  6-C ) :   0.9523
B(  3-N , 11-C ) :   0.9523 B(  3-N , 12-Br) :   0.9320 B(  4-O , 11-C ) :   2.1069
B(  5-O ,  6-C ) :   2.1069 B(  6-C ,  7-C ) :   0.9665 B(  7-C ,  8-C ) :   1.7715
B(  7-C , 10-H ) :   0.9095 B(  8-C ,  9-H ) :   0.9095 B(  8-C , 11-C ) :   0.9665

Dispersion correction           -0.007149384
FINAL SINGLE POINT ENERGY     -3310.531486135153

DIPOLE MOMENT
-------------
                                X             Y             Z
Electronic contribution:      0.00000      -0.00000       9.19723
Nuclear contribution   :      0.00000      -0.00000      -9.74464
                        -----------------------------------------
Total Dipole Moment    :      0.00000      -0.00000      -0.54741
                        -----------------------------------------
Magnitude (a.u.)       :      0.54741
Magnitude (Debye)      :      1.39141

Rotational constants in cm-1:     0.079050     0.011617     0.010128
Rotational constants in MHz :  2369.873213   348.263240   303.641755

                             ****ORCA TERMINATED NORMALLY****
TOTAL RUN TIME: 0 days 0 hours 2 minutes 11 seconds 826 msec
