                         Program Version 5.0.3 -  RELEASE  -
|  1> ! PBEh-3c def2/J TightSCF DefGrid3
|  2>
|  3> %maxcore 60000
|  4>
|  5> %pal
|  6> nprocs 4
|  7> end
|  8>
|  9> *xyzfile 0 1 H2O.xyz
| 10>
| 11>                          ****END OF INPUT****

CARTESIAN COORDINATES (ANGSTROEM)
---------------------------------
  O      0.000000    0.000000    0.390485
  H     -0.756707    0.000000   -0.195242
  H      0.756707    0.000000   -0.195242

 Total Charge           Charge          ....    0
 Multiplicity           Mult            ....    1
 Number of Electrons    NEL             ....   10
 Basis Dimension        Dim             ....   19

ORBITAL ENERGIES
----------------

  NO   OCC          E(Eh)            E(eV)
   0   2.0000     -19.473632      -529.9045
   1   2.0000      -1.104081       -30.0436
   2   2.0000      -0.583457       -15.8767
   3   2.0000      -0.434723       -11.8294
   4   2.0000      -0.356785        -9.7086
   5   0.0000       0.132604         3.6083
   6   0.0000       0.210765         5.7352
   7   0.0000       0.875066        23.8117
   8   0.0000       0.983711        26.7682
   9   0.0000       0.991591        26.9826

MULLIKEN ATOMIC CHARGES
-----------------------
   0 O :   -0.817611
   1 H :    0.408806
   2 H :    0.408806
Sum of atomic charges:   -0.0000000

LOEWDIN ATOMIC CHARGES
----------------------
   0 O :   -0.596836
   1 H :    0.298418
   2 H :    0.298418

  Mayer bond orders larger than 0.100000
B(  0-O ,  1-H ) :   0.8154 B(  0-O ,  2-H ) :   0.8154

Dispersion correction           -0.000209573
FINAL SINGLE POINT ENERGY       -76.258046827136

DIPOLE MOMENT
-------------
                                X             Y             Z
Electronic contribution:     -0.00000      -0.00000       0.12690
Nuclear contribution   :      0.00000       0.00000      -0.97507
                        -----------------------------------------
Total Dipole Moment    :     -0.00000      -0.00000      -0.84818
                        -----------------------------------------
Magnitude (a.u.)       :      0.84818
Magnitude (Debye)      :      2.15589

Rotational constants in cm-1:    27.444607    14.603276     9.531542
Rotational constants in MHz : 822768.620282 437795.203690 285748.447525

                             ****ORCA TERMINATED NORMALLY****
TOTAL RUN TIME: 0 days 0 hours 0 minutes 10 seconds 904 msec
