                         Program Version 5.0.3 -  RELEASE  -
|  1> ! PBEh-3c def2/J TightSCF DefGrid3
|  2>
|  3> %maxcore 60000
|  4>
|  5> %pal
|  6> nprocs 4
|  7> end
|  8>
|  9> *xyzfile 0 1 15B.xyz
| 10>
| 11>                          ****END OF INPUT****

CARTESIAN COORDINATES (ANGSTROEM)
---------------------------------
  N     -1.149550   -0.039944    1.597736
  H     -0.799390   -0.991974    1.588838
  H     -0.713148    0.397698    2.402145
  H     -0.700673    0.408099    0.784634

 Total Charge           Charge          ....    0
 Multiplicity           Mult            ....    1
 Number of Electrons    NEL             ....   10
 Basis Dimension        Dim             ....   21

ORBITAL ENERGIES
----------------

  NO   OCC          E(Eh)            E(eV)
   0   2.0000     -14.600515      -397.3002
   1   2.0000      -0.935951       -25.4685
   2   2.0000      -0.508970       -13.8498
   3   2.0000      -0.503510       -13.7012
   4   2.0000      -0.311761        -8.4835
   5   0.0000       0.138548         3.7701
   6   0.0000       0.219483         5.9724
   7   0.0000       0.224215         6.1012
   8   0.0000       0.759810        20.6755
   9   0.0000       0.760345        20.6900

MULLIKEN ATOMIC CHARGES
-----------------------
   0 N :   -0.931591
   1 H :    0.312135
   2 H :    0.312136
   3 H :    0.307319
Sum of atomic charges:    0.0000000

LOEWDIN ATOMIC CHARGES
----------------------
   0 N :   -0.644983
   1 H :    0.214867
   2 H :    0.214867
   3 H :    0.215250

  Mayer bond orders larger than 0.100000
B(  0-N ,  1-H ) :   0.8809 B(  0-N ,  2-H ) :   0.8809 B(  0-N ,  3-H ) :   0.8849

Dispersion correction           -0.000444641
FINAL SINGLE POINT ENERGY       -56.427585401234

DIPOLE MOMENT
-------------
                                X             Y             Z
Electronic contribution:     -0.16190       0.00205       0.01364
Nuclear contribution   :      0.95286      -0.05117      -0.01357
                        -----------------------------------------
Total Dipole Moment    :      0.79096      -0.04912       0.00008
                        -----------------------------------------
Magnitude (a.u.)       :      0.79249
Magnitude (Debye)      :      2.01434

Rotational constants in cm-1:     9.726612     9.662441     6.403893
Rotational constants in MHz : 291596.484683 289672.684577 191983.890848

                             ****ORCA TERMINATED NORMALLY****
TOTAL RUN TIME: 0 days 0 hours 0 minutes 41 seconds 74 msec
