                         Program Version 5.0.3 -  RELEASE  -
|  1> ! PBEh-3c def2/J TightSCF DefGrid3
|  2>
|  3> %maxcore 60000
|  4>
|  5> %pal
|  6> nprocs 4
|  7> end
|  8>
|  9> *xyzfile 0 1 B19.xyz
| 10>
| 11>                          ****END OF INPUT****

CARTESIAN COORDINATES (ANGSTROEM)
---------------------------------
  C      1.846339    0.615057    0.229391
  H      1.873878    0.683608    1.316632
  O      2.559486   -0.577006   -0.092167
  C      0.399993    0.587230   -0.251605
  H     -0.052224    1.555012   -0.016395
  H      0.390624    0.486876   -1.343392
  C     -0.410740   -0.542498    0.379372
  H     -0.471101   -0.386460    1.459035
  H      0.108665   -1.488737    0.215820
  H      2.636741   -0.615698   -1.049424
  H      2.361318    1.492827   -0.172015
  C     -1.822691   -0.653989   -0.179253
  H     -1.784934   -0.857957   -1.255155
  H     -2.345465   -1.483351    0.294091
  O     -2.622786    0.497574    0.084970
  H     -2.288504    1.214538   -0.459056

 Total Charge           Charge          ....    0
 Multiplicity           Mult            ....    1
 Number of Electrons    NEL             ....   50
 Basis Dimension        Dim             ....  110

ORBITAL ENERGIES
----------------

  NO   OCC          E(Eh)            E(eV)
   0   2.0000     -19.488975      -530.3220
   1   2.0000     -19.483105      -530.1622
   2   2.0000     -10.485046      -285.3126
   3   2.0000     -10.478949      -285.1467
   4   2.0000     -10.442014      -284.1416
   5   2.0000     -10.430327      -283.8236
   6   2.0000      -1.125279       -30.6204
   7   2.0000      -1.119232       -30.4558
   8   2.0000      -0.883738       -24.0477
   9   2.0000      -0.800577       -21.7848
  10   2.0000      -0.713931       -19.4271
  11   2.0000      -0.660509       -17.9734
  12   2.0000      -0.572761       -15.5856
  13   2.0000      -0.561325       -15.2744
  14   2.0000      -0.535293       -14.5661
  15   2.0000      -0.512783       -13.9535
  16   2.0000      -0.489747       -13.3267
  17   2.0000      -0.463259       -12.6059
  18   2.0000      -0.443847       -12.0777
  19   2.0000      -0.418669       -11.3926
  20   2.0000      -0.397650       -10.8206
  21   2.0000      -0.377807       -10.2807
  22   2.0000      -0.371441       -10.1074
  23   2.0000      -0.330482        -8.9929
  24   2.0000      -0.321610        -8.7515
  25   0.0000       0.116929         3.1818
  26   0.0000       0.129869         3.5339
  27   0.0000       0.166598         4.5334
  28   0.0000       0.170799         4.6477
  29   0.0000       0.183989         5.0066

MULLIKEN ATOMIC CHARGES
-----------------------
   0 C :   -0.156457
   1 H :    0.212942
   2 O :   -0.620296
   3 C :   -0.473477
   4 H :    0.205075
   5 H :    0.195135
   6 C :   -0.429987
   7 H :    0.222190
   8 H :    0.225068
   9 H :    0.408956
  10 H :    0.192744
  11 C :   -0.161084
  12 H :    0.173617
  13 H :    0.220421
  14 O :   -0.627173
  15 H :    0.412327
Sum of atomic charges:   -0.0000000

LOEWDIN ATOMIC CHARGES
----------------------
   0 C :   -0.092787
   1 H :    0.121544
   2 O :   -0.411610
   3 C :   -0.273172
   4 H :    0.122814
   5 H :    0.114230
   6 C :   -0.265414
   7 H :    0.130040
   8 H :    0.134756
   9 H :    0.305566
  10 H :    0.101067
  11 C :   -0.093915
  12 H :    0.095464
  13 H :    0.122049
  14 O :   -0.414946
  15 H :    0.304314

  Mayer bond orders larger than 0.100000
B(  0-C ,  1-H ) :   0.9144 B(  0-C ,  2-O ) :   1.0170 B(  0-C ,  3-C ) :   0.9729
B(  0-C , 10-H ) :   0.9157 B(  2-O ,  9-H ) :   0.7957 B(  3-C ,  4-H ) :   0.9085
B(  3-C ,  5-H ) :   0.9192 B(  3-C ,  6-C ) :   0.9720 B(  6-C ,  7-H ) :   0.9130
B(  6-C ,  8-H ) :   0.9003 B(  6-C , 11-C ) :   0.9678 B( 11-C , 12-H ) :   0.9145
B( 11-C , 13-H ) :   0.9210 B( 11-C , 14-O ) :   1.0141 B( 14-O , 15-H ) :   0.7922

Dispersion correction           -0.006589471
FINAL SINGLE POINT ENERGY      -308.207525151485

DIPOLE MOMENT
-------------
                                X             Y             Z
Electronic contribution:     -0.10999      -0.23408       0.20666
Nuclear contribution   :      0.44596       0.62456      -1.05235
                        -----------------------------------------
Total Dipole Moment    :      0.33597       0.39047      -0.84570
                        -----------------------------------------
Magnitude (a.u.)       :      0.99023
Magnitude (Debye)      :      2.51695

Rotational constants in cm-1:     0.326201     0.049163     0.045622
Rotational constants in MHz :  9779.256442  1473.873542  1367.710412

                             ****ORCA TERMINATED NORMALLY****
TOTAL RUN TIME: 0 days 0 hours 1 minutes 28 seconds 263 msec
