                         Program Version 5.0.3 -  RELEASE  -
|  1> ! PBEh-3c def2/J TightSCF DefGrid3
|  2>
|  3> %maxcore 60000
|  4>
|  5> %pal
|  6> nprocs 4
|  7> end
|  8>
|  9> *xyzfile 0 1 ALA_xai.xyz
| 10>
| 11>                          ****END OF INPUT****

CARTESIAN COORDINATES (ANGSTROEM)
---------------------------------
  N     -1.034815   -0.928053   -0.208621
  H     -1.014138   -1.639335   -0.923220
  C      0.243355   -0.594849    0.389669
  H      0.028253   -0.001768    1.272764
  C      0.987671   -1.865899    0.766013
  C      1.079132    0.185733   -0.623766
  H      1.937405   -1.624362    1.240592
  H      0.391248   -2.461498    1.453992
  H      1.197585   -2.448570   -0.129866
  O      1.259977   -0.276844   -1.745871
  C     -1.971915    0.058489   -0.345521
  C     -3.142243   -0.283392   -1.232424
  H     -4.043691    0.143726   -0.804072
  H     -3.266768   -1.355297   -1.363760
  H     -2.980967    0.175031   -2.207159
  O     -1.868650    1.140024    0.222174
  N      1.629196    1.352986   -0.213218
  H      2.158063    1.823080   -0.930776
  C      1.296954    2.084566    0.998290
  H      1.738214    3.074087    0.923805
  H      0.219586    2.191805    1.105416
  H      1.708244    1.604312    1.885200

 Total Charge           Charge          ....    0
 Multiplicity           Mult            ....    1
 Number of Electrons    NEL             ....   78
 Basis Dimension        Dim             ....  174

ORBITAL ENERGIES
----------------

  NO   OCC          E(Eh)            E(eV)
   0   2.0000     -19.461442      -529.5728
   1   2.0000     -19.452117      -529.3190
   2   2.0000     -14.660909      -398.9436
   3   2.0000     -14.660469      -398.9316
   4   2.0000     -10.550433      -287.0919
   5   2.0000     -10.541327      -286.8441
   6   2.0000     -10.486395      -285.3493
   7   2.0000     -10.470759      -284.9238
   8   2.0000     -10.441758      -284.1347
   9   2.0000     -10.438427      -284.0440
  10   2.0000      -1.148332       -31.2477
  11   2.0000      -1.135404       -30.8959
  12   2.0000      -1.026477       -27.9319
  13   2.0000      -1.019508       -27.7422
  14   2.0000      -0.873398       -23.7664
  15   2.0000      -0.818533       -22.2734
  16   2.0000      -0.791337       -21.5334
  17   2.0000      -0.736011       -20.0279
  18   2.0000      -0.667268       -18.1573
  19   2.0000      -0.642270       -17.4771
  20   2.0000      -0.581445       -15.8219
  21   2.0000      -0.554180       -15.0800
  22   2.0000      -0.549108       -14.9420
  23   2.0000      -0.537113       -14.6156
  24   2.0000      -0.516239       -14.0476
  25   2.0000      -0.505613       -13.7584
  26   2.0000      -0.476974       -12.9791
  27   2.0000      -0.474726       -12.9180
  28   2.0000      -0.464702       -12.6452
  29   2.0000      -0.459258       -12.4971
  30   2.0000      -0.456660       -12.4264
  31   2.0000      -0.436673       -11.8825
  32   2.0000      -0.421592       -11.4721
  33   2.0000      -0.411692       -11.2027
  34   2.0000      -0.408705       -11.1214
  35   2.0000      -0.325885        -8.8678
  36   2.0000      -0.312605        -8.5064
  37   2.0000      -0.299408        -8.1473
  38   2.0000      -0.292232        -7.9520
  39   0.0000       0.050647         1.3782
  40   0.0000       0.063281         1.7220
  41   0.0000       0.129095         3.5129
  42   0.0000       0.131725         3.5844
  43   0.0000       0.158261         4.3065

MULLIKEN ATOMIC CHARGES
-----------------------
   0 N :   -0.604865
   1 H :    0.363817
   2 C :   -0.211413
   3 H :    0.265507
   4 C :   -0.647226
   5 C :    0.537257
   6 H :    0.230267
   7 H :    0.236244
   8 H :    0.236428
   9 O :   -0.442112
  10 C :    0.534545
  11 C :   -0.758863
  12 H :    0.262795
  13 H :    0.222715
  14 H :    0.258782
  15 O :   -0.436170
  16 N :   -0.615835
  17 H :    0.364618
  18 C :   -0.525374
  19 H :    0.233761
  20 H :    0.276550
  21 H :    0.218572
Sum of atomic charges:   -0.0000000

LOEWDIN ATOMIC CHARGES
----------------------
   0 N :   -0.227223
   1 H :    0.260560
   2 C :   -0.103324
   3 H :    0.145363
   4 C :   -0.349944
   5 C :    0.105600
   6 H :    0.136820
   7 H :    0.135812
   8 H :    0.139644
   9 O :   -0.292620
  10 C :    0.116190
  11 C :   -0.389847
  12 H :    0.157418
  13 H :    0.133648
  14 H :    0.158495
  15 O :   -0.281273
  16 N :   -0.237220
  17 H :    0.260219
  18 C :   -0.266389
  19 H :    0.133337
  20 H :    0.145803
  21 H :    0.118933

  Mayer bond orders larger than 0.100000
B(  0-N ,  1-H ) :   0.8165 B(  0-N ,  2-C ) :   0.9536 B(  0-N , 10-C ) :   1.1414
B(  2-C ,  3-H ) :   0.8760 B(  2-C ,  4-C ) :   0.9942 B(  2-C ,  5-C ) :   0.8801
B(  4-C ,  6-H ) :   0.9231 B(  4-C ,  7-H ) :   0.9209 B(  4-C ,  8-H ) :   0.9113
B(  5-C ,  9-O ) :   1.9869 B(  5-C , 16-N ) :   1.1648 B( 10-C , 11-C ) :   0.9302
B( 10-C , 15-O ) :   1.9661 B( 11-C , 12-H ) :   0.9126 B( 11-C , 13-H ) :   0.9193
B( 11-C , 14-H ) :   0.9051 B( 16-N , 17-H ) :   0.8234 B( 16-N , 18-C ) :   0.9415
B( 18-C , 19-H ) :   0.9256 B( 18-C , 20-H ) :   0.8785 B( 18-C , 21-H ) :   0.9149

Dispersion correction           -0.011948745
FINAL SINGLE POINT ENERGY      -494.788871401428

DIPOLE MOMENT
-------------
                                X             Y             Z
Electronic contribution:      0.24852       1.37432      -3.23027
Nuclear contribution   :     -0.13207      -1.58839       3.70204
                        -----------------------------------------
Total Dipole Moment    :      0.11645      -0.21407       0.47177
                        -----------------------------------------
Magnitude (a.u.)       :      0.53099
Magnitude (Debye)      :      1.34966

Rotational constants in cm-1:     0.057565     0.033069     0.027897
Rotational constants in MHz :  1725.751895   991.373283   836.337455

                             ****ORCA TERMINATED NORMALLY****
TOTAL RUN TIME: 0 days 0 hours 2 minutes 36 seconds 159 msec
