                         Program Version 5.0.3 -  RELEASE  -
|  1> ! PBEh-3c def2/J TightSCF DefGrid3
|  2>
|  3> %maxcore 60000
|  4>
|  5> %pal
|  6> nprocs 4
|  7> end
|  8>
|  9> *xyzfile 0 1 P22.xyz
| 10>
| 11>                          ****END OF INPUT****

CARTESIAN COORDINATES (ANGSTROEM)
---------------------------------
  C     -0.170429    0.321853    0.437275
  C      0.863394    1.319983   -0.143202
  C      1.199735   -0.078205    0.080146
  C     -1.308349   -0.116673   -0.390029
  C      2.064879   -1.062262   -0.025141
  C     -2.524944   -0.382864    0.071285
  H     -0.386042    0.442540    1.493439
  H      0.706529    1.663669   -1.158848
  H      1.249079    2.073121    0.532588
  H     -1.099751   -0.230116   -1.449571
  H      3.062127   -0.897257   -0.413458
  H      1.807548   -2.069218    0.277675
  H     -2.765854   -0.287949    1.122842
  H     -3.319350   -0.705783   -0.586668

 Total Charge           Charge          ....    0
 Multiplicity           Mult            ....    1
 Number of Electrons    NEL             ....   44
 Basis Dimension        Dim             ....  106

ORBITAL ENERGIES
----------------

  NO   OCC          E(Eh)            E(eV)
   0   2.0000     -10.461574      -284.6739
   1   2.0000     -10.458806      -284.5986
   2   2.0000     -10.451378      -284.3965
   3   2.0000     -10.449421      -284.3432
   4   2.0000     -10.440111      -284.0899
   5   2.0000     -10.430571      -283.8303
   6   2.0000      -0.974500       -26.5175
   7   2.0000      -0.858402       -23.3583
   8   2.0000      -0.805705       -21.9244
   9   2.0000      -0.702367       -19.1124
  10   2.0000      -0.638757       -17.3815
  11   2.0000      -0.604672       -16.4540
  12   2.0000      -0.540567       -14.7096
  13   2.0000      -0.531355       -14.4589
  14   2.0000      -0.503016       -13.6878
  15   2.0000      -0.481989       -13.1156
  16   2.0000      -0.454070       -12.3559
  17   2.0000      -0.402307       -10.9473
  18   2.0000      -0.390270       -10.6198
  19   2.0000      -0.348838        -9.4924
  20   2.0000      -0.308978        -8.4077
  21   2.0000      -0.283579        -7.7166
  22   0.0000       0.029601         0.8055
  23   0.0000       0.050223         1.3666
  24   0.0000       0.162570         4.4238
  25   0.0000       0.173663         4.7256
  26   0.0000       0.174995         4.7619

MULLIKEN ATOMIC CHARGES
-----------------------
   0 C :   -0.329769
   1 C :   -0.483399
   2 C :    0.195441
   3 C :   -0.088353
   4 C :   -0.608786
   5 C :   -0.506383
   6 H :    0.243949
   7 H :    0.244310
   8 H :    0.249847
   9 H :    0.215553
  10 H :    0.219012
  11 H :    0.222591
  12 H :    0.209751
  13 H :    0.216236
Sum of atomic charges:    0.0000000

LOEWDIN ATOMIC CHARGES
----------------------
   0 C :   -0.146407
   1 C :   -0.241394
   2 C :   -0.050690
   3 C :   -0.122519
   4 C :   -0.266421
   5 C :   -0.282271
   6 H :    0.145521
   7 H :    0.144799
   8 H :    0.147440
   9 H :    0.132915
  10 H :    0.137872
  11 H :    0.139584
  12 H :    0.128481
  13 H :    0.133089

  Mayer bond orders larger than 0.100000
B(  0-C ,  1-C ) :   0.8856 B(  0-C ,  2-C ) :   0.9158 B(  0-C ,  3-C ) :   1.0161
B(  0-C ,  6-H ) :   0.9050 B(  1-C ,  2-C ) :   0.9463 B(  1-C ,  7-H ) :   0.9070
B(  1-C ,  8-H ) :   0.9053 B(  2-C ,  4-C ) :   1.9329 B(  3-C ,  5-C ) :   1.9072
B(  3-C ,  9-H ) :   0.9182 B(  4-C , 10-H ) :   0.9232 B(  4-C , 11-H ) :   0.9220
B(  5-C , 12-H ) :   0.9318 B(  5-C , 13-H ) :   0.9290

Dispersion correction           -0.005999931
FINAL SINGLE POINT ENERGY      -232.834812946455

DIPOLE MOMENT
-------------
                                X             Y             Z
Electronic contribution:      0.85465       0.13546       0.17973
Nuclear contribution   :     -0.76903      -0.01134      -0.18769
                        -----------------------------------------
Total Dipole Moment    :      0.08562       0.12412      -0.00796
                        -----------------------------------------
Magnitude (a.u.)       :      0.15100
Magnitude (Debye)      :      0.38382

Rotational constants in cm-1:     0.266775     0.075823     0.064650
Rotational constants in MHz :  7997.713631  2273.126150  1938.165080

                             ****ORCA TERMINATED NORMALLY****
TOTAL RUN TIME: 0 days 0 hours 0 minutes 56 seconds 781 msec
