                         Program Version 5.0.3 -  RELEASE  -
|  1> ! PBEh-3c def2/J TightSCF DefGrid3
|  2>
|  3> %maxcore 60000
|  4>
|  5> %pal
|  6> nprocs 4
|  7> end
|  8>
|  9> *xyzfile 0 1 ch2f2.xyz
| 10>
| 11>                          ****END OF INPUT****

CARTESIAN COORDINATES (ANGSTROEM)
---------------------------------
  C      0.000000    0.545229    0.000000
  H      0.000000    1.174502   -0.889927
  H      0.000000    1.174502    0.889927
  F     -1.102928   -0.234659    0.000000
  F      1.102928   -0.234659    0.000000

 Total Charge           Charge          ....    0
 Multiplicity           Mult            ....    1
 Number of Electrons    NEL             ....   26
 Basis Dimension        Dim             ....   49

ORBITAL ENERGIES
----------------

  NO   OCC          E(Eh)            E(eV)
   0   2.0000     -25.103971      -683.1138
   1   2.0000     -25.103883      -683.1114
   2   2.0000     -10.600572      -288.4562
   3   2.0000      -1.378082       -37.4995
   4   2.0000      -1.319202       -35.8973
   5   2.0000      -0.790691       -21.5158
   6   2.0000      -0.620377       -16.8813
   7   2.0000      -0.620209       -16.8767
   8   2.0000      -0.611787       -16.6476
   9   2.0000      -0.496871       -13.5206
  10   2.0000      -0.479164       -13.0387
  11   2.0000      -0.472747       -12.8641
  12   2.0000      -0.401627       -10.9288
  13   0.0000       0.163997         4.4626
  14   0.0000       0.170288         4.6338
  15   0.0000       0.217618         5.9217
  16   0.0000       0.222096         6.0435
  17   0.0000       0.475174        12.9302

MULLIKEN ATOMIC CHARGES
-----------------------
   0 C :    0.336484
   1 H :    0.160650
   2 H :    0.160650
   3 F :   -0.328892
   4 F :   -0.328892
Sum of atomic charges:    0.0000000

LOEWDIN ATOMIC CHARGES
----------------------
   0 C :    0.198589
   1 H :    0.094540
   2 H :    0.094540
   3 F :   -0.193834
   4 F :   -0.193834

  Mayer bond orders larger than 0.100000
B(  0-C ,  1-H ) :   0.9057 B(  0-C ,  2-H ) :   0.9057 B(  0-C ,  3-F ) :   0.9982
B(  0-C ,  4-F ) :   0.9982

Dispersion correction           -0.000799113
FINAL SINGLE POINT ENERGY      -238.511573807005

DIPOLE MOMENT
-------------
                                X             Y             Z
Electronic contribution:     -0.00000      -1.91928      -0.00000
Nuclear contribution   :      0.00000       2.63862       0.00000
                        -----------------------------------------
Total Dipole Moment    :     -0.00000       0.71934      -0.00000
                        -----------------------------------------
Magnitude (a.u.)       :      0.71934
Magnitude (Debye)      :      1.82842

Rotational constants in cm-1:     1.678981     0.352546     0.308386
Rotational constants in MHz : 50334.586872 10569.068150  9245.193681

                             ****ORCA TERMINATED NORMALLY****
TOTAL RUN TIME: 0 days 0 hours 0 minutes 27 seconds 436 msec
