                         Program Version 5.0.3 -  RELEASE  -
|  1> ! PBEh-3c def2/J TightSCF DefGrid3
|  2>
|  3> %maxcore 60000
|  4>
|  5> %pal
|  6> nprocs 4
|  7> end
|  8>
|  9> *xyzfile 0 1 65.xyz
| 10>
| 11>                          ****END OF INPUT****

CARTESIAN COORDINATES (ANGSTROEM)
---------------------------------
  N      0.077054   -0.126268    0.000000
  C     -0.045996    0.562282   -1.142474
  H      0.055794   -0.011588   -2.055276
  C     -0.290070    1.931651   -1.193879
  H     -0.379634    2.429877   -2.148471
  C     -0.414597    2.633243    0.000000
  H     -0.603600    3.697660    0.000000
  C     -0.290070    1.931651    1.193879
  H     -0.379634    2.429877    2.148471
  C     -0.045996    0.562282    1.142474
  H      0.055794   -0.011588    2.055276
  C      0.631920   -4.612791    0.000000
  H      0.747336   -5.667803    0.000000
  C      0.499844   -3.406546    0.000000
  H      0.381693   -2.342042    0.000000

 Total Charge           Charge          ....    0
 Multiplicity           Mult            ....    1
 Number of Electrons    NEL             ....   56
 Basis Dimension        Dim             ....  134

ORBITAL ENERGIES
----------------

  NO   OCC          E(Eh)            E(eV)
   0   2.0000     -14.656079      -398.8122
   1   2.0000     -10.493949      -285.5549
   2   2.0000     -10.493927      -285.5543
   3   2.0000     -10.479949      -285.1739
   4   2.0000     -10.468116      -284.8519
   5   2.0000     -10.468106      -284.8516
   6   2.0000     -10.434749      -283.9439
   7   2.0000     -10.431480      -283.8550
   8   2.0000      -1.059381       -28.8272
   9   2.0000      -0.912192       -24.8220
  10   2.0000      -0.865119       -23.5411
  11   2.0000      -0.816934       -22.2299
  12   2.0000      -0.720568       -19.6076
  13   2.0000      -0.719648       -19.5826
  14   2.0000      -0.617165       -16.7939
  15   2.0000      -0.608555       -16.5596
  16   2.0000      -0.558151       -15.1881
  17   2.0000      -0.546276       -14.8649
  18   2.0000      -0.534719       -14.5505
  19   2.0000      -0.501732       -13.6528
  20   2.0000      -0.477187       -12.9849
  21   2.0000      -0.467519       -12.7218
  22   2.0000      -0.431582       -11.7439
  23   2.0000      -0.344560        -9.3760
  24   2.0000      -0.330491        -8.9931
  25   2.0000      -0.315737        -8.5916
  26   2.0000      -0.315493        -8.5850
  27   2.0000      -0.315425        -8.5832
  28   0.0000      -0.015398        -0.4190
  29   0.0000      -0.000252        -0.0069
  30   0.0000       0.087728         2.3872
  31   0.0000       0.090013         2.4494
  32   0.0000       0.134863         3.6698

MULLIKEN ATOMIC CHARGES
-----------------------
   0 N :   -0.412795
   1 C :   -0.003648
   2 H :    0.242070
   3 C :   -0.311765
   4 H :    0.238112
   5 C :   -0.123374
   6 H :    0.239952
   7 C :   -0.311765
   8 H :    0.238113
   9 C :   -0.003648
  10 H :    0.242070
  11 C :   -0.323376
  12 H :    0.226761
  13 C :   -0.234574
  14 H :    0.297865
Sum of atomic charges:   -0.0000000

LOEWDIN ATOMIC CHARGES
----------------------
   0 N :   -0.145168
   1 C :   -0.050745
   2 H :    0.134372
   3 C :   -0.160982
   4 H :    0.144854
   5 C :   -0.097971
   6 H :    0.143391
   7 C :   -0.160982
   8 H :    0.144854
   9 C :   -0.050745
  10 H :    0.134372
  11 C :   -0.194768
  12 H :    0.156842
  13 C :   -0.169143
  14 H :    0.171820

  Mayer bond orders larger than 0.100000
B(  0-N ,  1-C ) :   1.4689 B(  0-N ,  9-C ) :   1.4689 B(  1-C ,  2-H ) :   0.9125
B(  1-C ,  3-C ) :   1.3860 B(  3-C ,  4-H ) :   0.9116 B(  3-C ,  5-C ) :   1.4069
B(  5-C ,  6-H ) :   0.9169 B(  5-C ,  7-C ) :   1.4069 B(  7-C ,  8-H ) :   0.9116
B(  7-C ,  9-C ) :   1.3860 B(  9-C , 10-H ) :   0.9125 B( 11-C , 12-H ) :   0.9355
B( 11-C , 13-C ) :   2.8286 B( 13-C , 14-H ) :   0.8531

Dispersion correction           -0.006972501
FINAL SINGLE POINT ENERGY      -324.879317223156

DIPOLE MOMENT
-------------
                                X             Y             Z
Electronic contribution:     -0.00409       0.40835       0.00000
Nuclear contribution   :     -0.20785       0.86781      -0.00000
                        -----------------------------------------
Total Dipole Moment    :     -0.21195       1.27616       0.00000
                        -----------------------------------------
Magnitude (a.u.)       :      1.29364
Magnitude (Debye)      :      3.28818

Rotational constants in cm-1:     0.201793     0.025843     0.022917
Rotational constants in MHz :  6049.611647   774.759222   687.032203

                             ****ORCA TERMINATED NORMALLY****
TOTAL RUN TIME: 0 days 0 hours 1 minutes 48 seconds 249 msec
