                         Program Version 5.0.3 -  RELEASE  -
|  1> ! PBEh-3c def2/J TightSCF DefGrid3
|  2>
|  3> %maxcore 60000
|  4>
|  5> %pal
|  6> nprocs 4
|  7> end
|  8>
|  9> *xyzfile 1 2 IP_71.xyz
| 10>
| 11>                          ****END OF INPUT****

CARTESIAN COORDINATES (ANGSTROEM)
---------------------------------
  C      0.000000    0.000000    0.621725
  C      0.000000    0.000000   -0.621725
  H      0.000000    0.000000   -1.700849
  H      0.000000    0.000000    1.700849

 Total Charge           Charge          ....    1
 Multiplicity           Mult            ....    2
 Number of Electrons    NEL             ....   13
 Basis Dimension        Dim             ....   34

ORBITAL ENERGIES
----------------
                 SPIN UP ORBITALS
  NO   OCC          E(Eh)            E(eV)
   0   1.0000     -10.855100      -295.3823
   1   1.0000     -10.853191      -295.3303
   2   1.0000      -1.230451       -33.4823
   3   1.0000      -0.967007       -26.3136
   4   1.0000      -0.892327       -24.2814
   5   1.0000      -0.728426       -19.8215
   6   1.0000      -0.688753       -18.7419
   7   0.0000      -0.296913        -8.0794
   8   0.0000      -0.266613        -7.2549
   9   0.0000      -0.136123        -3.7041
  10   0.0000      -0.065762        -1.7895
  11   0.0000       0.191067         5.1992

                 SPIN DOWN ORBITALS
  NO   OCC          E(Eh)            E(eV)
   0   1.0000     -10.846209      -295.1404
   1   1.0000     -10.844540      -295.0949
   2   1.0000      -1.176727       -32.0204
   3   1.0000      -0.950503       -25.8645
   4   1.0000      -0.884729       -24.0747
   5   1.0000      -0.673496       -18.3268
   6   0.0000      -0.482718       -13.1354
   7   0.0000      -0.255414        -6.9502
   8   0.0000      -0.215437        -5.8623
   9   0.0000      -0.120112        -3.2684
  10   0.0000      -0.058989        -1.6052

MULLIKEN ATOMIC CHARGES AND SPIN POPULATIONS
--------------------------------------------
   0 C :    0.124712    0.523970
   1 C :    0.124712    0.523970
   2 H :    0.375288   -0.023970
   3 H :    0.375288   -0.023970
Sum of atomic charges         :    1.0000000

LOEWDIN ATOMIC CHARGES AND SPIN POPULATIONS
-------------------------------------------
   0 C :    0.245127    0.517131
   1 C :    0.245127    0.517131
   2 H :    0.254873   -0.017131
   3 H :    0.254873   -0.017131

  Mayer bond orders larger than 0.100000
B(  0-C ,  1-C ) :   2.2008 B(  0-C ,  3-H ) :   0.8625 B(  1-C ,  2-H ) :   0.8625

Dispersion correction           -0.000694505
FINAL SINGLE POINT ENERGY       -76.729253650448

DIPOLE MOMENT
-------------
                                X             Y             Z
Electronic contribution:      0.00000      -0.00000       0.00000
Nuclear contribution   :      0.00000       0.00000       0.00000
                        -----------------------------------------
Total Dipole Moment    :      0.00000      -0.00000       0.00000
                        -----------------------------------------
Magnitude (a.u.)       :      0.00000
Magnitude (Debye)      :      0.00000

Rotational constants in cm-1:     0.000000     1.115104     1.115104
Rotational constants in MHz :     0.000000 33429.969104 33429.969104

                             ****ORCA TERMINATED NORMALLY****
TOTAL RUN TIME: 0 days 0 hours 0 minutes 11 seconds 42 msec
