                         Program Version 5.0.3 -  RELEASE  -
|  1> ! PBEh-3c def2/J TightSCF DefGrid3
|  2>
|  3> %maxcore 60000
|  4>
|  5> %pal
|  6> nprocs 4
|  7> end
|  8>
|  9> *xyzfile 0 1 PCl3_TS.xyz
| 10>
| 11>                          ****END OF INPUT****

CARTESIAN COORDINATES (ANGSTROEM)
---------------------------------
  P      0.167557   -0.051175    0.337434
  Cl    -0.867789    0.921060   -1.078440
  Cl     1.739170    0.836851    1.212768
  Cl    -0.358938   -1.907736    0.881239

 Total Charge           Charge          ....    0
 Multiplicity           Mult            ....    1
 Number of Electrons    NEL             ....   66
 Basis Dimension        Dim             ....   72

ORBITAL ENERGIES
----------------

  NO   OCC          E(Eh)            E(eV)
   0   2.0000    -102.352685     -2785.1581
   1   2.0000    -102.352660     -2785.1575
   2   2.0000    -102.352215     -2785.1454
   3   2.0000     -77.837261     -2118.0596
   4   2.0000      -9.819039      -267.1896
   5   2.0000      -9.819036      -267.1896
   6   2.0000      -9.818581      -267.1772
   7   2.0000      -7.507664      -204.2939
   8   2.0000      -7.507653      -204.2936
   9   2.0000      -7.507193      -204.2811
  10   2.0000      -7.498596      -204.0472
  11   2.0000      -7.498594      -204.0471
  12   2.0000      -7.498135      -204.0346
  13   2.0000      -7.496726      -203.9963
  14   2.0000      -7.496718      -203.9961
  15   2.0000      -7.496280      -203.9841
  16   2.0000      -6.908121      -187.9795
  17   2.0000      -5.001235      -136.0905
  18   2.0000      -5.001232      -136.0904
  19   2.0000      -4.996916      -135.9730
  20   2.0000      -1.002496       -27.2793
  21   2.0000      -0.953984       -25.9592
  22   2.0000      -0.953489       -25.9458
  23   2.0000      -0.670195       -18.2369
  24   2.0000      -0.525911       -14.3108
  25   2.0000      -0.525476       -14.2989
  26   2.0000      -0.464908       -12.6508
  27   2.0000      -0.430607       -11.7174
  28   2.0000      -0.430546       -11.7157
  29   2.0000      -0.417655       -11.3650
  30   2.0000      -0.417288       -11.3550
  31   2.0000      -0.402526       -10.9533
  32   2.0000      -0.223380        -6.0785
  33   0.0000      -0.119506        -3.2519
  34   0.0000       0.042452         1.1552
  35   0.0000       0.043837         1.1929
  36   0.0000       0.220703         6.0056
  37   0.0000       0.381559        10.3827

MULLIKEN ATOMIC CHARGES
-----------------------
   0 P :    0.260113
   1 Cl:   -0.086421
   2 Cl:   -0.087351
   3 Cl:   -0.086341
Sum of atomic charges:   -0.0000000

LOEWDIN ATOMIC CHARGES
----------------------
   0 P :   -0.032937
   1 Cl:    0.011293
   2 Cl:    0.010191
   3 Cl:    0.011453

  Mayer bond orders larger than 0.100000
B(  0-P ,  1-Cl) :   1.0467 B(  0-P ,  2-Cl) :   1.0459 B(  0-P ,  3-Cl) :   1.0470

Dispersion correction           -0.002416677
FINAL SINGLE POINT ENERGY     -1719.991402021118

DIPOLE MOMENT
-------------
                                X             Y             Z
Electronic contribution:     -0.00189      -0.00285      -0.00321
Nuclear contribution   :     -0.00070      -0.00027      -0.00024
                        -----------------------------------------
Total Dipole Moment    :     -0.00260      -0.00312      -0.00345
                        -----------------------------------------
Magnitude (a.u.)       :      0.00532
Magnitude (Debye)      :      0.01353

Rotational constants in cm-1:     0.079044     0.078583     0.039406
Rotational constants in MHz :  2369.690672  2355.856514  1181.376744

                             ****ORCA TERMINATED NORMALLY****
TOTAL RUN TIME: 0 days 0 hours 0 minutes 36 seconds 427 msec
