                         Program Version 5.0.3 -  RELEASE  -
|  1> ! PBEh-3c def2/J TightSCF DefGrid3
|  2>
|  3> %maxcore 60000
|  4>
|  5> %pal
|  6> nprocs 4
|  7> end
|  8>
|  9> *xyzfile 0 1 52B.xyz
| 10>
| 11>                          ****END OF INPUT****

CARTESIAN COORDINATES (ANGSTROEM)
---------------------------------
  C     -0.146475    0.311392   -0.474793
  O     -0.614664    1.360838   -0.854054
  O      0.256738   -0.666172   -1.314078
  H      0.088033   -0.340258   -2.215484
  C      0.063479   -0.085595    0.956612
  H     -0.246487    0.723741    1.606601
  H     -0.512601   -0.982219    1.173564
  H      1.111977   -0.321727    1.121631

 Total Charge           Charge          ....    0
 Multiplicity           Mult            ....    1
 Number of Electrons    NEL             ....   32
 Basis Dimension        Dim             ....   68

ORBITAL ENERGIES
----------------

  NO   OCC          E(Eh)            E(eV)
   0   2.0000     -19.544739      -531.8394
   1   2.0000     -19.485885      -530.2379
   2   2.0000     -10.585612      -288.0491
   3   2.0000     -10.448795      -284.3262
   4   2.0000      -1.221399       -33.2360
   5   2.0000      -1.124593       -30.6017
   6   2.0000      -0.849730       -23.1223
   7   2.0000      -0.686298       -18.6751
   8   2.0000      -0.560996       -15.2655
   9   2.0000      -0.549040       -14.9401
  10   2.0000      -0.534880       -14.5548
  11   2.0000      -0.470904       -12.8140
  12   2.0000      -0.457316       -12.4442
  13   2.0000      -0.452261       -12.3066
  14   2.0000      -0.377696       -10.2776
  15   2.0000      -0.336678        -9.1615
  16   0.0000       0.045124         1.2279
  17   0.0000       0.126413         3.4399
  18   0.0000       0.166984         4.5439
  19   0.0000       0.206595         5.6217
  20   0.0000       0.220317         5.9951

MULLIKEN ATOMIC CHARGES
-----------------------
   0 C :    0.506152
   1 O :   -0.391662
   2 O :   -0.582825
   3 H :    0.442369
   4 C :   -0.740155
   5 H :    0.258492
   6 H :    0.254054
   7 H :    0.253576
Sum of atomic charges:   -0.0000000

LOEWDIN ATOMIC CHARGES
----------------------
   0 C :    0.129603
   1 O :   -0.232929
   2 O :   -0.304537
   3 H :    0.333313
   4 C :   -0.391277
   5 H :    0.152646
   6 H :    0.156904
   7 H :    0.156277

  Mayer bond orders larger than 0.100000
B(  0-C ,  1-O ) :   2.0705 B(  0-C ,  2-O ) :   1.1416 B(  0-C ,  4-C ) :   0.9373
B(  2-O ,  3-H ) :   0.7607 B(  4-C ,  5-H ) :   0.9175 B(  4-C ,  6-H ) :   0.9050
B(  4-C ,  7-H ) :   0.9053

Dispersion correction           -0.002314903
FINAL SINGLE POINT ENERGY      -228.602089343108

DIPOLE MOMENT
-------------
                                X             Y             Z
Electronic contribution:     -0.54249       1.06336      -3.14934
Nuclear contribution   :      0.80383      -1.66566       3.26321
                        -----------------------------------------
Total Dipole Moment    :      0.26135      -0.60230       0.11386
                        -----------------------------------------
Magnitude (a.u.)       :      0.66636
Magnitude (Debye)      :      1.69375

Rotational constants in cm-1:     0.375910     0.318980     0.178217
Rotational constants in MHz : 11269.507594  9562.779404  5342.804832

                             ****ORCA TERMINATED NORMALLY****
TOTAL RUN TIME: 0 days 0 hours 1 minutes 8 seconds 410 msec
