                         Program Version 5.0.3 -  RELEASE  -
|  1> ! PBEh-3c def2/J TightSCF DefGrid3
|  2>
|  3> %maxcore 60000
|  4>
|  5> %pal
|  6> nprocs 4
|  7> end
|  8>
|  9> *xyzfile 0 1 ASN_xae.xyz
| 10>
| 11>                          ****END OF INPUT****

CARTESIAN COORDINATES (ANGSTROEM)
---------------------------------
  N     -1.157835   -0.957085   -0.546040
  C      0.104945   -0.476385   -0.001114
  C      0.240913    1.027278   -0.285564
  O      0.988717    1.470777   -1.160709
  C      1.253814   -1.269076   -0.606340
  C      2.539478   -1.065119    0.180066
  O      2.854445   -1.816015    1.092175
  N      3.287494   -0.005311   -0.223312
  H     -1.156348   -1.372014   -1.462476
  H      0.061606   -0.634986    1.077380
  H      1.380980   -0.974984   -1.647927
  H      1.016491   -2.328365   -0.541905
  H      4.064321    0.249459    0.362240
  H      2.839837    0.701901   -0.787723
  N     -0.543910    1.792749    0.490795
  H     -1.220378    1.306923    1.070219
  C     -0.633511    3.223559    0.290885
  H     -1.357506    3.479554   -0.482671
  H     -0.925789    3.697627    1.223058
  H      0.339557    3.593828   -0.016630
  C     -2.329836   -0.828843    0.123688
  O     -2.403919   -0.255837    1.210917
  C     -3.537335   -1.438353   -0.538912
  H     -4.273514   -0.656154   -0.707858
  H     -3.308913   -1.929496   -1.481191
  H     -3.974396   -2.160496    0.146359

 Total Charge           Charge          ....    0
 Multiplicity           Mult            ....    1
 Number of Electrons    NEL             ....  100
 Basis Dimension        Dim             ....  221

ORBITAL ENERGIES
----------------

  NO   OCC          E(Eh)            E(eV)
   0   2.0000     -19.480869      -530.1014
   1   2.0000     -19.473303      -529.8955
   2   2.0000     -19.449521      -529.2484
   3   2.0000     -14.689513      -399.7220
   4   2.0000     -14.664943      -399.0534
   5   2.0000     -14.639413      -398.3587
   6   2.0000     -10.572987      -287.7056
   7   2.0000     -10.556166      -287.2479
   8   2.0000     -10.543622      -286.9065
   9   2.0000     -10.507859      -285.9334
  10   2.0000     -10.470550      -284.9182
  11   2.0000     -10.459711      -284.6232
  12   2.0000     -10.454584      -284.4837
  13   2.0000      -1.168192       -31.7881
  14   2.0000      -1.152923       -31.3726
  15   2.0000      -1.132875       -30.8271
  16   2.0000      -1.051199       -28.6046
  17   2.0000      -1.028117       -27.9765
  18   2.0000      -0.992893       -27.0180
  19   2.0000      -0.896452       -24.3937
  20   2.0000      -0.839997       -22.8575
  21   2.0000      -0.811844       -22.0914
  22   2.0000      -0.746847       -20.3227
  23   2.0000      -0.690864       -18.7994
  24   2.0000      -0.659905       -17.9569
  25   2.0000      -0.642677       -17.4881
  26   2.0000      -0.617388       -16.8000
  27   2.0000      -0.593087       -16.1387
  28   2.0000      -0.580781       -15.8038
  29   2.0000      -0.569890       -15.5075
  30   2.0000      -0.541704       -14.7405
  31   2.0000      -0.530039       -14.4231
  32   2.0000      -0.520505       -14.1637
  33   2.0000      -0.514157       -13.9909
  34   2.0000      -0.494193       -13.4477
  35   2.0000      -0.487570       -13.2675
  36   2.0000      -0.479401       -13.0452
  37   2.0000      -0.470009       -12.7896
  38   2.0000      -0.458238       -12.4693
  39   2.0000      -0.453816       -12.3490
  40   2.0000      -0.442739       -12.0475
  41   2.0000      -0.432022       -11.7559
  42   2.0000      -0.427073       -11.6212
  43   2.0000      -0.417770       -11.3681
  44   2.0000      -0.351564        -9.5665
  45   2.0000      -0.334689        -9.1073
  46   2.0000      -0.317502        -8.6397
  47   2.0000      -0.311157        -8.4670
  48   2.0000      -0.306518        -8.3408
  49   2.0000      -0.298188        -8.1141
  50   0.0000       0.028878         0.7858
  51   0.0000       0.044797         1.2190
  52   0.0000       0.067365         1.8331
  53   0.0000       0.109129         2.9695
  54   0.0000       0.144396         3.9292

MULLIKEN ATOMIC CHARGES
-----------------------
   0 N :   -0.625595
   1 C :   -0.208211
   2 C :    0.575851
   3 O :   -0.471625
   4 C :   -0.576881
   5 C :    0.484633
   6 O :   -0.413252
   7 N :   -0.801048
   8 H :    0.368969
   9 H :    0.296670
  10 H :    0.257392
  11 H :    0.269620
  12 H :    0.363507
  13 H :    0.404337
  14 N :   -0.638662
  15 H :    0.412071
  16 C :   -0.492141
  17 H :    0.224651
  18 H :    0.227402
  19 H :    0.250287
  20 C :    0.546232
  21 O :   -0.460499
  22 C :   -0.743840
  23 H :    0.262493
  24 H :    0.218191
  25 H :    0.269449
Sum of atomic charges:   -0.0000000

LOEWDIN ATOMIC CHARGES
----------------------
   0 N :   -0.213570
   1 C :   -0.086535
   2 C :    0.107049
   3 O :   -0.305479
   4 C :   -0.267632
   5 C :    0.102690
   6 O :   -0.275149
   7 N :   -0.375722
   8 H :    0.262059
   9 H :    0.159411
  10 H :    0.146776
  11 H :    0.154613
  12 H :    0.254298
  13 H :    0.263496
  14 N :   -0.232164
  15 H :    0.271530
  16 C :   -0.253049
  17 H :    0.123399
  18 H :    0.129682
  19 H :    0.144180
  20 C :    0.117485
  21 O :   -0.298160
  22 C :   -0.382968
  23 H :    0.159722
  24 H :    0.130475
  25 H :    0.163564

  Mayer bond orders larger than 0.100000
B(  0-N ,  1-C ) :   0.9142 B(  0-N ,  8-H ) :   0.8184 B(  0-N , 20-C ) :   1.1661
B(  1-C ,  2-C ) :   0.8674 B(  1-C ,  4-C ) :   0.9732 B(  1-C ,  9-H ) :   0.8667
B(  2-C ,  3-O ) :   1.8696 B(  2-C , 14-N ) :   1.2199 B(  4-C ,  5-C ) :   0.9155
B(  4-C , 10-H ) :   0.8884 B(  4-C , 11-H ) :   0.9042 B(  5-C ,  6-O ) :   2.0394
B(  5-C ,  7-N ) :   1.1849 B(  7-N , 12-H ) :   0.8312 B(  7-N , 13-H ) :   0.7560
B( 14-N , 15-H ) :   0.7312 B( 14-N , 16-C ) :   0.9555 B( 16-C , 17-H ) :   0.9169
B( 16-C , 18-H ) :   0.9232 B( 16-C , 19-H ) :   0.9097 B( 20-C , 21-O ) :   1.8824
B( 20-C , 22-C ) :   0.9331 B( 22-C , 23-H ) :   0.9060 B( 22-C , 24-H ) :   0.9208
B( 22-C , 25-H ) :   0.9044

Dispersion correction           -0.015349651
FINAL SINGLE POINT ENERGY      -663.143273237013

DIPOLE MOMENT
-------------
                                X             Y             Z
Electronic contribution:      5.43227      -2.62991       2.01505
Nuclear contribution   :     -6.75621       3.10694      -3.10121
                        -----------------------------------------
Total Dipole Moment    :     -1.32394       0.47703      -1.08616
                        -----------------------------------------
Magnitude (a.u.)       :      1.77767
Magnitude (Debye)      :      4.51848

Rotational constants in cm-1:     0.033380     0.018616     0.013816
Rotational constants in MHz :  1000.704292   558.107756   414.185287

                             ****ORCA TERMINATED NORMALLY****
TOTAL RUN TIME: 0 days 0 hours 3 minutes 41 seconds 776 msec
