                         Program Version 5.0.3 -  RELEASE  -
|  1> ! PBEh-3c def2/J TightSCF DefGrid3
|  2>
|  3> %maxcore 60000
|  4>
|  5> %pal
|  6> nprocs 4
|  7> end
|  8>
|  9> *xyzfile 0 2 no.xyz
| 10>
| 11>                          ****END OF INPUT****

CARTESIAN COORDINATES (ANGSTROEM)
---------------------------------
  N     -0.614679    0.000000    0.000000
  O      0.538121    0.000000    0.000000

 Total Charge           Charge          ....    0
 Multiplicity           Mult            ....    2
 Number of Electrons    NEL             ....   15
 Basis Dimension        Dim             ....   30

ORBITAL ENERGIES
----------------
                 SPIN UP ORBITALS
  NO   OCC          E(Eh)            E(eV)
   0   1.0000     -19.632415      -534.2252
   1   1.0000     -14.779551      -402.1720
   2   1.0000      -1.361248       -37.0414
   3   1.0000      -0.771486       -20.9932
   4   1.0000      -0.613046       -16.6818
   5   1.0000      -0.561664       -15.2836
   6   1.0000      -0.548644       -14.9294
   7   1.0000      -0.275881        -7.5071
   8   0.0000      -0.057944        -1.5767
   9   0.0000       0.368813        10.0359
  10   0.0000       0.707764        19.2592
  11   0.0000       0.727413        19.7939
  12   0.0000       0.729361        19.8469

                 SPIN DOWN ORBITALS
  NO   OCC          E(Eh)            E(eV)
   0   1.0000     -19.620839      -533.9102
   1   1.0000     -14.761291      -401.6751
   2   1.0000      -1.334167       -36.3045
   3   1.0000      -0.723992       -19.7008
   4   1.0000      -0.550967       -14.9926
   5   1.0000      -0.518903       -14.1201
   6   1.0000      -0.513014       -13.9598
   7   0.0000      -0.039117        -1.0644
   8   0.0000       0.005794         0.1577
   9   0.0000       0.386229        10.5098
  10   0.0000       0.742201        20.1963
  11   0.0000       0.743377        20.2283

MULLIKEN ATOMIC CHARGES AND SPIN POPULATIONS
--------------------------------------------
   0 N :    0.118411    0.713734
   1 O :   -0.118411    0.286266
Sum of atomic charges         :    0.0000000

LOEWDIN ATOMIC CHARGES AND SPIN POPULATIONS
-------------------------------------------
   0 N :    0.005967    0.679131
   1 O :   -0.005967    0.320869

  Mayer bond orders larger than 0.100000
B(  0-N ,  1-O ) :   2.2798

Dispersion correction           -0.000178905
FINAL SINGLE POINT ENERGY      -129.613095985125

DIPOLE MOMENT
-------------
                                X             Y             Z
Electronic contribution:     -0.01970       0.00000      -0.00000
Nuclear contribution   :      0.00457       0.00000       0.00000
                        -----------------------------------------
Total Dipole Moment    :     -0.01512       0.00000      -0.00000
                        -----------------------------------------
Magnitude (a.u.)       :      0.01512
Magnitude (Debye)      :      0.03844

Rotational constants in cm-1:     0.000000     1.698475     1.698475
Rotational constants in MHz :     0.000000 50919.001831 50919.001831

                             ****ORCA TERMINATED NORMALLY****
TOTAL RUN TIME: 0 days 0 hours 1 minutes 7 seconds 661 msec
