                         Program Version 5.0.3 -  RELEASE  -
|  1> ! PBEh-3c def2/J TightSCF DefGrid3
|  2>
|  3> %maxcore 60000
|  4>
|  5> %pal
|  6> nprocs 4
|  7> end
|  8>
|  9> *xyzfile 0 1 allene.xyz
| 10>
| 11>                          ****END OF INPUT****

CARTESIAN COORDINATES (ANGSTROEM)
---------------------------------
  C      0.000000    0.000000    0.000000
  C      1.310515    0.000000    0.000000
  C     -1.310515    0.000000    0.000000
  H     -1.866060    0.790270    0.488418
  H     -1.866060   -0.790270   -0.488418
  H      1.866060    0.488418   -0.790270
  H      1.866060   -0.488418    0.790270

 Total Charge           Charge          ....    0
 Multiplicity           Mult            ....    1
 Number of Electrons    NEL             ....   22
 Basis Dimension        Dim             ....   53

ORBITAL ENERGIES
----------------

  NO   OCC          E(Eh)            E(eV)
   0   2.0000     -10.474624      -285.0290
   1   2.0000     -10.449580      -284.3475
   2   2.0000     -10.449491      -284.3451
   3   2.0000      -0.883961       -24.0538
   4   2.0000      -0.789577       -21.4855
   5   2.0000      -0.590275       -16.0622
   6   2.0000      -0.513309       -13.9679
   7   2.0000      -0.505091       -13.7442
   8   2.0000      -0.505091       -13.7442
   9   2.0000      -0.313356        -8.5269
  10   2.0000      -0.313356        -8.5269
  11   0.0000       0.042096         1.1455
  12   0.0000       0.042096         1.1455
  13   0.0000       0.177396         4.8272
  14   0.0000       0.191504         5.2111
  15   0.0000       0.281231         7.6527

MULLIKEN ATOMIC CHARGES
-----------------------
   0 C :    0.313431
   1 C :   -0.637815
   2 C :   -0.637816
   3 H :    0.240550
   4 H :    0.240550
   5 H :    0.240550
   6 H :    0.240550
Sum of atomic charges:   -0.0000000

LOEWDIN ATOMIC CHARGES
----------------------
   0 C :    0.014380
   1 C :   -0.314063
   2 C :   -0.314063
   3 H :    0.153436
   4 H :    0.153436
   5 H :    0.153436
   6 H :    0.153436

  Mayer bond orders larger than 0.100000
B(  0-C ,  1-C ) :   1.8971 B(  0-C ,  2-C ) :   1.8971 B(  1-C ,  5-H ) :   0.9075
B(  1-C ,  6-H ) :   0.9075 B(  2-C ,  3-H ) :   0.9075 B(  2-C ,  4-H ) :   0.9075

Dispersion correction           -0.001879476
FINAL SINGLE POINT ENERGY      -116.385728023420

DIPOLE MOMENT
-------------
                                X             Y             Z
Electronic contribution:     -0.00000       0.00000       0.00000
Nuclear contribution   :      0.00000       0.00000       0.00000
                        -----------------------------------------
Total Dipole Moment    :     -0.00000       0.00000       0.00000
                        -----------------------------------------
Magnitude (a.u.)       :      0.00000
Magnitude (Debye)      :      0.00000

Rotational constants in cm-1:     4.844248     0.295558     0.295558
Rotational constants in MHz : 145226.887080  8860.604726  8860.604726

                             ****ORCA TERMINATED NORMALLY****
TOTAL RUN TIME: 0 days 0 hours 0 minutes 22 seconds 911 msec
