                         Program Version 5.0.3 -  RELEASE  -
|  1> ! PBEh-3c def2/J TightSCF DefGrid3
|  2>
|  3> %maxcore 60000
|  4>
|  5> %pal
|  6> nprocs 4
|  7> end
|  8>
|  9> *xyzfile 1 1 his1.xyz
| 10>
| 11>                          ****END OF INPUT****

CARTESIAN COORDINATES (ANGSTROEM)
---------------------------------
  N      1.295363    1.708079   -0.178687
  C      1.556258    0.442658    0.498858
  C      1.857803   -0.621733   -0.546038
  O      2.009945   -1.811062    0.017511
  H      1.408626    2.484977    0.461495
  O      1.944600   -0.402635   -1.717840
  H     -0.423269    1.420535   -0.772254
  H      2.425708    0.491250    1.170033
  C      0.335428    0.048695    1.350128
  C     -0.882757   -0.140394    0.511306
  H      0.153558    0.837584    2.087444
  H      0.538115   -0.859523    1.917281
  C     -1.896757   -1.042525    0.536384
  N     -1.145556    0.701711   -0.540208
  H     -2.085506   -1.875986    1.192438
  H     -3.587892   -1.200002   -0.741263
  C     -2.258329    0.341757   -1.144732
  N     -2.735932   -0.713752   -0.499487
  H     -2.700597    0.812020   -2.008173
  H      1.940929    1.849529   -0.947846
  H      2.250262   -2.471183   -0.646348

 Total Charge           Charge          ....    1
 Multiplicity           Mult            ....    1
 Number of Electrons    NEL             ....   82
 Basis Dimension        Dim             ....  185

ORBITAL ENERGIES
----------------

  NO   OCC          E(Eh)            E(eV)
   0   2.0000     -19.675130      -535.3875
   1   2.0000     -19.620406      -533.8984
   2   2.0000     -14.896908      -405.3655
   3   2.0000     -14.875511      -404.7832
   4   2.0000     -14.780598      -402.2005
   5   2.0000     -10.715612      -291.5866
   6   2.0000     -10.714353      -291.5524
   7   2.0000     -10.664321      -290.1909
   8   2.0000     -10.657251      -289.9986
   9   2.0000     -10.638924      -289.4999
  10   2.0000     -10.612598      -288.7835
  11   2.0000      -1.362626       -37.0789
  12   2.0000      -1.351148       -36.7666
  13   2.0000      -1.267524       -34.4911
  14   2.0000      -1.203614       -32.7520
  15   2.0000      -1.150208       -31.2988
  16   2.0000      -1.062981       -28.9252
  17   2.0000      -0.997541       -27.1445
  18   2.0000      -0.929667       -25.2975
  19   2.0000      -0.914923       -24.8963
  20   2.0000      -0.862019       -23.4567
  21   2.0000      -0.828988       -22.5579
  22   2.0000      -0.797100       -21.6902
  23   2.0000      -0.761223       -20.7139
  24   2.0000      -0.737697       -20.0738
  25   2.0000      -0.714656       -19.4468
  26   2.0000      -0.707956       -19.2645
  27   2.0000      -0.695455       -18.9243
  28   2.0000      -0.684824       -18.6350
  29   2.0000      -0.674977       -18.3671
  30   2.0000      -0.659110       -17.9353
  31   2.0000      -0.647151       -17.6099
  32   2.0000      -0.630576       -17.1588
  33   2.0000      -0.603039       -16.4095
  34   2.0000      -0.592008       -16.1094
  35   2.0000      -0.572424       -15.5765
  36   2.0000      -0.551107       -14.9964
  37   2.0000      -0.511683       -13.9236
  38   2.0000      -0.477452       -12.9921
  39   2.0000      -0.465855       -12.6766
  40   2.0000      -0.457455       -12.4480
  41   0.0000      -0.145008        -3.9459
  42   0.0000      -0.107077        -2.9137
  43   0.0000      -0.084942        -2.3114
  44   0.0000      -0.042023        -1.1435
  45   0.0000      -0.006638        -0.1806

MULLIKEN ATOMIC CHARGES
-----------------------
   0 N :   -0.811986
   1 C :   -0.244545
   2 C :    0.538379
   3 O :   -0.572134
   4 H :    0.367715
   5 O :   -0.361172
   6 H :    0.454150
   7 H :    0.303810
   8 C :   -0.506499
   9 C :    0.301839
  10 H :    0.289860
  11 H :    0.297560
  12 C :   -0.097554
  13 N :   -0.583879
  14 H :    0.314074
  15 H :    0.427926
  16 C :    0.249930
  17 N :   -0.556266
  18 H :    0.331861
  19 H :    0.388446
  20 H :    0.468485
Sum of atomic charges:    1.0000000

LOEWDIN ATOMIC CHARGES
----------------------
   0 N :   -0.448922
   1 C :   -0.110114
   2 C :    0.112150
   3 O :   -0.268332
   4 H :    0.250902
   5 O :   -0.199417
   6 H :    0.308489
   7 H :    0.156229
   8 C :   -0.227914
   9 C :    0.006495
  10 H :    0.163047
  11 H :    0.173082
  12 C :   -0.079812
  13 N :   -0.081261
  14 H :    0.175444
  15 H :    0.301922
  16 C :    0.046386
  17 N :   -0.070906
  18 H :    0.180024
  19 H :    0.261189
  20 H :    0.351318

  Mayer bond orders larger than 0.100000
B(  0-N ,  1-C ) :   0.9722 B(  0-N ,  4-H ) :   0.8348 B(  0-N ,  6-H ) :   0.1628
B(  0-N , 19-H ) :   0.8113 B(  1-C ,  2-C ) :   0.8996 B(  1-C ,  7-H ) :   0.8684
B(  1-C ,  8-C ) :   0.9496 B(  2-C ,  3-O ) :   1.1725 B(  2-C ,  5-O ) :   2.0802
B(  3-O , 20-H ) :   0.7390 B(  6-H , 13-N ) :   0.6381 B(  8-C ,  9-C ) :   0.9215
B(  8-C , 10-H ) :   0.8886 B(  8-C , 11-H ) :   0.8894 B(  9-C , 12-C ) :   1.6133
B(  9-C , 13-N ) :   1.1401 B( 12-C , 14-H ) :   0.8816 B( 12-C , 17-N ) :   1.1202
B( 13-N , 16-C ) :   1.3471 B( 15-H , 17-N ) :   0.7863 B( 16-C , 17-N ) :   1.2937
B( 16-C , 18-H ) :   0.8684

Dispersion correction           -0.012452303
FINAL SINGLE POINT ENERGY      -547.992776345556

DIPOLE MOMENT
-------------
                                X             Y             Z
Electronic contribution:     -1.39250      -2.56354      -2.96437
Nuclear contribution   :     -0.72453       2.69155       3.26900
                        -----------------------------------------
Total Dipole Moment    :     -2.11702       0.12801       0.30463
                        -----------------------------------------
Magnitude (a.u.)       :      2.14266
Magnitude (Debye)      :      5.44620

Rotational constants in cm-1:     0.061868     0.027333     0.025800
Rotational constants in MHz :  1854.760285   819.414785   773.455027

                             ****ORCA TERMINATED NORMALLY****
TOTAL RUN TIME: 0 days 0 hours 2 minutes 15 seconds 196 msec
