                         Program Version 5.0.3 -  RELEASE  -
|  1> ! PBEh-3c def2/J TightSCF DefGrid3
|  2>
|  3> %maxcore 60000
|  4>
|  5> %pal
|  6> nprocs 4
|  7> end
|  8>
|  9> *xyzfile 0 1 13ts_4a.xyz
| 10>
| 11>                          ****END OF INPUT****

CARTESIAN COORDINATES (ANGSTROEM)
---------------------------------
  C      0.935777    0.395371    0.000000
  C      0.851966   -0.968411    0.000000
  O     -1.505062   -1.243406    0.000000
  N     -1.728833   -0.045907    0.000000
  C     -1.167136    1.022845    0.000000
  H      1.152738    0.926950    0.920000
  H      1.152738    0.926950   -0.920000
  H      0.877628   -1.536604    0.920095
  H      0.877628   -1.536604   -0.920095
  H     -1.447443    2.058816    0.000000

 Total Charge           Charge          ....    0
 Multiplicity           Mult            ....    1
 Number of Electrons    NEL             ....   38
 Basis Dimension        Dim             ....   85

ORBITAL ENERGIES
----------------

  NO   OCC          E(Eh)            E(eV)
   0   2.0000     -19.535776      -531.5955
   1   2.0000     -14.764466      -401.7615
   2   2.0000     -10.510381      -286.0020
   3   2.0000     -10.455155      -284.4992
   4   2.0000     -10.452472      -284.4262
   5   2.0000      -1.255078       -34.1524
   6   2.0000      -0.973144       -26.4806
   7   2.0000      -0.853155       -23.2155
   8   2.0000      -0.666438       -18.1347
   9   2.0000      -0.649599       -17.6765
  10   2.0000      -0.583286       -15.8720
  11   2.0000      -0.543539       -14.7904
  12   2.0000      -0.532518       -14.4906
  13   2.0000      -0.518705       -14.1147
  14   2.0000      -0.478753       -13.0275
  15   2.0000      -0.416551       -11.3349
  16   2.0000      -0.341071        -9.2810
  17   2.0000      -0.304745        -8.2925
  18   2.0000      -0.287437        -7.8216
  19   0.0000      -0.027118        -0.7379
  20   0.0000       0.047891         1.3032
  21   0.0000       0.079276         2.1572
  22   0.0000       0.163350         4.4450
  23   0.0000       0.168452         4.5838

MULLIKEN ATOMIC CHARGES
-----------------------
   0 C :   -0.524731
   1 C :   -0.393189
   2 O :   -0.343490
   3 N :    0.200746
   4 C :   -0.182185
   5 H :    0.239086
   6 H :    0.239086
   7 H :    0.238154
   8 H :    0.238154
   9 H :    0.288370
Sum of atomic charges:    0.0000000

LOEWDIN ATOMIC CHARGES
----------------------
   0 C :   -0.294343
   1 C :   -0.227432
   2 O :   -0.188121
   3 N :    0.150796
   4 C :   -0.167570
   5 H :    0.139121
   6 H :    0.139121
   7 H :    0.139556
   8 H :    0.139556
   9 H :    0.169316

  Mayer bond orders larger than 0.100000
B(  0-C ,  1-C ) :   1.6386 B(  0-C ,  4-C ) :   0.3107 B(  0-C ,  5-H ) :   0.9139
B(  0-C ,  6-H ) :   0.9139 B(  1-C ,  2-O ) :   0.2366 B(  1-C ,  7-H ) :   0.9218
B(  1-C ,  8-H ) :   0.9218 B(  2-O ,  3-N ) :   1.5084 B(  2-O ,  4-C ) :   0.3656
B(  3-N ,  4-C ) :   2.1435 B(  4-C ,  9-H ) :   0.8677

Dispersion correction           -0.004099531
FINAL SINGLE POINT ENERGY      -246.588909992571

DIPOLE MOMENT
-------------
                                X             Y             Z
Electronic contribution:     -4.66161      -0.74461       0.00000
Nuclear contribution   :      4.95234       1.71595       0.00000
                        -----------------------------------------
Total Dipole Moment    :      0.29072       0.97134       0.00000
                        -----------------------------------------
Magnitude (a.u.)       :      1.01391
Magnitude (Debye)      :      2.57716

Rotational constants in cm-1:     0.272871     0.163789     0.106778
Rotational constants in MHz :  8180.474275  4910.278848  3201.127857

                             ****ORCA TERMINATED NORMALLY****
TOTAL RUN TIME: 0 days 0 hours 1 minutes 43 seconds 211 msec
