                         Program Version 5.0.3 -  RELEASE  -
|  1> ! PBEh-3c def2/J TightSCF DefGrid3
|  2>
|  3> %maxcore 60000
|  4>
|  5> %pal
|  6> nprocs 4
|  7> end
|  8>
|  9> *xyzfile 0 2 me.xyz
| 10>
| 11>                          ****END OF INPUT****

CARTESIAN COORDINATES (ANGSTROEM)
---------------------------------
  C      0.000000    0.000000    0.000000
  H     -0.540007   -0.935319    0.000000
  H     -0.540007    0.935319    0.000000
  H      1.080014    0.000000    0.000000

 Total Charge           Charge          ....    0
 Multiplicity           Mult            ....    2
 Number of Electrons    NEL             ....    9
 Basis Dimension        Dim             ....   21

ORBITAL ENERGIES
----------------
                 SPIN UP ORBITALS
  NO   OCC          E(Eh)            E(eV)
   0   1.0000     -10.446072      -284.2521
   1   1.0000      -0.769587       -20.9415
   2   1.0000      -0.476689       -12.9714
   3   1.0000      -0.476689       -12.9714
   4   1.0000      -0.283615        -7.7176
   5   0.0000       0.165256         4.4968
   6   0.0000       0.228850         6.2273
   7   0.0000       0.228851         6.2273
   8   0.0000       0.498423        13.5628
   9   0.0000       0.498435        13.5631

                 SPIN DOWN ORBITALS
  NO   OCC          E(Eh)            E(eV)
   0   1.0000     -10.429963      -283.8137
   1   1.0000      -0.716410       -19.4945
   2   1.0000      -0.464769       -12.6470
   3   1.0000      -0.464769       -12.6470
   4   0.0000      -0.014145        -0.3849
   5   0.0000       0.185754         5.0546
   6   0.0000       0.235370         6.4047
   7   0.0000       0.235370         6.4047
   8   0.0000       0.510695        13.8967

MULLIKEN ATOMIC CHARGES AND SPIN POPULATIONS
--------------------------------------------
   0 C :   -0.661148    1.180669
   1 H :    0.220382   -0.060223
   2 H :    0.220382   -0.060223
   3 H :    0.220385   -0.060223
Sum of atomic charges         :    0.0000000

LOEWDIN ATOMIC CHARGES AND SPIN POPULATIONS
-------------------------------------------
   0 C :   -0.392706    1.091990
   1 H :    0.130902   -0.030664
   2 H :    0.130902   -0.030664
   3 H :    0.130903   -0.030663

  Mayer bond orders larger than 0.100000
B(  0-C ,  1-H ) :   0.9264 B(  0-C ,  2-H ) :   0.9264 B(  0-C ,  3-H ) :   0.9264

Dispersion correction           -0.000481891
FINAL SINGLE POINT ENERGY       -39.748109803867

DIPOLE MOMENT
-------------
                                X             Y             Z
Electronic contribution:      0.00000      -0.00000      -0.00000
Nuclear contribution   :      0.00000       0.00000       0.00000
                        -----------------------------------------
Total Dipole Moment    :      0.00000      -0.00000      -0.00000
                        -----------------------------------------
Magnitude (a.u.)       :      0.00000
Magnitude (Debye)      :      0.00001

Rotational constants in cm-1:     9.558432     9.558432     4.779216
Rotational constants in MHz : 286554.595142 286554.586543 143277.295421

                             ****ORCA TERMINATED NORMALLY****
TOTAL RUN TIME: 0 days 0 hours 1 minutes 40 seconds 763 msec
