                         Program Version 5.0.3 -  RELEASE  -
|  1> ! PBEh-3c def2/J TightSCF DefGrid3
|  2>
|  3> %maxcore 60000
|  4>
|  5> %pal
|  6> nprocs 4
|  7> end
|  8>
|  9> *xyzfile 0 1 C3H7S_2.xyz
| 10>
| 11>                          ****END OF INPUT****

CARTESIAN COORDINATES (ANGSTROEM)
---------------------------------
  C     -3.295037   -0.725842   -2.683546
  H     -2.772372   -1.362479   -3.412434
  H     -3.037659    0.319936   -2.907485
  H     -4.375194   -0.846799   -2.847194
  C     -2.912903   -1.098057   -1.246317
  H     -3.471792   -0.465279   -0.537993
  H     -3.211094   -2.137608   -1.037104
  C     -1.411891   -0.943717   -0.993141
  H     -1.090595    0.092692   -1.169333
  H     -0.827339   -1.608473   -1.644121
  S     -1.044309   -1.394464    0.757156
  S      1.001739   -1.349920    0.883691
  C      1.402616    0.395813    1.323423
  H      0.815571    0.664635    2.212698
  H      1.103010    1.050958    0.492911
  C      2.903991    0.512371    1.593791
  H      3.463786    0.178475    0.705020
  H      3.180212   -0.172922    2.411077
  C      3.314191    1.944622    1.954443
  H      2.791111    2.294456    2.856626
  H      4.394215    2.006720    2.148637
  H      3.079746    2.644883    1.139197

 Total Charge           Charge          ....    0
 Multiplicity           Mult            ....    1
 Number of Electrons    NEL             ....   82
 Basis Dimension        Dim             ....  154

ORBITAL ENERGIES
----------------

  NO   OCC          E(Eh)            E(eV)
   0   2.0000     -89.594291     -2437.9846
   1   2.0000     -89.594263     -2437.9838
   2   2.0000     -10.469994      -284.9030
   3   2.0000     -10.469967      -284.9023
   4   2.0000     -10.449992      -284.3587
   5   2.0000     -10.449962      -284.3579
   6   2.0000     -10.436840      -284.0008
   7   2.0000     -10.436831      -284.0006
   8   2.0000      -8.231908      -224.0016
   9   2.0000      -8.231847      -223.9999
  10   2.0000      -6.123597      -166.6315
  11   2.0000      -6.123387      -166.6258
  12   2.0000      -6.119591      -166.5225
  13   2.0000      -6.119547      -166.5214
  14   2.0000      -6.113560      -166.3584
  15   2.0000      -6.113549      -166.3581
  16   2.0000      -0.917494       -24.9663
  17   2.0000      -0.894059       -24.3286
  18   2.0000      -0.853182       -23.2163
  19   2.0000      -0.797399       -21.6983
  20   2.0000      -0.747088       -20.3293
  21   2.0000      -0.682639       -18.5756
  22   2.0000      -0.663253       -18.0480
  23   2.0000      -0.641308       -17.4509
  24   2.0000      -0.536707       -14.6045
  25   2.0000      -0.536070       -14.5872
  26   2.0000      -0.498733       -13.5712
  27   2.0000      -0.487553       -13.2670
  28   2.0000      -0.485990       -13.2245
  29   2.0000      -0.458563       -12.4781
  30   2.0000      -0.458382       -12.4732
  31   2.0000      -0.445182       -12.1140
  32   2.0000      -0.409612       -11.1461
  33   2.0000      -0.405820       -11.0429
  34   2.0000      -0.400199       -10.8900
  35   2.0000      -0.393511       -10.7080
  36   2.0000      -0.390548       -10.6273
  37   2.0000      -0.381193       -10.3728
  38   2.0000      -0.357774        -9.7355
  39   2.0000      -0.276513        -7.5243
  40   2.0000      -0.273488        -7.4420
  41   0.0000       0.023494         0.6393
  42   0.0000       0.084224         2.2918
  43   0.0000       0.087543         2.3822
  44   0.0000       0.138873         3.7789
  45   0.0000       0.149184         4.0595

MULLIKEN ATOMIC CHARGES
-----------------------
   0 C :   -0.633539
   1 H :    0.214876
   2 H :    0.212511
   3 H :    0.226480
   4 C :   -0.422845
   5 H :    0.225605
   6 H :    0.229978
   7 C :   -0.523293
   8 H :    0.238612
   9 H :    0.252356
  10 S :   -0.020730
  11 S :   -0.020742
  12 C :   -0.523169
  13 H :    0.252278
  14 H :    0.238611
  15 C :   -0.422845
  16 H :    0.225606
  17 H :    0.229902
  18 C :   -0.633533
  19 H :    0.214900
  20 H :    0.226472
  21 H :    0.212510
Sum of atomic charges:    0.0000000

LOEWDIN ATOMIC CHARGES
----------------------
   0 C :   -0.359758
   1 H :    0.126736
   2 H :    0.125640
   3 H :    0.131478
   4 C :   -0.262871
   5 H :    0.128430
   6 H :    0.130540
   7 C :   -0.342275
   8 H :    0.126499
   9 H :    0.134031
  10 S :    0.061542
  11 S :    0.061582
  12 C :   -0.342258
  13 H :    0.133990
  14 H :    0.126534
  15 C :   -0.262888
  16 H :    0.128435
  17 H :    0.130517
  18 C :   -0.359766
  19 H :    0.126742
  20 H :    0.131481
  21 H :    0.125639

  Mayer bond orders larger than 0.100000
B(  0-C ,  1-H ) :   0.9269 B(  0-C ,  2-H ) :   0.9275 B(  0-C ,  3-H ) :   0.9284
B(  0-C ,  4-C ) :   0.9894 B(  4-C ,  5-H ) :   0.9119 B(  4-C ,  6-H ) :   0.9107
B(  4-C ,  7-C ) :   0.9495 B(  7-C ,  8-H ) :   0.8950 B(  7-C ,  9-H ) :   0.8908
B(  7-C , 10-S ) :   0.9735 B( 10-S , 11-S ) :   1.0968 B( 11-S , 12-C ) :   0.9734
B( 12-C , 13-H ) :   0.8908 B( 12-C , 14-H ) :   0.8950 B( 12-C , 15-C ) :   0.9494
B( 15-C , 16-H ) :   0.9118 B( 15-C , 17-H ) :   0.9107 B( 15-C , 18-C ) :   0.9894
B( 18-C , 19-H ) :   0.9269 B( 18-C , 20-H ) :   0.9284 B( 18-C , 21-H ) :   0.9275

Dispersion correction           -0.011002749
FINAL SINGLE POINT ENERGY     -1032.050249017755

DIPOLE MOMENT
-------------
                                X             Y             Z
Electronic contribution:     -0.14225      -9.12573       5.45597
Nuclear contribution   :      0.15435       9.90708      -5.92258
                        -----------------------------------------
Total Dipole Moment    :      0.01210       0.78134      -0.46661
                        -----------------------------------------
Magnitude (a.u.)       :      0.91015
Magnitude (Debye)      :      2.31341

Rotational constants in cm-1:     0.101181     0.015957     0.014665
Rotational constants in MHz :  3033.324055   478.369610   439.639241

                             ****ORCA TERMINATED NORMALLY****
TOTAL RUN TIME: 0 days 0 hours 2 minutes 0 seconds 735 msec
