                         Program Version 5.0.3 -  RELEASE  -
|  1> ! PBEh-3c def2/J TightSCF DefGrid3
|  2>
|  3> %maxcore 60000
|  4>
|  5> %pal
|  6> nprocs 4
|  7> end
|  8>
|  9> *xyzfile 1 2 IP_78.xyz
| 10>
| 11>                          ****END OF INPUT****

CARTESIAN COORDINATES (ANGSTROEM)
---------------------------------
  Cl     0.000000    0.000000    0.969384
  Cl     0.000000    0.000000   -0.969384

 Total Charge           Charge          ....    1
 Multiplicity           Mult            ....    2
 Number of Electrons    NEL             ....   33
 Basis Dimension        Dim             ....   36

ORBITAL ENERGIES
----------------
                 SPIN UP ORBITALS
  NO   OCC          E(Eh)            E(eV)
   0   1.0000    -102.724260     -2795.2692
   1   1.0000    -102.724199     -2795.2676
   2   1.0000     -10.187155      -277.2066
   3   1.0000     -10.187126      -277.2058
   4   1.0000      -7.874897      -214.2868
   5   1.0000      -7.874838      -214.2852
   6   1.0000      -7.874838      -214.2852
   7   1.0000      -7.874729      -214.2823
   8   1.0000      -7.860471      -213.8943
   9   1.0000      -7.860470      -213.8943
  10   1.0000      -1.395733       -37.9798
  11   1.0000      -1.189995       -32.3814
  12   1.0000      -0.856621       -23.3098
  13   1.0000      -0.825613       -22.4661
  14   1.0000      -0.793510       -21.5925
  15   1.0000      -0.708136       -19.2693
  16   1.0000      -0.672790       -18.3075
  17   0.0000      -0.390122       -10.6158
  18   0.0000       0.128096         3.4857
  19   0.0000       0.261819         7.1245
  20   0.0000       0.272863         7.4250
  21   0.0000       0.277123         7.5409

                 SPIN DOWN ORBITALS
  NO   OCC          E(Eh)            E(eV)
   0   1.0000    -102.719439     -2795.1380
   1   1.0000    -102.719379     -2795.1364
   2   1.0000     -10.182558      -277.0815
   3   1.0000     -10.182501      -277.0799
   4   1.0000      -7.872333      -214.2171
   5   1.0000      -7.872156      -214.2123
   6   1.0000      -7.857726      -213.8196
   7   1.0000      -7.857724      -213.8195
   8   1.0000      -7.857639      -213.8172
   9   1.0000      -7.857633      -213.8171
  10   1.0000      -1.370351       -37.2892
  11   1.0000      -1.147881       -31.2354
  12   1.0000      -0.841987       -22.9116
  13   1.0000      -0.784585       -21.3496
  14   1.0000      -0.744040       -20.2464
  15   1.0000      -0.661677       -18.0052
  16   0.0000      -0.513311       -13.9679
  17   0.0000      -0.376899       -10.2560
  18   0.0000       0.135048         3.6748
  19   0.0000       0.284828         7.7506
  20   0.0000       0.292035         7.9467

MULLIKEN ATOMIC CHARGES AND SPIN POPULATIONS
--------------------------------------------
   0 Cl:    0.500000    0.500000
   1 Cl:    0.500000    0.500000
Sum of atomic charges         :    1.0000000

LOEWDIN ATOMIC CHARGES AND SPIN POPULATIONS
-------------------------------------------
   0 Cl:    0.500000    0.500000
   1 Cl:    0.500000    0.500000

  Mayer bond orders larger than 0.100000
B(  0-Cl,  1-Cl) :   1.5294

Dispersion correction           -0.000449545
FINAL SINGLE POINT ENERGY      -918.924871198977

DIPOLE MOMENT
-------------
                                X             Y             Z
Electronic contribution:      0.00000       0.00000      -0.00000
Nuclear contribution   :      0.00000       0.00000       0.00000
                        -----------------------------------------
Total Dipole Moment    :      0.00000       0.00000      -0.00000
                        -----------------------------------------
Magnitude (a.u.)       :      0.00000
Magnitude (Debye)      :      0.00000

Rotational constants in cm-1:     0.000000     0.253001     0.253001
Rotational constants in MHz :     0.000000  7584.774164  7584.774164

                             ****ORCA TERMINATED NORMALLY****
TOTAL RUN TIME: 0 days 0 hours 0 minutes 10 seconds 317 msec
