                         Program Version 5.0.3 -  RELEASE  -
|  1> ! PBEh-3c def2/J TightSCF DefGrid3
|  2>
|  3> %maxcore 60000
|  4>
|  5> %pal
|  6> nprocs 4
|  7> end
|  8>
|  9> *xyzfile 0 1 7b.xyz
| 10>
| 11>                          ****END OF INPUT****

CARTESIAN COORDINATES (ANGSTROEM)
---------------------------------
  P     -0.099364   -1.514768    0.000000
  H     -1.063616   -1.412098    1.034457
  H     -1.063616   -1.412098   -1.034457
  O      0.099364   -3.167111    0.000000
  H      1.031127   -3.383294    0.000000

 Total Charge           Charge          ....    0
 Multiplicity           Mult            ....    1
 Number of Electrons    NEL             ....   26
 Basis Dimension        Dim             ....   39

ORBITAL ENERGIES
----------------

  NO   OCC          E(Eh)            E(eV)
   0   2.0000     -77.765221     -2116.0992
   1   2.0000     -19.505407      -530.7691
   2   2.0000      -6.837736      -186.0643
   3   2.0000      -4.929092      -134.1274
   4   2.0000      -4.927656      -134.0883
   5   2.0000      -4.926240      -134.0498
   6   2.0000      -1.127336       -30.6764
   7   2.0000      -0.712932       -19.3999
   8   2.0000      -0.544524       -14.8172
   9   2.0000      -0.471671       -12.8348
  10   2.0000      -0.468319       -12.7436
  11   2.0000      -0.361814        -9.8454
  12   2.0000      -0.296150        -8.0587
  13   0.0000       0.043868         1.1937
  14   0.0000       0.086577         2.3559
  15   0.0000       0.152689         4.1549
  16   0.0000       0.185231         5.0404
  17   0.0000       0.376222        10.2375

MULLIKEN ATOMIC CHARGES
-----------------------
   0 P :    0.211468
   1 H :    0.043223
   2 H :    0.043223
   3 O :   -0.738347
   4 H :    0.440434
Sum of atomic charges:    0.0000000

LOEWDIN ATOMIC CHARGES
----------------------
   0 P :    0.202924
   1 H :    0.006509
   2 H :    0.006509
   3 O :   -0.531698
   4 H :    0.315756

  Mayer bond orders larger than 0.100000
B(  0-P ,  1-H ) :   0.9448 B(  0-P ,  2-H ) :   0.9448 B(  0-P ,  3-O ) :   0.9998
B(  3-O ,  4-H ) :   0.7730

Dispersion correction           -0.001125050
FINAL SINGLE POINT ENERGY      -417.804516438929

DIPOLE MOMENT
-------------
                                X             Y             Z
Electronic contribution:      1.10804       0.55707       0.00000
Nuclear contribution   :     -0.83770      -0.49632       0.00000
                        -----------------------------------------
Total Dipole Moment    :      0.27034       0.06075       0.00000
                        -----------------------------------------
Magnitude (a.u.)       :      0.27709
Magnitude (Debye)      :      0.70430

Rotational constants in cm-1:     3.748778     0.482831     0.480325
Rotational constants in MHz : 112385.549899 14474.922957 14399.782226

                             ****ORCA TERMINATED NORMALLY****
TOTAL RUN TIME: 0 days 0 hours 1 minutes 0 seconds 519 msec
