                         Program Version 5.0.3 -  RELEASE  -
|  1> ! PBEh-3c def2/J TightSCF DefGrid3
|  2>
|  3> %maxcore 60000
|  4>
|  5> %pal
|  6> nprocs 4
|  7> end
|  8>
|  9> *xyzfile 0 1 18b.xyz
| 10>
| 11>                          ****END OF INPUT****

CARTESIAN COORDINATES (ANGSTROEM)
---------------------------------
  P      0.029829   -1.919883    0.000000
  H      0.309774   -3.308635    0.000000
  H     -0.929576   -2.001083    1.037458
  H     -0.929576   -2.001083   -1.037458

 Total Charge           Charge          ....    0
 Multiplicity           Mult            ....    1
 Number of Electrons    NEL             ....   18
 Basis Dimension        Dim             ....   24

ORBITAL ENERGIES
----------------

  NO   OCC          E(Eh)            E(eV)
   0   2.0000     -77.727629     -2115.0763
   1   2.0000      -6.808494      -185.2685
   2   2.0000      -4.898642      -133.2988
   3   2.0000      -4.898639      -133.2987
   4   2.0000      -4.896657      -133.2448
   5   2.0000      -0.718464       -19.5504
   6   2.0000      -0.437988       -11.9183
   7   2.0000      -0.437739       -11.9115
   8   2.0000      -0.314311        -8.5528
   9   0.0000       0.072348         1.9687
  10   0.0000       0.072516         1.9733
  11   0.0000       0.161723         4.4007
  12   0.0000       0.380062        10.3420
  13   0.0000       0.512479        13.9453

MULLIKEN ATOMIC CHARGES
-----------------------
   0 P :   -0.258255
   1 H :    0.085999
   2 H :    0.086128
   3 H :    0.086128
Sum of atomic charges:   -0.0000000

LOEWDIN ATOMIC CHARGES
----------------------
   0 P :   -0.094493
   1 H :    0.031496
   2 H :    0.031499
   3 H :    0.031499

  Mayer bond orders larger than 0.100000
B(  0-P ,  1-H ) :   0.9627 B(  0-P ,  2-H ) :   0.9626 B(  0-P ,  3-H ) :   0.9626

Dispersion correction           -0.000715169
FINAL SINGLE POINT ENERGY      -342.730705036117

DIPOLE MOMENT
-------------
                                X             Y             Z
Electronic contribution:      1.14304       1.08159      -0.00000
Nuclear contribution   :     -1.44420      -1.36691       0.00000
                        -----------------------------------------
Total Dipole Moment    :     -0.30116      -0.28531      -0.00000
                        -----------------------------------------
Magnitude (a.u.)       :      0.41485
Magnitude (Debye)      :      1.05447

Rotational constants in cm-1:     4.521204     4.507615     3.874466
Rotational constants in MHz : 135542.294727 135134.890223 116153.569691

                             ****ORCA TERMINATED NORMALLY****
TOTAL RUN TIME: 0 days 0 hours 0 minutes 24 seconds 175 msec
