                         Program Version 5.0.3 -  RELEASE  -
|  1> ! PBEh-3c def2/J TightSCF DefGrid3
|  2>
|  3> %maxcore 60000
|  4>
|  5> %pal
|  6> nprocs 4
|  7> end
|  8>
|  9> *xyzfile 0 1 C3H7CO2C2H3.xyz
| 10>
| 11>                          ****END OF INPUT****

CARTESIAN COORDINATES (ANGSTROEM)
---------------------------------
  C     -2.342743   -1.031615   -1.994209
  H     -2.078567   -2.098388   -1.934753
  H     -1.885572   -0.627999   -2.910558
  H     -3.433361   -0.965614   -2.110587
  C     -1.873923   -0.270299   -0.752361
  H     -2.184084    0.783722   -0.814380
  H     -2.361882   -0.673595    0.147502
  C     -0.357807   -0.336694   -0.573078
  H      0.168085    0.084011   -1.446531
  H     -0.010680   -1.382184   -0.506430
  C      0.141956    0.384690    0.656552
  O      1.525026    0.309820    0.709510
  O     -0.530537    0.948520    1.489433
  C      2.161691    0.912858    1.782974
  H      1.490468    1.402064    2.488640
  C      3.488650    0.863574    1.887351
  H      4.106178    0.357210    1.146346
  H      3.977103    1.339919    2.734578

 Total Charge           Charge          ....    0
 Multiplicity           Mult            ....    1
 Number of Electrons    NEL             ....   62
 Basis Dimension        Dim             ....  140

ORBITAL ENERGIES
----------------

  NO   OCC          E(Eh)            E(eV)
   0   2.0000     -19.557180      -532.1779
   1   2.0000     -19.499844      -530.6177
   2   2.0000     -10.592500      -288.2366
   3   2.0000     -10.509009      -285.9647
   4   2.0000     -10.462744      -284.7057
   5   2.0000     -10.446735      -284.2701
   6   2.0000     -10.440946      -284.1126
   7   2.0000     -10.435659      -283.9687
   8   2.0000      -1.225845       -33.3569
   9   2.0000      -1.140458       -31.0334
  10   2.0000      -0.902777       -24.5658
  11   2.0000      -0.864246       -23.5173
  12   2.0000      -0.802487       -21.8368
  13   2.0000      -0.714236       -19.4354
  14   2.0000      -0.661341       -17.9960
  15   2.0000      -0.634429       -17.2637
  16   2.0000      -0.578866       -15.7517
  17   2.0000      -0.555632       -15.1195
  18   2.0000      -0.546841       -14.8803
  19   2.0000      -0.510676       -13.8962
  20   2.0000      -0.501327       -13.6418
  21   2.0000      -0.483734       -13.1631
  22   2.0000      -0.468387       -12.7455
  23   2.0000      -0.450846       -12.2682
  24   2.0000      -0.427614       -11.6360
  25   2.0000      -0.412561       -11.2264
  26   2.0000      -0.409006       -11.1296
  27   2.0000      -0.401249       -10.9185
  28   2.0000      -0.388645       -10.5756
  29   2.0000      -0.345853        -9.4111
  30   2.0000      -0.295561        -8.0426
  31   0.0000       0.016571         0.4509
  32   0.0000       0.065163         1.7732
  33   0.0000       0.129047         3.5115
  34   0.0000       0.164227         4.4688
  35   0.0000       0.171070         4.6551

MULLIKEN ATOMIC CHARGES
-----------------------
   0 C :   -0.641341
   1 H :    0.210477
   2 H :    0.210250
   3 H :    0.228106
   4 C :   -0.415363
   5 H :    0.229428
   6 H :    0.231530
   7 C :   -0.561167
   8 H :    0.255759
   9 H :    0.256066
  10 C :    0.596001
  11 O :   -0.470099
  12 O :   -0.382694
  13 C :    0.104229
  14 H :    0.259145
  15 C :   -0.572626
  16 H :    0.233322
  17 H :    0.228976
Sum of atomic charges:    0.0000000

LOEWDIN ATOMIC CHARGES
----------------------
   0 C :   -0.361260
   1 H :    0.124562
   2 H :    0.124473
   3 H :    0.131580
   4 C :   -0.242425
   5 H :    0.132881
   6 H :    0.133926
   7 C :   -0.272666
   8 H :    0.153615
   9 H :    0.154321
  10 C :    0.175566
  11 O :   -0.154462
  12 O :   -0.209102
  13 C :   -0.012764
  14 H :    0.143499
  15 C :   -0.310261
  16 H :    0.143626
  17 H :    0.144891

  Mayer bond orders larger than 0.100000
B(  0-C ,  1-H ) :   0.9278 B(  0-C ,  2-H ) :   0.9278 B(  0-C ,  3-H ) :   0.9303
B(  0-C ,  4-C ) :   0.9881 B(  4-C ,  5-H ) :   0.9163 B(  4-C ,  6-H ) :   0.9151
B(  4-C ,  7-C ) :   0.9616 B(  7-C ,  8-H ) :   0.8963 B(  7-C ,  9-H ) :   0.8956
B(  7-C , 10-C ) :   0.9396 B( 10-C , 11-O ) :   1.0193 B( 10-C , 12-O ) :   2.0380
B( 11-O , 13-C ) :   0.9591 B( 13-C , 14-H ) :   0.8762 B( 13-C , 15-C ) :   1.8843
B( 15-C , 16-H ) :   0.9209 B( 15-C , 17-H ) :   0.9277

Dispersion correction           -0.007771214
FINAL SINGLE POINT ENERGY      -384.265851853503

DIPOLE MOMENT
-------------
                                X             Y             Z
Electronic contribution:      4.57144       3.34977       6.09755
Nuclear contribution   :     -4.39488      -3.68152      -6.60717
                        -----------------------------------------
Total Dipole Moment    :      0.17656      -0.33175      -0.50962
                        -----------------------------------------
Magnitude (a.u.)       :      0.63320
Magnitude (Debye)      :      1.60947

Rotational constants in cm-1:     0.229779     0.027684     0.025052
Rotational constants in MHz :  6888.590930   829.933170   751.049033

                             ****ORCA TERMINATED NORMALLY****
TOTAL RUN TIME: 0 days 0 hours 1 minutes 55 seconds 228 msec
