                         Program Version 5.0.3 -  RELEASE  -
|  1> ! PBEh-3c def2/J TightSCF DefGrid3
|  2>
|  3> %maxcore 60000
|  4>
|  5> %pal
|  6> nprocs 4
|  7> end
|  8>
|  9> *xyzfile 0 1 6a.xyz
| 10>
| 11>                          ****END OF INPUT****

CARTESIAN COORDINATES (ANGSTROEM)
---------------------------------
  N      2.245007   -0.354089   -0.116332
  C      0.878167   -0.364915   -0.056797
  C      0.514378    0.983362   -0.075586
  N      1.620157    1.804952   -0.145269
  C      2.628034    0.963983   -0.168418
  C     -0.865038    1.208016   -0.012118
  N     -1.706748    0.194171    0.050598
  C     -1.209273   -1.064699    0.052908
  N      0.070270   -1.424331    0.009512
  O     -1.355880    2.451253   -0.010101
  N     -2.145693   -2.065916    0.057425
  H      3.665305    1.247271   -0.222599
  H     -3.055496   -1.804718    0.390902
  H     -1.807697   -2.968454    0.338684
  H     -2.316442    2.357296    0.033422
  H      2.840950   -1.163182   -0.126230

 Total Charge           Charge          ....    0
 Multiplicity           Mult            ....    1
 Number of Electrons    NEL             ....   78
 Basis Dimension        Dim             ....  175

ORBITAL ENERGIES
----------------

  NO   OCC          E(Eh)            E(eV)
   0   2.0000     -19.537892      -531.6531
   1   2.0000     -14.702901      -400.0863
   2   2.0000     -14.645721      -398.5303
   3   2.0000     -14.633622      -398.2011
   4   2.0000     -14.632885      -398.1810
   5   2.0000     -14.631027      -398.1305
   6   2.0000     -10.559199      -287.3304
   7   2.0000     -10.553804      -287.1836
   8   2.0000     -10.522500      -286.3318
   9   2.0000     -10.515251      -286.1345
  10   2.0000     -10.464238      -284.7464
  11   2.0000      -1.201719       -32.7004
  12   2.0000      -1.144873       -31.1536
  13   2.0000      -1.097994       -29.8779
  14   2.0000      -0.999830       -27.2068
  15   2.0000      -0.996089       -27.1050
  16   2.0000      -0.968616       -26.3574
  17   2.0000      -0.850307       -23.1380
  18   2.0000      -0.757988       -20.6259
  19   2.0000      -0.721750       -19.6398
  20   2.0000      -0.704492       -19.1702
  21   2.0000      -0.660780       -17.9807
  22   2.0000      -0.650673       -17.7057
  23   2.0000      -0.590199       -16.0601
  24   2.0000      -0.561948       -15.2914
  25   2.0000      -0.540265       -14.7014
  26   2.0000      -0.537234       -14.6189
  27   2.0000      -0.520683       -14.1685
  28   2.0000      -0.500647       -13.6233
  29   2.0000      -0.486905       -13.2494
  30   2.0000      -0.460628       -12.5343
  31   2.0000      -0.454659       -12.3719
  32   2.0000      -0.393636       -10.7114
  33   2.0000      -0.362090        -9.8530
  34   2.0000      -0.349312        -9.5053
  35   2.0000      -0.345818        -9.4102
  36   2.0000      -0.315071        -8.5735
  37   2.0000      -0.311466        -8.4754
  38   2.0000      -0.250319        -6.8115
  39   0.0000       0.008780         0.2389
  40   0.0000       0.042125         1.1463
  41   0.0000       0.079972         2.1761
  42   0.0000       0.125059         3.4030
  43   0.0000       0.139952         3.8083

MULLIKEN ATOMIC CHARGES
-----------------------
   0 N :   -0.662723
   1 C :    0.486976
   2 C :   -0.000071
   3 N :   -0.373729
   4 C :    0.103948
   5 C :    0.452831
   6 N :   -0.506419
   7 C :    0.543327
   8 N :   -0.461224
   9 O :   -0.565292
  10 N :   -0.798218
  11 H :    0.241674
  12 H :    0.360784
  13 H :    0.360885
  14 H :    0.442298
  15 H :    0.374953
Sum of atomic charges:    0.0000000

LOEWDIN ATOMIC CHARGES
----------------------
   0 N :   -0.156476
   1 C :    0.065337
   2 C :   -0.114380
   3 N :   -0.160442
   4 C :   -0.018937
   5 C :    0.131277
   6 N :   -0.247936
   7 C :    0.113625
   8 N :   -0.230220
   9 O :   -0.264785
  10 N :   -0.369506
  11 H :    0.134211
  12 H :    0.255047
  13 H :    0.255003
  14 H :    0.334992
  15 H :    0.273190

  Mayer bond orders larger than 0.100000
B(  0-N ,  1-C ) :   1.0710 B(  0-N ,  4-C ) :   1.1287 B(  0-N , 15-H ) :   0.8165
B(  1-C ,  2-C ) :   1.2449 B(  1-C ,  8-N ) :   1.4327 B(  2-C ,  3-N ) :   1.2726
B(  2-C ,  5-C ) :   1.2077 B(  3-N ,  4-C ) :   1.7133 B(  4-C , 11-H ) :   0.9091
B(  5-C ,  6-N ) :   1.5260 B(  5-C ,  9-O ) :   1.1831 B(  6-N ,  7-C ) :   1.3666
B(  7-C ,  8-N ) :   1.4956 B(  7-C , 10-N ) :   1.1098 B(  9-O , 14-H ) :   0.7549
B( 10-N , 12-H ) :   0.8352 B( 10-N , 13-H ) :   0.8357

Dispersion correction           -0.009390950
FINAL SINGLE POINT ENERGY      -541.395455594274

DIPOLE MOMENT
-------------
                                X             Y             Z
Electronic contribution:      0.84676       1.96209      -0.14939
Nuclear contribution   :     -0.71923      -3.15589       0.54063
                        -----------------------------------------
Total Dipole Moment    :      0.12753      -1.19380       0.39124
                        -----------------------------------------
Magnitude (a.u.)       :      1.26273
Magnitude (Debye)      :      3.20960

Rotational constants in cm-1:     0.064186     0.037934     0.023854
Rotational constants in MHz :  1924.250247  1137.247442   715.111656

                             ****ORCA TERMINATED NORMALLY****
TOTAL RUN TIME: 0 days 0 hours 1 minutes 57 seconds 756 msec
