                         Program Version 5.0.3 -  RELEASE  -
|  1> ! PBEh-3c def2/J TightSCF DefGrid3
|  2>
|  3> %maxcore 60000
|  4>
|  5> %pal
|  6> nprocs 4
|  7> end
|  8>
|  9> *xyzfile 0 1 PCH_FCl.xyz
| 10>
| 11>                          ****END OF INPUT****

CARTESIAN COORDINATES (ANGSTROEM)
---------------------------------
  P      0.000000    0.000000   -1.774462
  C      0.000000    0.000000   -3.298017
  H      0.000000    0.000000   -4.369559
  Cl     0.000000    0.000000    1.388541
  F      0.000000    0.000000    3.018821

 Total Charge           Charge          ....    0
 Multiplicity           Mult            ....    1
 Number of Electrons    NEL             ....   48
 Basis Dimension        Dim             ....   68

ORBITAL ENERGIES
----------------

  NO   OCC          E(Eh)            E(eV)
   0   2.0000    -102.383063     -2785.9848
   1   2.0000     -77.759746     -2115.9503
   2   2.0000     -25.138725      -684.0595
   3   2.0000     -10.498624      -285.6821
   4   2.0000      -9.842827      -267.8369
   5   2.0000      -7.535594      -205.0539
   6   2.0000      -7.519623      -204.6193
   7   2.0000      -7.519623      -204.6193
   8   2.0000      -6.837783      -186.0655
   9   2.0000      -4.927252      -134.0774
  10   2.0000      -4.927252      -134.0774
  11   2.0000      -4.927123      -134.0738
  12   2.0000      -1.350703       -36.7545
  13   2.0000      -0.912438       -24.8287
  14   2.0000      -0.817418       -22.2431
  15   2.0000      -0.621877       -16.9221
  16   2.0000      -0.585022       -15.9193
  17   2.0000      -0.548845       -14.9348
  18   2.0000      -0.548845       -14.9348
  19   2.0000      -0.425030       -11.5657
  20   2.0000      -0.378048       -10.2872
  21   2.0000      -0.378048       -10.2872
  22   2.0000      -0.341877        -9.3029
  23   2.0000      -0.341877        -9.3029
  24   0.0000      -0.064774        -1.7626
  25   0.0000      -0.034166        -0.9297
  26   0.0000      -0.034166        -0.9297
  27   0.0000       0.143683         3.9098
  28   0.0000       0.158256         4.3064

MULLIKEN ATOMIC CHARGES
-----------------------
   0 P :    0.150048
   1 C :   -0.395800
   2 H :    0.257838
   3 Cl:    0.346303
   4 F :   -0.358389
Sum of atomic charges:   -0.0000000

LOEWDIN ATOMIC CHARGES
----------------------
   0 P :    0.221968
   1 C :   -0.367113
   2 H :    0.156981
   3 Cl:    0.347898
   4 F :   -0.359734

  Mayer bond orders larger than 0.100000
B(  0-P ,  1-C ) :   2.9210 B(  1-C ,  2-H ) :   0.8904 B(  3-Cl,  4-F ) :   0.8983

Dispersion correction           -0.001464815
FINAL SINGLE POINT ENERGY      -938.761344308557

DIPOLE MOMENT
-------------
                                X             Y             Z
Electronic contribution:     -0.00000       0.00000       6.18244
Nuclear contribution   :      0.00000       0.00000      -7.00299
                        -----------------------------------------
Total Dipole Moment    :     -0.00000       0.00000      -0.82055
                        -----------------------------------------
Magnitude (a.u.)       :      0.82055
Magnitude (Debye)      :      2.08567

Rotational constants in cm-1:     0.000000     0.034522     0.034522
Rotational constants in MHz :     0.000000  1034.937128  1034.937128

                             ****ORCA TERMINATED NORMALLY****
TOTAL RUN TIME: 0 days 0 hours 1 minutes 12 seconds 943 msec
