                         Program Version 5.0.3 -  RELEASE  -
|  1> ! PBEh-3c def2/J TightSCF DefGrid3
|  2>
|  3> %maxcore 60000
|  4>
|  5> %pal
|  6> nprocs 4
|  7> end
|  8>
|  9> *xyzfile 0 1 29_CF3Br-benAB.xyz
| 10>
| 11>                          ****END OF INPUT****

CARTESIAN COORDINATES (ANGSTROEM)
---------------------------------
  H      0.002144    0.361044    0.029800
  C      0.015021    0.274790    1.107648
  C      1.227633    0.296655    1.794629
  C      1.243959    0.183703    3.183704
  C      0.047958    0.048915    3.886485
  C     -1.165136    0.026954    3.200213
  C     -1.181832    0.139829    1.810377
  H      2.155808    0.399177    1.249442
  H      2.184979    0.198599    3.716171
  H      0.060935   -0.040673    4.964014
  H     -2.093221   -0.078629    3.745125
  H     -2.122845    0.123257    1.277646
  Br    -0.268326   -3.194209    1.994459
  C      0.050000   -5.089198    1.929391
  F      0.078950   -5.512441    0.671852
  F      1.211984   -5.383996    2.498664
  F     -0.909987   -5.743747    2.570722

 Total Charge           Charge          ....    0
 Multiplicity           Mult            ....    1
 Number of Electrons    NEL             ....  110
 Basis Dimension        Dim             ....  194

ORBITAL ENERGIES
----------------

  NO   OCC          E(Eh)            E(eV)
   0   2.0000    -484.546355    -13185.1767
   1   2.0000     -63.209992     -1720.0313
   2   2.0000     -56.914334     -1548.7178
   3   2.0000     -56.911857     -1548.6504
   4   2.0000     -56.911852     -1548.6502
   5   2.0000     -25.153954      -684.4739
   6   2.0000     -25.153857      -684.4713
   7   2.0000     -25.153806      -684.4699
   8   2.0000     -10.752048      -292.5781
   9   2.0000     -10.456102      -284.5250
  10   2.0000     -10.455526      -284.5093
  11   2.0000     -10.455265      -284.5022
  12   2.0000     -10.454854      -284.4910
  13   2.0000     -10.454504      -284.4815
  14   2.0000     -10.454115      -284.4709
  15   2.0000      -9.039525      -245.9780
  16   2.0000      -6.814780      -185.4396
  17   2.0000      -6.800904      -185.0620
  18   2.0000      -6.800903      -185.0620
  19   2.0000      -2.828360       -76.9636
  20   2.0000      -2.824057       -76.8465
  21   2.0000      -2.824056       -76.8465
  22   2.0000      -2.812148       -76.5224
  23   2.0000      -2.812144       -76.5223
  24   2.0000      -1.472696       -40.0741
  25   2.0000      -1.376215       -37.4487
  26   2.0000      -1.376180       -37.4478
  27   2.0000      -0.959547       -26.1106
  28   2.0000      -0.913730       -24.8638
  29   2.0000      -0.842323       -22.9208
  30   2.0000      -0.842198       -22.9174
  31   2.0000      -0.784909       -21.3585
  32   2.0000      -0.692826       -18.8527
  33   2.0000      -0.692802       -18.8521
  34   2.0000      -0.685322       -18.6486
  35   2.0000      -0.685285       -18.6476
  36   2.0000      -0.650841       -17.7103
  37   2.0000      -0.598274       -16.2798
  38   2.0000      -0.564421       -15.3587
  39   2.0000      -0.564408       -15.3583
  40   2.0000      -0.531611       -14.4659
  41   2.0000      -0.525907       -14.3107
  42   2.0000      -0.525871       -14.3097
  43   2.0000      -0.515010       -14.0141
  44   2.0000      -0.501897       -13.6573
  45   2.0000      -0.488016       -13.2796
  46   2.0000      -0.487970       -13.2783
  47   2.0000      -0.453898       -12.3512
  48   2.0000      -0.421270       -11.4633
  49   2.0000      -0.404410       -11.0046
  50   2.0000      -0.404366       -11.0033
  51   2.0000      -0.361263        -9.8305
  52   2.0000      -0.360333        -9.8052
  53   2.0000      -0.299173        -8.1409
  54   2.0000      -0.298424        -8.1205
  55   0.0000       0.009945         0.2706
  56   0.0000       0.011876         0.3232
  57   0.0000       0.017859         0.4860
  58   0.0000       0.135811         3.6956
  59   0.0000       0.183190         4.9848

MULLIKEN ATOMIC CHARGES
-----------------------
   0 H :    0.225930
   1 C :   -0.224669
   2 C :   -0.218537
   3 C :   -0.218250
   4 C :   -0.218795
   5 C :   -0.227265
   6 C :   -0.237514
   7 H :    0.224511
   8 H :    0.224238
   9 H :    0.224666
  10 H :    0.226304
  11 H :    0.227551
  12 Br:   -0.051559
  13 C :    0.854380
  14 F :   -0.270402
  15 F :   -0.270191
  16 F :   -0.270397
Sum of atomic charges:   -0.0000000

LOEWDIN ATOMIC CHARGES
----------------------
   0 H :    0.138354
   1 C :   -0.139014
   2 C :   -0.135002
   3 C :   -0.133613
   4 C :   -0.135474
   5 C :   -0.140256
   6 C :   -0.144901
   7 H :    0.137960
   8 H :    0.137881
   9 H :    0.138013
  10 H :    0.138431
  11 H :    0.138599
  12 Br:    0.087015
  13 C :    0.246826
  14 F :   -0.111685
  15 F :   -0.111460
  16 F :   -0.111675

  Mayer bond orders larger than 0.100000
B(  0-H ,  1-C ) :   0.9185 B(  1-C ,  2-C ) :   1.4244 B(  1-C ,  6-C ) :   1.4213
B(  2-C ,  3-C ) :   1.4246 B(  2-C ,  7-H ) :   0.9189 B(  3-C ,  4-C ) :   1.4249
B(  3-C ,  8-H ) :   0.9189 B(  4-C ,  5-C ) :   1.4237 B(  4-C ,  9-H ) :   0.9188
B(  5-C ,  6-C ) :   1.4211 B(  5-C , 10-H ) :   0.9184 B(  6-C , 11-H ) :   0.9179
B( 12-Br, 13-C ) :   1.0322 B( 13-C , 14-F ) :   1.0329 B( 13-C , 15-F ) :   1.0329
B( 13-C , 16-F ) :   1.0329

Dispersion correction           -0.009118526
FINAL SINGLE POINT ENERGY     -3141.721281813336

DIPOLE MOMENT
-------------
                                X             Y             Z
Electronic contribution:     -1.99410     -28.04310      -3.97209
Nuclear contribution   :      1.99830      28.40786       4.01399
                        -----------------------------------------
Total Dipole Moment    :      0.00421       0.36476       0.04190
                        -----------------------------------------
Magnitude (a.u.)       :      0.36718
Magnitude (Debye)      :      0.93329

Rotational constants in cm-1:     0.062270     0.012600     0.012549
Rotational constants in MHz :  1866.813390   377.745503   376.202545

                             ****ORCA TERMINATED NORMALLY****
TOTAL RUN TIME: 0 days 0 hours 2 minutes 21 seconds 178 msec
