                         Program Version 5.0.3 -  RELEASE  -
|  1> ! PBEh-3c def2/J TightSCF DefGrid3
|  2>
|  3> %maxcore 60000
|  4>
|  5> %pal
|  6> nprocs 4
|  7> end
|  8>
|  9> *xyzfile 0 1 C4.xyz
| 10>
| 11>                          ****END OF INPUT****

CARTESIAN COORDINATES (ANGSTROEM)
---------------------------------
  C     -2.581161    0.327741    0.621089
  C     -1.366206    0.359877   -0.299559
  C     -0.049392    0.230598    0.467876
  C      1.209337    0.048151   -0.428362
  C      1.560542   -1.444230   -0.241450
  O      0.905810   -2.277871   -1.181652
  C      1.100012   -1.682017    1.196537
  O     -3.730325    0.383195   -0.239168
  O      2.311071    0.814760    0.049076
  O     -1.458797   -0.696863   -1.259336
  O     -0.106763   -0.912470    1.333889
  C      2.287843    2.176560   -0.346334
  H     -2.570130   -0.597665    1.206017
  H     -2.561129    1.190644    1.300672
  H     -1.355878    1.325299   -0.830921
  H      0.074798    1.136908    1.079045
  H      1.014618    0.276900   -1.483770
  H      2.634010   -1.599433   -0.368532
  H     -0.024243   -1.995834   -1.254601
  H      0.856344   -2.728687    1.392081
  H      1.855423   -1.331360    1.913972
  H     -4.516394    0.118215    0.253492
  H     -2.384445   -0.742369   -1.544695
  H      2.273570    2.270718   -1.442405
  H      1.421196    2.714932    0.065448
  H      3.200293    2.634298    0.041592

 Total Charge           Charge          ....    0
 Multiplicity           Mult            ....    1
 Number of Electrons    NEL             ....   96
 Basis Dimension        Dim             ....  208

ORBITAL ENERGIES
----------------

  NO   OCC          E(Eh)            E(eV)
   0   2.0000     -19.509437      -530.8788
   1   2.0000     -19.504526      -530.7451
   2   2.0000     -19.501189      -530.6543
   3   2.0000     -19.494417      -530.4701
   4   2.0000     -19.466354      -529.7064
   5   2.0000     -10.502779      -285.7951
   6   2.0000     -10.497375      -285.6481
   7   2.0000     -10.495141      -285.5873
   8   2.0000     -10.494159      -285.5606
   9   2.0000     -10.484953      -285.3101
  10   2.0000     -10.482537      -285.2443
  11   2.0000     -10.473456      -284.9972
  12   2.0000      -1.161089       -31.5948
  13   2.0000      -1.148700       -31.2577
  14   2.0000      -1.133029       -30.8313
  15   2.0000      -1.122247       -30.5379
  16   2.0000      -1.100966       -29.9588
  17   2.0000      -0.873648       -23.7732
  18   2.0000      -0.850852       -23.1529
  19   2.0000      -0.798540       -21.7294
  20   2.0000      -0.761026       -20.7086
  21   2.0000      -0.704139       -19.1606
  22   2.0000      -0.667746       -18.1703
  23   2.0000      -0.651864       -17.7381
  24   2.0000      -0.611521       -16.6403
  25   2.0000      -0.593498       -16.1499
  26   2.0000      -0.565457       -15.3869
  27   2.0000      -0.558822       -15.2063
  28   2.0000      -0.545210       -14.8359
  29   2.0000      -0.538910       -14.6645
  30   2.0000      -0.520103       -14.1527
  31   2.0000      -0.504666       -13.7327
  32   2.0000      -0.493145       -13.4192
  33   2.0000      -0.481298       -13.0968
  34   2.0000      -0.473264       -12.8782
  35   2.0000      -0.458363       -12.4727
  36   2.0000      -0.444160       -12.0862
  37   2.0000      -0.427724       -11.6390
  38   2.0000      -0.420971       -11.4552
  39   2.0000      -0.403254       -10.9731
  40   2.0000      -0.399748       -10.8777
  41   2.0000      -0.375041       -10.2054
  42   2.0000      -0.363719        -9.8973
  43   2.0000      -0.349733        -9.5167
  44   2.0000      -0.342757        -9.3269
  45   2.0000      -0.330012        -8.9801
  46   2.0000      -0.311241        -8.4693
  47   2.0000      -0.292656        -7.9636
  48   0.0000       0.099933         2.7193
  49   0.0000       0.124438         3.3861
  50   0.0000       0.127241         3.4624
  51   0.0000       0.150378         4.0920
  52   0.0000       0.158907         4.3241

MULLIKEN ATOMIC CHARGES
-----------------------
   0 C :   -0.177781
   1 C :    0.029137
   2 C :    0.017706
   3 C :   -0.031674
   4 C :    0.001507
   5 O :   -0.652120
   6 C :   -0.169466
   7 O :   -0.653155
   8 O :   -0.477729
   9 O :   -0.671608
  10 O :   -0.495757
  11 C :   -0.373110
  12 H :    0.228638
  13 H :    0.189691
  14 H :    0.201735
  15 H :    0.215348
  16 H :    0.234748
  17 H :    0.240102
  18 H :    0.438611
  19 H :    0.229321
  20 H :    0.200196
  21 H :    0.428714
  22 H :    0.442943
  23 H :    0.193939
  24 H :    0.182140
  25 H :    0.227925
Sum of atomic charges:   -0.0000000

LOEWDIN ATOMIC CHARGES
----------------------
   0 C :   -0.104284
   1 C :   -0.034010
   2 C :   -0.022645
   3 C :   -0.027655
   4 C :   -0.032142
   5 O :   -0.404581
   6 C :   -0.089228
   7 O :   -0.424909
   8 O :   -0.255070
   9 O :   -0.401706
  10 O :   -0.266418
  11 C :   -0.184708
  12 H :    0.123940
  13 H :    0.109994
  14 H :    0.112645
  15 H :    0.122121
  16 H :    0.125103
  17 H :    0.132801
  18 H :    0.308539
  19 H :    0.129786
  20 H :    0.112606
  21 H :    0.316604
  22 H :    0.322475
  23 H :    0.105608
  24 H :    0.097772
  25 H :    0.127362

  Mayer bond orders larger than 0.100000
B(  0-C ,  1-C ) :   0.9711 B(  0-C ,  7-O ) :   0.9927 B(  0-C , 12-H ) :   0.8883
B(  0-C , 13-H ) :   0.8982 B(  1-C ,  2-C ) :   0.9072 B(  1-C ,  9-O ) :   0.9587
B(  1-C , 14-H ) :   0.8944 B(  2-C ,  3-C ) :   0.9162 B(  2-C , 10-O ) :   0.9612
B(  2-C , 15-H ) :   0.8979 B(  3-C ,  4-C ) :   0.9420 B(  3-C ,  8-O ) :   0.9214
B(  3-C , 16-H ) :   0.8912 B(  4-C ,  5-O ) :   1.0477 B(  4-C ,  6-C ) :   0.9317
B(  4-C , 17-H ) :   0.9024 B(  5-O , 18-H ) :   0.7169 B(  6-C , 10-O ) :   0.9514
B(  6-C , 19-H ) :   0.9149 B(  6-C , 20-H ) :   0.8964 B(  7-O , 21-H ) :   0.7841
B(  8-O , 11-C ) :   0.9750 B(  9-O , 22-H ) :   0.7474 B( 11-C , 23-H ) :   0.9121
B( 11-C , 24-H ) :   0.9091 B( 11-C , 25-H ) :   0.9284

Dispersion correction           -0.014448877
FINAL SINGLE POINT ENERGY      -649.849957228459

DIPOLE MOMENT
-------------
                                X             Y             Z
Electronic contribution:     -1.43854      -4.43659      -0.51387
Nuclear contribution   :      0.44010       5.44240       0.93848
                        -----------------------------------------
Total Dipole Moment    :     -0.99844       1.00580       0.42462
                        -----------------------------------------
Magnitude (a.u.)       :      1.47947
Magnitude (Debye)      :      3.76051

Rotational constants in cm-1:     0.042774     0.021643     0.018291
Rotational constants in MHz :  1282.329377   648.829582   548.337528

                             ****ORCA TERMINATED NORMALLY****
TOTAL RUN TIME: 0 days 0 hours 2 minutes 51 seconds 146 msec
