                         Program Version 5.0.3 -  RELEASE  -
|  1> ! PBEh-3c def2/J TightSCF DefGrid3
|  2>
|  3> %maxcore 60000
|  4>
|  5> %pal
|  6> nprocs 4
|  7> end
|  8>
|  9> *xyzfile 0 1 B55.xyz
| 10>
| 11>                          ****END OF INPUT****

CARTESIAN COORDINATES (ANGSTROEM)
---------------------------------
  C      1.540198   -0.420687   -0.297495
  H      1.471011   -0.424897   -1.391239
  O      2.899686   -0.393550    0.126875
  C      0.729653    0.741445    0.264524
  H      0.768018    0.702728    1.355444
  H      1.215348    1.674877   -0.034139
  C     -0.722131    0.766119   -0.218406
  H     -0.757597    0.789111   -1.309890
  H     -1.210123    1.676191    0.133280
  H      3.277850    0.435604   -0.178394
  H      1.152179   -1.373246    0.058808
  C     -1.541490   -0.415206    0.271902
  H     -1.160541   -1.350746   -0.147349
  H     -1.472257   -0.481864    1.363296
  O     -2.888947   -0.196455   -0.140057
  H     -3.407182   -0.957747    0.132494

 Total Charge           Charge          ....    0
 Multiplicity           Mult            ....    1
 Number of Electrons    NEL             ....   50
 Basis Dimension        Dim             ....  110

ORBITAL ENERGIES
----------------

  NO   OCC          E(Eh)            E(eV)
   0   2.0000     -19.485262      -530.2209
   1   2.0000     -19.484398      -530.1974
   2   2.0000     -10.482823      -285.2521
   3   2.0000     -10.480740      -285.1954
   4   2.0000     -10.437336      -284.0143
   5   2.0000     -10.434585      -283.9395
   6   2.0000      -1.121979       -30.5306
   7   2.0000      -1.121045       -30.5052
   8   2.0000      -0.887750       -24.1569
   9   2.0000      -0.792160       -21.5558
  10   2.0000      -0.716497       -19.4969
  11   2.0000      -0.653600       -17.7854
  12   2.0000      -0.576865       -15.6973
  13   2.0000      -0.573719       -15.6117
  14   2.0000      -0.528381       -14.3780
  15   2.0000      -0.517645       -14.0858
  16   2.0000      -0.477738       -12.9999
  17   2.0000      -0.458765       -12.4836
  18   2.0000      -0.445107       -12.1120
  19   2.0000      -0.416592       -11.3360
  20   2.0000      -0.396488       -10.7890
  21   2.0000      -0.383469       -10.4347
  22   2.0000      -0.367251        -9.9934
  23   2.0000      -0.326308        -8.8793
  24   2.0000      -0.323449        -8.8015
  25   0.0000       0.120210         3.2711
  26   0.0000       0.135224         3.6796
  27   0.0000       0.137714         3.7474
  28   0.0000       0.172587         4.6963
  29   0.0000       0.189618         5.1598

MULLIKEN ATOMIC CHARGES
-----------------------
   0 C :   -0.132805
   1 H :    0.177735
   2 O :   -0.622598
   3 C :   -0.477748
   4 H :    0.223853
   5 H :    0.207321
   6 C :   -0.455373
   7 H :    0.220468
   8 H :    0.237916
   9 H :    0.407693
  10 H :    0.205672
  11 C :   -0.133939
  12 H :    0.177673
  13 H :    0.177721
  14 O :   -0.629203
  15 H :    0.415613
Sum of atomic charges:    0.0000000

LOEWDIN ATOMIC CHARGES
----------------------
   0 C :   -0.097135
   1 H :    0.097044
   2 O :   -0.410074
   3 C :   -0.267243
   4 H :    0.128547
   5 H :    0.121116
   6 C :   -0.252915
   7 H :    0.128337
   8 H :    0.135881
   9 H :    0.305265
  10 H :    0.116703
  11 C :   -0.091238
  12 H :    0.096440
  13 H :    0.097147
  14 O :   -0.416265
  15 H :    0.308393

  Mayer bond orders larger than 0.100000
B(  0-C ,  1-H ) :   0.9086 B(  0-C ,  2-O ) :   1.0183 B(  0-C ,  3-C ) :   0.9752
B(  0-C , 10-H ) :   0.9132 B(  2-O ,  9-H ) :   0.7950 B(  3-C ,  4-H ) :   0.9106
B(  3-C ,  5-H ) :   0.9243 B(  3-C ,  6-C ) :   0.9592 B(  6-C ,  7-H ) :   0.9122
B(  6-C ,  8-H ) :   0.9115 B(  6-C , 11-C ) :   0.9858 B( 11-C , 12-H ) :   0.9054
B( 11-C , 13-H ) :   0.9041 B( 11-C , 14-O ) :   1.0192 B( 14-O , 15-H ) :   0.7936

Dispersion correction           -0.006529512
FINAL SINGLE POINT ENERGY      -308.205207326701

DIPOLE MOMENT
-------------
                                X             Y             Z
Electronic contribution:     -0.02622      -0.69096       0.00761
Nuclear contribution   :     -0.12829       0.70927      -0.01865
                        -----------------------------------------
Total Dipole Moment    :     -0.15451       0.01832      -0.01104
                        -----------------------------------------
Magnitude (a.u.)       :      0.15598
Magnitude (Debye)      :      0.39647

Rotational constants in cm-1:     0.380164     0.044018     0.041676
Rotational constants in MHz : 11397.021572  1319.621702  1249.408547

                             ****ORCA TERMINATED NORMALLY****
TOTAL RUN TIME: 0 days 0 hours 1 minutes 32 seconds 498 msec
