                         Program Version 5.0.3 -  RELEASE  -
|  1> ! PBEh-3c def2/J TightSCF DefGrid3
|  2>
|  3> %maxcore 60000
|  4>
|  5> %pal
|  6> nprocs 4
|  7> end
|  8>
|  9> *xyzfile 1 1 230A.xyz
| 10>
| 11>                          ****END OF INPUT****

CARTESIAN COORDINATES (ANGSTROEM)
---------------------------------
  C      0.630040    1.182510    2.074030
  C     -0.015980   -0.089480    1.523460
  N     -0.016560   -0.107660    0.007750
  H      0.941850   -0.108110   -0.372230
  H     -0.499550   -0.944680   -0.351290
  H     -0.496210    0.722190   -0.372700
  H     -1.061160   -0.177760    1.846390
  H      0.519950   -0.991720    1.836950
  H      0.625880    1.126610    3.169830
  H      1.657550    1.288500    1.713300
  H      0.052690    2.069610    1.780010

 Total Charge           Charge          ....    1
 Multiplicity           Mult            ....    1
 Number of Electrons    NEL             ....   26
 Basis Dimension        Dim             ....   61

ORBITAL ENERGIES
----------------

  NO   OCC          E(Eh)            E(eV)
   0   2.0000     -14.973477      -407.4490
   1   2.0000     -10.700046      -291.1631
   2   2.0000     -10.619405      -288.9687
   3   2.0000      -1.311680       -35.6926
   4   2.0000      -1.050342       -28.5813
   5   2.0000      -0.917043       -24.9540
   6   2.0000      -0.861940       -23.4546
   7   2.0000      -0.850996       -23.1568
   8   2.0000      -0.755307       -20.5529
   9   2.0000      -0.699659       -19.0387
  10   2.0000      -0.635053       -17.2807
  11   2.0000      -0.621442       -16.9103
  12   2.0000      -0.601520       -16.3682
  13   0.0000      -0.126594        -3.4448
  14   0.0000      -0.062560        -1.7023
  15   0.0000      -0.059831        -1.6281
  16   0.0000      -0.037203        -1.0123
  17   0.0000      -0.001916        -0.0521

MULLIKEN ATOMIC CHARGES
-----------------------
   0 C :   -0.655946
   1 C :   -0.357860
   2 N :   -0.784920
   3 H :    0.455876
   4 H :    0.462188
   5 H :    0.455207
   6 H :    0.308025
   7 H :    0.307202
   8 H :    0.303170
   9 H :    0.253231
  10 H :    0.253826
Sum of atomic charges:    1.0000000

LOEWDIN ATOMIC CHARGES
----------------------
   0 C :   -0.367910
   1 C :   -0.151602
   2 N :   -0.218613
   3 H :    0.310153
   4 H :    0.312706
   5 H :    0.309731
   6 H :    0.164529
   7 H :    0.163370
   8 H :    0.179042
   9 H :    0.148894
  10 H :    0.149700

  Mayer bond orders larger than 0.100000
B(  0-C ,  1-C ) :   0.9797 B(  0-C ,  8-H ) :   0.8906 B(  0-C ,  9-H ) :   0.9067
B(  0-C , 10-H ) :   0.9057 B(  1-C ,  2-N ) :   0.8119 B(  1-C ,  6-H ) :   0.8791
B(  1-C ,  7-H ) :   0.8787 B(  2-N ,  3-H ) :   0.7713 B(  2-N ,  4-H ) :   0.7705
B(  2-N ,  5-H ) :   0.7711

Dispersion correction           -0.003508513
FINAL SINGLE POINT ENERGY      -135.238874117483

DIPOLE MOMENT
-------------
                                X             Y             Z
Electronic contribution:     -0.48301      -1.00530      -1.54113
Nuclear contribution   :      0.18326       0.41573       0.10029
                        -----------------------------------------
Total Dipole Moment    :     -0.29975      -0.58958      -1.44084
                        -----------------------------------------
Magnitude (a.u.)       :      1.58540
Magnitude (Debye)      :      4.02976

Rotational constants in cm-1:     0.987685     0.273513     0.242480
Rotational constants in MHz : 29610.044449  8199.702133  7269.352645

                             ****ORCA TERMINATED NORMALLY****
TOTAL RUN TIME: 0 days 0 hours 0 minutes 51 seconds 440 msec
