                         Program Version 5.0.3 -  RELEASE  -
|  1> ! PBEh-3c def2/J TightSCF DefGrid3
|  2>
|  3> %maxcore 60000
|  4>
|  5> %pal
|  6> nprocs 4
|  7> end
|  8>
|  9> *xyzfile 0 1 7.xyz
| 10>
| 11>                          ****END OF INPUT****

CARTESIAN COORDINATES (ANGSTROEM)
---------------------------------
  P      0.099364    1.514768    0.000000
  H      1.063616    1.412098    1.034457
  H      1.063616    1.412098   -1.034457
  O     -0.099364    3.167111    0.000000
  H     -1.031127    3.383294    0.000000
  P     -0.099364   -1.514768    0.000000
  H     -1.063616   -1.412098    1.034457
  H     -1.063616   -1.412098   -1.034457
  O      0.099364   -3.167111    0.000000
  H      1.031127   -3.383294    0.000000

 Total Charge           Charge          ....    0
 Multiplicity           Mult            ....    1
 Number of Electrons    NEL             ....   52
 Basis Dimension        Dim             ....   78

ORBITAL ENERGIES
----------------

  NO   OCC          E(Eh)            E(eV)
   0   2.0000     -77.769394     -2116.2128
   1   2.0000     -77.769334     -2116.2112
   2   2.0000     -19.502554      -530.6915
   3   2.0000     -19.502545      -530.6912
   4   2.0000      -6.839790      -186.1201
   5   2.0000      -6.839768      -186.1196
   6   2.0000      -4.931347      -134.1888
   7   2.0000      -4.931345      -134.1887
   8   2.0000      -4.929815      -134.1471
   9   2.0000      -4.929805      -134.1468
  10   2.0000      -4.928605      -134.1142
  11   2.0000      -4.928591      -134.1138
  12   2.0000      -1.125336       -30.6219
  13   2.0000      -1.125220       -30.6188
  14   2.0000      -0.720415       -19.6035
  15   2.0000      -0.704778       -19.1780
  16   2.0000      -0.553801       -15.0697
  17   2.0000      -0.534183       -14.5359
  18   2.0000      -0.474209       -12.9039
  19   2.0000      -0.468056       -12.7365
  20   2.0000      -0.466355       -12.6902
  21   2.0000      -0.465927       -12.6785
  22   2.0000      -0.362783        -9.8718
  23   2.0000      -0.356290        -9.6951
  24   2.0000      -0.318150        -8.6573
  25   2.0000      -0.280144        -7.6231
  26   0.0000       0.016686         0.4541
  27   0.0000       0.081698         2.2231
  28   0.0000       0.089140         2.4256
  29   0.0000       0.096699         2.6313
  30   0.0000       0.145824         3.9681

MULLIKEN ATOMIC CHARGES
-----------------------
   0 P :    0.167038
   1 H :    0.065316
   2 H :    0.065316
   3 O :   -0.736559
   4 H :    0.438891
   5 P :    0.167038
   6 H :    0.065316
   7 H :    0.065316
   8 O :   -0.736559
   9 H :    0.438891
Sum of atomic charges:   -0.0000000

LOEWDIN ATOMIC CHARGES
----------------------
   0 P :    0.188676
   1 H :    0.014730
   2 H :    0.014730
   3 O :   -0.533227
   4 H :    0.315092
   5 P :    0.188676
   6 H :    0.014730
   7 H :    0.014730
   8 O :   -0.533227
   9 H :    0.315092

  Mayer bond orders larger than 0.100000
B(  0-P ,  1-H ) :   0.9391 B(  0-P ,  2-H ) :   0.9391 B(  0-P ,  3-O ) :   0.9814
B(  0-P ,  5-P ) :   0.1279 B(  3-O ,  4-H ) :   0.7743 B(  5-P ,  6-H ) :   0.9391
B(  5-P ,  7-H ) :   0.9391 B(  5-P ,  8-O ) :   0.9814 B(  8-O ,  9-H ) :   0.7743

Dispersion correction           -0.003502580
FINAL SINGLE POINT ENERGY      -835.617525850773

DIPOLE MOMENT
-------------
                                X             Y             Z
Electronic contribution:     -0.00000       0.00000      -0.00000
Nuclear contribution   :      0.00000       0.00000       0.00000
                        -----------------------------------------
Total Dipole Moment    :     -0.00000       0.00000      -0.00000
                        -----------------------------------------
Magnitude (a.u.)       :      0.00000
Magnitude (Debye)      :      0.00000

Rotational constants in cm-1:     1.411760     0.033814     0.033591
Rotational constants in MHz : 42323.504849  1013.724948  1007.035631

                             ****ORCA TERMINATED NORMALLY****
TOTAL RUN TIME: 0 days 0 hours 1 minutes 7 seconds 875 msec
