                         Program Version 5.0.3 -  RELEASE  -
|  1> ! PBEh-3c def2/J TightSCF DefGrid3
|  2>
|  3> %maxcore 60000
|  4>
|  5> %pal
|  6> nprocs 4
|  7> end
|  8>
|  9> *xyzfile 1 2 nh32+_1.0.xyz
| 10>
| 11>                          ****END OF INPUT****

CARTESIAN COORDINATES (ANGSTROEM)
---------------------------------
  N      0.000000    0.000000   -1.083255
  N      0.000000    0.000000    1.083255
  H      0.842973    0.486691   -1.358929
  H      0.000000   -0.973381   -1.358929
  H     -0.842973    0.486691   -1.358929
  H      0.842973   -0.486691    1.358929
  H      0.000000    0.973381    1.358929
  H     -0.842973   -0.486691    1.358929

 Total Charge           Charge          ....    1
 Multiplicity           Mult            ....    2
 Number of Electrons    NEL             ....   19
 Basis Dimension        Dim             ....   42

ORBITAL ENERGIES
----------------
                 SPIN UP ORBITALS
  NO   OCC          E(Eh)            E(eV)
   0   1.0000     -14.908397      -405.6781
   1   1.0000     -14.908311      -405.6758
   2   1.0000      -1.240960       -33.7682
   3   1.0000      -1.207271       -32.8515
   4   1.0000      -0.810871       -22.0649
   5   1.0000      -0.810870       -22.0649
   6   1.0000      -0.788919       -21.4676
   7   1.0000      -0.788919       -21.4676
   8   1.0000      -0.697831       -18.9889
   9   1.0000      -0.532401       -14.4874
  10   0.0000      -0.100018        -2.7216
  11   0.0000      -0.049080        -1.3355
  12   0.0000      -0.002034        -0.0554
  13   0.0000      -0.002034        -0.0553
  14   0.0000       0.000780         0.0212

                 SPIN DOWN ORBITALS
  NO   OCC          E(Eh)            E(eV)
   0   1.0000     -14.891935      -405.2301
   1   1.0000     -14.891896      -405.2291
   2   1.0000      -1.205364       -32.7996
   3   1.0000      -1.170988       -31.8642
   4   1.0000      -0.798886       -21.7388
   5   1.0000      -0.798886       -21.7388
   6   1.0000      -0.776565       -21.1314
   7   1.0000      -0.776564       -21.1314
   8   1.0000      -0.588479       -16.0133
   9   0.0000      -0.280323        -7.6280
  10   0.0000      -0.093324        -2.5395
  11   0.0000      -0.040616        -1.1052
  12   0.0000       0.004872         0.1326
  13   0.0000       0.004872         0.1326

MULLIKEN ATOMIC CHARGES AND SPIN POPULATIONS
--------------------------------------------
   0 N :   -0.766690    0.556045
   1 N :   -0.766690    0.556045
   2 H :    0.422229   -0.018682
   3 H :    0.422232   -0.018681
   4 H :    0.422229   -0.018682
   5 H :    0.422229   -0.018682
   6 H :    0.422232   -0.018681
   7 H :    0.422229   -0.018682
Sum of atomic charges         :    1.0000000

LOEWDIN ATOMIC CHARGES AND SPIN POPULATIONS
-------------------------------------------
   0 N :   -0.342990    0.539705
   1 N :   -0.342990    0.539705
   2 H :    0.280996   -0.013235
   3 H :    0.280997   -0.013235
   4 H :    0.280996   -0.013235
   5 H :    0.280996   -0.013235
   6 H :    0.280997   -0.013235
   7 H :    0.280996   -0.013235

  Mayer bond orders larger than 0.100000
B(  0-N ,  1-N ) :   0.4481 B(  0-N ,  2-H ) :   0.8040 B(  0-N ,  3-H ) :   0.8040
B(  0-N ,  4-H ) :   0.8040 B(  1-N ,  5-H ) :   0.8040 B(  1-N ,  6-H ) :   0.8040
B(  1-N ,  7-H ) :   0.8040

Dispersion correction           -0.001807409
FINAL SINGLE POINT ENERGY      -112.564944447727

DIPOLE MOMENT
-------------
                                X             Y             Z
Electronic contribution:     -0.00000       0.00000       0.00000
Nuclear contribution   :      0.00000       0.00000       0.00000
                        -----------------------------------------
Total Dipole Moment    :     -0.00000       0.00000       0.00000
                        -----------------------------------------
Magnitude (a.u.)       :      0.00000
Magnitude (Debye)      :      0.00000

Rotational constants in cm-1:     2.941840     0.359387     0.359387
Rotational constants in MHz : 88194.149217 10774.137498 10774.137439

                             ****ORCA TERMINATED NORMALLY****
TOTAL RUN TIME: 0 days 0 hours 1 minutes 10 seconds 965 msec
