                         Program Version 5.0.3 -  RELEASE  -
|  1> ! PBEh-3c def2/J TightSCF DefGrid3
|  2>
|  3> %maxcore 60000
|  4>
|  5> %pal
|  6> nprocs 4
|  7> end
|  8>
|  9> *xyzfile 0 1 h15.xyz
| 10>
| 11>                          ****END OF INPUT****

CARTESIAN COORDINATES (ANGSTROEM)
---------------------------------
  C      1.145376   -0.852496   -1.337144
  C      0.000000    0.000000   -0.782473
  C      0.000000    0.000000    0.782473
  C      1.145376    0.852496    1.337144
  C      0.165595    1.418172   -1.337144
  C     -1.310971   -0.565677   -1.337144
  C      0.165595   -1.418172    1.337144
  C     -1.310971    0.565677    1.337144
  H      2.110121   -0.561401   -0.921942
  H      0.992865   -1.912332   -1.137946
  H      1.201096   -0.724945   -2.419328
  H      2.110121    0.561401    0.921942
  H      0.992865    1.912332    1.137946
  H      1.201096    0.724945    2.419328
  H      1.159695    1.816012   -1.137946
  H      0.027273    1.402652   -2.419328
  H     -0.568873    2.108119   -0.921942
  H     -1.541248   -1.546718   -0.921942
  H     -2.152560    0.096319   -1.137946
  H     -1.228369   -0.677707   -2.419328
  H      1.159695   -1.816012    1.137946
  H      0.027273   -1.402652    2.419328
  H     -0.568873   -2.108119    0.921942
  H     -1.541248    1.546718    0.921942
  H     -2.152560   -0.096319    1.137946
  H     -1.228369    0.677707    2.419328

 Total Charge           Charge          ....    0
 Multiplicity           Mult            ....    1
 Number of Electrons    NEL             ....   66
 Basis Dimension        Dim             ....  156

ORBITAL ENERGIES
----------------

  NO   OCC          E(Eh)            E(eV)
   0   2.0000     -10.446473      -284.2630
   1   2.0000     -10.446285      -284.2579
   2   2.0000     -10.416419      -283.4452
   3   2.0000     -10.416416      -283.4451
   4   2.0000     -10.416385      -283.4443
   5   2.0000     -10.416383      -283.4442
   6   2.0000     -10.416351      -283.4433
   7   2.0000     -10.416289      -283.4416
   8   2.0000      -0.933824       -25.4107
   9   2.0000      -0.856898       -23.3174
  10   2.0000      -0.774686       -21.0803
  11   2.0000      -0.774685       -21.0802
  12   2.0000      -0.745039       -20.2735
  13   2.0000      -0.745038       -20.2735
  14   2.0000      -0.660154       -17.9637
  15   2.0000      -0.564992       -15.3742
  16   2.0000      -0.538752       -14.6602
  17   2.0000      -0.501984       -13.6597
  18   2.0000      -0.501979       -13.6595
  19   2.0000      -0.486535       -13.2393
  20   2.0000      -0.486532       -13.2392
  21   2.0000      -0.450395       -12.2559
  22   2.0000      -0.433991       -11.8095
  23   2.0000      -0.433991       -11.8095
  24   2.0000      -0.422073       -11.4852
  25   2.0000      -0.412000       -11.2111
  26   2.0000      -0.411998       -11.2110
  27   2.0000      -0.400151       -10.8887
  28   2.0000      -0.390430       -10.6241
  29   2.0000      -0.390429       -10.6241
  30   2.0000      -0.347189        -9.4475
  31   2.0000      -0.347188        -9.4475
  32   2.0000      -0.341899        -9.3035
  33   0.0000       0.111670         3.0387
  34   0.0000       0.168911         4.5963
  35   0.0000       0.171380         4.6635
  36   0.0000       0.171382         4.6635
  37   0.0000       0.178592         4.8597

MULLIKEN ATOMIC CHARGES
-----------------------
   0 C :   -0.634330
   1 C :   -0.049669
   2 C :   -0.049669
   3 C :   -0.634330
   4 C :   -0.634276
   5 C :   -0.634329
   6 C :   -0.634277
   7 C :   -0.634329
   8 H :    0.213548
   9 H :    0.221200
  10 H :    0.216120
  11 H :    0.213548
  12 H :    0.221200
  13 H :    0.216120
  14 H :    0.221176
  15 H :    0.216123
  16 H :    0.213554
  17 H :    0.213542
  18 H :    0.221206
  19 H :    0.216133
  20 H :    0.221176
  21 H :    0.216124
  22 H :    0.213554
  23 H :    0.213542
  24 H :    0.221206
  25 H :    0.216133
Sum of atomic charges:    0.0000000

LOEWDIN ATOMIC CHARGES
----------------------
   0 C :   -0.343222
   1 C :   -0.092919
   2 C :   -0.092919
   3 C :   -0.343222
   4 C :   -0.343209
   5 C :   -0.343223
   6 C :   -0.343210
   7 C :   -0.343223
   8 H :    0.122389
   9 H :    0.126153
  10 H :    0.125650
  11 H :    0.122389
  12 H :    0.126153
  13 H :    0.125650
  14 H :    0.126146
  15 H :    0.125650
  16 H :    0.122390
  17 H :    0.122386
  18 H :    0.126155
  19 H :    0.125654
  20 H :    0.126146
  21 H :    0.125650
  22 H :    0.122390
  23 H :    0.122386
  24 H :    0.126155
  25 H :    0.125654

  Mayer bond orders larger than 0.100000
B(  0-C ,  1-C ) :   0.9822 B(  0-C ,  8-H ) :   0.9245 B(  0-C ,  9-H ) :   0.9249
B(  0-C , 10-H ) :   0.9261 B(  1-C ,  2-C ) :   0.9295 B(  1-C ,  4-C ) :   0.9822
B(  1-C ,  5-C ) :   0.9822 B(  2-C ,  3-C ) :   0.9822 B(  2-C ,  6-C ) :   0.9822
B(  2-C ,  7-C ) :   0.9822 B(  3-C , 11-H ) :   0.9245 B(  3-C , 12-H ) :   0.9249
B(  3-C , 13-H ) :   0.9261 B(  4-C , 14-H ) :   0.9249 B(  4-C , 15-H ) :   0.9261
B(  4-C , 16-H ) :   0.9245 B(  5-C , 17-H ) :   0.9245 B(  5-C , 18-H ) :   0.9249
B(  5-C , 19-H ) :   0.9261 B(  6-C , 20-H ) :   0.9249 B(  6-C , 21-H ) :   0.9261
B(  6-C , 22-H ) :   0.9245 B(  7-C , 23-H ) :   0.9245 B(  7-C , 24-H ) :   0.9249
B(  7-C , 25-H ) :   0.9261

Dispersion correction           -0.015537770
FINAL SINGLE POINT ENERGY      -315.021243298493

DIPOLE MOMENT
-------------
                                X             Y             Z
Electronic contribution:     -0.00004       0.00000       0.00000
Nuclear contribution   :      0.00000      -0.00000      -0.00000
                        -----------------------------------------
Total Dipole Moment    :     -0.00004       0.00000       0.00000
                        -----------------------------------------
Magnitude (a.u.)       :      0.00004
Magnitude (Debye)      :      0.00009

Rotational constants in cm-1:     0.078141     0.056230     0.056230
Rotational constants in MHz :  2342.594869  1685.732644  1685.732642

                             ****ORCA TERMINATED NORMALLY****
TOTAL RUN TIME: 0 days 0 hours 1 minutes 59 seconds 81 msec
